/*--------------------------------*- C++ -*----------------------------------*\
| =========                 |                                                 |
| \\      /  F ield         | OpenFOAM: The Open Source CFD Toolbox           |
|  \\    /   O peration     | Version:  5.x                                   |
|   \\  /    A nd           | Web:      www.OpenFOAM.org                      |
|    \\/     M anipulation  |                                                 |
\*---------------------------------------------------------------------------*/
FoamFile
{
    version     2.0;
    format      ascii;
    class       volScalarField;
    location    "0.6";
    object      gradTy;
}
// * * * * * * * * * * * * * * * * * * * * * * * * * * * * * * * * * * * * * //

dimensions      [0 -1 0 1 0 0 0];

internalField   nonuniform List<scalar> 
3200
(
162.748
-111.44
-69.3114
-52.1117
-30.1421
-36.118
-17.8681
-27.4468
-13.6877
-23.0955
-12.2484
-19.9212
-14.7661
-22.4558
-9.63307
-23.4406
4.1141
-11.7448
2.08988
-9.55303
1.51854
-7.48676
1.2703
-5.01653
-0.877264
-5.88838
1.25845
-5.3676
6.60597
0.169625
6.02254
1.81225
5.83319
3.07068
4.72818
2.47183
6.12833
4.14868
5.72749
4.68098
5.53411
5.03887
5.46341
5.3117
5.4582
5.51115
5.49531
5.63916
5.66474
5.98899
5.36702
5.80333
5.43046
5.75858
5.62394
5.99776
5.35336
5.72036
5.53488
5.7919
5.47789
5.67829
5.38635
5.29234
5.53149
4.84239
5.67898
4.06791
5.70932
2.74211
5.2502
0.518516
3.53126
-2.86565
1.17212
-5.87603
-14.934
-18.7104
-19.8257
-20.0987
126.441
-81.7152
-63.4188
-49.6824
-31.6425
-33.7778
-20.0598
-25.4373
-15.6984
-21.4222
-13.9853
-18.9046
-15.776
-20.5294
-11.3087
-19.4256
0.187288
-9.49912
-0.318486
-7.74839
-0.386403
-6.10314
-0.21761
-4.26059
-1.68039
-4.81739
0.255447
-3.65645
4.89028
1.0348
5.07099
2.4459
5.14388
3.3707
4.40981
3.00344
5.58724
4.3845
5.45567
4.80335
5.3908
5.09122
5.39828
5.31951
5.44305
5.49461
5.509
5.62187
5.67557
5.89006
5.4622
5.7388
5.50006
5.72174
5.6597
5.90047
5.45168
5.6841
5.57631
5.74366
5.5292
5.64744
5.42978
5.35539
5.49305
5.02897
5.53008
4.43911
5.39311
3.35172
4.7118
1.37249
2.74434
-1.79795
0.130773
-5.79546
-15.145
-18.8165
-19.859
-20.1092
98.459
-61.0488
-57.3439
-47.4245
-32.3346
-32.0698
-21.4854
-24.0298
-17.0878
-20.2723
-15.225
-18.2071
-16.4677
-19.159
-12.2878
-16.5167
-2.56457
-8.00526
-2.05967
-6.53285
-1.76581
-5.18141
-1.30634
-3.76769
-2.25306
-4.07311
-0.386578
-2.44213
3.6721
1.58562
4.38711
2.86774
4.63445
3.55918
4.19012
3.37624
5.19833
4.53004
5.25339
4.87668
5.28348
5.11977
5.34901
5.31966
5.43116
5.47995
5.51912
5.60731
5.68032
5.81718
5.52956
5.69524
5.5516
5.6966
5.6837
5.83114
5.52312
5.66183
5.60712
5.71107
5.56758
5.63042
5.46788
5.41035
5.47907
5.17733
5.44524
4.72889
5.19707
3.82559
4.36165
2.03824
2.19416
-0.988949
-0.596232
-5.57777
-15.5829
-19.0275
-19.9237
-20.1295
76.8572
-46.9113
-51.5175
-45.3728
-32.4323
-30.7729
-22.3837
-22.9995
-18.0698
-19.4493
-16.141
-17.696
-16.9797
-18.1686
-12.8204
-14.3324
-4.53817
-6.96439
-3.38177
-5.68473
-2.8159
-4.54944
-2.13989
-3.43222
-2.69083
-3.54767
-0.797569
-1.55333
2.78315
1.94204
3.87709
3.15908
4.23957
3.6802
4.02895
3.64428
4.90966
4.62046
5.09562
4.91913
5.19941
5.133
5.31047
5.31452
5.42213
5.46599
5.52759
5.59367
5.68284
5.7616
5.57909
5.66435
5.5919
5.67809
5.70161
5.78033
5.57701
5.64761
5.63191
5.6887
5.59804
5.62274
5.50211
5.4606
5.48025
5.30324
5.4001
4.9716
5.07492
4.22343
4.12612
2.60501
1.77768
-0.322853
-1.10814
-5.15897
-16.283
-19.3401
-20.0157
-20.1577
60.2056
-37.5406
-46.121
-43.5923
-32.078
-29.744
-22.9205
-22.1894
-18.7978
-18.8121
-16.8608
-17.2741
-17.4138
-17.438
-13.0769
-12.5988
-6.02126
-6.16224
-4.46691
-5.04207
-3.68057
-4.08197
-2.82424
-3.17705
-3.06369
-3.16558
-1.06744
-0.867384
2.10209
2.18815
3.47387
3.37911
3.91084
3.76542
3.8976
3.84675
4.68356
4.68068
4.96426
4.94362
5.12949
5.13674
5.27911
5.30547
5.41587
5.45155
5.5361
5.57932
5.68597
5.71666
5.61812
5.63998
5.62605
5.6623
5.71751
5.74102
5.62015
5.63705
5.65401
5.67246
5.62411
5.62111
5.5334
5.50863
5.48952
5.41842
5.37619
5.19324
4.99114
4.59128
3.94769
3.14414
1.41223
0.290714
-1.48933
-4.45713
-17.3056
-19.7479
-20.1287
-20.1915
47.4638
-31.7365
-41.1687
-42.171
-31.356
-28.8942
-23.2129
-21.4852
-19.3889
-18.2529
-17.4854
-16.8624
-17.852
-16.8822
-13.1775
-11.1084
-7.23499
-5.43295
-5.46068
-4.47636
-4.47425
-3.68044
-3.44376
-2.94015
-3.42758
-2.87115
-1.26107
-0.291909
1.53665
2.38653
3.1261
3.57429
3.6094
3.83972
3.77373
4.01386
4.4912
4.72957
4.84518
4.95996
5.06682
5.13516
5.25247
5.29314
5.41268
5.43522
5.54634
5.5625
5.69222
5.67697
5.6524
5.61711
5.65828
5.64582
5.73476
5.70756
5.65786
5.62658
5.67614
5.65896
5.64844
5.62294
5.56226
5.55652
5.50095
5.53252
5.35799
5.41573
4.91535
4.96894
3.7757
3.72045
1.0224
0.930649
-1.82298
-3.36001
-18.7443
-20.238
-20.2545
-20.2277
37.89
-28.7229
-36.5535
-41.2224
-30.3
-28.1734
-23.3476
-20.7961
-19.9421
-17.6795
-18.1048
-16.3868
-18.369
-16.4363
-13.213
-9.69072
-8.36637
-4.63097
-6.49541
-3.87181
-5.30002
-3.25701
-4.07432
-2.66394
-3.83354
-2.61916
-1.42932
0.248932
1.01012
2.58909
2.78978
3.78579
3.29998
3.92571
3.63747
4.17135
4.30826
4.78325
4.72602
4.97652
5.0056
5.13155
5.22883
5.27759
5.4133
5.41529
5.56032
5.54108
5.70421
5.63759
5.68706
5.59112
5.69259
5.62522
5.7566
5.67494
5.69477
5.61281
5.70087
5.64514
5.67332
5.62611
5.58885
5.60633
5.50883
5.6548
5.33043
5.66048
4.81734
5.39641
3.55814
4.40243
0.528273
1.67703
-2.20531
-1.70901
-20.7388
-20.7872
-20.382
-20.2629
30.9811
-28.0603
-32.0647
-40.8977
-28.8929
-27.5615
-23.3925
-20.0404
-20.553
-17
-18.8113
-15.7647
-19.0441
-16.0435
-13.2621
-8.18666
-9.59572
-3.6065
-7.7111
-3.10654
-6.26589
-2.72031
-4.79504
-2.28552
-4.33577
-2.36705
-1.61795
0.825672
0.450127
2.84609
2.421
4.05599
2.94555
4.04776
3.46787
4.3443
4.11143
4.85787
4.59424
5.00164
4.94023
5.12883
5.20689
5.25835
5.41906
5.38944
5.58067
5.51218
5.7252
5.59339
5.72735
5.55706
5.73348
5.59649
5.78678
5.63808
5.73557
5.59205
5.73117
5.62776
5.70101
5.62869
5.61305
5.66054
5.50677
5.7957
5.2765
5.95196
4.66225
5.92041
3.23314
5.27302
-0.166865
2.62459
-2.76286
0.72293
-23.4926
-21.3547
-20.4983
-20.2936
26.4343
-29.5987
-27.3828
-41.407
-27.0599
-27.0646
-23.4066
-19.1323
-21.3289
-16.1083
-19.7146
-14.8918
-19.9727
-15.6443
-13.4053
-6.42566
-11.1234
-2.18063
-9.2774
-2.0328
-7.50189
-1.9606
-5.7008
-1.72625
-5.00021
-2.06751
-1.87564
1.51396
-0.221875
3.21486
1.96884
4.43509
2.50178
4.23633
3.23932
4.56098
3.87483
4.97236
4.43513
5.04507
4.86446
5.13016
5.18567
5.2344
5.43211
5.35445
5.61111
5.47172
5.75969
5.53826
5.77952
5.50884
5.7866
5.55438
5.83021
5.59106
5.7857
5.55967
5.77085
5.60301
5.73421
5.62869
5.63441
5.72248
5.48669
5.9686
5.17448
6.32175
4.40497
6.60197
2.71881
6.44261
-1.1914
3.89918
-3.67546
4.26278
-27.3007
-21.8712
-20.5888
-20.3164
24.1296
-33.4665
-22.0513
-43.052
-24.6542
-26.7163
-23.4477
-17.968
-22.4042
-14.8664
-20.9578
-13.6257
-21.2805
-15.1644
-13.7411
-4.20052
-13.1997
-0.116032
-11.42
-0.453031
-9.18064
-0.831774
-6.91714
-0.878884
-5.91465
-1.65999
-2.2628
2.40578
-1.10217
3.76965
1.36699
4.98908
1.9103
4.53324
2.91717
4.8572
3.56617
5.15159
4.22954
5.11958
4.77033
5.13943
5.16428
5.20408
5.45579
5.3057
5.65703
5.4138
5.81421
5.46427
5.85181
5.43832
5.85978
5.49159
5.89389
5.52634
5.8523
5.50944
5.82533
5.56592
5.77649
5.62385
5.65209
5.79699
5.43751
6.19216
4.99442
6.81374
3.98279
7.52642
1.89994
8.0663
-2.72509
5.68023
-5.20873
9.3825
-32.5889
-22.2222
-20.6392
-20.3285
150.988
173.461
63.619
92.8663
57.4996
62.4401
60.1892
54.3223
58.5778
50.0845
56.0142
46.6345
57.8605
49.5698
45.1483
28.6387
52.6271
28.1967
50.0813
30.0574
45.3581
29.7741
41.4022
29.3149
39.4323
28.484
37.395
24.4211
32.5706
20.7831
22.2491
11.9981
23.1963
14.3477
17.4222
8.67713
17.2692
7.55374
13.8283
7.45814
8.08942
3.12963
7.56179
2.94943
5.48754
2.27732
3.48821
1.43341
1.32951
-0.255557
0.746118
-0.609099
-0.180433
-1.0082
-1.13597
-1.77802
-1.32705
-1.91297
-2.13914
-3.19943
-1.2643
-3.32089
-0.671572
-3.99751
0.702703
-4.83658
3.18462
-5.6229
7.38162
-5.73024
13.4573
-6.16326
29.2272
9.16408
30.2384
21.7081
20.1328
19.7769
19.6935
19.6762
150.086
160.548
76.2532
89.5641
61.7724
62.973
60.0914
55.5512
57.4587
51.4677
54.6721
48.4672
55.9903
50.0383
45.0157
33.3771
48.2137
32.0458
46.0642
32.8837
42.3618
31.9718
39.0716
31.0911
37.6169
30.3566
35.6095
26.5543
30.3956
21.7867
21.1894
14.0083
21.135
15.1801
16.5903
10.5296
15.4597
8.80411
12.4477
7.93655
7.5575
4.0188
6.66112
3.5069
4.87593
2.61399
3.10685
1.57541
1.1699
-0.0110135
0.493307
-0.475396
-0.334528
-0.960679
-1.1904
-1.67092
-1.43603
-1.87571
-2.15717
-2.86798
-1.55574
-2.85442
-1.08722
-3.18785
-0.0184844
-3.48921
1.96782
-3.50236
5.43295
-2.64582
10.6327
-1.10147
24.1826
12.173
26.7687
21.4308
20.0852
19.7674
19.6924
19.677
148.761
151.421
84.9803
87.9047
64.8856
63.6703
60.0617
56.5244
56.658
52.4856
53.709
49.7538
54.6621
50.4728
45.1514
37.0603
45.0445
34.6915
43.1389
34.8073
40.1637
33.4732
37.3474
32.2902
36.3561
31.7317
34.3992
28.1746
28.7214
22.4724
20.3956
15.4487
19.5993
15.7202
16.0594
11.9445
14.1156
9.64429
11.3949
8.25114
7.15329
4.66194
5.99341
3.88443
4.41042
2.84123
2.80713
1.67297
1.04184
0.166588
0.299827
-0.385718
-0.457635
-0.928753
-1.23457
-1.59224
-1.51786
-1.84465
-2.15791
-2.61736
-1.74269
-2.51056
-1.34814
-2.58901
-0.474115
-2.49902
1.188
-1.95817
4.16467
-0.415917
8.80838
2.4793
20.6296
14.1178
24.0969
20.9947
19.9978
19.7497
19.6905
19.6785
147.327
145.055
90.9306
87.2822
67.1268
64.4644
60.0308
57.3528
56.0318
53.2901
52.9555
50.6883
53.7005
50.9556
45.4011
40.1038
42.6123
36.5885
40.8881
36.1866
38.4505
34.5548
35.9832
33.1271
35.4454
32.8177
33.5471
29.5264
27.3214
22.9936
19.7188
16.5273
18.3868
16.0934
15.7085
13.1097
13.0388
10.2371
10.5392
8.48511
6.80593
5.15317
5.46423
4.15738
4.02945
3.00771
2.55198
1.75091
0.923982
0.304241
0.139442
-0.320286
-0.564516
-0.903219
-1.27648
-1.53069
-1.58351
-1.81401
-2.15271
-2.42004
-1.86388
-2.24388
-1.51294
-2.12443
-0.764197
-1.73738
0.681415
-0.78486
3.32436
1.26159
7.60592
5.08067
18.063
15.403
21.9489
20.4753
19.8815
19.7256
19.6879
19.6804
145.981
140.761
94.8605
87.3195
68.6686
65.3302
59.9309
58.1282
55.4638
53.9997
52.2809
51.4133
52.9711
51.5528
45.6426
42.8373
40.5237
38.0749
38.9995
37.2894
36.9857
35.4254
34.7923
33.7587
34.7343
33.7711
32.8867
30.8071
26.0078
23.474
19.0401
17.4052
17.3417
16.3916
15.4473
14.1749
12.0723
10.7067
9.77864
8.70489
6.45823
5.56652
5.00036
4.3837
3.68471
3.15197
2.31101
1.83021
0.798125
0.42395
-0.00892227
-0.26328
-0.667452
-0.87616
-1.32304
-1.4771
-1.64197
-1.77897
-2.15031
-2.25561
-1.9476
-2.02162
-1.62404
-1.73873
-0.960974
-1.11146
0.330172
0.165344
2.73083
2.60267
6.75808
7.06158
16.1219
16.3203
20.122
19.9213
19.7485
19.6976
19.6849
19.6826
144.843
138.094
97.2558
87.8012
69.5981
66.2787
59.6875
58.9387
54.8483
54.7201
51.5728
52.0419
52.3613
52.3303
45.7607
45.5521
38.4414
39.4272
37.2171
38.3366
35.5718
36.2596
33.618
34.3106
34.1014
34.722
32.2746
32.1972
24.6041
24.031
18.2499
18.2207
16.3325
16.6901
15.1998
15.2738
11.0767
11.1592
9.02421
8.97187
6.0566
5.96707
4.53872
4.61351
3.33347
3.3087
2.05576
1.93167
0.64605
0.546095
-0.164351
-0.200216
-0.778151
-0.839528
-1.38126
-1.42303
-1.70152
-1.73454
-2.15853
-2.1077
-2.01603
-1.81823
-1.71465
-1.38874
-1.12064
-0.54925
0.0431615
1.0063
2.24499
3.77234
6.06425
8.69218
14.5354
17.0934
18.4553
19.3664
19.6108
19.6684
19.6818
19.6849
143.975
136.791
98.3964
88.6333
69.9325
67.3581
59.2102
59.8824
54.074
55.5609
50.7197
52.6761
51.7651
53.3689
45.6239
48.5423
36.0345
40.9066
35.3008
39.5386
34.0192
37.2264
32.3098
34.8981
33.4348
35.7951
31.5673
33.8874
22.9192
24.7959
17.2292
19.1102
15.2332
17.062
14.8892
16.5431
9.90955
11.7
8.18619
9.3531
5.5417
6.42096
4.01676
4.89733
2.93187
3.51442
1.75523
2.07949
0.446453
0.692574
-0.346839
-0.115536
-0.909569
-0.78373
-1.45953
-1.35954
-1.77091
-1.6745
-2.18576
-1.96144
-2.08872
-1.61108
-1.81417
-1.03643
-1.29243
0.0121285
-0.258667
1.83625
1.74763
4.91146
5.35702
10.1942
13.0804
17.9145
16.8068
18.8381
19.4805
19.6407
19.6789
19.6869
143.396
136.738
98.3935
89.8238
69.6218
68.66
58.3793
61.0843
53.0066
56.6535
49.5932
53.4234
51.0668
54.7798
45.0587
52.1476
32.9304
42.8031
32.9888
41.1289
32.1158
38.5165
30.6997
35.646
32.6137
37.1301
30.5965
36.1077
20.719
25.9372
15.8293
20.2288
13.9043
17.5929
14.4245
18.1429
8.40446
12.4521
7.1601
9.9327
4.83849
7.00556
3.36284
5.29448
2.42789
3.8134
1.37101
2.30528
0.171412
0.890229
-0.580372
0.00996794
-1.07795
-0.696007
-1.56895
-1.27569
-1.8607
-1.59021
-2.24248
-1.80116
-2.18564
-1.37672
-1.95292
-0.642769
-1.52662
0.636556
-0.655076
2.7536
1.12026
6.15942
4.47426
11.7744
11.5475
18.9732
15.0324
18.3649
19.3689
19.6172
19.6765
19.6885
143.087
137.956
97.2018
91.4805
68.5416
70.3337
57.0274
62.7157
51.4682
58.1722
48.0289
54.4159
50.1232
56.7253
43.8181
56.802
28.6594
45.4838
29.9554
43.4024
29.5929
40.3724
28.5764
36.7105
31.4881
38.9048
29.1416
39.1618
17.6924
27.6894
13.8471
21.7743
12.1731
18.3961
13.6826
20.2793
6.34635
13.5764
5.81011
10.8258
3.84375
7.82158
2.48506
5.88277
1.75312
4.26487
0.851174
2.65332
-0.218164
1.17508
-0.896677
0.202312
-1.30537
-0.558303
-1.7252
-1.15686
-1.98484
-1.46913
-2.34303
-1.60792
-2.33035
-1.08698
-2.16713
-0.16133
-1.88265
1.39923
-1.23942
3.87275
0.226124
7.67654
3.23231
13.656
9.70868
20.4865
12.9667
17.9842
19.2865
19.6002
19.6747
19.6896
142.986
140.604
94.6114
93.8271
66.4718
72.6102
54.9139
65.0222
49.2093
60.3622
45.8007
55.8328
48.7407
59.4479
41.5383
63.0976
22.5858
49.4547
25.7593
46.7625
26.0829
43.1281
25.6528
38.3062
29.854
41.3637
26.8925
43.4726
13.4044
30.3925
10.9916
24.0185
9.80653
19.6347
12.4861
23.2348
3.43984
15.2987
3.94728
12.1974
2.40933
9.009
1.25685
6.77119
0.811852
4.95262
0.122051
3.18772
-0.778842
1.59808
-1.34021
0.498576
-1.62328
-0.344295
-1.95107
-0.982367
-2.16289
-1.29259
-2.50805
-1.35646
-2.55374
-0.704326
-2.50478
0.469219
-2.43877
2.39881
-2.13369
5.34238
-1.11171
9.66968
1.39593
16.1126
7.281
22.7316
10.3988
17.751
19.2423
19.5913
19.6738
19.6901
-145.694
-143.045
-97.8568
-95.0759
-68.1684
-70.9109
-51.7457
-59.6405
-44.2822
-54.3099
-41.1001
-49.8058
-43.1247
-51.8004
-37.8081
-54.2571
-15.6055
-38.683
-13.4588
-35.1928
-15.5397
-33.9555
-16.891
-30.6104
-22.754
-35.1266
-20.0764
-37.917
-6.05089
-24.3963
-4.43415
-18.4942
-3.22834
-13.88
-7.04552
-18.9481
3.01149
-10.392
1.68747
-7.90248
2.18373
-5.51835
3.05278
-3.45954
2.87373
-2.12795
2.90403
-0.803899
3.04723
0.526586
2.38878
0.114847
3.9198
1.78178
3.00078
0.691956
4.23814
1.49876
2.1454
-1.64649
0.572326
-8.65399
6.54821
-7.54212
4.67734
-11.4603
1.81789
-16.7924
-2.79307
-22.87
-9.35032
-30.5337
-19.322
-35.7207
-18.7838
-24.3983
-25.3444
-25.551
-25.5986
-25.6047
-145.803
-140.535
-100.38
-93.175
-69.8498
-68.8746
-53.5723
-57.4529
-46.3782
-52.3392
-43.1165
-48.5859
-44.3382
-49.67
-39.6194
-48.9394
-20.6488
-34.4787
-17.7067
-31.7367
-19.1184
-31.0841
-19.9409
-28.9796
-24.4299
-32.5191
-22.4568
-33.3062
-10.6337
-21.5396
-7.45484
-16.0814
-5.77045
-12.5847
-8.28423
-15.6598
-0.210793
-8.46085
-0.390788
-6.39005
0.600397
-4.16508
1.65587
-2.4438
1.80095
-1.34841
2.07558
-0.227692
2.42592
0.845567
2.06198
0.66502
3.36598
2.03352
2.75746
1.27312
3.67563
1.81833
1.8693
-0.872347
0.0169315
-6.04124
4.13143
-5.08364
2.30216
-8.6243
-0.917821
-13.6775
-5.84815
-19.733
-12.4424
-27.4574
-22.5888
-33.6009
-21.3315
-24.5817
-25.3698
-25.5528
-25.5953
-25.6003
-146.127
-139.424
-101.588
-91.9201
-70.6369
-67.4099
-54.6293
-55.8605
-47.7896
-50.9723
-44.5416
-47.751
-45.1649
-48.151
-40.6518
-45.1218
-24.0027
-31.4936
-20.7176
-29.3416
-21.709
-29.1325
-22.179
-27.8881
-25.5961
-30.6337
-23.9968
-30.0324
-13.8695
-19.6789
-9.56358
-14.4228
-7.62425
-11.7308
-9.05281
-13.2814
-2.48227
-7.17985
-1.90379
-5.39491
-0.51059
-3.23331
0.657599
-1.76016
1.02549
-0.830388
1.47751
0.151424
1.97506
1.05369
1.84065
1.05216
2.97433
2.20379
2.60321
1.69952
3.2842
2.06223
1.70557
-0.242779
-0.259896
-4.07706
2.49085
-3.28852
0.66014
-6.533
-2.83426
-11.3857
-8.03417
-17.4425
-14.6419
-25.1761
-25.2198
-32.4111
-23.256
-24.8603
-25.4154
-25.5557
-25.5889
-25.592
-146.722
-139.562
-101.671
-91.1306
-70.7013
-66.3259
-55.1237
-54.6377
-48.7479
-49.9869
-45.5781
-47.1447
-45.7654
-47.0481
-41.2019
-42.3239
-26.2081
-29.2349
-22.9482
-27.5926
-23.6932
-27.752
-23.9068
-27.113
-26.4656
-29.2118
-25.0266
-27.6432
-16.2234
-18.4521
-11.0703
-13.2275
-9.03904
-11.1455
-9.54248
-11.5016
-4.13147
-6.29553
-3.06401
-4.73285
-1.31551
-2.56443
-0.0867843
-1.28323
0.436993
-0.477719
1.0259
0.405553
1.63492
1.19434
1.68315
1.33162
2.69109
2.32793
2.50172
2.02699
3.00561
2.27208
1.60606
0.310108
-0.384147
-2.52769
1.34475
-1.88193
-0.53563
-4.87682
-4.26017
-9.56938
-9.70938
-15.6402
-16.3077
-23.3142
-27.5642
-31.8739
-24.748
-25.1778
-25.474
-25.5589
-25.5796
-25.5809
-147.605
-140.931
-100.661
-90.7371
-70.1232
-65.514
-55.1881
-53.6292
-49.4192
-49.2255
-46.3735
-46.6542
-46.2573
-46.2282
-41.4708
-40.213
-27.6451
-27.346
-24.7387
-26.1826
-25.3564
-26.6851
-25.3502
-26.4896
-27.197
-28.0648
-25.782
-25.8134
-18.0291
-17.6077
-12.1936
-12.2842
-10.2002
-10.7069
-9.88794
-10.0933
-5.39771
-5.62556
-4.02684
-4.27297
-1.93261
-2.04353
-0.683198
-0.922034
-0.0452511
-0.221004
0.659962
0.586347
1.36219
1.29837
1.55978
1.54314
2.47721
2.43102
2.42658
2.29672
2.79589
2.4796
1.53213
0.839304
-0.450043
-1.21858
0.482995
-0.657869
-1.50352
-3.41858
-5.44869
-7.95957
-11.1527
-14.0481
-17.7199
-21.5623
-29.9058
-31.7931
-25.9363
-25.4987
-25.5386
-25.5621
-25.5685
-25.568
-148.757
-143.645
-98.4377
-90.7711
-68.9046
-64.9302
-54.9011
-52.7262
-49.9291
-48.5696
-47.0428
-46.1901
-46.7337
-45.5965
-41.5989
-38.5536
-28.5904
-25.5484
-26.3662
-24.8623
-26.9324
-25.7238
-26.6936
-25.8827
-27.9211
-27.0431
-26.4441
-24.2953
-19.5396
-16.9623
-13.0959
-11.4272
-11.257
-10.3206
-10.1918
-8.88045
-6.46645
-5.02811
-4.91538
-3.91611
-2.45124
-1.58109
-1.21529
-0.605135
-0.485092
-0.00628354
0.332457
0.733394
1.12325
1.38959
1.44772
1.7168
2.30272
2.5326
2.3566
2.54142
2.61893
2.71252
1.44814
1.3925
-0.536628
-0.00812463
-0.264914
0.554523
-2.42849
-1.95561
-6.61786
-6.32237
-12.6078
-12.4249
-19.1251
-19.6302
-32.5055
-32.0217
-26.9071
-25.7996
-25.603
-25.565
-25.5567
-25.5548
-150.112
-147.961
-94.712
-91.3727
-66.9701
-64.5887
-54.3002
-51.8484
-50.382
-47.9209
-47.6857
-45.6706
-47.2779
-45.0797
-41.6895
-37.1715
-29.2595
-23.5972
-28.0873
-23.3999
-28.6404
-24.6761
-28.109
-25.1625
-28.7626
-26.0109
-27.1688
-22.8822
-20.9636
-16.3691
-13.9109
-10.5108
-12.345
-9.90251
-10.5435
-7.7122
-7.49665
-4.3781
-5.83983
-3.57827
-2.94646
-1.09882
-1.75747
-0.268925
-0.939557
0.213789
0.00223439
0.880676
0.889069
1.48897
1.32706
1.87764
2.14232
2.65029
2.27207
2.79031
2.44122
2.99964
1.31571
2.02054
-0.721625
1.23363
-1.05598
1.9189
-3.49182
-0.28734
-7.98544
-4.42202
-14.3218
-10.5264
-20.7783
-17.2034
-35.6394
-32.4355
-27.7177
-26.0644
-25.6615
-25.5673
-25.5454
-25.5425
-151.552
-154.32
-88.9885
-92.8161
-64.1548
-64.5642
-53.387
-50.9326
-50.8764
-47.185
-48.4016
-45.0082
-47.9762
-44.6127
-41.8273
-35.9273
-29.841
-21.2423
-30.1781
-21.543
-30.719
-23.335
-29.7819
-24.1826
-29.8603
-24.8243
-28.1133
-21.3764
-22.4965
-15.6923
-14.7654
-9.38678
-13.6058
-9.36276
-11.0356
-6.44087
-8.64444
-3.54628
-6.9145
-3.17644
-3.49141
-0.517314
-2.38648
0.152771
-1.46779
0.487717
-0.372265
1.06214
0.630655
1.61829
1.17741
2.04945
1.97175
2.80301
2.15129
3.07352
2.22685
3.37611
1.08738
2.78611
-1.09486
2.64484
-2.05798
3.61835
-4.90009
1.81669
-9.80381
-1.98346
-16.5838
-8.06634
-22.9846
-13.8962
-39.6393
-32.9105
-28.407
-26.2808
-25.7098
-25.5691
-25.5358
-25.5323
-152.879
-163.399
-80.4963
-95.558
-60.1768
-65.0043
-52.1268
-49.9233
-51.5188
-46.2557
-49.3048
-44.0942
-48.9308
-44.1257
-42.093
-34.6942
-30.5267
-18.19
-32.9757
-18.9776
-33.4639
-21.4444
-31.9402
-22.7551
-31.3899
-23.3081
-29.4621
-19.5594
-24.3495
-14.7833
-15.8008
-7.88162
-15.2078
-8.58897
-11.781
-4.90003
-10.0866
-2.37798
-8.27545
-2.61435
-4.16964
0.256329
-3.19331
0.739492
-2.14033
0.873112
-0.839591
1.31728
0.314588
1.80393
0.974473
2.25853
1.76416
3.01441
1.96695
3.42691
1.93209
3.88957
0.699024
3.77433
-1.77347
4.39319
-3.4757
5.88504
-6.91833
4.65368
-12.4003
1.35147
-19.771
-4.66912
-26.1515
-9.19612
-44.9385
-33.2975
-29.003
-26.4378
-25.7442
-25.5702
-25.5288
-25.5253
-153.781
-176.211
-68.0831
-100.317
-54.591
-66.1541
-50.4419
-48.765
-52.4388
-44.9972
-50.542
-42.782
-50.2748
-43.5316
-42.5774
-33.3362
-31.5439
-14.0577
-36.9296
-15.2777
-37.2738
-18.6576
-34.8901
-20.619
-33.5923
-21.2264
-31.457
-17.1584
-26.7804
-13.4545
-17.1971
-5.77
-17.3708
-7.4259
-12.9323
-2.8794
-12.0474
-0.66805
-10.1012
-1.76585
-5.08918
1.34308
-4.29721
1.59708
-3.0501
1.44617
-1.46296
1.69764
-0.102226
2.08133
0.686074
2.53788
1.48597
3.31696
1.68159
3.8978
1.49857
4.60829
0.0593845
5.10683
-2.92132
6.7023
-5.58329
9.03762
-9.91224
8.63506
-16.2297
6.08081
-24.4076
0.191089
-30.8562
-2.38841
-52.1337
-33.3921
-29.5322
-26.5233
-25.7619
-25.5704
-25.525
-25.5218
49.2003
46.1739
41.2758
29.4716
39.0716
25.651
27.3932
12.2175
30.6745
12.5799
28.6717
16.2626
27.3767
19.1549
19.9871
10.8159
13.1107
-0.245227
16.2748
3.44527
13.8186
5.23845
10.602
5.62915
6.64709
2.6007
3.48079
-1.57259
3.47444
-0.690155
1.06726
-1.5324
0.458476
-1.52793
-0.489025
-2.08951
-1.77651
-2.87629
-2.73917
-3.27941
-3.3035
-3.59512
-3.6561
-3.90674
-3.85761
-4.25277
-3.61777
-4.10116
-4.45318
-6.01689
-1.86039
-5.58316
-0.793263
-6.45584
0.519328
-8.12001
5.02387
-4.97369
-4.00551
-24.5253
19.5612
-13.0574
27.8858
-7.52645
37.3612
-2.138
49.013
6.272
60.7305
16.8947
72.8815
28.9375
91.2228
54.049
92.3424
46.5337
174.129
142.532
137.703
136.756
49.3228
46.6319
41.1736
32.1457
36.4677
26.7068
26.4141
15.8893
27.1263
15.1928
25.8378
17.9757
25.5019
19.917
19.2683
12.3019
11.7975
2.54665
13.467
5.20088
11.8973
6.24129
9.45827
6.01712
6.22481
3.194
2.93015
-0.652671
2.521
-0.289127
0.605239
-1.17047
0.0732431
-1.27626
-0.755199
-1.92137
-1.96403
-2.79782
-2.83958
-3.25249
-3.3401
-3.57269
-3.68002
-3.87591
-3.88261
-4.14617
-3.72084
-4.07242
-4.4387
-5.39541
-2.39547
-4.70882
-1.59001
-5.22445
-0.593077
-6.01259
2.97071
-3.83463
-4.72331
-17.7465
13.2672
-6.6194
21.5607
-0.374125
30.3733
5.90766
41.0979
14.7282
52.319
25.4286
64.3526
37.8603
82.0297
59.8326
86.9059
62.0732
158.026
141.464
137.552
136.723
49.5545
47.2029
41.2166
34.2886
34.4301
27.3869
25.8476
18.694
24.5081
16.9059
23.7472
19.0761
24.1541
20.4842
18.8048
13.532
10.8367
4.53418
11.429
6.36015
10.472
6.89092
8.58235
6.26048
5.93333
3.6778
2.51336
-0.00199546
1.80782
-0.0354694
0.250731
-0.9287
-0.207719
-1.09895
-0.95348
-1.79783
-2.11961
-2.75081
-2.92497
-3.23844
-3.37079
-3.5552
-3.70035
-3.85263
-3.89732
-4.06713
-3.79284
-4.04309
-4.40059
-4.93216
-2.718
-4.05175
-2.11663
-4.32371
-1.3035
-4.48131
1.54911
-2.93211
-4.95543
-12.7287
9.00985
-2.10358
17.2406
4.67137
25.5944
11.5675
35.6457
20.6265
46.4872
31.3304
58.4406
43.9569
75.4916
63.6459
83.5467
72.7832
146.426
139.895
137.281
136.659
49.8818
47.9212
41.2994
36.151
32.6824
27.8495
25.5083
20.9828
22.4294
18.0438
22.1196
19.7888
23.1585
20.974
18.4872
14.6611
10.0223
5.99596
9.87149
7.15402
9.35611
7.33108
7.86822
6.42522
5.72004
4.11895
2.15155
0.476529
1.24154
0.133688
-0.0445577
-0.762427
-0.42374
-0.962706
-1.11183
-1.69491
-2.26259
-2.72189
-3.00463
-3.23151
-3.39931
-3.53922
-3.72035
-3.83362
-3.90702
-4.00585
-3.84387
-4.00946
-4.3555
-4.57873
-2.89859
-3.52542
-2.47757
-3.6321
-1.76604
-3.31841
0.547987
-2.12778
-4.95729
-8.89099
6.06698
1.19438
14.1975
8.37758
22.2138
15.7036
31.7578
24.8899
42.2966
35.5419
54.1927
48.2129
70.689
66.19
81.4152
80.1189
138.036
138.172
136.935
136.574
50.2886
48.8273
41.3246
37.9477
30.991
28.2142
25.2583
23.0346
20.5858
18.8451
20.7499
20.2752
22.3865
21.4773
18.2246
15.8243
9.18496
7.14306
8.57905
7.75228
8.41033
7.66967
7.23413
6.56119
5.5433
4.57541
1.77865
0.858009
0.750675
0.266101
-0.317877
-0.63808
-0.604361
-0.841806
-1.25261
-1.59242
-2.40975
-2.69992
-3.08643
-3.22688
-3.42889
-3.52154
-3.74304
-3.8162
-3.9157
-3.95501
-3.88179
-3.96862
-4.31531
-4.30141
-2.98689
-3.06608
-2.75042
-3.06133
-2.09187
-2.37227
-0.19142
-1.31719
-4.91479
-5.8087
3.91762
3.7776
11.9076
11.2978
19.6474
18.9374
28.787
28.1827
39.0726
38.7373
50.9302
51.3309
66.9657
67.9456
79.9455
85.0873
131.959
136.506
136.556
136.476
50.7543
49.9756
41.1855
39.8883
29.133
28.5868
24.9797
25.0962
18.7146
19.5012
19.476
20.6586
21.7359
22.0749
17.9285
17.1575
8.16422
8.15155
7.37759
8.29157
7.52085
7.99638
6.60982
6.71122
5.3648
5.10526
1.33092
1.20715
0.275071
0.402641
-0.601617
-0.527776
-0.774036
-0.713884
-1.39615
-1.47077
-2.57795
-2.67406
-3.17805
-3.21976
-3.46283
-3.49871
-3.77165
-3.79772
-3.92679
-3.90868
-3.9133
-3.91737
-4.28955
-4.07612
-3.01944
-2.62254
-2.99822
-2.54179
-2.36773
-1.52458
-0.798542
-0.407674
-4.98034
-3.1511
2.16304
6.03013
9.96741
13.8597
17.4434
21.7488
26.2345
31.0157
36.2976
41.4317
48.1393
53.8395
63.8286
69.2606
78.7504
88.3871
127.575
135.02
136.182
136.374
51.2512
51.444
40.7462
42.2068
26.8663
29.0813
24.5517
27.4171
16.556
20.1892
18.1532
21.0458
21.1144
22.8516
17.4969
18.8192
6.78383
9.19007
6.10819
8.89785
6.58117
8.39726
5.92572
6.91893
5.14261
5.7755
0.736976
1.58845
-0.243086
0.584305
-0.92861
-0.404781
-0.956066
-0.556354
-1.56408
-1.30789
-2.78665
-2.63192
-3.2882
-3.20461
-3.50509
-3.4664
-3.81015
-3.77512
-3.94377
-3.86143
-3.94484
-3.8514
-4.28721
-3.88456
-3.02561
-2.1481
-3.27931
-2.01095
-2.67034
-0.672205
-1.39224
0.700391
-5.30199
-0.63296
0.466254
8.27976
8.02892
16.4339
15.2105
24.553
23.6701
33.8287
33.5286
44.0631
45.3887
56.1766
60.8738
70.4132
77.5494
90.5047
124.461
133.786
135.847
136.28
51.7396
53.3469
39.8194
45.196
23.8958
29.8441
23.8262
30.2853
13.8161
21.1024
16.6318
21.5445
20.4248
23.9105
16.7969
21.014
4.82445
10.4468
4.60269
9.70724
5.47517
8.96875
5.10224
7.2367
4.8234
6.67198
-0.0931409
2.07653
-0.868082
0.859154
-1.33745
-0.239108
-1.17642
-0.342774
-1.78278
-1.07578
-3.06085
-2.55746
-3.42803
-3.17418
-3.56096
-3.41885
-3.86384
-3.7444
-3.97079
-3.80755
-3.98346
-3.76427
-4.31841
-3.71126
-3.03253
-1.59331
-3.65638
-1.40299
-3.07922
0.288927
-2.09844
2.13221
-6.05062
2.02777
-1.49936
10.8517
5.74393
19.393
12.5548
27.766
20.6639
37.0598
30.3259
47.0626
42.2595
58.7571
57.7251
71.6617
76.1151
91.7813
122.331
132.84
135.575
136.201
52.1624
55.8535
38.1344
49.2502
19.833
31.0829
22.5991
34.068
10.1232
22.4832
14.7325
22.2822
19.5488
25.3913
15.6417
24.0229
1.99051
12.1602
2.65733
10.8884
4.05857
9.83326
4.03749
7.73528
4.33268
7.91205
-1.28154
2.76837
-1.6807
1.2903
-1.87866
0.00748743
-1.46806
-0.0386321
-2.08769
-0.736275
-3.4348
-2.42824
-3.61299
-3.11824
-3.63808
-3.34787
-3.94014
-3.69987
-4.01341
-3.74011
-4.03787
-3.64619
-4.39607
-3.54085
-3.06988
-0.898448
-4.2061
-0.637816
-3.68985
1.48032
-3.06937
4.06046
-7.44994
5.15236
-4.10052
14.1216
2.70826
23.1712
9.01665
31.8711
16.7173
41.2156
26.184
50.9233
38.278
62.0386
53.9775
73.2891
74.2313
92.461
121
132.203
135.384
136.144
52.436
59.2142
35.2935
54.9229
14.1407
33.1081
20.5706
39.264
4.97492
24.6654
12.2184
23.4285
18.3272
27.4933
13.7587
28.2457
-2.13405
14.658
0.000291867
12.6698
2.13592
11.1589
2.59154
8.51654
3.56147
9.66189
-3.00076
3.79917
-2.791
1.96625
-2.62276
0.387951
-1.87641
0.404194
-2.529
-0.235096
-3.95723
-2.21157
-3.86531
-3.02184
-3.7477
-3.24166
-4.04979
-3.63321
-4.07951
-3.64983
-4.11985
-3.48247
-4.53795
-3.35508
-3.17528
0.0155722
-5.03085
0.392203
-4.6293
3.06054
-4.5075
6.73417
-9.81407
9.15072
-7.80118
18.5763
-1.60294
28.3337
3.99774
37.4961
11.1842
46.9523
20.4508
56.2791
32.8399
66.5927
49.1346
75.6506
71.6548
92.7263
120.359
131.883
135.286
136.114
)
;

boundaryField
{
    F1_1
    {
        type            calculated;
        value           nonuniform List<scalar> 
80
(
183.263
-128.939
-72.1393
-53.3672
-29.1579
-37.4795
-16.5453
-28.6353
-12.4956
-24.092
-11.2305
-20.5286
-14.1614
-23.5843
-8.58387
-25.7806
6.42916
-13.0995
3.49704
-10.635
2.631
-8.3192
2.13501
-5.47571
-0.404127
-6.52153
1.86948
-6.37251
7.6128
-0.359302
6.57903
1.43059
6.2323
2.88628
4.91796
2.15842
6.44451
4.00299
5.88445
4.60486
5.61663
5.00549
5.50071
5.30549
5.46668
5.52003
5.48731
5.64874
5.65725
6.04622
5.31102
5.84204
5.39016
5.78066
5.60229
6.05475
5.29612
5.74285
5.51082
5.82072
5.44827
5.69782
5.36307
5.25829
5.55816
4.73725
5.77297
3.85698
5.90412
2.39479
5.57699
0.0318203
3.9985
-3.48071
1.78515
-5.88926
-14.8821
-18.6838
-19.8173
-20.096
)
;
    }
    F1_2
    {
        type            calculated;
        value           nonuniform List<scalar> 
80
(
142.978
142.314
92.9293
95.2087
65.1553
73.9339
53.6311
66.3807
47.8631
61.6611
44.4876
56.6734
47.9116
61.0398
40.0841
66.7418
19.0059
51.8367
23.3062
48.7731
24.0276
44.7797
23.9491
39.2683
28.88
42.8
25.5237
46.0042
10.8813
32.0324
9.30241
25.3551
8.43066
20.3869
11.7479
24.9586
1.7314
16.3427
2.85993
13.0272
1.56026
9.71609
0.53663
7.30647
0.26053
5.36792
-0.3057
3.51103
-1.11035
1.85163
-1.60032
0.67817
-1.8095
-0.214299
-2.0848
-0.878149
-2.26826
-1.18767
-2.60973
-1.21252
-2.68957
-0.484333
-2.7114
0.830632
-2.77813
2.97204
-2.67586
6.18618
-1.91694
10.8149
0.295476
17.5233
5.87995
24.0766
8.95946
17.6797
19.2309
19.589
19.6736
19.6902
)
;
    }
    F1_3
    {
        type            calculated;
        value           nonuniform List<scalar> 
80
(
-145.683
-144.678
-96.2321
-96.2179
-67.0764
-72.1017
-50.6086
-60.9167
-43.029
-55.479
-39.9145
-50.535
-42.3977
-53.0476
-36.6635
-57.3621
-12.5817
-41.1621
-10.9593
-37.2465
-13.448
-35.6719
-15.1196
-31.5932
-21.7576
-36.6486
-18.6275
-40.623
-3.35473
-26.1274
-2.65005
-19.9315
-1.74906
-14.6636
-6.28032
-20.8652
4.90823
-11.5573
2.89893
-8.81516
3.11796
-6.32358
3.87201
-4.06879
3.50054
-2.5972
3.38813
-1.15187
3.40923
0.332978
2.58469
-0.20911
4.24509
1.63031
3.15004
0.354567
4.57055
1.31404
2.31837
-2.07946
0.937979
-10.1563
7.99146
-8.97703