/*--------------------------------*- C++ -*----------------------------------*\
| =========                 |                                                 |
| \\      /  F ield         | OpenFOAM: The Open Source CFD Toolbox           |
|  \\    /   O peration     | Version:  5.x                                   |
|   \\  /    A nd           | Web:      www.OpenFOAM.org                      |
|    \\/     M anipulation  |                                                 |
\*---------------------------------------------------------------------------*/
FoamFile
{
    version     2.0;
    format      ascii;
    class       volScalarField;
    location    "0.6";
    object      gradTx;
}
// * * * * * * * * * * * * * * * * * * * * * * * * * * * * * * * * * * * * * //

dimensions      [0 -1 0 1 0 0 0];

internalField   nonuniform List<scalar> 
3200
(
120.901
117.654
16.0173
-4.39978
-5.75446
-7.63757
-7.82599
-7.1483
-7.12362
-6.13829
-6.02337
-3.96323
-3.96946
-6.58086
-6.96955
-13.4155
-13.5321
-8.72249
-8.45266
-6.8196
-6.66051
-5.25431
-5.08733
-3.05445
-2.97978
-3.77525
-3.88148
-5.84675
-5.83325
-3.44008
-3.2989
-2.42164
-2.33152
-1.25531
-1.22599
-1.84192
-1.82602
-0.971676
-0.91358
-0.507823
-0.474401
-0.227408
-0.206612
-0.0499866
-0.0375581
0.0502437
0.0556473
0.064502
0.0758797
0.325552
0.332654
0.247127
0.2401
0.149915
0.153013
0.330673
0.330386
0.1576
0.150758
0.175578
0.172561
0.123108
0.105391
-0.180179
-0.215986
-0.607273
-0.662027
-1.24574
-1.32541
-2.08707
-2.18887
-2.98768
-3.08438
-3.823
-3.83276
-0.833363
-0.639727
-0.246757
-0.07061
-45.9016
125.73
96.782
20.3259
-0.864063
-4.14449
-6.44403
-6.97618
-6.71719
-6.7077
-5.97695
-5.74484
-4.17367
-4.17082
-6.11201
-6.94689
-12.1674
-12.461
-8.83412
-8.26076
-6.84726
-6.47883
-5.25436
-4.87764
-3.23005
-3.04957
-3.57547
-3.79222
-5.35158
-5.32713
-3.45339
-3.14936
-2.42484
-2.2254
-1.34488
-1.27297
-1.71454
-1.6751
-0.995839
-0.867306
-0.519717
-0.442885
-0.229955
-0.182048
-0.0476249
-0.0191215
0.055602
0.0683793
0.0813935
0.106096
0.300631
0.315942
0.251902
0.237288
0.167396
0.17344
0.307174
0.306097
0.172433
0.157279
0.170437
0.162129
0.113319
0.0721522
-0.17066
-0.253871
-0.599255
-0.728896
-1.25279
-1.44435
-2.14619
-2.39729
-3.17362
-3.40997
-4.07349
-4.19398
-2.38786
-1.92715
-0.731591
-0.207048
-41.9081
129.846
79.6817
22.4239
1.95549
-2.57355
-5.32103
-6.15789
-6.27602
-6.3206
-5.79566
-5.51987
-4.32137
-4.29441
-5.6874
-6.74879
-11.1163
-11.5468
-8.82364
-8.10251
-6.83318
-6.33146
-5.22055
-4.71882
-3.347
-3.09114
-3.38808
-3.64929
-4.91978
-4.89501
-3.40394
-3.01668
-2.40706
-2.14656
-1.40212
-1.29944
-1.60643
-1.5498
-0.99799
-0.829811
-0.520797
-0.416826
-0.225912
-0.160953
-0.0410331
-0.00253897
0.0634342
0.0810991
0.0978156
0.129518
0.282879
0.302403
0.254699
0.236688
0.181841
0.18876
0.28907
0.287112
0.182527
0.162669
0.166155
0.153318
0.103225
0.0469799
-0.167526
-0.281269
-0.599867
-0.779998
-1.27313
-1.54289
-2.22334
-2.58471
-3.38117
-3.71847
-4.34571
-4.63226
-3.88852
-3.24394
-1.18957
-0.329151
-37.908
133.212
65.6214
23.0507
4.13781
-1.07355
-4.2742
-5.36817
-5.83768
-5.95621
-5.60438
-5.3318
-4.42222
-4.3612
-5.27604
-6.41842
-10.2227
-10.7588
-8.73314
-7.96627
-6.78849
-6.20854
-5.16246
-4.59489
-3.41939
-3.11065
-3.20217
-3.46603
-4.53984
-4.52158
-3.31039
-2.89294
-2.37537
-2.08712
-1.43374
-1.30956
-1.5129
-1.44435
-0.984827
-0.797977
-0.513699
-0.394267
-0.216848
-0.14207
-0.0311952
0.0129361
0.0731927
0.0938522
0.113635
0.148071
0.270479
0.291552
0.256309
0.237561
0.193817
0.200347
0.275057
0.272235
0.189233
0.167128
0.162529
0.146
0.0933789
0.0281389
-0.168421
-0.300474
-0.606021
-0.818585
-1.30242
-1.62501
-2.31327
-2.75476
-3.60712
-4.0154
-4.63157
-5.11175
-5.38518
-4.61709
-1.59975
-0.42744
-33.8974
135.835
54.0068
22.7316
5.77252
0.346416
-3.31131
-4.6032
-5.41324
-5.61056
-5.40989
-5.16921
-4.48912
-4.38894
-4.85555
-5.98156
-9.45985
-10.0732
-8.59236
-7.84658
-6.72001
-6.1044
-5.08535
-4.49538
-3.45719
-3.11423
-3.00943
-3.25042
-4.20364
-4.19593
-3.18515
-2.77327
-2.33457
-2.04234
-1.44425
-1.30662
-1.43029
-1.35457
-0.960797
-0.770077
-0.500039
-0.374053
-0.2037
-0.124649
-0.0187013
0.0277558
0.0845272
0.106635
0.128864
0.163103
0.26213
0.282954
0.25726
0.239436
0.203783
0.209208
0.264149
0.260567
0.193507
0.170889
0.159382
0.140127
0.0840391
0.0145517
-0.171897
-0.312741
-0.615898
-0.846327
-1.33817
-1.69252
-2.4131
-2.9084
-3.85086
-4.30404
-4.92288
-5.59949
-6.92348
-6.08018
-1.9361
-0.492661
-29.8733
137.745
44.3561
21.8404
6.94641
1.6961
-2.44269
-3.85725
-5.01315
-5.28075
-5.21698
-5.02419
-4.53282
-4.39399
-4.40865
-5.45057
-8.81158
-9.47145
-8.42227
-7.74224
-6.63122
-6.01652
-4.9912
-4.41391
-3.46728
-3.10836
-2.80292
-3.00639
-3.90593
-3.91047
-3.03604
-2.65475
-2.28798
-2.00985
-1.43639
-1.29329
-1.35571
-1.27756
-0.928688
-0.745389
-0.480651
-0.355644
-0.186925
-0.108324
-0.00384299
0.0421512
0.0972396
0.119406
0.143609
0.17554
0.256908
0.276215
0.257896
0.242026
0.212109
0.216092
0.255584
0.251441
0.196007
0.174208
0.156548
0.13573
0.0752373
0.00564412
-0.177197
-0.318517
-0.628687
-0.86362
-1.37943
-1.7454
-2.52196
-3.04418
-4.11421
-4.58609
-5.21189
-6.06131
-8.54843
-7.67524
-2.16439
-0.516158
-25.8334
138.981
36.2803
20.6447
7.73506
3.00177
-1.68269
-3.12139
-4.64844
-4.96411
-5.0292
-4.89111
-4.56243
-4.39289
-3.92064
-4.82679
-8.27136
-8.93811
-8.2375
-7.65526
-6.52272
-5.94521
-4.87925
-4.34733
-3.45395
-3.10043
-2.57612
-2.73457
-3.64409
-3.66024
-2.86726
-2.53572
-2.23791
-1.98925
-1.41138
-1.27179
-1.2868
-1.21143
-0.890001
-0.723998
-0.45571
-0.339013
-0.16657
-0.0930526
0.0133396
0.0561713
0.11126
0.13209
0.15804
0.185997
0.254167
0.270981
0.258435
0.245178
0.21908
0.221557
0.248767
0.24437
0.197164
0.177365
0.153843
0.132922
0.0668013
0.00126751
-0.184158
-0.31754
-0.64449
-0.869685
-1.4267
-1.78188
-2.64103
-3.15809
-4.40152
-4.86201
-5.49196
-6.45762
-10.3078
-9.45577
-2.23813
-0.490608
-21.7769
139.579
29.4674
19.3405
8.19711
4.3059
-1.0522
-2.38178
-4.33205
-4.65743
-4.84952
-4.76565
-4.58566
-4.40389
-3.37746
-4.10145
-7.84225
-8.4595
-8.04808
-7.59041
-6.39214
-5.89356
-4.74606
-4.2953
-3.41912
-3.0994
-2.32208
-2.43277
-3.41805
-3.44244
-2.6801
-2.41541
-2.18594
-1.98187
-1.36889
-1.24416
-1.22155
-1.15518
-0.845137
-0.706735
-0.424737
-0.324638
-0.142279
-0.0791139
0.0330511
0.0696909
0.126644
0.144564
0.172387
0.194842
0.253478
0.266921
0.259003
0.248845
0.224911
0.226036
0.243218
0.239015
0.197227
0.180674
0.151036
0.131924
0.0583435
0.00168749
-0.1932
-0.308823
-0.664367
-0.862485
-1.48205
-1.79821
-2.7738
-3.24298
-4.72019
-5.13117
-5.7586
-6.73852
-12.2551
-11.4909
-2.09304
-0.411311
-17.7044
139.565
23.6711
18.0772
8.36943
5.66901
-0.582602
-1.61718
-4.08055
-4.35604
-4.68087
-4.64404
-4.60897
-4.44866
-2.76425
-3.25542
-7.53808
-8.02207
-7.86057
-7.55527
-6.23368
-5.86797
-4.58508
-4.26037
-3.3621
-3.11673
-2.03256
-2.09603
-3.23048
-3.25616
-2.47309
-2.29374
-2.133
-1.99089
-1.30692
-1.21249
-1.15809
-1.10871
-0.793438
-0.695244
-0.386512
-0.313575
-0.113238
-0.0671489
0.055773
0.08239
0.143583
0.156637
0.186946
0.202239
0.254596
0.263715
0.25966
0.253065
0.229741
0.229874
0.238526
0.235164
0.196284
0.184509
0.147811
0.133107
0.04921
0.00763744
-0.205414
-0.290509
-0.690544
-0.838432
-1.54955
-1.78819
-2.92685
-3.28757
-5.08152
-5.39169
-6.01115
-6.83795
-14.4537
-13.8713
-1.63927
-0.278391
-13.6185
138.946
18.704
16.9788
8.26169
7.17438
-0.321535
-0.795314
-3.9165
-4.05264
-4.52667
-4.52236
-4.63729
-4.55439
-2.06399
-2.25772
-7.38587
-7.61049
-7.67887
-7.56084
-6.03704
-5.87912
-4.38584
-4.24843
-3.279
-3.16765
-1.69716
-1.71648
-3.08729
-3.10226
-2.24196
-2.17136
-2.07935
-2.02162
-1.22139
-1.17923
-1.09445
-1.0729
-0.733076
-0.692193
-0.338872
-0.307621
-0.078037
-0.0582657
0.0823405
0.093701
0.162444
0.168017
0.202103
0.208151
0.257443
0.261036
0.26042
0.257955
0.233633
0.233373
0.234315
0.232736
0.194257
0.189342
0.143707
0.137059
0.0383843
0.0204469
-0.222745
-0.2596
-0.726809
-0.791855
-1.63595
-1.74217
-3.11103
-3.27485
-5.50223
-5.63985
-6.25542
-6.6658
-16.9802
-16.7177
-0.750649
-0.100341
-9.52337
232.961
40.7459
41.2026
14.6565
13.0732
-0.348817
-1.04046
-4.13026
-4.29634
-5.01508
-5.07977
-6.52751
-6.44699
-2.2321
-2.7179
-15.3899
-15.8877
-14.3835
-14.1207
-10.8546
-10.5838
-8.42385
-8.21703
-6.76523
-6.69581
-6.76212
-6.86991
-7.67056
-7.58875
-4.37491
-4.29546
-7.08815
-7.01323
-3.59024
-3.57868
-6.34012
-6.4001
-4.90523
-4.7021
-2.20346
-2.12017
-3.17465
-3.15874
-2.21842
-2.13317
-1.38846
-1.3181
-0.662743
-0.635835
-0.895258
-0.883373
-0.560932
-0.529069
-0.238675
-0.228256
-0.384508
-0.381235
-0.171767
-0.201541
-1.07607
-1.13805
-1.60315
-1.68041
-2.74877
-2.88441
-4.58555
-4.78659
-7.25104
-7.51654
-10.611
-11.0219
-17.3053
-17.3327
-11.6351
-10.9128
-0.603361
-0.10081
-0.0225739
-0.00516515
26.0069
264.621
32.7851
33.6832
13.5454
10.2674
-0.334422
-1.80425
-4.34986
-4.70905
-5.2845
-5.39711
-6.37344
-6.23613
-3.40929
-4.56727
-14.8855
-15.9719
-14.6132
-13.9947
-11.267
-10.6499
-8.78039
-8.28787
-6.93458
-6.77619
-6.96502
-7.26235
-8.17066
-8.01519
-5.34438
-5.11653
-7.05078
-6.84523
-4.09943
-4.09028
-6.40946
-6.54354
-5.22348
-4.75757
-2.72906
-2.53027
-3.24883
-3.19526
-2.40875
-2.21357
-1.57492
-1.4142
-0.866048
-0.799009
-0.959026
-0.924941
-0.647778
-0.574152
-0.328631
-0.301907
-0.406809
-0.398856
-0.248192
-0.313293
-1.00484
-1.14213
-1.55163
-1.72825
-2.62999
-2.93701
-4.36736
-4.81996
-6.87532
-7.4707
-10.0571
-10.9478
-15.8534
-15.9145
-11.4344
-9.85011
-1.41777
-0.285429
-0.0652725
-0.0149659
22.0699
295.088
25.9794
27.0058
11.7604
7.75497
-0.685025
-2.52483
-4.6568
-5.11304
-5.5724
-5.67985
-6.26387
-6.13279
-4.42701
-6.05014
-14.7503
-16.1539
-14.8134
-13.9531
-11.5951
-10.7662
-9.08189
-8.39317
-7.05616
-6.84271
-7.1636
-7.63037
-8.71334
-8.54228
-6.21616
-5.85114
-7.09903
-6.77887
-4.49918
-4.50878
-6.56624
-6.7452
-5.50762
-4.87561
-3.18151
-2.90372
-3.35393
-3.26112
-2.57546
-2.31175
-1.74228
-1.52582
-1.05013
-0.953121
-1.03058
-0.976249
-0.726499
-0.626125
-0.409849
-0.370304
-0.433635
-0.422194
-0.315995
-0.399994
-0.95579
-1.13534
-1.50944
-1.74709
-2.53502
-2.94469
-4.18829
-4.78922
-6.55801
-7.34523
-9.57099
-10.7131
-14.5953
-14.6778
-11.1178
-9.06122
-1.94006
-0.433482
-0.101131
-0.0232466
18.133
324.657
20.0289
20.9799
9.52647
5.42053
-1.29919
-3.23342
-5.03059
-5.51681
-5.8743
-5.94348
-6.18282
-6.09232
-5.31143
-7.24978
-14.9069
-16.4457
-14.9944
-13.9716
-11.8621
-10.9167
-9.34365
-8.52446
-7.13285
-6.88788
-7.35638
-7.97378
-9.30622
-9.15562
-7.00954
-6.52128
-7.21005
-6.79094
-4.80741
-4.84541
-6.79822
-7.00359
-5.76762
-5.0362
-3.57738
-3.24811
-3.48081
-3.35076
-2.72535
-2.42221
-1.89557
-1.64785
-1.21911
-1.10029
-1.10743
-1.0354
-0.799271
-0.682759
-0.484018
-0.434605
-0.463468
-0.449337
-0.376202
-0.467836
-0.921799
-1.12077
-1.47273
-1.74394
-2.45519
-2.91901
-4.03494
-4.71179
-6.27999
-7.16224
-9.12831
-10.3688
-13.4892
-13.5868
-10.7409
-8.47471
-2.23759
-0.534441
-0.126743
-0.0292029
14.1961
353.565
14.7002
15.4511
6.99962
3.19142
-2.10421
-3.94715
-5.45661
-5.9256
-6.18765
-6.20021
-6.11486
-6.07932
-6.0869
-8.2205
-15.3081
-16.857
-15.1582
-14.0335
-12.0826
-11.0925
-9.57535
-8.67872
-7.16373
-6.90457
-7.54325
-8.28865
-9.95849
-9.84884
-7.73668
-7.1444
-7.36544
-6.86564
-5.03484
-5.10552
-7.10018
-7.31972
-6.00754
-5.226
-3.92816
-3.5701
-3.62227
-3.46028
-2.86242
-2.54168
-2.03777
-1.77718
-1.37573
-1.24246
-1.18748
-1.10115
-0.867291
-0.742712
-0.552242
-0.495799
-0.495041
-0.478858
-0.429835
-0.521199
-0.898024
-1.1001
-1.43926
-1.7232
-2.38527
-2.86728
-3.89916
-4.59872
-6.02942
-6.93594
-8.71468
-9.94926
-12.5039
-12.6134
-10.3406
-8.04677
-2.35353
-0.583428
-0.139864
-0.0322754
10.2593
382.006
9.80479
10.2915
4.28809
1.02267
-3.04673
-4.67381
-5.92401
-6.34251
-6.51088
-6.46076
-6.04479
-6.06442
-6.77712
-8.99286
-15.9307
-17.3982
-15.2992
-14.1287
-12.2648
-11.2895
-9.78233
-8.85781
-7.14444
-6.8854
-7.72591
-8.5666
-10.682
-10.6222
-8.40308
-7.73505
-7.54972
-6.99365
-5.18628
-5.28875
-7.47323
-7.69723
-6.22635
-5.43657
-4.24146
-3.87578
-3.77238
-3.58732
-2.98848
-2.66856
-2.17031
-1.9122
-1.52168
-1.38154
-1.26884
-1.17285
-0.930977
-0.805335
-0.615135
-0.554792
-0.527255
-0.509713
-0.477869
-0.563162
-0.881257
-1.07397
-1.40801
-1.68736
-2.32257
-2.79356
-3.77671
-4.45643
-5.79986
-6.67478
-8.32286
-9.47697
-11.6164
-11.7351
-9.94094
-7.7545
-2.31228
-0.579184
-0.139457
-0.0321895
6.32261
410.152
5.18273
5.39263
1.46809
-1.11307
-4.08634
-5.41516
-6.42445
-6.7693
-6.84275
-6.73586
-5.95716
-6.02163
-7.40702
-9.57615
-16.772
-18.082
-15.4031
-14.2516
-12.4117
-11.5079
-9.96611
-9.06853
-7.06704
-6.82229
-7.90861
-8.79361
-11.4926
-11.4821
-9.00752
-8.30646
-7.74891
-7.17177
-5.2614
-5.38877
-7.92479
-8.14264
-6.41803
-5.66346
-4.52168
-4.17106
-3.92585
-3.73099
-3.10347
-2.80265
-2.29332
-2.05258
-1.65767
-1.51957
-1.34957
-1.25042
-0.990051
-0.870574
-0.672864
-0.6125
-0.559092
-0.54116
-0.521237
-0.59583
-0.869524
-1.04221
-1.37898
-1.6373
-2.26647
-2.69938
-3.6664
-4.28761
-5.58906
-6.38273
-7.95083
-8.96529
-10.8097
-10.9331
-9.55666
-7.59217
-2.12243
-0.523039
-0.125666
-0.0289729
2.38599
438.159
0.689057
0.660077
-1.40471
-3.23236
-5.19118
-6.16895
-6.95125
-7.20681
-7.18174
-7.03774
-5.8357
-5.92585
-8.00537
-9.95819
-17.8486
-18.9253
-15.4459
-14.4023
-12.5212
-11.7519
-10.1242
-9.32348
-6.91943
-6.706
-8.09941
-8.94813
-12.4116
-12.4405
-9.54107
-8.87219
-7.94894
-7.40329
-5.25507
-5.39252
-8.46917
-8.66585
-6.57102
-5.90595
-4.77035
-4.46221
-4.07737
-3.89205
-3.20546
-2.94514
-2.40564
-2.19919
-1.78344
-1.65892
-1.4275
-1.33447
-1.04352
-0.938973
-0.725127
-0.669953
-0.589531
-0.572704
-0.56084
-0.62055
-0.861849
-1.0039
-1.3531
-1.57243
-2.21823
-2.58385
-3.56995
-4.0916
-5.3986
-6.05974
-7.60098
-8.42043
-10.0717
-10.191
-9.19566
-7.56978
-1.77753
-0.418667
-0.0997762
-0.0229492
-1.55055
466.179
-3.81783
-3.99025
-4.28624
-5.34582
-6.33485
-6.9303
-7.49897
-7.65546
-7.52542
-7.38187
-5.66245
-5.75036
-8.60864
-10.1026
-19.1976
-19.9509
-15.3914
-14.5865
-12.5863
-12.0304
-10.2493
-9.64262
-6.68424
-6.52547
-8.31204
-8.9981
-13.4681
-13.5162
-9.98545
-9.44814
-8.13391
-7.69895
-5.15736
-5.27876
-9.12881
-9.2808
-6.6669
-6.16735
-4.986
-4.75649
-4.22098
-4.07321
-3.29045
-3.09886
-2.50469
-2.3542
-1.89759
-1.80258
-1.49992
-1.42647
-1.08957
-1.01177
-0.771064
-0.728436
-0.617443
-0.604065
-0.597592
-0.638019
-0.858156
-0.957321
-1.33244
-1.49051
-2.18121
-2.44351
-3.4921
-3.8642
-5.23399
-5.70157
-7.28003
-7.84229
-9.39502
-9.49335
-8.85969
-7.71383
-1.25513
-0.272583
-0.0641501
-0.014709
-5.48701
494.368
-8.48792
-8.63511
-7.13676
-7.46172
-7.49402
-7.69256
-8.06309
-8.11551
-7.8696
-7.78899
-5.41685
-5.46397
-9.26638
-9.94286
-20.8803
-21.189
-15.1867
-14.8185
-12.5937
-12.3579
-10.3275
-10.0559
-6.3371
-6.26714
-8.56871
-8.89673
-14.7015
-14.735
-10.3101
-10.0552
-8.28373
-8.07892
-4.95317
-5.01589
-9.93641
-10.0064
-6.67827
-6.45607
-5.16363
-5.06305
-4.34911
-4.27981
-3.35184
-3.26872
-2.58603
-2.5215
-1.99731
-1.95457
-1.5632
-1.52902
-1.12526
-1.0911
-0.809093
-0.789665
-0.641461
-0.635158
-0.632477
-0.648308
-0.859312
-0.899713
-1.32046
-1.3873
-2.16133
-2.27174
-3.44131
-3.5969
-5.10549
-5.29898
-6.99974
-7.22454
-8.77645
-8.82489
-8.54407
-8.07025
-0.51357
-0.0954666
-0.0221353
-0.00505845
-9.42341
487.585
-8.06808
-8.11762
-5.71075
-5.96273
-6.45492
-6.71906
-7.40809
-7.51519
-7.08603
-6.99455
-4.70331
-4.70478
-7.29612
-7.79856
-17.589
-17.9831
-15.2473
-15.1327
-12.8905
-12.6874
-10.7981
-10.5106
-6.55538
-6.47624
-9.0939
-9.44913
-15.7241
-15.763
-10.9278
-10.6533
-8.91056
-8.69221
-5.20508
-5.28861
-11.04
-11.134
-7.46957
-7.232
-5.73175
-5.61812
-4.96768
-4.89264
-3.83807
-3.74592
-2.95412
-2.87624
-2.19226
-2.11907
-1.27432
-1.26019
-1.89799
-1.88904
-1.01777
-1.02681
-1.96556
-1.98861
-1.24841
-1.30547
-2.60375
-2.93857
-8.62028
-8.91399
-8.8705
-8.98201
-10.1624
-10.3046
-11.2684
-11.3515
-11.5279
-11.5823
-11.427
-11.166
-8.62216
-7.99414
-0.400588
-0.0605819
-0.0130923
-0.00276146
70.0313
458.873
-3.44574
-3.36973
-2.68866
-3.54136
-4.81716
-5.58348
-6.67335
-6.99285
-6.76106
-6.58813
-4.85991
-4.85244
-6.80623
-7.85845
-15.5567
-16.4883
-14.9802
-14.8262
-13.0579
-12.5974
-10.9012
-10.2494
-7.06415
-6.87393
-8.8714
-9.60978
-14.4463
-14.5084
-10.675
-10.0924
-8.75949
-8.29617
-5.5154
-5.68207
-10.1474
-10.3536
-7.53345
-7.00832
-5.6544
-5.39046
-4.86927
-4.70636
-3.83673
-3.62676
-2.93682
-2.75596
-2.16573
-2.00146
-1.32355
-1.28833
-1.75783
-1.7396
-1.09207
-1.1172
-1.86014
-1.92319
-1.44174
-1.59517
-2.78032
-3.53238
-8.13045
-8.80955
-9.05449
-9.35244
-10.4691
-10.8214
-11.7471
-11.9574
-12.186
-12.3529
-12.4263
-11.7303
-8.52998
-7.00116
-0.911525
-0.169977
-0.0377506
-0.00796067
75.1514
430.317
1.01661
1.35438
0.395255
-1.10265
-3.19943
-4.43472
-5.96927
-6.49246
-6.43369
-6.24389
-4.94766
-4.92161
-6.35236
-7.65244
-13.7949
-15.091
-14.6589
-14.5843
-13.1729
-12.5569
-10.9626
-10.0897
-7.45318
-7.18414
-8.69929
-9.60654
-13.3595
-13.4097
-10.2921
-9.56164
-8.57368
-7.99286
-5.70784
-5.90362
-9.4253
-9.69423
-7.50557
-6.81784
-5.53351
-5.17313
-4.75658
-4.54838
-3.80905
-3.52684
-2.8992
-2.65209
-2.12219
-1.90442
-1.3471
-1.2963
-1.63719
-1.61534
-1.13948
-1.17889
-1.78192
-1.87957
-1.60967
-1.84361
-2.97422
-3.97235
-7.79738
-8.72247
-9.23636
-9.69014
-10.8064
-11.3152
-12.2545
-12.5626
-12.8467
-13.1272
-13.4563
-12.3947
-8.37069
-6.19029
-1.20826
-0.254806
-0.0581992
-0.0122532
80.2704
401.763
5.46209
6.13107
3.50148
1.36069
-1.61564
-3.27361
-5.3054
-6.0152
-6.11147
-5.94387
-4.98456
-4.93246
-5.90362
-7.2526
-12.2269
-13.7626
-14.3232
-14.3958
-13.2561
-12.5555
-10.9952
-10.0005
-7.74757
-7.42304
-8.55155
-9.48952
-12.4209
-12.4377
-9.81376
-9.04121
-8.37163
-7.75777
-5.80111
-5.99219
-8.83333
-9.13327
-7.41775
-6.65133
-5.37576
-4.95814
-4.63563
-4.41173
-3.76316
-3.4408
-2.84642
-2.5596
-2.06622
-1.82101
-1.35043
-1.28864
-1.53109
-1.50927
-1.16629
-1.21805
-1.72394
-1.85065
-1.75746
-2.05618
-3.17342
-4.29924
-7.58031
-8.65184
-9.42063
-10.0013
-11.1679
-11.7919
-12.7871
-13.1688
-13.5076
-13.8996
-14.5419
-13.1773
-8.13723
-5.49099
-1.3434
-0.309058
-0.0724527
-0.0152305
85.3876
373.06
10.0268
11.0406
6.58913
3.8583
-0.0839208
-2.09707
-4.69411
-5.5623
-5.79972
-5.67545
-4.98512
-4.9023
-5.43966
-6.70759
-10.7962
-12.4732
-14.0069
-14.2558
-13.3219
-12.5887
-11.0053
-9.96187
-7.96493
-7.60389
-8.41149
-9.29283
-11.5989
-11.5715
-9.26147
-8.51672
-8.16742
-7.57646
-5.80853
-5.97483
-8.3431
-8.65302
-7.29208
-6.50531
-5.18381
-4.73945
-4.51084
-4.29214
-3.7043
-3.36574
-2.78142
-2.47544
-2.00039
-1.74667
-1.33746
-1.26885
-1.4356
-1.41608
-1.17735
-1.23907
-1.68114
-1.83055
-1.88958
-2.236
-3.37226
-4.53991
-7.4516
-8.59332
-9.61244
-10.2891
-11.5513
-12.2538
-13.3443
-13.7767
-14.1664
-14.662
-15.7076
-14.1067
-7.80745
-4.85108
-1.35345
-0.331022
-0.0793275
-0.0166449
90.5025
344.056
14.8509
16.1698
9.60903
6.40532
1.37138
-0.896662
-4.15163
-5.13444
-5.50232
-5.42962
-4.96133
-4.84724
-4.94633
-6.04958
-9.46171
-11.1892
-13.7419
-14.1631
-13.3797
-12.656
-10.9939
-9.96145
-8.11694
-7.73808
-8.26855
-9.03922
-10.8703
-10.7966
-8.64665
-7.9765
-7.97295
-7.4423
-5.73866
-5.86948
-7.93529
-8.23972
-7.14358
-6.38081
-4.95692
-4.51225
-4.38575
-4.18743
-3.63557
-3.3006
-2.70538
-2.39813
-1.92578
-1.6786
-1.31092
-1.23969
-1.34761
-1.33169
-1.17642
-1.24491
-1.65007
-1.81407
-2.01022
-2.38424
-3.56985
-4.71081
-7.3937
-8.5397
-9.81794
-10.5535
-11.957
-12.7001
-13.9279
-14.3865
-14.821
-15.4024
-16.9791
-15.2235
-7.34332
-4.2321
-1.26387
-0.321744
-0.0784266
-0.0164115
95.6149
314.58
20.0906
21.6153
12.4957
9.02648
2.71677
0.343739
-3.69971
-4.73099
-5.22245
-5.19955
-4.92331
-4.78358
-4.4127
-5.29902
-8.19445
-9.87214
-13.5621
-14.1186
-13.4351
-12.761
-10.9575
-9.99364
-8.21043
-7.83597
-8.11608
-8.74327
-10.218
-10.1049
-7.97273
-7.4097
-7.79964
-7.35513
-5.59549
-5.68681
-7.59803
-7.88255
-6.98187
-6.28291
-4.69099
-4.27244
-4.26365
-4.09695
-3.55826
-3.24597
-2.61791
-2.3275
-1.84223
-1.61543
-1.27257
-1.2034
-1.26461
-1.25292
-1.16657
-1.23731
-1.62868
-1.79633
-2.12374
-2.50001
-3.76922
-4.82004
-7.39726
-8.48079
-10.0452
-10.7911
-12.3891
-13.1271
-14.5423
-14.9972
-15.4698
-16.1031
-18.3837
-16.585
-6.68777
-3.60666
-1.09263
-0.284107
-0.0700691
-0.0146037
100.725
284.441
25.9309
27.4875
15.1574
11.7621
3.90535
1.65141
-3.36799
-4.34896
-4.96305
-4.97956
-4.87978
-4.72907
-3.82865
-4.46792
-6.97572
-8.47438
-13.5075
-14.1237
-13.4903
-12.9113
-10.8877
-10.0587
-8.24766
-7.90776
-7.94978
-8.41349
-9.62924
-9.49397
-7.23611
-6.80484
-7.65977
-7.32064
-5.37835
-5.43142
-7.32593
-7.5729
-6.81221
-6.22085
-4.37824
-4.01636
-4.14795
-4.02145
-3.47199
-3.20405
-2.51702
-2.26475
-1.74841
-1.55695
-1.22332
-1.16195
-1.18456
-1.17716
-1.15047
-1.21691
-1.61624
-1.77221
-2.23532
-2.58006
-3.97732
-4.8682
-7.46057
-8.40265
-10.3051
-10.9947
-12.8557
-13.527
-15.1952
-15.6073
-16.1123
-16.7378
-19.9513
-18.2699
-5.75898
-2.95787
-0.852629
-0.222332
-0.0551947
-0.0114384
105.832
253.406
32.6033
33.916
17.4625
14.6769
4.87033
3.07005
-3.19759
-3.98147
-4.72749
-4.76417
-4.83824
-4.70448
-3.18291
-3.56194
-5.79719
-6.93513
-13.6295
-14.1787
-13.5433
-13.1194
-10.7701
-10.1632
-8.22612
-7.96433
-7.76667
-8.05368
-9.09461
-8.96804
-6.4265
-6.1486
-7.56772
-7.35033
-5.08145
-5.10243
-7.1198
-7.30363
-6.63588
-6.20894
-4.00637
-3.74062
-4.04266
-3.96294
-3.37452
-3.17898
-2.3988
-2.21262
-1.64165
-1.5042
-1.16322
-1.11717
-1.10574
-1.10221
-1.13066
-1.18321
-1.61356
-1.73581
-2.35163
-2.61801
-4.20567
-4.84829
-7.58989
-8.28609
-10.6136
-11.1515
-13.3699
-13.8871
-15.8983
-16.2138
-16.75
-17.269
-21.7146
-20.3878
-4.4413
-2.28073
-0.553204
-0.141755
-0.0352588
-0.00725124
110.938
221.185
40.4075
41.0557
19.2213
17.8729
5.51536
4.6676
-3.2464
-3.61543
-4.52026
-4.54727
-4.80498
-4.73536
-2.46108
-2.58163
-4.66247
-5.17355
-13.9973
-14.2812
-13.5879
-13.4046
-10.5829
-10.3209
-8.13761
-8.01836
-7.56421
-7.66374
-8.60672
-8.53875
-5.52637
-5.42452
-7.54117
-7.46211
-4.693
-4.69363
-6.98705
-7.06849
-6.44998
-6.26812
-3.55708
-3.44222
-3.95269
-3.92482
-3.26139
-3.17733
-2.25687
-2.17592
-1.51757
-1.45961
-1.09134
-1.07103
-1.02662
-1.02599
-1.10991
-1.13441
-1.62322
-1.67968
-2.48193
-2.6031
-4.47181
-4.74442
-7.80102
-8.10427
-10.9936
-11.241
-13.9521
-14.1875
-16.6693
-16.8115
-17.3884
-17.6432
-23.7087
-23.0902
-2.57187
-1.58592
-0.200873
-0.0488112
-0.0121165
-0.00246402
116.043
248.039
-1.34195
-1.85252
-8.86021
-8.96704
-4.77478
-4.89233
-12.2982
-12.4901
-10.0638
-9.73183
-6.71993
-6.45331
-3.20624
-3.23998
-5.18193
-5.44837
-9.75932
-9.7474
-6.85276
-6.59146
-4.08072
-3.85893
-1.7833
-1.72151
-2.12772
-2.19189
-3.29598
-3.24832
-1.72726
-1.63329
-1.3947
-1.3586
-0.98134
-0.955996
-0.677657
-0.64766
-0.369839
-0.337831
-0.148508
-0.1341
-0.0968893
-0.094733
-0.116906
-0.126451
-0.355268
-0.359583
-0.129741
-0.197912
-1.97955
-2.11133
-2.97624
-3.09133
-4.2668
-4.45114
-7.19502
-7.26075
-4.43027
-5.0848
-22.0661
-22.8276
-23.033
-23.1938
-25.4161
-25.6667
-28.5684
-28.7704
-30.2592
-30.3312
-30.7051
-30.7265
-31.9954
-31.5825
-22.0499
-22.6653
-51.795
-50.9073
-2.28772
-0.306016
502.587
257.6
-2.1478
-3.39279
-9.21864
-9.43506
-5.85641
-6.08991
-12.1143
-12.5062
-10.2222
-9.41717
-6.79453
-6.2237
-3.87959
-4.03571
-5.90307
-6.47359
-9.52938
-9.43601
-7.04573
-6.45714
-4.3566
-3.85694
-2.13852
-2.01501
-2.4512
-2.58843
-3.31965
-3.18955
-1.93944
-1.72042
-1.45153
-1.36498
-1.06906
-1.01722
-0.801443
-0.731297
-0.46119
-0.381292
-0.201445
-0.166129
-0.13145
-0.12541
-0.13731
-0.156669
-0.335775
-0.349106
-0.207321
-0.355215
-1.75327
-2.0533
-2.88453
-3.15739
-4.15536
-4.56637
-6.79812
-7.00403
-5.2635
-6.71342
-20.0338
-21.692
-22.2015
-22.5995
-24.508
-25.0748
-27.4572
-27.9036
-29.1158
-29.2629
-29.4971
-29.4973
-30.1949
-29.2537
-21.7349
-22.8465
-44.2166
-42.2621
-4.99756
-0.849031
475.146
267.23
-2.97179
-4.74976
-9.80137
-10.0548
-6.7855
-7.05582
-12.1558
-12.6294
-10.3215
-9.17526
-6.78712
-6.06505
-4.45295
-4.76299
-6.67609
-7.39942
-9.42542
-9.21655
-7.1667
-6.38338
-4.56852
-3.90376
-2.42999
-2.28614
-2.78665
-2.96123
-3.37781
-3.17561
-2.11041
-1.80956
-1.5011
-1.37976
-1.14703
-1.08502
-0.919422
-0.82295
-0.54495
-0.428765
-0.248612
-0.198141
-0.164874
-0.155377
-0.157423
-0.180502
-0.322915
-0.344833
-0.273312
-0.462509
-1.57091
-1.97402
-2.81515
-3.19446
-4.06741
-4.60877
-6.48226
-6.82516
-5.96908
-7.86717
-18.468
-20.6022
-21.3743
-21.9447
-23.6536
-24.4103
-26.4235
-27.0063
-28.015
-28.1911
-28.2984
-28.2402
-28.46
-27.188
-21.0746
-22.2172
-37.5709
-35.029
-6.38257
-1.25438
447.733
276.952
-3.81539
-5.97566
-10.5759
-10.8154
-7.57293
-7.82849
-12.3822
-12.8638
-10.3744
-8.98312
-6.71315
-5.94207
-4.94945
-5.42615
-7.49669
-8.27315
-9.41092
-9.07082
-7.23712
-6.35099
-4.73454
-3.98303
-2.66832
-2.53154
-3.13519
-3.32438
-3.46076
-3.19625
-2.25086
-1.89906
-1.54322
-1.39903
-1.21821
-1.15699
-1.03467
-0.921893
-0.622261
-0.478818
-0.290611
-0.229482
-0.197362
-0.184895
-0.176705
-0.199569
-0.31488
-0.344297
-0.32887
-0.53303
-1.41675
-1.87722
-2.76425
-3.21179
-3.99274
-4.59789
-6.2276
-6.69419
-6.56441
-8.67273
-17.2407
-19.567
-20.5553
-21.2445
-22.8372
-23.6956
-25.447
-26.0919
-26.9475
-27.1221
-27.1064
-26.972
-26.7847
-25.3159
-20.1239
-21.0191
-31.6407
-28.8397
-6.82653
-1.49614
420.358
286.791
-4.68828
-7.10381
-11.5248
-11.7151
-8.22033
-8.42915
-12.7715
-13.2172
-10.3835
-8.82625
-6.57933
-5.82803
-5.38722
-6.02556
-8.36905
-9.13246
-9.45559
-8.98494
-7.26978
-6.34796
-4.8661
-4.08494
-2.85963
-2.74739
-3.50035
-3.68971
-3.55981
-3.24418
-2.36763
-1.98879
-1.57694
-1.41982
-1.28465
-1.23146
-1.14957
-1.02835
-0.693358
-0.530689
-0.327549
-0.259682
-0.229081
-0.214258
-0.194757
-0.214948
-0.310284
-0.345555
-0.375639
-0.576363
-1.27952
-1.76336
-2.73094
-3.21579
-3.92511
-4.54603
-6.01945
-6.58703
-7.07013
-9.21981
-16.2631
-18.5852
-19.7482
-20.5081
-22.0503
-22.9451
-24.5147
-25.169
-25.9073
-26.0607
-25.9192
-25.706
-25.1607
-23.5926
-18.9294
-19.4314
-26.2468
-23.4184
-6.60279
-1.57395
393.031
296.775
-5.60817
-8.15158
-12.6426
-12.7621
-8.71946
-8.8644
-13.3167
-13.7018
-10.3416
-8.6971
-6.38582
-5.70165
-5.78184
-6.55676
-9.30462
-10.0094
-9.5321
-8.94897
-7.27086
-6.36751
-4.96978
-4.20473
-3.00649
-2.9287
-3.88812
-4.06787
-3.66635
-3.31463
-2.46457
-2.0799
-1.60052
-1.43978
-1.34786
-1.30712
-1.2661
-1.14339
-0.757598
-0.58421
-0.359103
-0.288415
-0.26019
-0.243825
-0.211237
-0.227332
-0.308097
-0.347018
-0.415575
-0.59959
-1.15107
-1.63015
-2.71696
-3.21084
-3.86103
-4.46008
-5.84751
-6.48318
-7.50909
-9.57103
-15.4743
-17.6497
-18.9573
-19.7404
-21.2893
-22.1676
-23.619
-24.2428
-24.8904
-25.0111
-24.7349
-24.4533
-23.5776
-21.993
-17.528
-17.5907
-21.2381
-18.556
-5.90715
-1.50217
365.752
306.937
-6.60205
-9.12127
-13.9352
-13.9754
-9.05099
-9.12728
-14.0246
-14.3362
-10.2312
-8.59476
-6.12734
-5.54477
-6.14871
-7.00904
-10.3219
-10.9336
-9.61292
-8.95694
-7.24112
-6.407
-5.0483
-4.34197
-3.10863
-3.06858
-4.30713
-4.46933
-3.77098
-3.40508
-2.54297
-2.17487
-1.61142
-1.45704
-1.40907
-1.38283
-1.38593
-1.269
-0.813378
-0.63983
-0.384506
-0.315472
-0.290844
-0.274059
-0.225785
-0.23714
-0.307588
-0.347294
-0.450887
-0.608112
-1.0255
-1.47264
-2.7267
-3.19964
-3.79901
-4.34259
-5.70562
-6.36365
-7.90649
-9.76849
-14.8344
-16.7489
-18.1874
-18.9422
-20.5551
-21.3673
-22.7565
-23.3156
-23.8946
-23.9775
-23.5508
-23.2244
-22.0228
-20.5084
-15.945
-15.6061
-16.4819
-14.0918
-4.88135
-1.30317
338.519
317.314
-7.70917
-9.99901
-15.4186
-15.3872
-9.18238
-9.19726
-14.9159
-15.1473
-10.0222
-8.52578
-5.79357
-5.3405
-6.50535
-7.36322
-11.4472
-11.9352
-9.66723
-9.00742
-7.17627
-6.46763
-5.10087
-4.50039
-3.16311
-3.15738
-4.76925
-4.90527
-3.86237
-3.51546
-2.60167
-2.27772
-1.60601
-1.47009
-1.46946
-1.45742
-1.51061
-1.4082
-0.857906
-0.698748
-0.40248
-0.340773
-0.321203
-0.305569
-0.23796
-0.244593
-0.308313
-0.345013
-0.484048
-0.606221
-0.898746
-1.28286
-2.7677
-3.18341
-3.73923
-4.19233
-5.59189
-6.20866
-8.29104
-9.8377
-14.3206
-15.8671
-17.4448
-18.1096
-19.853
-20.5438
-21.9271
-22.3877
-22.9187
-22.9643
-22.3628
-22.0306
-20.4806
-19.1457
-14.1928
-13.5724
-11.8557
-9.89977
-3.62989
-1.00338
311.327
327.954
-8.9861
-10.7514
-17.1199
-17.0458
-9.0649
-9.03903
-16.0266
-16.1728
-9.66807
-8.50633
-5.36872
-5.07157
-6.87429
-7.58835
-12.7164
-13.0471
-9.65727
-9.10485
-7.06663
-6.5547
-5.12289
-4.68838
-3.1644
-3.18153
-5.29044
-5.38842
-3.92597
-3.64856
-2.63684
-2.39452
-1.57921
-1.47777
-1.53034
-1.52944
-1.64155
-1.56534
-0.886815
-0.763173
-0.411091
-0.364405
-0.351419
-0.339171
-0.247176
-0.24977
-0.310121
-0.338637
-0.517877
-0.597511
-0.768326
-1.04905
-2.85147
-3.16158
-3.68358
-4.00421
-5.50946
-5.99499
-8.69693
-9.78938
-13.9242
-14.9841
-16.7387
-17.2339
-19.1929
-19.6927
-21.1347
-21.4569
-21.9622
-21.9769
-21.1641
-20.8855
-18.9297
-17.9275
-12.2671
-11.5822
-7.23875
-5.87992
-2.23243
-0.631071
284.164
338.917
-10.5148
-11.3197
-19.0789
-19.0206
-8.62917
-8.60024
-17.411
-17.4643
-9.10031
-8.56598
-4.83031
-4.71867
-7.28679
-7.63692
-14.1775
-14.3078
-9.53386
-9.26178
-6.89602
-6.67865
-5.10508
-4.91999
-3.10408
-3.12203
-5.89209
-5.93401
-3.9422
-3.81107
-2.64127
-2.53428
-1.52389
-1.47931
-1.59339
-1.59695
-1.78004
-1.74659
-0.893545
-0.836748
-0.407498
-0.3867
-0.381615
-0.37597
-0.252614
-0.252641
-0.313205
-0.32623
-0.555688
-0.585151
-0.633508
-0.754378
-2.99494
-3.13128
-3.63598
-3.76871
-5.4678
-5.69263
-9.16715
-9.61932
-13.6507
-14.0733
-16.083
-16.2997
-18.5913
-18.8039
-20.387
-20.5187
-21.0254
-21.0227
-19.944
-19.8075
-17.3407
-16.8955
-10.1421
-9.73804
-2.50209
-1.95137
-0.752968
-0.215183
257.021
)
;

boundaryField
{
    F1_1
    {
        type            calculated;
        value           nonuniform List<scalar> 
80
(
120.901
117.654
16.0173
-4.39978
-5.75446
-7.63757
-7.82599
-7.1483
-7.12362
-6.13829
-6.02337
-3.96323
-3.96946
-6.58086
-6.96955
-13.4155
-13.5321
-8.72249
-8.45266
-6.8196