/*--------------------------------*- C++ -*----------------------------------*\
| =========                 |                                                 |
| \\      /  F ield         | OpenFOAM: The Open Source CFD Toolbox           |
|  \\    /   O peration     | Version:  5.x                                   |
|   \\  /    A nd           | Web:      www.OpenFOAM.org                      |
|    \\/     M anipulation  |                                                 |
\*---------------------------------------------------------------------------*/
FoamFile
{
    version     2.0;
    format      ascii;
    class       volScalarField;
    location    "0.6";
    object      T;
}
// * * * * * * * * * * * * * * * * * * * * * * * * * * * * * * * * * * * * * //

dimensions      [0 0 0 1 0 0 0];

internalField   nonuniform List<scalar> 
3200
(
0.916314
11.1738
12.6817
12.7755
12.2417
12.2001
11.4779
11.4175
10.7631
10.7051
10.1493
10.1028
9.75296
9.70584
9.09487
9.00889
7.75332
7.65568
6.88107
6.81041
6.19911
6.14436
5.67368
5.63563
5.36824
5.33765
4.99071
4.9495
4.40604
4.36618
4.06203
4.03629
3.81987
3.80314
3.69434
3.68054
3.51014
3.49794
3.41298
3.40658
3.36219
3.35914
3.33945
3.33848
3.33445
3.33472
3.33948
3.34029
3.34593
3.34787
3.37848
3.38114
3.4032
3.40515
3.41819
3.42045
3.45126
3.45349
3.46702
3.46857
3.48457
3.48582
3.49688
3.49636
3.47887
3.47476
3.41814
3.40856
3.29357
3.27602
3.08486
3.05713
2.78609
2.74869
2.40379
2.36542
2.32045
2.30144
2.29578
2.29438
2.33864
10.2344
12.0168
12.267
11.9304
11.8525
11.286
11.1549
10.6143
10.4841
10.0166
9.90965
9.59925
9.49257
8.98805
8.79788
7.77131
7.55178
6.8879
6.7257
6.20317
6.07782
5.67774
5.59006
5.35473
5.2851
4.99719
4.90588
4.46203
4.37316
4.11669
4.05823
3.87421
3.83569
3.73972
3.70839
3.56827
3.54088
3.46868
3.45415
3.41671
3.40986
3.39371
3.39166
3.38895
3.38974
3.39451
3.39658
3.40265
3.40719
3.43271
3.43879
3.4579
3.46251
3.47464
3.47986
3.50536
3.51047
3.52261
3.5262
3.53965
3.54241
3.55098
3.54962
3.53391
3.52424
3.47399
3.45135
3.34871
3.30691
3.13409
3.06718
2.81673
2.72619
2.40938
2.30679
2.17059
2.11407
2.09744
2.09337
3.44513
9.5395
11.4133
11.7819
11.6088
11.5245
11.0767
10.9087
10.4491
10.2767
9.86958
9.7247
9.43744
9.29526
8.8687
8.62038
7.75707
7.4657
6.8747
6.65545
6.19139
6.0223
5.66933
5.55042
5.33463
5.2413
4.99582
4.87638
4.50384
4.38687
4.16345
4.08521
3.92274
3.87055
3.78253
3.74061
3.62189
3.58563
3.52209
3.50265
3.47001
3.46096
3.44742
3.44487
3.44332
3.44461
3.44966
3.45272
3.45944
3.46568
3.48773
3.49592
3.5132
3.51958
3.53138
3.53846
3.56029
3.56717
3.57854
3.58344
3.59516
3.59877
3.60548
3.60347
3.58873
3.57534
3.52874
3.49734
3.40143
3.34305
3.17909
3.08458
2.84098
2.71273
2.4064
2.24951
2.01755
1.92511
1.8986
1.8922
4.30782
9.01341
10.87
11.3185
11.2837
11.2111
10.8563
10.6743
10.2726
10.0787
9.71212
9.54551
9.2699
9.10939
8.74229
8.46755
7.72002
7.39167
6.84671
6.59505
6.16786
5.97419
5.65161
5.5147
5.30967
5.20364
4.98946
4.85703
4.53547
4.40488
4.20443
4.11558
3.9669
3.90687
3.82352
3.77592
3.67223
3.63148
3.57375
3.55168
3.52238
3.51226
3.50069
3.49805
3.49758
3.49934
3.50489
3.50873
3.51626
3.52354
3.54331
3.55269
3.56894
3.57645
3.58832
3.59648
3.61582
3.6237
3.63475
3.64042
3.651
3.65502
3.66034
3.65783
3.6435
3.62778
3.58289
3.54593
3.45265
3.38342
3.22133
3.10795
2.86061
2.70641
2.39746
2.19523
1.85894
1.73352
1.69896
1.69078
4.98227
8.60127
10.3829
10.8744
10.9602
10.9091
10.6291
10.4488
10.0877
9.8877
9.54676
9.37078
9.09784
8.93188
8.61229
8.33373
7.6663
7.32641
6.80707
6.54175
6.13507
5.93131
5.62653
5.48177
5.28081
5.17035
4.97987
4.84531
4.55951
4.42572
4.24099
4.14839
4.00754
3.94415
3.86311
3.81349
3.72008
3.67804
3.624
3.60103
3.574
3.56362
3.55363
3.55116
3.55176
3.55393
3.56021
3.5646
3.5731
3.58091
3.59931
3.6092
3.62504
3.63315
3.64541
3.65407
3.67183
3.68012
3.69118
3.69721
3.70712
3.71123
3.71552
3.71268
3.69833
3.68141
3.63674
3.59677
3.50293
3.42752
3.26162
3.13668
2.87653
2.70628
2.38424
2.14633
1.69189
1.53831
1.49828
1.48905
5.51193
8.2626
9.94754
10.4466
10.6422
10.6162
10.3979
10.2305
9.8966
9.70245
9.3749
9.20003
8.92162
8.76063
8.48075
8.21557
7.5996
7.26843
6.75737
6.4942
6.09425
5.89255
5.59513
5.45116
5.2484
5.14033
4.96811
4.83969
4.57751
4.44864
4.27391
4.18316
4.04511
3.98218
3.90147
3.85285
3.7659
3.72509
3.67303
3.65056
3.62497
3.61499
3.60628
3.60416
3.60589
3.60837
3.61562
3.62031
3.62998
3.63787
3.65567
3.66549
3.68146
3.68969
3.70267
3.7113
3.72823
3.73645
3.74783
3.75387
3.76348
3.76744
3.77101
3.768
3.75329
3.73615
3.69042
3.64979
3.55247
3.47525
3.30028
3.17083
2.88886
2.71222
2.36767
2.10609
1.51283
1.33857
1.29639
1.28695
5.93155
7.96654
9.55957
10.031
10.3331
10.3312
10.1648
10.0191
9.69997
9.52264
9.19705
9.03353
8.7408
8.59424
8.34874
8.11156
7.5216
7.21775
6.69786
6.45222
6.04558
5.8577
5.55766
5.42297
5.21226
5.11293
4.95465
4.83947
4.59024
4.47345
4.30351
4.21987
4.07972
4.02095
3.93859
3.89377
3.80991
3.77263
3.72091
3.70023
3.67533
3.66633
3.65868
3.65702
3.66001
3.66264
3.67114
3.67585
3.68694
3.69445
3.71236
3.72154
3.7382
3.74606
3.76011
3.76822
3.78499
3.79266
3.8047
3.81039
3.82009
3.82368
3.82677
3.82381
3.80835
3.79206
3.7439
3.70509
3.60123
3.5269
3.33713
3.21109
2.89698
2.72489
2.34778
2.07913
1.31701
1.13355
1.09319
1.08449
6.26973
7.68814
9.21647
9.62219
10.0362
10.0528
9.93096
9.8146
9.49776
9.34886
9.01281
8.87229
8.55424
8.4319
8.21649
8.02176
7.43227
7.17581
6.62746
6.41677
5.98825
5.82741
5.51364
5.39788
5.17173
5.08794
4.93952
4.84467
4.59772
4.50042
4.32971
4.25888
4.11111
4.06069
3.97422
3.93628
3.85207
3.82076
3.76756
3.75009
3.72508
3.71762
3.71085
3.70971
3.71416
3.71668
3.72682
3.73114
3.74406
3.75062
3.76941
3.77731
3.79531
3.8022
3.8178
3.8248
3.84212
3.8487
3.86185
3.86677
3.87695
3.87996
3.88278
3.88013
3.86346
3.84925
3.79703
3.763
3.64882
3.58318
3.37144
3.25888
2.89942
2.74576
2.32356
2.07191
1.09805
0.922824
0.888747
0.881693
6.55117
7.40534
8.91828
9.21306
9.75522
9.77996
9.69696
9.61824
9.28891
9.18264
8.82082
8.71824
8.35992
8.27337
8.0835
7.94783
7.32969
7.14562
6.54363
6.39009
5.92027
5.8033
5.46176
5.37726
5.12555
5.06559
4.92229
4.85598
4.59924
4.53037
4.35193
4.30099
4.13863
4.1019
4.00794
3.98066
3.89213
3.86978
3.81279
3.80026
3.77414
3.7689
3.76282
3.76219
3.76839
3.77043
3.78275
3.78609
3.80145
3.80631
3.82691
3.83269
3.85287
3.85799
3.87585
3.88098
3.8997
3.9045
3.91933
3.92295
3.93411
3.93626
3.93903
3.93702
3.91849
3.90797
3.84943
3.82413
3.69448
3.64531
3.40179
3.31655
2.89364
2.77738
2.29253
2.09359
0.847156
0.706458
0.683228
0.678619
6.79842
7.09617
8.66882
8.79405
9.49499
9.51149
9.46283
9.43196
9.07118
9.02669
8.61852
8.57446
8.15479
8.11902
7.94839
7.89325
7.2098
7.1322
6.44191
6.37611
5.83821
5.7882
5.39963
5.36336
5.07172
5.04659
4.90201
4.87494
4.59328
4.56472
4.36908
4.34758
4.16115
4.14542
4.03901
4.0275
3.92957
3.92021
3.85626
3.85099
3.82237
3.82023
3.81457
3.8144
3.8228
3.82377
3.83905
3.84057
3.85926
3.86139
3.885
3.88749
3.91104
3.91328
3.93441
3.93662
3.95784
3.9599
3.97726
3.97883
3.99163
3.99254
3.99547
3.99458
3.9732
3.96862
3.90052
3.88944
3.73692
3.71522
3.42582
3.38773
2.8756
2.82375
2.25005
2.15717
0.552036
0.4854
0.476971
0.475366
11.5737
11.7224
15.6483
15.8427
17.114
17.15
17.0791
17.0459
16.6661
16.6163
16.1646
16.1083
15.5118
15.4636
15.2886
15.1918
13.7496
13.6031
12.3113
12.191
11.2258
11.1326
10.3834
10.3109
9.7069
9.64132
9.03069
8.95433
8.26363
8.19546
7.82614
7.76591
7.11733
7.06459
6.7583
6.70672
6.12429
6.06671
5.63377
5.5965
5.41342
5.38449
5.09596
5.06861
4.87411
4.85529
4.73527
4.72348
4.66899
4.6599
4.57947
4.57156
4.52337
4.51866
4.49951
4.49583
4.46106
4.45771
4.44388
4.43755
4.33627
4.32375
4.17596
4.15571
3.90108
3.86727
3.44253
3.38861
2.71742
2.63695
1.65633
1.53476
-0.0742013
-0.198513
-1.23771
-1.28979
-1.29804
-1.29987
-1.3003
-1.30039
13.0806
13.3815
16.3592
16.7498
17.7137
17.7765
17.6803
17.5961
17.2453
17.1252
16.7168
16.5855
16.0795
15.9619
15.7385
15.5051
14.25
13.9079
12.7887
12.5085
11.662
11.4435
10.7839
10.6147
10.0905
9.93707
9.39396
9.21084
8.5769
8.40932
8.04246
7.89767
7.33738
7.21314
6.92744
6.80412
6.28649
6.14976
5.76414
5.674
5.49124
5.42098
5.16635
5.10145
4.92548
4.88009
4.76799
4.73867
4.68138
4.65877
4.58548
4.56628
4.5207
4.50886
4.48784
4.47867
4.44716
4.43879
4.42234
4.40746
4.32185
4.29325
4.16669
4.12042
3.90369
3.82672
3.46696
3.34472
2.77942
2.59765
1.77372
1.50287
0.188377
-0.0885742
-0.955063
-1.07358
-1.09684
-1.10213
-1.10337
-1.10362
14.5755
14.9334
17.1734
17.6339
18.3494
18.4094
18.2809
18.157
17.8153
17.6456
17.258
17.0777
16.6316
16.4644
16.1889
15.8594
14.7139
14.244
13.2326
12.8487
12.073
11.772
11.1649
10.9327
10.4592
10.2485
9.74288
9.48542
8.87155
8.63119
8.24993
8.04608
7.54003
7.36819
7.09011
6.91731
6.43348
6.24279
5.88272
5.75523
5.56457
5.46486
5.22918
5.13875
4.97163
4.90757
4.79741
4.75499
4.69239
4.65968
4.58933
4.56206
4.51668
4.49944
4.4757
4.46241
4.43234
4.42019
4.40074
4.38019
4.30516
4.26666
4.15421
4.09195
3.90071
3.79748
3.48188
3.31856
2.82608
2.58404
1.86898
1.51273
0.409451
0.0449467
-0.702332
-0.861175
-0.896338
-0.904523
-0.906451
-0.906848
16.0559
16.4099
18.0588
18.5079
19.0114
19.0499
18.8815
18.7266
18.3784
18.1749
17.791
17.5806
17.1727
16.9713
16.6416
16.2463
15.1509
14.6018
13.6514
13.2046
12.4652
12.1129
11.5309
11.2605
10.8176
10.5717
10.0819
9.77433
9.15132
8.85877
8.45037
8.20664
7.72937
7.52755
7.24862
7.04301
6.5688
6.34265
5.99204
5.83903
5.6343
5.51422
5.28622
5.17914
5.01369
4.93692
4.82413
4.77213
4.70222
4.66211
4.59148
4.55857
4.51155
4.49029
4.46315
4.44683
4.4168
4.4019
4.37918
4.35511
4.287
4.24303
4.13973
4.06864
3.89421
3.77674
3.49072
3.30556
2.86272
2.58934
1.94989
1.55246
0.60097
0.193781
-0.473125
-0.65369
-0.696884
-0.707134
-0.709558
-0.710054
17.522
17.8345
18.992
19.3796
19.692
19.6987
19.4816
19.304
18.9359
18.7114
18.3171
18.0914
17.7056
17.4835
17.0969
16.6614
15.5661
14.9757
14.0503
13.5724
12.8421
12.4631
11.8845
11.5953
11.1681
10.9048
10.4138
10.0759
9.41797
9.09106
8.64431
8.37662
7.90776
7.69006
7.40428
7.17951
6.69426
6.44754
6.09351
5.92494
5.70069
5.56793
5.33846
5.2219
5.05222
4.96773
4.84844
4.79001
4.71087
4.66577
4.59212
4.55565
4.50539
4.48138
4.45017
4.4318
4.40067
4.38391
4.35768
4.33179
4.26788
4.22178
4.12395
4.04946
3.88543
3.76274
3.49551
3.30286
2.89257
2.60927
2.0211
1.61434
0.77071
0.353008
-0.263355
-0.451669
-0.498707
-0.510012
-0.512693
-0.513239
18.9755
19.2251
19.956
20.2543
20.3848
20.3565
20.0801
19.8891
19.4877
19.2549
18.8366
18.6088
18.2321
18.0024
17.5544
17.1031
15.9614
15.3633
14.4314
13.9504
13.2049
12.8215
12.2267
11.9357
11.5123
11.2471
10.7397
10.3905
9.67148
9.32825
8.83117
8.55474
8.0762
7.85538
7.55757
7.3265
6.81025
6.55678
6.18761
6.01312
5.76347
5.62555
5.38623
5.26681
5.08738
4.99996
4.87035
4.80874
4.71818
4.67058
4.5913
4.5533
4.4982
4.47277
4.43669
4.41729
4.38396
4.36632
4.33617
4.31
4.24805
4.2026
4.10725
4.03387
3.87499
3.75451
3.49732
3.30887
2.91733
2.64139
2.08505
1.69369
0.923408
0.520186
-0.0706859
-0.255264
-0.301914
-0.313183
-0.31586
-0.316402
20.4189
20.5963
20.9371
21.1356
21.0839
21.0243
20.6753
20.4828
20.0329
19.8059
19.3486
19.1323
18.7529
18.5301
18.0122
17.5725
16.335
15.7643
14.7947
14.3391
13.5535
13.1883
12.5569
12.2815
11.8502
11.5993
11.0593
10.7199
9.91006
9.57168
9.0093
8.74104
8.23441
8.02386
7.70827
7.48498
6.91579
6.67072
6.27399
6.10437
5.82182
5.68727
5.42924
5.31417
5.11889
5.0339
4.88956
4.82864
4.72379
4.67669
4.58884
4.55165
4.48983
4.46459
4.42254
4.40334
4.36664
4.34922
4.31451
4.28964
4.22756
4.18542
4.08966
4.02169
3.86301
3.75175
3.49637
3.32299
2.93747
2.68472
2.14239
1.78819
1.06142
0.694876
0.105752
-0.0643407
-0.10649
-0.116645
-0.119057
-0.119542
21.855
21.9609
21.9239
22.0269
21.7834
21.7037
21.2643
21.0868
20.5692
20.3661
19.851
19.6623
19.2674
19.0698
18.4669
18.0739
16.682
16.1814
15.1374
14.7412
13.8853
13.566
12.8729
12.6336
12.181
11.963
11.371
11.0682
10.1299
9.82417
9.17576
8.93695
8.38086
8.19662
7.85536
7.65737
7.00844
6.79078
6.35134
6.20019
5.8743
5.75397
5.46656
5.36476
5.14602
5.07025
4.90545
4.85033
4.72711
4.68444
4.58436
4.55099
4.48001
4.45709
4.4075
4.3901
4.34854
4.33283
4.29246
4.27077
4.20627
4.17038
4.07096
4.01314
3.84914
3.75475
3.49215
3.34559
2.95229
2.73962
2.19219
1.89758
1.18502
0.878476
0.265449
0.121498
0.0876963
0.0796315
0.0777187
0.0773366
23.2868
23.3311
22.905
22.9321
22.4764
22.3975
21.8429
21.7045
21.093
20.9389
20.3404
20.2007
19.7742
19.6257
18.9133
18.6154
16.9936
16.6204
15.4544
15.1617
14.1958
13.9587
13.1709
12.9944
12.5024
12.3419
11.6712
11.442
10.3244
10.0904
9.32589
9.14561
8.5125
8.37572
7.99676
7.84784
7.08388
6.91976
6.41719
6.30303
5.91859
5.82738
5.49649
5.42006
5.16745
5.11017
4.91698
4.87475
4.72722
4.69449
4.57723
4.55185
4.46827
4.45067
4.39117
4.37782
4.32942
4.31742
4.26966
4.25362
4.18385
4.15788
4.0506
4.00883
3.83248
3.76448
3.48327
3.37806
2.95987
2.8079
2.23187
2.02368
1.29237
1.07434
0.4064
0.302958
0.280887
0.2757
0.274472
0.274229
24.7167
24.72
23.8679
23.8565
23.1543
23.1104
22.4049
22.3411
21.5985
21.5296
20.8116
20.7507
20.2699
20.2043
19.3433
19.21
17.2552
17.0911
15.7366
15.6092
14.4772
14.3734
13.4444
13.3678
12.8107
12.7411
11.9539
11.8515
10.4837
10.378
9.4527
9.37243
8.62432
8.56454
8.12901
8.06295
7.13537
7.06231
6.46754
6.4167
5.95118
5.9104
5.51627
5.48242
5.18108
5.15554
4.92248
4.90339
4.72275
4.70794
4.56643
4.55504
4.4539
4.44593
4.37299
4.36696
4.30885
4.30344
4.2456
4.23861
4.15967
4.14864
4.02762
4.00991
3.81149
3.78274
3.46736
3.42305
2.95681
2.89315
2.25683
2.1707
1.37919
1.28821
0.524782
0.481181
0.473425
0.471635
0.471212
0.471129
24.3767
24.3817
23.5699
23.57
22.9988
22.9737
22.3533
22.3018
21.6125
21.5503
20.9039
20.8508
20.4336
20.3804
19.704
19.6005
17.9451
17.8022
16.4204
16.2889
15.1313
15.0202
14.0515
13.9691
13.396
13.3215
12.4866
12.3766
10.9142
10.8003
9.82137
9.73496
8.93031
8.86574
8.4098
8.33688
7.3058
7.22348
6.55885
6.50028
5.98567
5.93846
5.4889
5.4492
5.1051
5.07461
4.80968
4.78698
4.59046
4.57508
4.46303
4.44906
4.27323
4.26015
4.17145
4.15747
3.9749
3.95861
3.85005
3.82807
3.58968
3.53421
2.72765
2.64281
1.8406
1.74461
0.824365
0.714149
-0.302476
-0.420999
-1.45526
-1.57923
-2.59796
-2.69583
-3.46018
-3.49524
-3.50024
-3.5013
-3.50155
-3.50158
22.9197
22.9676
22.5751
22.6306
22.3062
22.2765
21.8245
21.7182
21.1572
21.0189
20.4811
20.3601
19.9951
19.8748
19.3145
19.089
17.7588
17.4401
16.2608
15.9575
14.955
14.6978
13.8649
13.6728
13.1585
12.9855
12.2713
12.0245
10.8267
10.5736
9.75918
9.56439
8.88324
8.73478
8.3317
8.16657
7.31695
7.13121
6.56361
6.43038
5.99817
5.89133
5.51124
5.4207
5.12757
5.05802
4.83388
4.78243
4.61731
4.58228
4.48496
4.45345
4.30917
4.27949
4.19997
4.16777
4.01395
3.97545
3.86978
3.81593
3.59175
3.46269
2.7787
2.58174
1.87325
1.64649
0.826345
0.564354
-0.348367
-0.631384
-1.56697
-1.86667
-2.8096
-3.0397
-3.6626
-3.73982
-3.75375
-3.75682
-3.75752
-3.75761
21.4607
21.571
21.5623
21.7065
21.6018
21.5962
21.2819
21.1527
20.685
20.5035
20.0416
19.8791
19.5468
19.387
18.9116
18.6217
17.5321
17.1126
16.0662
15.6542
14.7489
14.3985
13.6527
13.3895
12.9074
12.6711
12.0374
11.7105
10.7015
10.3695
9.67227
9.41333
8.8149
8.61405
8.24412
8.02368
7.30159
7.05426
6.55103
6.37248
5.99768
5.85516
5.52202
5.40032
5.14112
5.04764
4.8512
4.78243
4.63898
4.59199
4.50427
4.46236
4.34055
4.30082
4.2266
4.18294
4.04841
3.99498
3.88744
3.81062
3.59002
3.41338
2.81028
2.54114
1.88664
1.57212
0.806009
0.440598
-0.419439
-0.815659
-1.70411
-2.12838
-3.04974
-3.36785
-3.88681
-3.98688
-4.00763
-4.01236
-4.01345
-4.01358
19.9971
20.1791
20.5433
20.7922
20.8935
20.9283
20.7319
20.601
20.2014
19.9994
19.5902
19.405
19.0918
18.9118
18.5014
18.1865
17.2787
16.8103
15.8464
15.3707
14.5208
14.1151
13.4213
13.1151
12.6465
12.3728
11.7914
11.4238
10.5493
10.1801
9.56791
9.27594
8.73075
8.50016
8.15064
7.90094
7.26731
6.98761
6.52553
6.32248
5.98796
5.82667
5.52439
5.38549
5.14808
5.04141
4.86343
4.78545
4.65681
4.60335
4.52177
4.47449
4.36866
4.32356
4.25203
4.20176
4.07964
4.01669
3.90389
3.81107
3.58655
3.38115
2.82852
2.51597
1.88645
1.51583
0.76966
0.336641
-0.509051
-0.980235
-1.85981
-2.37019
-3.31399
-3.68793
-4.12772
-4.23703
-4.26206
-4.26793
-4.2693
-4.26945
18.5262
18.7798
19.5289
19.8839
20.1878
20.2697
20.1794
20.06
19.71
19.5038
19.13
18.9362
18.6315
18.446
18.0876
17.7752
17.0079
16.5279
15.6073
15.1023
14.2751
13.8435
13.1745
12.8473
12.378
12.0869
11.5369
11.1576
10.377
10.0005
9.45086
9.14878
8.63412
8.39113
8.05327
7.79365
7.21896
6.92835
6.48975
6.27782
5.97137
5.80387
5.52029
5.37466
5.14986
5.03809
4.87171
4.79054
4.67168
4.61588
4.53793
4.48899
4.39437
4.34738
4.27663
4.22348
4.10852
4.04042
3.91956
3.81682
3.58234
3.36283
2.83717
2.5035
1.87593
1.47459
0.720805
0.24921
-0.613627
-1.12846
-2.03026
-2.59466
-3.60102
-4.00533
-4.38177
-4.49044
-4.51711
-4.52354
-4.52505
-4.5252
17.045
17.3605
18.5301
18.9775
19.491
19.618
19.6282
19.5284
19.213
19.0149
18.6628
18.472
18.1666
17.9872
17.672
17.3823
16.7258
16.2634
15.3516
14.847
14.0137
13.5814
12.9143
12.5853
12.1026
11.8115
11.2757
10.9076
10.1887
9.8279
9.32404
9.03025
8.52675
8.28602
7.95288
7.69907
7.15935
6.8751
6.44499
6.23702
5.9493
5.7858
5.51073
5.36705
5.14717
5.03699
4.87663
4.79718
4.68406
4.62932
4.55296
4.50535
4.4182
4.37218
4.30056
4.24769
4.13555
4.06628
3.93453
3.82786
3.57755
3.35678
2.83818
2.50281
1.85638
1.44746
0.660686
0.17745
-0.732105
-1.2612
-2.21421
-2.80144
-3.91211
-4.32379
-4.64644
-4.747
-4.77283
-4.77917
-4.78067
-4.78082
15.5511
15.9069
17.5601
18.0684
18.8097
18.9711
19.0814
19.0055
18.7114
18.5324
18.1892
18.0124
17.6969
17.5341
17.2556
17.0042
16.4361
16.0169
15.0799
14.6051
13.7364
13.329
12.6407
12.3296
11.8196
11.546
11.008
10.6717
9.98622
9.66121
9.18895
8.92024
8.40898
8.18472
7.84943
7.61604
7.08963
6.82779
6.39144
6.1995
5.92234
5.77225
5.49598
5.36256
5.14015
5.03796
4.87836
4.80521
4.69414
4.64367
4.56688
4.52333
4.44042
4.39803
4.32377
4.2743
4.1609
4.09467
3.94852
3.84467
3.5716
3.36267
2.83188
2.51459
1.82736
1.43547
0.588448
0.122763
-0.865783
-1.37696
-2.41277
-2.98727
-4.25113
-4.64576
-4.91991
-5.00643
-5.02917
-5.03484
-5.03618
-5.0363
14.0428
14.4013
16.6359
17.15
18.1516
18.3263
18.5422
18.4914
18.2054
18.0565
17.7091
17.5585
17.2211
17.0856
16.8382
16.6388
16.1406
15.7914
14.7899
14.379
13.4409
13.0879
12.3521
12.082
11.5273
11.2913
10.7324
10.4499
9.76944
9.50052
9.04582
8.82004
8.27985
8.08797
7.74201
7.54483
7.00942
6.78754
6.3282
6.16546
5.89037
5.76382
5.47558
5.36167
5.12838
5.04127
4.87668
4.81479
4.70184
4.6591
4.57951
4.5429
4.46105
4.42519
4.346
4.3035
4.18438
4.12628
3.96085
3.86827
3.56312
3.38145
2.81706
2.54119
1.78655
1.44171
0.500977
0.0890094
-1.01854
-1.47173
-2.62977
-3.14551
-4.6249
-4.9725
-5.2008
-5.26829
-5.28606
-5.29052
-5.29158
-5.29166
12.52
12.8205
15.7804
16.2121
17.5266
17.6798
18.0137
17.9868
17.6939
17.5887
17.2212
17.1123
16.7373
16.6418
16.419
16.2856
15.8393
15.5921
14.4764
14.1742
13.122
12.8623
12.045
11.846
11.2224
11.0495
10.4457
10.2442
9.53629
9.34736
8.89364
8.7325
8.13687
7.99747
7.62872
7.48722
6.91674
6.75686
6.25315
6.13597
5.85252
5.76191
5.44825
5.36561
5.1108
5.04771
4.87092
4.82645
4.70675
4.67603
4.59043
4.56432
4.47986
4.4541
4.36679
4.33577
4.20544
4.16219
3.97027
3.90039
3.54971
3.41556
2.79072
2.58696
1.72936
1.47181
0.392372
0.0830939
-1.19746
-1.53829
-2.87246
-3.26519
-5.04392
-5.30397
-5.48805
-5.53204
-5.54337
-5.54622
-5.5469
-5.54694
10.9852
11.1333
15.026
15.2389
16.9481
17.0262
17.4996
17.4929
17.175
17.1314
16.723
16.6767
16.2425
16.2031
15.9964
15.945
15.5301
15.4276
14.1304
13.9995
12.7716
12.659
11.7133
11.6269
10.8995
10.8251
10.1431
10.0587
9.28245
9.20486
8.72981
8.6624
7.97569
7.91619
7.50639
7.44683
6.80769
6.73998
6.16269
6.11317
5.80698
5.76895
5.41171
5.37646
5.08557
5.05873
4.85989
4.84114
4.70813
4.69518
4.599
4.58808
4.49633
4.48548
4.38534
4.37204
4.22302
4.20407
3.97483
3.94376
3.52765
3.46932
2.74754
2.65889
1.64818
1.53479
0.252971
0.116039
-1.41396
-1.56511
-3.1528
-3.32943
-5.52367
-5.63845
-5.78086
-5.79704
-5.80094
-5.80192
-5.80216
-5.80217
12.4099
12.394
12.2758
12.2087
11.3897
11.312
10.9123
10.8228
9.68244
9.57376
8.67605
8.60057
8.00406
7.95524
7.68344
7.63125
7.16524
7.08641
6.18931
6.11167
5.50404
5.45252
5.09596
5.06663
4.91763
4.89448
4.70486
4.67529
4.37526
4.35046
4.20254
4.18713
4.06307
4.05127
3.96493
3.95567
3.89717
3.8909
3.86018
3.85712
3.84533
3.84371
3.83564
3.83424
3.82395
3.82159
3.78843
3.78563
3.77545
3.76584
3.5775
3.55471
3.27987
3.24558
2.85319
2.80046
2.13369
2.07439
1.69067
1.56591
-0.515942
-0.716858
-2.81924
-3.03624
-5.36085
-5.6029
-8.2177
-8.47994
-11.2436
-11.5131
-14.3141
-14.5857
-17.5137
-17.744
-19.7187
-20.0105
-24.8982
-25.1012
-25.1269
-25.1318
12.9023
12.8577
12.6875
12.5185
11.7656
11.575
11.18
10.966
9.96856
9.71535
8.94633
8.77363
8.26688
8.15126
7.87892
7.74769
7.28861
7.10033
6.33568
6.15673
5.6311
5.51101
5.19544
5.12532
4.98159
4.92382
4.73647
4.66498
4.40451
4.34602
4.21056
4.17398
4.06541
4.03748
3.9585
3.93576
3.87836
3.86263
3.83224
3.8245
3.8121
3.80789
3.79895
3.79535
3.78522
3.77968
3.75164
3.74477
3.73091
3.70925
3.55558
3.50392
3.26713
3.18818
2.85159
2.73154
2.17178
2.03114
1.64543
1.3598
-0.357947
-0.809401
-2.57809
-3.06935
-5.02889
-5.57683
-7.77462
-8.36719
-10.6862
-11.2935
-13.6359
-14.2432
-16.6554
-17.1686
-18.8289
-19.4532
-23.2505
-23.6794
-23.7503
-23.7643
13.3964
13.3266
13.0992
12.8516
12.1191
11.8461
11.4405
11.1406
10.225
9.87761
9.19281
8.96009
8.5141
8.35358
8.0688
7.87728
7.40119
7.13734
6.45865
6.21569
5.74198
5.57735
5.28513
5.18697
5.04213
4.95836
4.76346
4.66224
4.42568
4.34468
4.21464
4.16372
4.06453
4.02574
3.94983
3.91724
3.85789
3.83495
3.80339
3.79207
3.77853
3.77226
3.76204
3.75672
3.7463
3.73867
3.71401
3.70418
3.68668
3.65793
3.52959
3.46053
3.24807
3.14109
2.84133
2.68021
2.19311
1.99769
1.5962
1.21098
-0.250597
-0.849246
-2.38803
-3.04372
-4.75339
-5.48475
-7.39574
-8.18538
-10.1972
-11.0045
-13.0271
-13.8285
-15.8731
-16.5473
-17.9805
-18.769
-21.7376
-22.2719
-22.3759
-22.3974
13.8934
13.8018
13.5118
13.2042
12.4542
12.1227
11.6969
11.3398
10.4587
10.0535
9.42128
9.15515
8.74996
8.56094
8.25502
8.01833
7.50535
7.19101
6.56426
6.28393
5.84054
5.64883
5.36709
5.25053
5.10026
4.99737
4.78674
4.66494
4.44066
4.34531
4.21558
4.15541
4.06125
4.0155
3.93943
3.8998
3.83597
3.80761
3.77374
3.75973
3.74468
3.73678
3.72494
3.71829
3.70727
3.69834
3.67579
3.66391
3.6429
3.6106
3.50122
3.42288
3.2248
3.1017
2.82552
2.64191
2.20276
1.9725
1.54632
1.10522
-0.17775
-0.851473
-2.23328
-2.97592
-4.517
-5.34548
-7.0617
-7.95466
-9.75645
-10.6669
-12.4671
-13.3641
-15.1456
-15.8957
-17.158
-17.9976
-20.322
-20.8815
-21.0047
-21.0312
14.394
14.285
13.9252
13.5746
12.7727
12.4031
11.9507
11.5602
10.6736
10.2385
9.6352
9.35587
8.97727
8.77306
8.43855
8.17051
7.60164
7.25726
6.65608
6.35877
5.9291
5.72397
5.44249
5.31548
5.15653
5.04074
4.8065
4.67177
4.45051
4.34735
4.21375
4.14847
4.05606
4.00649
3.92759
3.88334
3.81264
3.78051
3.7433
3.72744
3.71055
3.70147
3.68764
3.68005
3.66816
3.65855
3.63713
3.624
3.59957
3.56636
3.47162
3.39002
3.19852
3.06844
2.80601
2.61384
2.20407
1.95514
1.49705
1.03316
-0.129257
-0.825359
-2.10408
-2.87617
-4.30911
-5.17068
-6.76058
-7.68758
-9.35131
-10.2936
-11.9432
-12.8642
-14.4593
-15.2235
-16.3522
-17.1666
-18.9769
-19.5085
-19.6372
-19.6659
14.8991
14.7783
14.3383
13.9632
13.0741
12.687
12.2021
11.8005
10.8704
10.4304
9.83627
9.56065
9.19769
8.99049
8.61951
8.33481
7.68905
7.33387
6.73584
6.43898
6.00875
5.80223
5.51177
5.38175
5.21112
5.08888
4.82231
4.6821
4.45568
4.35063
4.20922
4.14264
4.04917
3.99867
3.91438
3.86795
3.78777
3.75362
3.71201
3.69519
3.6761
3.66635
3.65008
3.64197
3.62896
3.61924
3.59815
3.58454
3.55659
3.52458
3.44149
3.36156
3.16979
3.04048
2.78369
2.59447
2.19894
1.94615
1.44803
0.989048
-0.099398
-0.775921
-1.99513
-2.74996
-4.12406
-4.96673
-6.48596
-7.39101
-8.975
-9.89212
-11.4485
-12.3374
-13.8062
-14.5367
-15.559
-16.2958
-17.6828
-18.1514
-18.2736
-18.3016
15.4091
15.2845
14.7489
14.3724
13.3554
12.9749
12.4503
12.0621
11.0478
10.6285
10.0247
9.76904
9.41199
9.21456
8.79711
8.51366
7.76492
7.42029
6.80363
6.5246
6.07952
5.8839
5.57469
5.4497
5.26383
5.14284
4.83311
4.69591
4.45602
4.3554
4.20172
4.13792
4.04058
3.99221
3.89967
3.85393
3.76108
3.72703
3.67974
3.66304
3.64129
3.6315
3.6122
3.60409
3.58963
3.58038
3.55887
3.54565
3.51378
3.48484
3.41123
3.33757
3.13856
3.01761
2.75866
2.58335
2.1881
1.94698
1.39745
0.970135
-0.0859966
-0.704756
-1.90473
-2.59897
-3.96024
-4.7357
-6.23589
-7.06726
-8.62535
-9.46501
-10.9804
-11.7875
-13.1827
-13.8383
-14.7772
-15.3989
-16.4254
-16.8081
-16.9135
-16.9384
15.9242
15.8072
15.1532
14.8073
13.6114
13.2686
12.6931
12.3489
11.2016
10.8341
10.1993
9.98157
9.61998
9.44752
8.96945
8.7112
7.82472
7.51767
6.858
6.61693
6.14037
5.97017
5.63029
5.52013
5.31398
5.20439
4.83705
4.71387
4.45081
4.36232
4.19065
4.13455
4.03005
3.98754
3.8831
3.8418
3.73204
3.70098
3.64625
3.6311
3.606
3.59702
3.57388
3.56647
3.55008
3.54201
3.51925
3.50751
3.47085
3.44688
3.38097
3.3186
3.1042
3.00026
2.73028
2.58103
2.17109
1.96016
1.34199
0.976389
-0.0900729
-0.610326
-1.83455
-2.42129
-3.81985
-4.47567
-6.01256
-6.71443
-8.30443
-9.01086
-10.5407
-11.2139
-12.5888
-13.1285
-14.0081
-14.4857
-15.1936
-15.4757
-15.5566
-15.576
16.4439
16.3515
15.5453
15.2763
13.8333
13.5717
12.9268
12.6678
11.3242
11.0506
10.3574
10.1999
9.82048
9.69277
9.13305
8.93394
7.86141
7.62923
6.89569
6.71874
6.18902
6.06327
5.67673
5.59444
5.3603
5.27628
4.83125
4.73744
4.43865
4.37258
4.17497
4.13313
4.01705
3.98536
3.86401
3.83241
3.69986
3.67588
3.61118
3.59956
3.57007
3.56312
3.53493
3.5292
3.51021
3.50423
3.4792
3.47036
3.42741
3.41061
3.35058
3.30571
3.06543
2.98955
2.69707
2.58913
2.14613
1.98963
1.27643
1.01069
-0.115984
-0.487722
-1.78985
-2.21111
-3.70915
-4.18038
-5.82261
-6.32607
-8.01884
-8.52376
-10.1352
-10.6123
-12.0282
-12.4051
-13.2549
-13.5633
-13.9788
-14.1513
-14.202
-14.2144
16.9674
16.9243
15.9159
15.7923
14.008
13.8903
13.1451
13.0302
11.404
11.2838
10.494
10.4272
10.011
9.95535
9.28228
9.19166
7.86453
7.76088
6.91115
6.8347
6.22155
6.16684
5.71104
5.67484
5.40063
5.36263
4.81142
4.76923
4.4172
4.38813
4.15307
4.1347
4.00069
3.98677
3.84135
3.82707
3.66334
3.65241
3.57399
3.56874
3.53324
3.53007
3.49508
3.49247
3.46982
3.46721
3.4385
3.43458
3.38293
3.37607
3.31958
3.30063
3.02008
2.9875
2.65648
2.61063
2.1097
2.04137
1.19299
1.07944
-0.172083
-0.327895
-1.78039
-1.95786
-3.63951
-3.83825
-5.67821
-5.89012
-7.78075
-7.99239
-9.77515
-9.97315
-11.5092
-11.6627
-12.5234
-12.6365
-12.7736
-12.8316
-12.8489
-12.8532
)
;

boundaryField
{
    F1_1
    {
        type            fixedValue;
        value           nonuniform List<scalar> 
80
(
0
11.8185
13.0424
13.0424
12.3875
12.3875
11.5607
11.5607
10.8256
10.8256
10.2054
10.2054
9.82377
9.82377
9.13779
9.13779
7.72118
7.72118
6.86359
6.86359
6.18596
6.18596
5.66301
5.66301
5.37026
5.37026
4.98137
4.98137
4.36798
4.36798
4.02914
4.02914
3.78871
3.78871
3.66975
3.66975
3.47792
3.47792
3.38355
3.38355
3.33411
3.33411
3.31195
3.31195
3.30712
3.30712
3.31204
3.31204
3.31764
3.31764
3.35193
3.35193
3.37625
3.37625
3.39018
3.39018
3.42478
3.42478
3.43946
3.43946
3.45733
3.45733
3.47007
3.47007
3.45108
3.45108
3.38927
3.38927
3.26404
3.26404
3.05697
3.05697
2.7661
2.7661
2.39486
2.39486
2.39486
2.39486
2.39486
2.39486
)
;
    }
    F1_2
    {
        type            fixedValue;
        value           nonuniform List<scalar> 
80
(
25.4316
25.4316
24.3326
24.3326
23.48
23.48
22.673
22.673
21.8379
21.8379
21.034
21.034
20.5095
20.5095
19.5437
19.5437
17.3503
17.3503
15.8531
15.8531
14.5973
14.5973
13.5642
13.5642
12.9551
12.9551
12.0815
12.0815
10.5381
10.5381
9.49921
9.49921
8.66648
8.66648
8.18775
8.18775
7.14402
7.14402
6.48184
6.48184
5.95898
5.95898
5.51895
5.51895
5.18238
5.18238
4.92095
4.92095
4.7172
4.7172
4.55843
4.55843
4.44485
4.44485
4.36257
4.36257
4.2975
4.2975
4.23255
4.23255
4.14622
4.14622
4.01406
4.01406
3.7976
3.7976
3.45398
3.45398
2.94722
2.94722
2.25831
2.25831
1.40859
1.40859
0.56958
0.56958
0.56958
0.56958
0.56958
0.56958
)
;
    }
    F1_3
    {
        type            fixedValue;
        value           nonuniform List<scalar> 
80
(
25.1051
25.1051
24.0511
24.0511
23.3342
23.3342
22.6064
22.6064
21.8277
21.8277
21.1035
21.1035
20.6456
20.6456
19.8873
19.8873
18.008
18.008
16.4752
16.4752
15.1985
15.1985
14.1271
14.1271
13.5047
13.5047
12.5797
12.5797
10.9309
10.9309
9.83462
9.83462
8.93906
8.93906
8.4412
8.4412
7.28126
7.28126
6.54435
6.54435
5.97008
5.97008
5.46954
5.46954
5.08759
5.08759
4.79274
4.79274
4.57341
4.57341
4.4501
4.4501
4.252
4.252
4.1557
4.1557
3.95204
3.95204
3.83846
3.83846
3.58499
3.58499
2.68769
2.68769
1.81015
1.81015
0.807176
0.807176
-0.297491
-0.297491
-1.41761
-1.41761
-2.51056
-2.51056
-3.37355
-3.37355
-3.37355
-3.37355
-3.37355
-3.37355
)
;
    }
    F1_4
    {
        type            fixedValue;
        value           nonuniform List<scalar> 
80
(
17.23
17.23
16.0836
16.0836
14.0621
14.0621
13.2417
13.2417
11.4138
11.4138
10.5479
10.5479
10.099
10.099
9.34525
9.34525
7.84163
7.84163
6.90342
6.90342
6.22664
6.22664
5.7198
5.7198
5.41608
5.41608
4.79133
4.79133
4.40002
4.40002
4.13779
4.13779
3.9901
3.9901
3.82739
3.82739
3.64203
3.64203
3.55393
3.55393
3.51418
3.51418
3.4745
3.4745
3.44922
3.44922
3.41765
3.41765
3.35979
3.35979
3.30332
3.30332
2.99245
2.99245
2.63049
2.63049
2.08284
2.08284
1.13657
1.13657
-0.222045
-0.222045
-1.80115
-1.80115
-3.63435
-3.63435
-5.63857
-5.63857
-7.69529
-7.69529
-9.6268
-9.6268
-11.2774
-11.2774
-12.1726
-12.1726
-12.1726
-12.1726
-12.1726
-12.1726
)
;
    }
    F2_1
    {
        type            fixedValue;
        value           nonuniform List<scalar> 
80
(
6.91609
6.91609
8.57303
8.57303
9.37856
9.37856
9.34542
9.34542
8.956
8.956
8.51009
8.51009
8.04455
8.04455
7.87853
7.87853
7.13775
7.13775
6.37857
6.37857
5.78743
5.78743
5.36152
5.36152
5.03949
5.03949
4.88952
4.88952
4.58524
4.58524
4.37418
4.37418