/*--------------------------------*- C++ -*----------------------------------*\
| =========                 |                                                 |
| \\      /  F ield         | OpenFOAM: The Open Source CFD Toolbox           |
|  \\    /   O peration     | Version:  5.x                                   |
|   \\  /    A nd           | Web:      www.OpenFOAM.org                      |
|    \\/     M anipulation  |                                                 |
\*---------------------------------------------------------------------------*/
FoamFile
{
    version     2.0;
    format      ascii;
    class       volScalarField;
    location    "7.3";
    object      gradTx;
}
// * * * * * * * * * * * * * * * * * * * * * * * * * * * * * * * * * * * * * //

dimensions      [0 -1 0 1 0 0 0];

internalField   nonuniform List<scalar> 
6300
(
521.526
520.008
516.97
512.405
506.308
498.673
489.501
478.802
466.6
452.94
437.897
421.579
404.131
385.743
366.641
523.024
521.51
518.477
513.919
507.827
500.192
491.011
480.288
468.04
454.307
439.157
422.692
405.057
386.443
367.082
526.018
524.511
521.491
516.948
510.869
503.239
494.045
483.28
470.948
457.075
441.715
424.959
406.948
387.875
367.986
530.5
529.005
526.008
521.494
515.444
507.832
498.632
487.82
475.38
461.314
445.652
428.467
409.887
390.108
369.398
536.457
534.982
532.022
527.558
521.562
513.995
504.814
493.971
481.422
467.132
451.097
433.354
414.01
393.259
371.396
543.87
542.424
539.521
535.136
529.23
521.753
512.638
501.811
489.185
474.68
458.232
439.826
419.523
397.506
374.102
552.708
551.304
548.483
544.214
538.451
531.128
522.158
511.429
498.81
484.152
467.31
448.178
426.737
403.125
377.704
562.93
561.582
558.872
554.767
549.213
542.132
533.417
522.921
510.455
495.789
478.661
458.822
436.104
410.54
382.5
574.478
573.203
570.637
566.748
561.48
554.751
546.437
536.362
524.282
509.868
492.707
472.328
448.3
420.417
388.976
587.281
586.093
583.705
580.087
575.19
568.934
561.197
551.789
540.424
526.677
509.951
489.466
464.335
433.837
397.956
601.25
600.163
597.981
594.684
590.237
584.579
577.608
569.154
558.926
546.444
530.937
511.231
485.718
452.625
410.949
616.284
615.307
613.351
610.41
606.473
601.514
595.482
588.271
579.66
569.217
556.103
538.784
514.666
479.978
430.954
632.273
631.408
629.683
627.11
623.708
619.5
614.514
608.764
602.207
594.639
585.453
573.118
554.164
521.65
464.671
649.105
648.346
646.841
644.618
641.725
638.241
634.288
630.042
625.742
621.657
617.931
614.049
607.201
587.767
529.383
666.672
666.007
664.694
662.771
660.309
657.428
654.331
651.35
649.039
648.294
650.544
657.922
672.8
692.813
677.811
348.738
332.303
315.897
299.685
283.824
268.456
253.711
239.696
226.499
214.19
202.817
192.415
183
174.578
167.144
160.683
155.175
150.589
146.891
144.041
141.992
140.691
140.077
140.085
140.64
141.662
143.064
144.757
146.648
148.649
150.672
152.642
154.489
156.156
157.593
158.762
159.625
160.15
160.306
160.061
159.387
158.26
156.662
154.587
152.041
149.038
145.603
141.765
137.552
132.99
128.095
122.876
117.329
111.444
105.206
98.5932
91.5881
84.173
76.3329
68.0545
59.324
50.1242
40.432
30.2158
19.4346
8.03698
-4.037
-16.8544
-30.4864
-45.0052
-60.4811
-76.9802
-94.5625
-113.281
-133.182
-154.302
-176.671
-200.308
-225.219
-251.396
-278.809
-307.405
-337.101
-367.78
-399.29
-431.442
-464.012
-496.746
-529.367
-561.588
348.924
332.25
315.607
299.17
283.101
267.551
252.65
238.509
225.214
212.833
201.414
190.985
181.563
173.149
165.736
159.308
153.84
149.305
145.666
142.883
140.911
139.696
139.178
139.293
139.964
141.11
142.642
144.466
146.487
148.61
150.746
152.814
154.745
156.481
157.977
159.197
160.107
160.678
160.878
160.675
160.036
158.932
157.344
155.263
152.694
149.657
146.18
142.3
138.052
133.465
128.56
123.344
117.813
111.952
105.741
99.1564
92.1765
84.783
76.9624
68.7042
59.9986
50.8324
41.1858
31.0294
20.3221
9.01135
-2.96578
-15.6803
-29.2079
-43.625
-59.0054
-75.4175
-92.9229
-111.575
-131.421
-152.498
-174.839
-198.466
-223.389
-249.607
-277.097
-305.811
-335.674
-366.572
-398.353
-430.827
-463.762
-496.892
-529.928
-562.563
349.304
332.139
315.011
298.112
281.622
265.701
250.488
236.093
222.604
210.085
198.576
188.1
178.667
170.273
162.905
156.542
151.159
146.724
143.203
140.554
138.734
137.69
137.366
137.694
138.599
139.997
141.794
143.888
146.175
148.55
150.914
153.179
155.275
157.147
158.755
160.072
161.074
161.736
162.028
161.912
161.349
160.299
158.733
156.637
154.018
150.903
147.334
143.362
139.035
134.396
129.469
124.263
118.768
112.961
106.812
100.287
93.3582
86.0062
78.2203
69.9969
61.3353
52.2315
42.6734
32.6358
22.0785
10.9458
-0.831924
-13.3344
-26.6471
-40.8557
-56.0414
-72.2776
-89.628
-108.147
-127.881
-148.871
-171.15
-194.749
-219.689
-245.979
-273.611
-302.555
-332.745
-364.079
-396.408
-429.534
-463.214
-497.159
-531.047
-564.536
349.897
331.961
314.073
296.456
279.313
262.824
247.136
232.364
218.592
205.874
194.242
183.708
174.269
165.913
158.619
152.36
147.106
142.824
139.477
137.028
135.434
134.646
134.609
135.259
136.521
138.306
140.513
143.028
145.732
148.5
151.218
153.785
156.125
158.188
159.948
161.396
162.525
163.322
163.759
163.79
163.359
162.405
160.88
158.76
156.053
152.8
149.066
144.93
140.467
135.737
130.777
125.594
120.169
114.461
108.421
101.996
95.1476
87.8525
80.1064
71.9192
63.3074
54.2841
44.8507
34.9902
24.6635
13.8092
2.34628
-9.82081
-22.7948
-36.6775
-51.5626
-67.5305
-84.6471
-102.965
-122.53
-143.38
-165.556
-189.095
-214.036
-240.409
-268.23
-297.493
-328.159
-360.141
-393.3
-427.432
-462.272
-497.494
-532.724
-567.559
350.733
331.701
312.735
294.104
276.052
258.783
242.456
227.188
213.053
200.092
188.32
177.731
168.306
160.019
152.838
146.726
141.649
137.57
134.455
132.267
130.968
130.515
130.859
131.94
133.685
136.003
138.782
141.894
145.19
148.519
151.735
154.713
157.369
159.66
161.587
163.175
164.45
165.422
166.069
166.33
166.117
165.328
163.879
161.724
158.87
155.384
151.373
146.964
142.278
137.407
132.403
127.272
121.974
116.439
110.58
104.313
97.5781
90.3463
82.6258
74.4515
65.8706
56.9261
47.6424
38.0154
28.008
17.5493
6.53909
-5.14433
-17.6326
-31.0543
-45.5224
-61.1267
-77.9325
-95.9856
-115.322
-135.977
-157.991
-181.418
-206.315
-232.745
-260.763
-290.404
-321.667
-354.499
-388.777
-424.297
-460.766
-497.801
-534.952
-571.718
351.861
331.335
310.903
290.909
271.653
253.374
236.244
220.372
205.816
192.591
180.687
170.07
160.7
152.529
145.51
139.597
134.748
130.925
128.093
126.222
125.279
125.232
126.043
127.662
130.021
133.031
136.571
140.487
144.597
148.698
152.589
156.102
159.132
161.653
163.711
165.398
166.806
167.987
168.93
169.55
169.698
169.198
167.892
165.689
162.595
158.721
154.25
149.395
144.351
139.265
134.21
129.185
124.117
118.88
113.323
107.303
100.721
93.5418
85.7967
77.5676
68.9562
60.0556
50.9274
41.5879
32.0021
22.0837
11.7017
0.691902
-11.1253
-23.9226
-37.844
-52.9904
-69.4188
-87.1546
-106.212
-126.61
-148.389
-171.616
-196.379
-222.786
-250.95
-280.968
-312.905
-346.762
-382.454
-419.784
-458.427
-497.928
-537.716
-577.143
353.357
330.82
308.427
286.639
265.837
246.301
228.21
211.653
196.652
183.183
171.192
160.608
151.36
143.374
136.584
130.931
126.366
122.848
120.345
118.834
118.295
118.71
120.06
122.312
125.416
129.292
133.812
138.799
144.014
149.174
153.983
158.183
161.624
164.306
166.365
168.02
169.483
170.89
172.254
173.443
174.207
174.224
173.194
170.931
167.439
162.912
157.676
152.092
146.483
141.074
135.971
131.157
126.5
121.779
116.729
111.101
104.723
97.5494
89.6628
81.2325
72.4569
63.5117
54.5158
45.5145
36.4745
27.2855
17.7686
7.69133
-3.20569
-15.1709
-28.4
-43.006
-59.0196
-76.4182
-95.1659
-115.249
-136.698
-159.595
-184.069
-210.292
-238.458
-268.762
-301.368
-336.373
-373.761
-413.367
-454.839
-497.626
-540.984
-584.031
355.335
330.085
305.071
280.939
258.187
237.139
217.958
200.685
185.277
171.641
159.662
149.219
140.197
132.493
126.016
120.695
116.471
113.304
111.166
110.043
109.933
110.84
112.773
115.731
119.698
124.619
130.378
136.776
143.505
150.153
156.247
161.351
165.207
167.85
169.598
170.912
172.235
173.852
175.823
177.945
179.785
180.755
180.266
177.939
173.768
168.122
161.597
154.824
148.323
142.438
137.314
132.901
128.971
125.147
120.966
115.975
109.867
102.582
94.3097
85.3928
76.2004
67.0395
58.1108
49.4961
41.1608
32.9593
24.6425
15.8715
6.25277
-4.59836
-16.9716
-30.9926
-46.624
-63.736
-82.1935
-101.918
-122.919
-145.296
-169.235
-194.993
-222.88
-253.231
-286.367
-322.54
-361.863
-404.248
-449.344
-496.486
-544.683
-592.68
357.981
328.997
300.433
273.241
248.075
225.279
204.952
187.026
171.342
157.706
145.914
135.778
127.132
119.838
113.781
108.873
105.052
102.274
100.52
99.7899
100.102
101.49
104.004
107.695
112.603
118.735
126.022
134.272
143.107
151.926
159.934
166.311
170.531
172.68
173.449
173.788
174.557
176.302
179.167
182.85
186.614
189.379
189.979
187.6
182.215
174.592
165.874
157.159
149.271
142.702
137.629
133.947
131.285
129.027
126.365
122.457
116.705
109.033
99.8831
89.9479
79.8968
70.2318
61.2527
53.0746
45.6536
38.7989
32.17
25.2724
17.4863
8.16679
-3.16944
-16.659
-32.0941
-49.1137
-67.3931
-86.7466
-107.153
-128.743
-151.777
-176.623
-203.747
-233.681
-266.985
-304.159
-345.543
-391.214
-440.889
-493.81
-548.651
-603.55
361.598
327.294
293.81
262.615
234.539
209.858
188.481
170.13
154.456
141.109
129.776
120.185
112.118
105.397
99.8858
95.485
92.1253
89.7669
88.3977
88.033
88.7158
90.5177
93.5384
97.9012
103.742
111.182
120.276
130.923
142.73
154.861
165.964
174.373
178.832
179.492
177.913
176.043
175.466
177.136
181.33
187.633
194.875
201.117
203.978
201.584
193.88
182.634
170.141
158.298
148.317
140.809
135.939
133.519
133.015
133.487
133.556
131.589
126.305
117.609
106.585
94.6681
83.0352
72.4347
63.2399
55.5621
49.3301
44.313
40.084
35.9527
30.9278
23.8364
13.7342
0.47754
-15.2811
-32.6753
-51.0434
-70.0554
-89.6794
-110.108
-131.702
-154.969
-180.559
-209.273
-242.02
-279.707
-323.04
-372.402
-427.744
-488.354
-552.519
-617.371
366.713
324.395
283.881
247.488
216.107
189.668
167.644
149.372
134.21
121.609
111.122
102.396
95.1602
89.2084
84.389
80.5941
77.7538
75.8322
74.8258
74.7647
75.7156
77.7872
81.1368
85.9764
92.5749
101.244
112.291
125.898
141.879
159.274
175.869
188.119
192.596
189.524
182.793
176.428
173.137
174.33
180.449
191.059
204.568
217.72
225.539
223.21
210.641
192.465
173.471
156.751
143.796
135.115
130.718
130.328
133.337
138.525
143.674
145.494
140.818
129.532
114.572
98.9765
84.6854
72.6115
63.0413
55.9661
51.2563
48.6911
47.8565
47.9193
47.3448
43.8414
35.1802
21.2175
3.88805
-14.833
-33.7645
-52.4806
-71.0441
-89.7896
-109.215
-129.962
-152.869
-179.049
-209.936
-247.113
-291.847
-344.966
-407.001
-477.762
-555.383
-635.363
374.309
318.885
268.004
225.137
190.55
163.114
141.403
124.129
110.273
99.0614
89.928
82.4578
76.3498
71.3866
67.4138
64.3257
62.0569
60.5771
59.8902
60.0366
61.0991
63.214
66.5868
71.5163
78.423
87.8793
100.617
117.452
138.989
164.835
192.025
213.054
217.224
204.821
187.141
172.382
164.345
164.426
173.096
190.307
214.772
241.994
261.708
259.576
235.472
203.468
173.523
149.777
133.118
123.251
119.722
122.238
130.517
143.617
158.581
168.75
164.844
146.743
123.473
101.404
83.1407
69.1815
59.2489
52.963
50.0933
50.5763
54.3358
60.8029
67.9783
71.2732
64.26
46.8054
25.0615
3.31327
-16.794
-35.1235
-52.144
-68.4897
-84.8197
-101.842
-120.458
-142.043
-168.786
-203.63
-248.571
-304.678
-373.681
-457.279
-554.832
-659.692
386.396
306.82
240.577
190.858
154.685
128.312
108.763
93.9622
82.5211
73.5181
66.3356
60.555
55.8882
52.1362
49.1622
46.8755
45.2217
44.1781
43.7527
43.9872
44.9654
46.8272
49.7934
54.2067
60.5974
69.7869
83.0387
102.231
129.888
168.456
217.048
262.258
265.712
227.71
187.278
158.649
143.86
142.15
153.44
179.105
221.001
277.076
329.326
327.574
271.676
211.499
164.644
132.594
112.655
102.257
100.018
105.848
120.752
146.022
180.39
212.269
209.308
171.395
130.642
98.3473
75.3966
59.9516
50.2036
45.0394
44.1014
47.7423
56.915
72.6653
94.1983
113.547
108.374
78.5691
46.2409
19.0969
-2.38249
-19.6503
-34.2136
-47.2101
-59.4255
-71.4219
-83.77
-97.6044
-115.963
-145.602
-189.206
-245.813
-319.33
-416.689
-543.739
-694.544
407.47
275.548
189.346
137.063
104.704
83.6789
69.2825
58.9535
51.2561
45.3502
40.7223
37.0459
34.1073
31.7636
29.9192
28.5122
27.5063
26.8875
26.6633
26.8657
27.558
28.8484
30.9145
34.048
38.7395
45.8429
56.904
74.8173
105.073
157.638
246.936
371.583
373.888
254.09
170.415
124.983
104.538
101.148
113.078
144.526
206.805
317.656
474.701
473.533
314.034
200.34
134.442
97.9674
78.4509
69.5118
68.6917
76.3907
96.0555
135.322
205.778
305.953
304.097
200.132
125.628
81.8334
56.8425
42.5167
34.5567
31.029
31.5151
36.9413
50.0211
76.199
123.561
191.13
187.955
113.965
59.9539
26.7236
5.9647
-8.07056
-18.5381
-27.0538
-34.3442
-40.4935
-44.9386
-46.6475
-46.8933
-67.4606
-111.11
-162.591
-230.634
-333.332
-498.426
-748.816
447.954
178.426
89.2636
54.5739
38.396
29.4978
23.9423
20.1532
17.4095
15.3405
13.7372
12.4732
11.4685
10.6707
10.0453
9.57019
9.23261
9.02781
8.95884
9.03773
9.28829
9.75176
10.4976
11.6448
13.4071
16.1984
20.9007
29.6289
48.127
93.9216
225.913
657.07
657.883
228.445
98.4784
55.3294
40.6554
38.0835
44.6094
65.544
122.662
291.711
847.889
847.477
290.427
120.348
61.8686
38.9181
29.0135
25.0732
25.0963
29.7002
43.1298
79.7073
188.367
546.552
545.919
186.439
76.389
38.2403
22.9294
15.9139
12.5265
11.2381
11.8144
15.1183
24.2648
49.2257
123.823
370.578
369.508
120.586
43.7419
16.391
4.62988
-1.6279
-5.67247
-8.66083
-10.905
-12.0176
-10.0459
2.20434
51.4411
43.922
-21.7349
-55.5124
-92.0294
-160.111
-330.272
-842.365
-596.182
-632.593
-667.148
-699.487
-729.331
-756.486
-780.833
-802.321
-820.947
-836.747
-849.775
-860.096
-867.773
-872.858
-875.391
-597.591
-634.431
-669.344
-701.96
-731.999
-759.27
-783.669
-805.157
-823.749
-839.492
-852.456
-862.714
-870.337
-875.384
-877.896
-600.458
-638.175
-673.816
-706.989
-737.41
-764.904
-789.391
-810.866
-829.373
-844.992
-857.817
-867.941
-875.451
-880.417
-882.887
-604.887
-643.973
-680.737
-714.749
-745.725
-773.521
-798.103
-819.516
-837.861
-853.262
-865.851
-875.755
-883.082
-887.917
-890.32
-611.054
-652.074
-690.389
-725.521
-757.198
-785.329
-809.956
-831.21
-849.266
-864.316
-876.545
-886.12
-893.178
-897.824
-900.129
-619.231
-662.86
-703.202
-739.724
-772.193
-800.616
-825.159
-846.075
-863.65
-878.163
-889.867
-898.975
-905.658
-910.044
-912.216
-629.837
-676.912
-719.812
-757.957
-791.211
-819.759
-843.962
-864.254
-881.068
-894.792
-905.756
-914.226
-920.408
-924.45
-926.447
-643.522
-695.116
-741.155
-781.056
-814.912
-843.22
-866.65
-885.886
-901.548
-914.152
-924.11
-931.738
-937.27
-940.873
-942.648
-661.325
-718.855
-768.613
-810.178
-844.135
-871.534
-893.505
-911.067
-925.059
-936.13
-944.764
-951.315
-956.034
-959.094
-960.598
-684.981
-750.343
-804.241
-846.883
-879.892
-905.247
-924.74
-939.792
-951.464
-960.515
-967.47
-972.693
-976.429
-978.84
-980.023
-717.584
-793.273
-851.099
-893.194
-923.274
-944.794
-960.384
-971.868
-980.464
-986.965
-991.878
-995.526
-998.119
-999.786
-1000.6
-765.156
-854.04
-913.662
-951.493
-975.19
-990.245
-1000.1
-1006.8
-1011.53
-1014.97
-1017.52
-1019.38
-1020.7
-1021.55
-1021.97
-840.863
-944.043
-997.989
-1023.9
-1035.72
-1040.86
-1042.94
-1043.68
-1043.86
-1043.85
-1043.8
-1043.76
-1043.73
-1043.72
-1043.72
-978.13
-1083.25
-1110.32
-1110.35
-1102.9
-1094.51
-1087.1
-1081.07
-1076.35
-1072.74
-1070.04
-1068.07
-1066.71
-1065.85
-1065.44
-1277.96
-1300.48
-1249.65
-1204.25
-1170.99
-1147.14
-1129.84
-1117.12
-1107.69
-1100.68
-1095.51
-1091.76
-1089.15
-1087.51
-1086.71
683.364
682.769
681.596
679.884
677.707
675.193
672.573
670.249
668.938
669.943
675.717
691.241
728.201
821.18
1103.85
698.935
698.392
697.319
695.748
693.738
691.4
688.934
686.708
685.403
686.296
691.813
706.626
739.646
806.127
915.318
714.867
714.366
713.372
711.899
709.98
707.677
705.11
702.51
700.326
699.419
701.436
709.349
727.835
761.392
802.866
731.129
730.666
729.738
728.342
726.47
724.12
721.291
718.008
714.342
710.494
706.945
704.713
705.539
711.138
719.469
747.695
747.271
746.413
745.096
743.274
740.875
737.771
733.753
728.468
721.342
711.52
697.935
679.909
658.97
642.111
764.537
764.16
763.388
762.18
760.461
758.1
754.868
750.362
743.853
734.044
718.688
694.224
656.284
603.949
553.303
781.624
781.306
780.648
779.601
778.074
775.91
772.832
768.342
761.511
750.579
732.163
699.854
642.639
547.739
429.582
798.913
798.669
798.159
797.335
796.109
794.335
791.759
787.928
781.997
772.294
755.266
722.76
655.148
507.663
224.07
816.353
816.198
815.868
815.326
814.505
813.298
811.538
808.953
805.083
799.076
789.098
770.026
723.109
562.09
-178.118
833.884
833.828
833.705
833.491
833.148
832.626
831.872
830.852
829.629
828.597
829.226
836.607
870.29
1018.72
1750.53
851.433
851.486
851.586
851.725
851.893
852.094
852.371
852.872
854.02
856.947
864.643
884.901
937.768
1070.19
1343.07
868.928
869.091
869.419
869.915
870.593
871.489
872.695
874.423
877.151
881.964
891.318
910.528
949.979
1024.09
1125.41
886.289
886.562
887.114
887.958
889.119
890.648
892.638
895.26
898.81
903.806
911.126
922.076
938.099
959.078
978.413
903.442
903.82
904.585
905.757
907.366
909.464
912.124
915.432
919.441
924.013
928.391
930.078
922.754
895.183
845.147
920.311
920.788
921.753
923.229
925.251
927.868
931.139
935.097
939.657
944.334
947.503
944.314
921.448
846.865
677.439
936.83
937.397
938.545
940.298
942.697
945.796
949.656
954.324
959.765
965.679
971.01
972.19
956.036
864.39
392.384
952.934
953.582
954.893
956.896
959.635
963.172
967.59
972.994
979.519
987.408
997.376
1012.08
1043.03
1146.03
1623.71
968.566
969.286
970.739
972.959
975.993
979.913
984.82
990.864
998.299
1007.67
1020.43
1040.67
1079.95
1167.45
1343.24
983.679
984.457
986.031
988.432
991.711
995.945
1001.24
1007.75
1015.71
1025.56
1038.27
1056
1083.38
1127.54
1185.16
998.229
999.055
1000.72
1003.27
1006.74
1011.22
1016.79
1023.6
1031.77
1041.44
1052.59
1064.6
1075.13
1078.25
1067.44
1012.18
1013.05
1014.79
1017.44
1021.05
1025.7
1031.47
1038.48
1046.78
1056.28
1066.28
1074.21
1072
1038.61
942.541
1025.52
1026.4
1028.19
1030.91
1034.62
1039.38
1045.28
1052.43
1060.92
1070.73
1081.4
1090.83
1090.5
1042.46
751.268
1038.21
1039.11
1040.93
1043.68
1047.43
1052.23
1058.19
1065.43
1074.13
1084.57
1097.35
1114.21
1142.11
1215.14
1521.95
1050.26
1051.17
1052.98
1055.74
1059.48
1064.26
1070.19
1077.39
1086.1
1096.76
1110.45
1129.89
1162.34
1225.46
1342.2
1061.67
1062.56
1064.36
1067.09
1070.78
1075.48
1081.27
1088.28
1096.68
1106.83
1119.53
1136.51
1161.25
1198.52
1243.87
1072.42
1073.3
1075.07
1077.74
1081.34
1085.91
1091.5
1098.17
1106.01
1115.11
1125.62
1137.72
1151.44
1165.94
1177.38
1082.55
1083.41
1085.13
1087.72
1091.21
1095.61
1100.95
1107.24
1114.44
1122.38
1130.58
1137.77
1141.06
1135.47
1119.19
1092.06
1092.89
1094.55
1097.06
1100.41
1104.63
1109.72
1115.65
1122.32
1129.44
1136.21
1140.5
1136.82
1112.38
1050.05
1100.96
1101.76
1103.37
1105.78
1109
1113.03
1117.87
1123.51
1129.87
1136.72
1143.54
1148.74
1146.97
1115.59
937.972
1109.29
1110.06
1111.6
1113.9
1116.98
1120.83
1125.46
1130.86
1137.03
1144
1151.96
1161.8
1177.67
1220.32
1404
1117.06
1117.8
1119.27
1121.47
1124.41
1128.08
1132.48
1137.64
1143.62
1150.57
1159.06
1170.65
1189.73
1227.1
1296.85
1124.3
1125
1126.4
1128.5
1131.3
1134.78
1138.95
1143.84
1149.49
1156.06
1163.97
1174.26
1189.07
1211.35
1238.5
1131.02
1131.69
1133.03
1135.03
1137.68
1140.97
1144.91
1149.48
1154.7
1160.58
1167.21
1174.71
1183.19
1192.21
1199.37
1137.26
1137.9
1139.17
1141.07
1143.58
1146.7
1150.4
1154.66
1159.42
1164.56
1169.81
1174.45
1176.9
1174.33
1165.57
1143.03
1143.64
1144.85
1146.65
1149.04
1151.99
1155.47
1159.46
1163.85
1168.45
1172.8
1175.7
1174.07
1160.74
1126.05
1148.35
1148.93
1150.09
1151.81
1154.08
1156.88
1160.18
1163.95
1168.1
1172.49
1176.77
1180.06
1179.33
1161.95
1062.8
1153.25
1153.81
1154.91
1156.55
1158.72
1161.39
1164.54
1168.15
1172.16
1176.56
1181.42
1187.18
1196.15
1219.9
1322.2
1157.74
1158.27
1159.33
1160.91
1162.99
1165.55
1168.57
1172.03
1175.93
1180.3
1185.4
1192.05
1202.67
1223.29
1261.88
1161.83
1162.35
1163.37
1164.89
1166.89
1169.35
1172.26
1175.59
1179.33
1183.5
1188.28
1194.14
1202.21
1214.16
1228.74
1165.55
1166.04
1167.03
1168.5
1170.44
1172.82
1175.64
1178.84
1182.41
1186.27
1190.37
1194.66
1199.04
1203.19
1206.1
1168.89
1169.37
1170.33
1171.76
1173.65
1175.97
1178.71
1181.83
1185.25
1188.83
1192.32
1195.11
1195.99
1193.05
1185.84
1171.87
1172.34
1173.28
1174.68
1176.52
1178.8
1181.5
1184.57
1187.94
1191.44
1194.71
1196.84
1195.58
1185.86
1160.95
1174.51
1174.97
1175.88
1177.26
1179.07
1181.32
1184
1187.08
1190.51
1194.19
1197.88
1200.89
1201.02
1189.19
1119.13
1176.79
1177.24
1178.15
1179.49
1181.29
1183.52
1186.19
1189.31
1192.88
1196.92
1201.49
1206.92
1214.74
1232.93
1306.24
1178.74
1179.18
1180.07
1181.4
1183.16
1185.38
1188.05
1191.21
1194.91
1199.24
1204.47
1211.25
1221.24
1238.36
1267.44
1180.36
1180.79
1181.66
1182.96
1184.7
1186.89
1189.55
1192.71
1196.45
1200.91
1206.36
1213.33
1222.75
1235.47
1249.21
1181.64
1182.07
1182.92
1184.19
1185.9
1188.05
1190.66
1193.78
1197.48
1201.86
1207.15
1213.7
1221.93
1231.84
1240.91
1182.61
1183.03
1183.85
1185.1
1186.76
1188.86
1191.4
1194.43
1197.99
1202.15
1207.04
1212.86
1219.93
1228.77
1239.3
1183.27
1183.67
1184.47
1185.68
1187.29
1189.32
1191.78
1194.69
1198.06
1201.91
1206.27
1211.13
1216.68
1224.5
1245.38
1183.61
1184
1184.78
1185.95
1187.51
1189.46
1191.82
1194.59
1197.76
1201.3
1205.1
1208.89
1211.83
1211.13
1194.11
1183.67
1184.04
1184.79
1185.92
1187.42
1189.29
1191.55
1194.19
1197.18
1200.48
1203.93
1207.2
1209.48
1209.07
1203.66
1183.43
1183.79
1184.51
1185.59
1187.03
1188.83
1190.99
1193.51
1196.37
1199.51
1202.86
1206.17
1208.98
1210.45
1209.84
1182.92
1183.26
1183.95
1184.99
1186.37
1188.09
1190.15
1192.56
1195.32
1198.39
1201.78
1205.46
1209.38
1213.24
1216.01
1182.14
1182.47
1183.13
1184.12
1185.43
1187.07
1189.05
1191.36
1194.01
1197.02
1200.46
1204.57
1209.79
1216.76
1224.5
1181.1
1181.42
1182.04
1182.98
1184.24
1185.8
1187.68
1189.89
1192.42
1195.31
1198.67
1202.86
1208.96
1219.73
1238.76
1179.82
1180.12
1180.71
1181.61
1182.79
1184.28
1186.07
1188.16
1190.55
1193.24
1196.26
1199.8
1204.87
1216.94
1266.64
1178.3
1178.58
1179.14
1179.99
1181.11
1182.52
1184.21
1186.19
1188.45
1190.92
1193.47
1195.64
1195.9
1187.97
1140.14
1176.56
1176.82
1177.35
1178.15
1179.2
1180.53
1182.13
1184.01
1186.16
1188.53
1190.92
1192.78
1192.57
1186.69
1170.16
1174.6
1174.85
1175.34
1176.09
1177.07
1178.31
1179.82
1181.6
1183.69
1186.08
1188.7
1191.31
1193.16
1192.78
1189.13
1172.45
1172.68
1173.14
1173.82
1174.73
1175.88
1177.28
1178.96
1180.99
1183.43
1186.47
1190.34
1195.28
1201.1
1206.01
1170.1
1170.32
1170.74
1171.37
1172.2
1173.24
1174.52
1176.06
1177.95
1180.34
1183.63
1188.6
1196.74
1210.03
1226.72
1167.58
1167.78
1168.16
1168.73
1169.48
1170.42
1171.54
1172.89
1174.52
1176.61
1179.59
1184.61
1194.61
1216.56
1259.46
1164.9
1165.08
1165.43
1165.94
1166.61
1167.42
1168.38
1169.48
1170.74
1172.22
1174.11
1177.14
1184.15
1208.53
1322.43
1162.06
1162.22
1162.54
1163
1163.59
1164.3
1165.09
1165.94
1166.78
1167.5
1167.81
1166.87
1161.6
1138.31
1024.42
1159.08
1159.23
1159.52
1159.94
1160.47
1161.07
1161.72
1162.36
1162.87
1163.04
1162.35
1159.56
1151.54
1130.96
1088.31
1155.97
1156.11
1156.38
1156.77
1157.25
1157.79
1158.34
1158.84
1159.17
1159.13
1158.31
1155.86
1150.16
1138.9
1123.05
1152.73
1152.86
1153.13
1153.5
1153.96
1154.46
1154.96
1155.4
1155.7
1155.73
1155.36
1154.39
1152.6
1149.98
1147.28
1149.36
1149.5
1149.77
1150.14
1150.6
1151.09
1151.58
1152.02
1152.36
1152.58
1152.8
1153.44
1155.58
1161.1
1170.1
1145.86
1146.01
1146.29
1146.69
1147.17
1147.7
1148.21
1148.68
1149.07
1149.4
1149.92
1151.42
1156.18
1169.77
1199.66
1142.22
1142.39
1142.7
1143.15
1143.68
1144.26
1144.84
1145.37
1145.78
1146.06
1146.32
1147.1
1150.61
1167.08
1250.47
1138.44
1138.63
1138.99
1139.5
1140.12
1140.8
1141.48
1142.09
1142.54
1142.7
1142.33
1140.84
1136.02
1117.87
1032.71
1134.5
1134.72
1135.14
1135.74
1136.48
1137.3
1138.13
1138.89
1139.47
1139.66
1139.08
1136.84
1130.66
1115.17
1083.3
1130.37
1130.63
1131.13
1131.85
1132.74
1133.74
1134.79
1135.79
1136.63
1137.12
1136.95
1135.54
1131.72
1123.78
1112.28
1126.02
1126.33
1126.93
1127.8
1128.89
1130.13
1131.45
1132.77
1133.99
1134.99
1135.65
1135.88
1135.61
1134.84
1133.78
1121.43
1121.8
1122.52
1123.56
1124.88
1126.41
1128.07
1129.79
1131.47
1133.05
1134.61
1136.54
1139.81
1146.06
1155.08
1116.54
1116.98
1117.84
1119.1
1120.69
1122.56
1124.63
1126.8
1128.97
1131.08
1133.28
1136.21
1141.89
1155.32
1183.18
1111.32
1111.84
1112.86
1114.35
1116.27
1118.54
1121.08
1123.77
1126.46
1129.02
1131.4
1133.94
1138.56
1154.52
1231.15
1105.7
1106.31
1107.51
1109.27
1111.55
1114.29
1117.38
1120.69
1124.01
1127.04
1129.36
1130.19
1127.32
1111.55
1033.91
1099.63
1100.33
1101.72
1103.79
1106.49
1109.76
1113.51
1117.58
1121.72
1125.52
1128.33
1128.96
1125.01
1111.49
1082.28
1093.03
1093.84
1095.44
1097.83
1100.98
1104.85
1109.37
1114.38
1119.61
1124.64
1128.76
1130.86
1129.29
1122.26
1110.95
1085.85
1086.75
1088.56
1091.29
1094.93
1099.46
1104.85
1110.97
1117.61
1124.35
1130.55
1135.27
1137.33
1135.96
1132.35
1077.99
1079
1081.02
1084.08
1088.22
1093.44
1099.78
1107.18
1115.49
1124.4
1133.34
1141.47
1147.71
1151.16
1151.81
1069.41
1070.5
1072.71
1076.09
1080.7
1086.62
1093.94
1102.71
1112.92
1124.37
1136.64
1148.94
1159.99
1168.26
1172.29
1060.03
1061.2
1063.56
1067.2
1072.22
1078.78
1087.04
1097.21
1109.43
1123.73
1139.9
1157.21
1174.16
1188.24
1196.17
1049.81
1051.02
1053.49
1057.31
1062.64
1069.71
1078.79
1090.25
1104.46
1121.76
1142.31
1165.69
1190.29
1212.44
1226.12
1038.72
1039.94
1042.43
1046.33
1051.82
1059.2
1068.86
1081.34
1097.29
1117.49
1142.71
1173.28
1208.07
1242.49
1266.14
1026.74
1027.93
1030.36
1034.2
1039.65
1047.06
1056.94
1069.97
1087.12
1109.69
1139.35
1177.89
1226.06
1279.96
1323.17
1013.91
1015.01
1017.29
1020.9
1026.07
1033.18
1042.79
1055.71
1073.15
1096.92
1129.77
1175.77
1240.04
1324.8
1410.79
1000.27
1001.25
1003.27
1006.47
1011.1
1017.52
1026.3
1038.27
1054.74
1077.8
1111.02
1160.92
1239.74
1368.73
1558.69
985.927
986.724
988.377
991.014
994.844
1000.19
1007.56
1017.68
1031.72
1051.57
1080.66
1125.94
1204.54
1370.28
1839.06
-2112.37
-1566.81
-1372.37
-1279.15
-1224.77
-1189.33
-1164.77
-1147.12
-1134.17
-1124.59
-1117.52
-1112.38
-1108.81
-1106.55
-1105.45
-1786.74
-1565.06
-1413.61
-1320.25
-1260.47
-1220.12
-1191.71
-1171.11
-1155.89
-1144.56
-1136.16
-1130.03
-1125.74
-1123.03
-1121.71
-1615.42
-1514.49
-1414.49
-1338
-1282.64
-1242.59
-1213.2
-1191.32
-1174.88
-1162.48
-1153.19
-1146.36
-1141.57
-1138.51
-1137.03
-1514.57
-1463.25
-1398.99
-1341.05
-1294.17
-1257.63
-1229.45
-1207.75
-1191.03
-1178.21
-1168.48
-1161.26
-1156.15
-1152.89
-1151.29
-1449.72
-1420.97
-1379.09
-1336.4
-1298.48
-1266.83
-1241.17
-1220.68
-1204.47
-1191.78
-1182
-1174.67
-1169.44
-1166.07
-1164.43
-1405.2
-1387.77
-1359.71
-1328.4
-1298.41
-1271.84
-1249.28
-1230.61
-1215.43
-1203.3
-1193.8
-1186.59
-1181.4
-1178.05
-1176.4
-1373.16
-1361.94
-1342.56
-1319.44
-1295.94
-1274.05
-1254.67
-1238.08
-1224.25
-1212.96
-1203.98
-1197.08
-1192.07
-1188.81
-1187.2
-1349.29
-1341.73
-1327.98
-1310.73
-1292.34
-1274.47
-1258.08
-1243.63
-1231.27
-1220.99
-1212.69
-1206.23
-1201.5
-1198.4
-1196.86
-1331.05
-1325.78
-1315.8
-1302.77
-1288.35
-1273.84
-1260.12
-1247.69
-1236.83
-1227.63
-1220.08
-1214.15
-1209.76
-1206.87
-1205.44
-1316.84
-1313.09
-1305.7
-1295.75
-1284.4
-1272.64
-1261.23
-1250.65
-1241.21
-1233.09
-1226.34
-1220.97
-1216.97
-1214.31
-1212.99
-1305.6
-1302.9
-1297.35
-1289.68
-1280.7
-1271.18
-1261.72
-1252.78
-1244.66
-1237.57
-1231.6
-1226.8
-1223.2
-1220.81
-1219.61
-1296.62
-1294.66
-1290.45
-1284.49
-1277.36
-1269.64
-1261.83
-1254.31
-1247.38
-1241.24
-1236.02
-1231.79
-1228.58
-1226.44
-1225.37
-1289.37
-1287.95
-1284.74
-1280.08
-1274.4
-1268.14
-1261.7
-1255.4
-1249.53
-1244.25
-1239.72
-1236.02
-1233.2
-1231.31
-1230.35
-1283.48
-1282.47
-1280.01
-1276.35
-1271.82
-1266.74
-1261.44
-1256.19
-1251.22
-1246.73
-1242.83
-1239.61
-1237.15
-1235.49
-1234.66
-1278.66
-1277.96
-1276.08
-1273.21
-1269.58
-1265.47
-1261.11
-1256.74
-1252.57
-1248.76
-1245.42
-1242.65
-1240.53
-1239.08
-1238.35
-1274.7
-1274.24
-1272.82
-1270.57
-1267.67
-1264.33
-1260.76
-1257.14
-1253.65
-1250.43
-1247.59
-1245.23
-1243.4
-1242.15
-1241.52
-1271.44
-1271.17
-1270.1
-1268.34
-1266.03
-1263.33
-1260.41
-1257.42
-1254.51
-1251.81
-1249.41
-1247.4
-1245.83
-1244.77
-1244.22
-1268.74
-1268.62
-1267.83
-1266.47
-1264.64
-1262.46
-1260.08
-1257.62
-1255.2
-1252.94
-1250.93
-1249.23
-1247.9
-1246.99
-1246.53
-1266.5
-1266.5
-1265.94
-1264.9
-1263.45
-1261.71
-1259.78
-1257.76
-1255.77
-1253.89
-1252.2
-1250.77
-1249.65
-1248.88
-1248.49
-1264.64
-1264.73
-1264.36
-1263.58
-1262.45
-1261.07
-1259.51
-1257.86
-1256.22
-1254.67
-1253.26
-1252.07
-1251.13
-1250.48
-1250.15
-1263.09
-1263.26
-1263.04
-1262.47
-1261.61
-1260.51
-1259.27
-1257.93
-1256.59
-1255.31
-1254.15
-1253.16
-1252.38
-1251.84
-1251.56
-1261.8
-1262.03
-1261.94
-1261.54
-1260.89
-1260.04
-1259.06
-1257.98
-1256.9
-1255.85
-1254.9
-1254.08
-1253.43
-1252.98
-1252.75
-1260.72
-1261.01
-1261.01
-1260.76
-1260.29
-1259.64
-1258.87
-1258.02
-1257.15
-1256.3
-1255.53
-1254.86
-1254.32
-1253.95
-1253.76
-1259.82
-1260.15
-1260.24
-1260.1
-1259.78
-1259.3
-1258.71
-1258.05
-1257.35
-1256.68
-1256.05
-1255.51
-1255.07
-1254.76
-1254.61
-1259.07
-1259.43
-1259.59
-1259.55
-1259.35
-1259.01
-1258.58
-1258.06
-1257.52
-1256.99
-1256.49
-1256.05
-1255.7
-1255.45
-1255.33
-1258.44
-1258.83
-1259.04
-1259.09
-1258.99
-1258.77
-1258.46
-1258.08
-1257.66
-1257.25
-1256.86
-1256.51
-1256.23
-1256.03
-1255.93
-1257.91
-1258.33
-1258.59
-1258.7
-1258.69
-1258.57
-1258.36
-1258.09
-1257.78
-1257.47
-1257.17
-1256.9
-1256.68
-1256.52
-1256.44
-1257.47
-1257.91
-1258.21
-1258.38
-1258.43
-1258.39
-1258.28
-1258.1
-1257.88
-1257.65
-1257.43
-1257.22
-1257.05
-1256.93
-1256.86
-1257.1
-1257.55
-1257.89
-1258.11
-1258.22
-1258.25
-1258.21
-1258.1