/*--------------------------------*- C++ -*----------------------------------*\
| =========                 |                                                 |
| \\      /  F ield         | OpenFOAM: The Open Source CFD Toolbox           |
|  \\    /   O peration     | Version:  5.x                                   |
|   \\  /    A nd           | Web:      www.OpenFOAM.org                      |
|    \\/     M anipulation  |                                                 |
\*---------------------------------------------------------------------------*/
FoamFile
{
    version     2.0;
    format      ascii;
    class       volScalarField;
    location    "7.3";
    object      T;
}
// * * * * * * * * * * * * * * * * * * * * * * * * * * * * * * * * * * * * * //

dimensions      [0 0 0 1 0 0 0];

internalField   nonuniform List<scalar> 
6300
(
12.6095
17.821
23.0097
28.1604
33.2578
38.2865
43.2312
48.0766
52.8073
57.4086
61.8661
66.1665
70.2977
74.2491
78.0125
12.617
17.8435
23.0472
28.213
33.3256
38.3695
43.3294
48.1898
52.9352
57.5506
62.0213
66.3337
70.4752
74.4348
78.204
12.632
17.8884
23.1222
28.3182
33.4611
38.5356
43.5259
48.4165
53.1915
57.8354
62.333
66.6697
70.8322
74.8087
78.5897
12.6544
17.9556
23.2345
28.4758
33.6643
38.7847
43.821
48.7573
53.5774
58.2649
62.8037
67.178
71.373
75.3757
79.1752
12.6841
18.045
23.3838
28.6855
33.9349
39.1167
44.2148
49.213
54.0942
58.8414
63.4369
67.8633
72.104
76.1435
79.9691
12.7212
18.1562
23.5696
28.9467
34.2724
39.5313
44.7074
49.784
54.7436
59.5677
64.2372
68.7324
73.0337
77.1229
80.9838
12.7653
18.2889
23.7914
29.2585
34.6757
40.0276
45.2982
50.4707
55.5268
60.4469
65.2098
69.7931
74.1734
78.3278
82.2359
12.8163
18.4423
24.048
29.6197
35.1433
40.604
45.986
51.2723
56.4444
61.4814
66.3601
71.0546
75.5366
79.7767
83.7474
12.874
18.6156
24.338
30.0283
35.673
41.2579
46.768
52.1867
57.4953
62.6723
67.6926
72.5265
77.1392
81.4925
85.5475
12.9379
18.8077
24.6597
30.4818
36.2615
41.9856
47.6402
53.2096
58.676
64.018
69.2095
74.2171
78.9988
83.5038
87.6756
13.0076
19.0174
25.0109
30.977
36.9045
42.7817
48.5961
54.3339
59.9792
65.5124
70.9081
76.1312
81.1327
85.8455
90.1852
13.0826
19.243
25.3888
31.5101
37.597
43.6395
49.6273
55.5491
61.3927
67.1424
72.777
78.2644
83.5527
88.5577
93.1522
13.1624
19.483
25.7906
32.0767
38.3328
44.5508
50.7228
56.8411
62.8981
68.8852
74.7909
80.5943
86.2532
91.6776
96.6862
13.2465
19.7356
26.2134
32.6724
39.1057
45.5069
51.8706
58.1927
64.4714
70.7075
76.9045
83.0662
89.1855
95.2102
100.941
13.3342
19.9992
26.6543
33.2931
39.9098
46.4993
53.0583
59.5859
66.0853
72.5667
79.0512
85.5776
92.2097
99.0336
106.066
81.2845
84.1223
86.8229
89.3872
91.8176
94.1176
96.2919
98.3461
100.287
102.121
103.857
105.501
107.064
108.551
109.973
111.337
112.651
113.923
115.161
116.372
117.562
118.738
119.907
121.073
122.241
123.417
124.602
125.801
127.015
128.245
129.492
130.756
132.037
133.331
134.639
135.958
137.285
138.618
139.954
141.29
142.622
143.946
145.26
146.558
147.836
149.092
150.32
151.518
152.683
153.811
154.899
155.946
156.947
157.901
158.805
159.655
160.448
161.181
161.851
162.453
162.985
163.442
163.82
164.116
164.324
164.44
164.458
164.373
164.177
163.864
163.427
162.856
162.144
161.28
160.256
159.061
157.684
156.116
154.346
152.362
150.156
147.716
145.032
142.097
138.903
135.443
131.712
127.709
123.433
118.886
81.4788
84.3171
87.0163
89.5773
92.0025
94.2956
96.4616
98.5064
100.437
102.26
103.984
105.617
107.167
108.643
110.053
111.405
112.708
113.969
115.196
116.397
117.578
118.746
119.906
121.065
122.228
123.398
124.579
125.775
126.987
128.217
129.464
130.729
132.011
133.308
134.619
135.941
137.272
138.61
139.95
141.291
142.628
143.958
145.277
146.581
147.865
149.125
150.359
151.562
152.731
153.863
154.955
156.005
157.011
157.969
158.877
159.731
160.529
161.268
161.942
162.55
163.087
163.55
163.935
164.237
164.452
164.575
164.602
164.526
164.341
164.039
163.614
163.056
162.357
161.507
160.497
159.317
157.955
156.403
154.648
152.679
150.487
148.061
145.391
142.467
139.281
135.827
132.101
128.098
123.819
119.266
81.8702
84.7097
87.4058
89.9598
92.3744
94.6536
96.8027
98.8283
100.738
102.538
104.239
105.848
107.374
108.826
110.212
111.541
112.821
114.06
115.266
116.447
117.609
118.759
119.904
121.049
122.199
123.359
124.532
125.722
126.93
128.158
129.406
130.673
131.959
133.261
134.578
135.907
137.246
138.592
139.941
141.292
142.64
143.981
145.312
146.627
147.922
149.194
150.437
151.649
152.827
153.967
155.067
156.124
157.138
158.104
159.02
159.884
160.692
161.44
162.125
162.744
163.292
163.766
164.162
164.477
164.706
164.845
164.889
164.831
164.666
164.387
163.986
163.453
162.781
161.959
160.978
159.828
158.497
156.976
155.251
153.314
151.152
148.754
146.109
143.208
140.041
136.601
132.882
128.881
124.596
120.03
82.4646
85.3058
87.9973
90.5404
92.9382
95.1956
97.3186
99.3145
101.191
102.958
104.623
106.195
107.684
109.1
110.45
111.743
112.989
114.195
115.369
116.52
117.653
118.777
119.897
121.02
122.152
123.296
124.457
125.638
126.84
128.066
129.315
130.587
131.879
133.189
134.515
135.855
137.205
138.563
139.927
141.293
142.657
144.015
145.364
146.697
148.01
149.298
150.556
151.782
152.972
154.123
155.234
156.303
157.327
158.306
159.235
160.113
160.935
161.698
162.399
163.033
163.598
164.089
164.502
164.836
165.086
165.247
165.316
165.286
165.152
164.906
164.541
164.047
163.415
162.636
161.699
160.594
159.31
157.835
156.158
154.267
152.151
149.797
147.193
144.328
141.191
137.773
134.067
130.068
125.775
121.189
83.2713
86.1149
88.7996
91.3271
93.7013
95.928
98.0144
99.9689
101.801
103.52
105.136
106.658
108.098
109.464
110.765
112.011
113.21
114.372
115.503
116.613
117.708
118.795
119.883
120.976
122.082
123.204
124.349
125.518
126.713
127.937
129.189
130.466
131.767
133.089
134.428
135.782
137.148
138.523
139.905
141.291
142.677
144.059
145.433
146.791
148.128
149.439
150.718
151.962
153.167
154.333
155.457
156.54
157.578
158.572
159.519
160.415
161.258
162.042
162.763
163.419
164.004
164.517
164.953
165.311
165.587
165.778
165.879
165.886
165.793
165.593
165.276
164.834
164.257
163.535
162.657
161.613
160.391
158.98
157.367
155.541
153.488
151.195
148.648
145.834
142.74
139.354
135.668
131.675
127.372
122.759
84.3031
87.15
89.8254
92.3317
94.6739
96.8592
98.8967
100.797
102.57
104.227
105.779
107.238
108.614
109.917
111.156
112.342
113.483
114.588
115.665
116.722
117.769
118.81
119.856
120.911
121.983
123.078
124.201
125.354
126.542
127.764
129.02
130.307
131.622
132.96
134.316
135.688
137.073
138.468
139.873
141.284
142.699
144.112
145.518
146.91
148.28
149.62
150.925
152.191
153.415
154.597
155.736
156.834
157.889
158.902
159.871
160.791
161.659
162.47
163.218
163.9
164.511
165.049
165.512
165.898
166.205
166.431
166.573
166.626
166.585
166.441
166.186
165.81
165.303
164.653
163.85
162.883
161.74
160.41
158.88
157.137
155.167
152.954
150.484
147.739
144.704
141.365
137.708
133.724
129.409
124.762
85.5781
88.429
91.0918
93.5695
95.8691
98.0001
99.9741
101.804
103.502
105.081
106.555
107.934
109.231
110.457
111.621
112.733
113.803
114.839
115.851
116.845
117.831
118.817
119.81
120.818
121.848
122.908
124.003
125.138
126.316
127.539
128.803
130.105
131.439
132.799
134.178
135.571
136.978
138.396
139.826
141.267
142.717
144.17
145.62
147.057
148.469
149.848
151.185
152.476
153.719
154.917
156.071
157.183
158.257
159.291
160.286
161.237
162.138
162.982
163.764
164.477
165.118
165.684
166.176
166.593
166.935
167.201
167.389
167.497
167.518
167.444
167.265
166.97
166.548
165.987
165.274
164.4
163.354
162.122
160.694
159.054
157.189
155.08
152.709
150.057
147.103
143.828
140.214
136.247
131.92
127.231
87.1201
89.9763
92.6215
95.0608
97.3038
99.3639
101.256
102.997
104.601
106.084
107.462
108.745
109.949
111.082
112.157
113.182
114.168
115.124
116.057
116.976
117.891
118.809
119.738
120.688
121.667
122.683
123.744
124.856
126.024
127.248
128.526
129.852
131.215
132.605
134.013
135.432
136.861
138.303
139.759
141.233
142.725
144.229
145.737
147.234
148.703
150.13
151.505
152.823
154.085
155.295
156.459
157.584
158.674
159.733
160.76
161.749
162.693
163.581
164.403
165.152
165.826
166.422
166.943
167.391
167.768
168.077
168.317
168.488
168.582
168.592
168.505
168.309
167.989
167.532
166.927
166.162
165.228
164.113
162.806
161.293
159.556
157.578
155.336
152.805
149.96
146.774
143.223
139.285
134.948
130.207
88.9616
91.8243
94.4449
96.8315
98.9989
100.966
102.754
104.382
105.871
107.238
108.499
109.67
110.762
111.788
112.759
113.685
114.574
115.436
116.278
117.111
117.942
118.779
119.633
120.513
121.428
122.389
123.407
124.49
125.645
126.875
128.177
129.54
130.949
132.383
133.827
135.273
136.723
138.183
139.662
141.169
142.709
144.279
145.865
147.445
148.992
150.482
151.902
153.247
154.521
155.735
156.9
158.029
159.132
160.217
161.283
162.323
163.324
164.268
165.141
165.933
166.64
167.264
167.81
168.285
168.695
169.046
169.342
169.582
169.763
169.874
169.899
169.821
169.621
169.286
168.803
168.163
167.357
166.377
165.211
163.847
162.267
160.451
158.373
156.002
153.303
150.243
146.783
142.894
138.553
133.75
91.1473
94.0178
96.6022
98.9146
100.979
102.824
104.477
105.965
107.312
108.539
109.664
110.702
111.667
112.571
113.424
114.236
115.015
115.771
116.511
117.244
117.978
118.723
119.487
120.282
121.119
122.011
122.972
124.015
125.154
126.394
127.735
129.16
130.641
132.141
133.633
135.106
136.567
138.031
139.519
141.053
142.646
144.301
145.998
147.7
149.358
150.932
152.402
153.767
155.04
156.239
157.387
158.505
159.612
160.722
161.837
162.948
164.03
165.053
165.99
166.829
167.568
168.213
168.775
169.267
169.701
170.089
170.44
170.757
171.039
171.273
171.436
171.502
171.444
171.247
170.9
170.396
169.732
168.902
167.897
166.707
165.314
163.697
161.826
159.664
157.165
154.28
150.958
147.151
142.819
137.942
93.7412
96.6204
99.1478
101.352
103.273
104.953
106.434
107.748
108.923
109.984
110.95
111.836
112.657
113.422
114.144
114.829
115.487
116.125
116.751
117.372
117.997
118.634
119.293
119.986
120.726
121.529
122.414
123.401
124.512
125.765
127.166
128.696
130.302
131.906
133.46
134.953
136.401
137.838
139.306
140.846
142.491
144.255
146.119
148.014
149.84
151.525
153.047
154.416
155.66
156.813
157.912
158.991
160.084
161.214
162.393
163.608
164.818
165.955
166.976
167.865
168.626
169.276
169.836
170.327
170.769
171.181
171.58
171.979
172.379
172.768
173.11
173.354
173.463
173.419
173.216
172.856
172.342
171.672
170.845
169.852
168.679
167.304
165.695
163.805
161.576
158.941
155.827
152.158
147.864
142.901
96.8414
99.7261
102.156
104.193
105.908
107.369
108.627
109.725
110.696
111.563
112.347
113.062
113.721
114.335
114.911
115.458
115.983
116.492
116.993
117.491
117.993
118.509
119.047
119.619
120.239
120.926
121.703
122.603
123.661
124.919
126.408
128.12
129.959
131.74
133.373
134.859
136.246
137.598
138.986
140.483
142.158
144.063
146.191
148.424
150.518
152.349
153.909
155.241
156.405
157.46
158.459
159.455
160.496
161.63
162.89
164.273
165.703
167.021
168.148
169.079
169.838
170.464
170.991
171.452
171.874
172.287
172.717
173.192
173.73
174.325
174.918
175.396
175.698
175.814
175.754
175.534
175.168
174.665
174.027
173.251
172.329
171.244
169.962
168.43
166.568
164.288
161.49
158.06
153.869
148.812
100.614
103.483
105.728
107.493
108.909
110.071
111.047
111.884
112.613
113.259
113.838
114.365
114.848
115.296
115.717
116.115
116.498
116.869
117.234
117.598
117.967
118.348
118.748
119.178
119.651
120.188
120.814
121.572
122.518
123.736
125.326
127.354
129.697
131.782
133.492
134.904
136.136
137.301
138.505
139.859
141.49
143.542
146.108
149.031
151.568
153.559
155.093
156.303
157.303
158.18
159.007
159.847
160.771
161.86
163.205
164.866
166.743
168.355
169.599
170.532
171.238
171.789
172.237
172.626
172.988
173.361
173.784
174.309
174.995
175.879
176.887
177.685
178.197
178.456
178.515
178.416
178.188
177.846
177.401
176.856
176.21
175.46
174.584
173.527
172.157
170.373
168.06
165.051
161.115
155.989
105.393
108.137
109.986
111.293
112.27
113.038
113.665
114.192
114.647
115.047
115.403
115.725
116.02
116.294
116.55
116.792
117.025
117.251
117.473
117.695
117.921
118.155
118.402
118.67
118.969
119.315
119.733
120.264
120.98
122.015
123.607
126.131
129.801
132.362
134.035
135.202
136.118
136.945
137.804
138.829
140.213
142.276
145.507
150.188
153.399
155.422
156.738
157.662
158.371
158.97
159.53
160.115
160.803
161.716
163.058
165.145
168.158
170.214
171.493
172.307
172.857
173.255
173.566
173.831
174.083
174.356
174.698
175.19
175.968
177.249
179.154
180.382
181.053
181.381
181.499
181.48
181.364
181.171
180.913
180.599
180.238
179.85
179.461
179.068
178.337
177.216
175.627
173.373
170.071
165.065
112.046
114.075
115.02
115.563
115.929
116.203
116.421
116.602
116.757
116.892
117.013
117.121
117.221
117.312
117.398
117.48
117.558
117.634
117.708
117.783
117.859
117.938
118.022
118.113
118.216
118.336
118.486
118.685
118.979
119.487
120.545
123.252
131.496
134.217
135.303
135.858
136.226
136.536
136.86
137.279
137.953
139.323
142.814
153.455
156.939
158.295
158.945
159.326
159.594
159.81
160.011
160.228
160.506
160.947
161.835
164.087
170.944
173.185
174.051
174.458
174.689
174.841
174.954
175.049
175.141
175.246
175.393
175.651
176.214
177.714
182.39
183.873
184.4
184.602
184.673
184.679
184.646
184.584
184.501
184.403
184.301
184.235
184.338
185.093
185.07
184.73
184.145
183.197
181.476
177.692
113.592
107.444
100.94
94.1009
86.9503
79.5143
71.8205
63.8976
55.7741
47.4787
39.0392
30.4832
21.8373
13.1277
4.38012
113.961
107.796
101.272
94.4095
87.233
79.7695
72.0476
64.0962
55.9444
47.6212
39.1546
30.5721
21.9003
13.1653
4.39262
114.703
108.505
101.94
95.0291
87.7999
80.2809
72.5018
64.493
56.2845
47.9056
39.3847
30.7492
22.0258
13.2402
4.41751
115.828
109.579
102.949
95.9642
88.654
81.0497
73.1836
65.0877
56.7933
48.3305
39.728
31.0135
22.2129
13.3518
4.4546
117.351
111.03
104.31
97.2219
89.7995
82.078
74.0929
65.8788
57.4687
48.8935
40.1824
31.3626
22.46
13.4991
4.50352
119.293
112.875
106.036
98.8111
91.2412
83.3672
75.2289
66.864
58.3074
49.591
40.7441
31.7937
22.7647
13.6805
4.56378
121.682
115.139
108.143
100.742
92.9843
84.9181
76.5892
68.0389
59.3041
50.4175
41.4082
32.3024
23.1237
13.8942
4.63472
124.556
117.85
110.654
103.027
95.0328
86.7291
78.1684
69.3961
60.4507
51.3651
42.1677
32.8829
23.5329
14.1375
4.71545
127.968
121.049
113.591
105.677
97.3876
88.7943
79.9569
70.9242
61.7356
52.4231
43.013
33.5278
23.9867
14.4071
4.80485
131.988
124.784
116.981
108.699
100.043
91.101
81.9384
72.6062
63.1425
53.5769
43.9322
34.2275
24.4784
14.6989
4.90158
136.712
129.112
120.847
112.09
102.983
93.6249
84.0869
74.4172
64.6496
54.808
44.9103
34.9704
24.9997
15.008
5.00402
142.28
134.103
125.199
115.83
106.169
96.3261
86.3646
76.3241
66.2286
56.0934
45.9291
35.7431
25.5414
15.329
5.11035
148.895
139.817
130.014
119.857
109.536
99.1424
88.7186
78.2835
67.8451
57.4064
46.9681
36.5304
26.093
15.6558
5.21859
156.843
146.25
135.178
124.044
112.971
101.986
91.0813
80.244
69.46
58.7171
48.0052
37.3163
26.6437
15.9821
5.32668
166.411
153.158
140.402
128.165
116.317
104.745
93.3739
82.1486
71.0315
59.9948
49.0179
38.0847
27.1827
16.3016
5.43257
13.4176
20.2497
27.073
33.8816
40.6706
47.4358
54.1745
60.8872
67.5795
74.266
80.9783
87.7803
94.8032
102.344
111.227
13.4954
20.4833
27.4632
34.4297
41.3782
48.3045
55.2062
62.0832
68.9403
75.7912
82.6662
89.6275
96.7988
104.42
112.921
13.575
20.7224
27.8623
34.9898
42.1003
49.1894
56.2538
63.2916
70.304
77.2981
84.2924
91.3268
98.4794
105.884
113.707
13.6562
20.9664
28.2695
35.5611
42.8364
50.0905
57.3188
64.5164
71.6789
78.8032
85.8888
92.9421
99.9831
107.053
114.206
13.739
21.2149
28.6844
36.1432
43.5863
51.0086
58.4038
65.7641
73.0789
80.3334
87.5058
94.5638
101.464
108.162
114.644
13.8232
21.4676
29.1064
36.7354
44.35
51.9446
59.512
67.042
74.5192
81.919
89.2001
96.2928
103.085
109.418
115.164
13.9085
21.724
29.5346
37.3369
45.1266
52.8984
60.6448
68.3551
76.0117
83.5853
91.0233
98.2285
105.02
111.081
115.975
13.9949
21.9834
29.9682
37.9466
45.9149
53.8688
61.8016
69.7039
77.5602
85.3439
93.0061
100.449
107.461
113.552
117.615
14.082
22.2451
30.4059
38.5625
46.7124
54.8526
62.9784
71.0833
79.1575
87.185
95.139
102.967
110.54
117.429
121.781
14.1695
22.5082
30.846
39.1823
47.5159
55.8453
64.1684
72.4827
80.7854
89.0753
97.3574
105.66
114.09
123.066
134.464
14.2571
22.7716
31.2868
39.8033
48.3213
56.8411
65.3632
73.8886
82.4206
90.969
99.5596
108.262
117.258
127.017
138.661
14.3444
23.0341
31.7263
40.4225
49.1246
57.8344
66.5543
75.2883
84.0428
92.8313
101.682
110.658
119.893
129.657
140.374
14.4311
23.2947
32.1624
41.037
49.9215
58.8193
67.7345
76.6721
85.6397
94.6483
103.716
112.871
122.157
131.633
141.339
14.5167
23.5521
32.5931
41.6438
50.7083
59.7911
68.8976
78.0336
87.2062
96.4224
105.686
114.99
124.288
133.445
142.192
14.601
23.8053
33.0167
42.2403
51.4813
60.7453
70.0387
79.3681
88.7406
98.1612
107.627
117.111
126.514
135.54
143.451
14.6834
24.0532
33.4314
42.824
52.2374
61.678
71.1533
80.6711
90.2398
99.8664
109.553
119.287
128.997
138.407
146.285
14.7639
24.2948
33.8355
43.3927
52.9734
62.5854
72.2369
81.9372
91.6967
101.528
111.445
121.475
131.687
142.336
154.607
14.8419
24.5294
34.2276
43.9442
53.6868
63.464
73.2851
83.1604
93.1024
103.126
113.256
123.535
134.069
145.134
157.418
14.9174
24.7561
34.6066
44.4768
54.3752
64.311
74.2941
84.3358
94.449
104.65
114.96
125.415
136.08
147.083
158.631
14.9901
24.9745
34.9712
44.989
55.0366
65.1238
75.2609
85.4597
95.7329
106.095
116.562
127.147
137.854
148.649
159.419
15.0598
25.1838
35.3208
45.4796
55.6695
65.9006
76.1835
86.5301
96.953
107.466
118.079
128.791
139.563
150.231
160.335
15.1265
25.3839
35.6546
45.9477
56.2729
66.6401
77.0604
87.5456
98.109
108.764
119.524
130.392
141.34
152.202
162.189
15.19
25.5743
35.9722
46.3929
56.8459
67.3415
77.8905
88.5052
99.1991
109.988
120.891
131.935
143.175
154.777
167.478
15.2502
25.7551
36.2735
46.8147
57.3883
68.0043
78.6736
89.408
100.221
111.13
122.157
133.339
144.754
156.586
169.264
15.3072
25.9261
36.5584
47.2133
57.9002
68.6288
79.4098
90.2543
101.175
112.188
123.312
134.578
146.042
157.804
170.013
15.361
26.0875
36.8271
47.5889
58.3819
69.2157
80.1001
91.0457
102.064
113.166
124.366
135.678
147.12
158.707
170.439
15.4117
26.2393
37.0798
47.9419
58.8343
69.766
80.7465
91.785
102.891
114.074
125.339
136.685
148.094
159.506
170.803
15.4592
26.3819
37.317
48.2729
59.2581
70.2812
81.3508
92.4755
103.664
114.922
126.252
137.646
149.063
160.383
171.31
15.5038
26.5155
37.5391
48.5828
59.6546
70.7627
81.9152
93.1202
104.385
115.717
127.12
138.588
150.095
161.528
172.406
15.5455
26.6403
37.7467
48.8723
60.0248
71.2119
82.4415
93.7211
105.059
116.462
127.939
139.501
151.175
163.054
175.581
15.5844
26.7568
37.9403
49.1422
60.3698
71.6304
82.9313
94.28
105.684
117.152
128.696
140.333
152.109
164.128
176.651
15.6206
26.8654
38.1206
49.3934
60.6907
72.0193
83.3862
94.7984
106.263
117.788
129.384
141.068
152.869
164.849
177.097
15.6543
26.9662
38.2881
49.6268
60.9887
72.3803
83.8081
95.2785
106.798
118.373
130.009
141.717
153.504
165.38
177.348
15.6855
27.0597
38.4435
49.8431
61.2648
72.7147
84.1988
95.7227
107.292
118.911
130.583
142.307
154.072
165.845
177.559
15.7144
27.1462
38.5872
50.0432
61.5202
73.024
84.56
96.1335
107.749
119.41
131.118
142.866
154.632
166.348
177.847
15.741
27.2261
38.7197
50.2278
61.7559
73.3094
84.8935
96.5131
108.172
119.875
131.622
143.411
155.223
166.997
178.462
15.7656
27.2995
38.8417
50.3977
61.9728
73.5722
85.2007
96.863
108.564
120.306
132.095
143.935
155.838
167.858
180.236
15.788
27.3668
38.9535
50.5534
62.1717
73.8132
85.4826
97.1845
108.923
120.703
132.529
144.411
156.37
168.464
180.836
15.8085
27.4282
39.0555
50.6955
62.3532
74.0333
85.7403
97.4785
109.252
121.065
132.922
144.831
156.805
168.875
181.088
15.8271
27.4838
39.148
50.8245
62.518
74.2332
85.9745
97.7459
109.551
121.394
133.277
145.202
157.17
169.182
181.234
15.8438
27.534
39.2313
50.9406
62.6666
74.4136
86.186
97.9878
109.822
121.693
133.599
145.539
157.501
169.459
181.362
15.8588
27.5787
39.3057
51.0443
62.7993
74.5748
86.3753
98.2048
110.067
121.964
133.896
145.858
157.832
169.769
181.55
15.872
27.6182
39.3713
51.1359
62.9164
74.7173
86.5428
98.3972
110.284
122.207
134.168
146.165
158.186
170.185
181.97
15.8834
27.6525
39.4283
51.2154
63.0182
74.8411
86.6885
98.5649
110.475
122.423
134.413
146.452
158.551
170.747
183.21
15.8932
27.6817
39.4768
51.2831
63.1047
74.9463
86.8123
98.7073
110.636
122.605
134.621
146.695
158.846
171.12
183.614
15.9012
27.7059
39.517
51.3391
63.1763
75.0331
86.9141
98.824
110.768
122.753
134.786
146.88
159.053
171.335
183.763
15.9077
27.7252
39.5491
51.3835
63.2329
75.1016
86.9939
98.9148
110.87
122.864
134.907
147.007
159.181
171.446
183.818
15.9125
27.7397
39.573
51.4168
63.275
75.152
87.0521
98.98
110.941
122.94
134.984
147.081
159.241
171.479
183.817
15.9158
27.7495
39.5892
51.4389
63.3028
75.1848
87.0892
99.0204
110.983
122.982
135.021
147.107
159.244
171.441
183.734
15.9176
27.7547
39.5976
51.4503
63.3166
75.2005
87.1059
99.0369
110.998
122.992
135.024
147.094
159.201
171.331
183.424
15.9179
27.7555
39.5987
51.4513
63.317
75.1996
87.1029
99.0306
110.987
122.974
134.996
147.053
159.14
171.243
183.322
15.9167
27.7519
39.5925
51.4421
63.3044
75.1828
87.081
99.0026
110.951
122.93
134.941
146.987
159.065
171.167
183.274
15.9142
27.7442
39.5794
51.4233
63.2792
75.1506
87.0409
98.9536
110.892
122.86
134.86
146.895
158.969
171.083
183.234
15.9103
27.7325
39.5596
51.395
63.242
75.1037
86.9834
98.8846
110.811
122.765
134.751
146.774
158.842
170.97
183.177
15.9051
27.7169
39.5334
51.3578
63.1931
75.0425
86.9092
98.7962
110.707
122.645
134.613
146.618
158.67
170.797
183.065
15.8987
27.6976
39.501
51.3119
63.1332
74.9678
86.8188
98.6891
110.582
122.5
134.447
146.425
158.443
170.523
182.782
15.8911
27.6749
39.4628
51.2578
63.0626
74.88
86.7129
98.5642
110.437
122.333
134.255
146.203
158.168
170.121
181.928
15.8825
27.6487
39.4189
51.1957
62.9818
74.7798
86.5923
98.4223
110.273
122.146
134.043
145.964
157.899
169.815
181.632
15.8727
27.6194
39.3697
51.1263
62.8914
74.6677
86.4577
98.264
110.09
121.938
133.811
145.712
157.638
169.575
181.493
15.862
27.587
39.3155
51.0497
62.7919
74.5444
86.3096
98.09
109.889
121.71
133.557
145.439
157.364
169.345
181.386
15.8503
27.5518
39.2566
50.9666
62.6839
74.4106
86.1488
97.9009
109.67
121.46
133.277
145.132
157.049
169.067
181.249
15.8377
27.514
39.1932
50.8773
62.5679
74.2669
85.9762
97.6977
109.434
121.188
132.966
144.78
156.658
168.672
180.99
15.8243
27.4737
39.1258
50.7822
62.4446
74.1144
85.793
97.482
109.183
120.897
132.627
144.379
156.17
168.062
180.34
15.8101
27.4312
39.0546
50.682
62.3147
73.9539
85.6006
97.2556
108.919
120.591
132.269
143.947
155.607
167.179
178.373
15.7952
27.3865
38.9799
50.5769
62.1788
73.7863
85.4003
97.0208
108.647
120.278
131.908
143.525
155.099
166.556
177.719
15.7797
27.3397
38.9019
50.4674
62.0374
73.6125
85.1931
96.7792
108.37
119.963
131.552
143.129
154.67
166.132
177.448
15.7635
27.2911
38.8208
50.3537
61.8909
73.4329
84.98
96.532
108.088
119.646
131.203
142.753
154.29
165.805
177.29
15.7466
27.2405
38.7366
50.2359
61.7394
73.2478
84.7613
96.2795
107.802
119.327
130.853
142.383
153.922
165.494
177.144
15.7291
27.1881
38.6492
50.1139
61.5831
73.0574
84.537
96.0216
107.511
119.003
130.499
142.001
153.527
165.125
176.922
15.7109
27.1336
38.5587
49.9876
61.4216
72.8613
84.3069
95.7581
107.214
118.674
130.135
141.6
153.077
164.612
176.419
15.692
27.0769
38.4646
49.8567
61.2546
72.6591
84.0706
95.4887
106.912
118.34
129.766
141.186
152.583
163.907
174.941
15.6722
27.0177
38.3665
49.7205
61.0814
72.4501
83.8273
95.2127
106.605
118.002
129.398
140.784
152.135
163.397
174.438
15.6515
26.9558
38.264
49.5784
60.901
72.2332
83.5759
94.9291
106.292
117.662
129.034
140.401
151.745
163.035
174.221
15.6297
26.8907
38.1563
49.4294
60.7123
72.0071
83.3149
94.6361
105.97
117.316
128.67
140.029
151.388
162.741
174.085
15.6067
26.8219
38.0426
49.2722
60.5138
71.7699
83.042
94.3313
105.638
116.961
128.299
139.653
151.029
162.449
173.951
15.5822
26.7487
37.9218
49.1055
60.3037
71.5193
82.7549
94.0119
105.291
116.591
127.912
139.257
150.637
162.095
173.743
15.5559
26.6704
37.7927
48.9276
60.0797
71.2529
82.4504
93.6744
104.926
116.204
127.506
138.832
150.185
161.603
173.275
15.5277
26.5863
37.6539
48.7364
59.8393
70.9675
82.1251
93.3152
104.539
115.795
127.08
138.383
149.684
160.929
171.915
15.4973
26.4953
37.5038
48.5298
59.5796
70.6595
81.7748
92.9296
104.126
115.364
126.637
137.931
149.216
160.431
171.446
15.4642
26.3965
37.3409
48.3052
59.2974
70.3248
81.3944
92.5122
103.682
114.904
126.175
137.48
148.792
160.066
171.237
15.4281
26.2888
37.1631
48.0601
58.9889
69.9587
80.9782
92.0557
103.198
114.408
125.685
137.019
148.39
159.766
171.109
15.3887
26.1712
36.9687
47.7916
58.6504
69.5559
80.5192
91.5515
102.663
113.861
125.151
136.528
147.98
159.482
171.003
15.3457
26.0425
36.7558
47.4968
58.2776
69.1108
80.0099
90.9895
102.064
113.248
124.552
135.981
147.53
159.181
170.895
15.2987
25.9019
36.5227
47.1732
57.8667
68.6177
79.4422
90.3585
101.386
112.547
123.861
135.345
147.005
158.828
170.77
15.2476
25.7487
36.268
46.8184
57.4142
68.0713
78.8084
89.6472
100.613
111.736
123.049
134.582
146.362
158.388
170.611
15.1921
25.5823
35.9908
46.4309
56.9173
67.4673
78.1013
88.8445
99.728
110.79
122.078
133.644
145.543
157.806
170.393
15.1322
25.4026
35.6908
46.0099
56.3747
66.8028
77.3159
87.9416
98.7154
109.684
120.909
132.471
144.467
156.992
170.066
15.0682
25.21
35.3684
45.5559
55.7864
66.0772
76.45
86.9329
97.5642
108.396
119.502
130.991
143.018
155.792
169.514
15.0002
25.0053
35.0251
45.0706
55.1545
65.2926
75.505
85.8186
96.2705
106.913
117.826
129.134
141.045
153.929
168.419
14.9287
24.7899
34.6631
44.5574
54.4834
64.4543
74.4873
84.6054
94.8409
105.24
115.872
126.853
138.391
150.944
165.797
176.045
159.031
144.709
131.584
119.126
107.089
95.3389
83.7932
72.3964
61.1097
49.9046
38.7593
27.6569
16.5831
5.52592
179.09
162.499
147.789
134.227
121.384
109.017
96.9814
85.1831
73.5593
62.0653
50.668
39.3422
28.0675
16.8273
5.60692
180.359
164.657
150.069
136.367
123.309
110.714
98.4569
86.4499
74.6304
62.9524
51.3808
39.8886
28.4536
17.0573
5.68331
180.995
166.037
151.73
138.057
124.909
112.174
99.7567
87.5848
75.6018
63.7641
52.0375
40.3944
28.8122
17.2714
5.75449
181.368
166.961
152.949
139.38
126.221
113.41
100.884
88.5866
76.4705
64.4973
52.635
40.8572
29.1416
17.4685
5.8201
181.611
167.609
153.855
140.414
127.288
114.446
101.851
89.4606
77.2386
65.152
53.1727
41.2761
29.4409
17.648
5.87995
181.781
168.079
154.542
141.228
128.153
115.309
102.673
90.2159
77.9109
65.7309
53.6517
41.6514
29.7102
17.81
5.934
181.906
168.432
155.071
141.872
128.857
116.026
103.367
90.8639
78.4947
66.2385
54.0749
41.9848
29.9503
17.9548
5.98241
182
168.702
155.485
142.386
129.429
116.619
103.952
91.4169
78.9984
66.6803
54.4458
42.2786
30.1628
18.0834
6.0254
182.073
168.913
155.812
142.799
129.896
117.111
104.444
91.8868
79.4307
67.0626
54.7689
42.5358
30.3496
18.1965
6.06331
182.131
169.081
156.073
143.133
130.279
117.519
104.856
92.285
79.8001
67.3917
55.0487
42.7597
30.5127
18.2956
6.09654
182.177
169.214
156.284
143.405
130.594
117.858
105.201
92.6215
80.1148
67.6739
55.29
42.9535
30.6543
18.3818
6.12548
182.214
169.322
156.455
143.628
130.853
118.14
105.49
92.9055
80.3822
67.915
55.4971
43.1206
30.7767
18.4565
6.15057
182.244
169.41
156.594
143.81
131.067
118.374
105.733
93.1449
80.6089
68.1205
55.6744
43.264
30.8821
18.5209
6.17223
182.268
169.482
156.709
143.96
131.245
118.569
105.936
93.3466
80.8007
68.2952
55.8256
43.3867
30.9725
18.5762
6.19085
182.288
169.541
156.804
144.085
131.392
118.731
106.106
93.5163
80.9629
68.4433
55.9543
43.4915
31.0498
18.6236
6.2068
182.305
169.59
156.882
144.188
131.515
118.867
106.248
93.659
81.0998
68.5689
56.0637
43.5807
31.1157
18.664
6.22044
182.319
169.63
156.946
144.274
131.617
118.981
106.368
93.7791
81.2153
68.675
56.1564
43.6565
31.1719
18.6985
6.23206
182.33
169.664
157
144.345
131.702
119.076
106.468
93.8801
81.3126
68.7647
56.2349
43.7208
31.2195
18.7278
6.24194
182.339
169.691
157.045
144.404
131.773
119.155
106.552
93.9649
81.3946
68.8405
56.3013
43.7752
31.2599
18.7527
6.25033
182.347
169.715
157.082
144.454
131.833
119.222
106.622
94.0362
81.4637
68.9044
56.3574
43.8213
31.2941
18.7737
6.25744
182.354
169.734
157.113
144.495
131.882
119.277
106.681
94.0962
81.5218
68.9582
56.4047
43.8602
31.3231
18.7915
6.26346
182.359
169.75
157.139
144.53
131.924
119.324
106.731
94.1465
81.5707
69.0036
56.4446
43.893
31.3475
18.8066
6.26855
182.364
169.763
157.161
144.559
131.959
119.363
106.773
94.1888
81.6118
69.0417
56.4783
43.9207
31.3681
18.8193
6.27284
182.368
169.775
157.179
144.583
131.988
119.396
106.808
94.2243
81.6464
69.0739
56.5066
43.944
31.3855
18.83
6.27646
182.371
169.784
157.194
144.603
132.012
119.423
106.837
94.2541
81.6754
69.1009
56.5304
43.9637
31.4002
18.8391
6.27951
182.373
169.792
157.207
144.62
132.033
119.446
106.862
94.2792
81.6998
69.1235
56.5504
43.9802
31.4125
18.8467
6.28208
182.376
169.798
157.218
144.634
132.05
119.466
106.882
94.3002
81.7202
69.1426
56.5672
43.994
31.4228
18.853
6.28424
182.378
169.804
157.227
144.646
132.064
119.482
106.899
94.3177
81.7374
69.1585
56.5813
44.0057
31.4315
18.8584
6.28604
182.379
169.809
157.234
144.656
132.076
119.495
106.914
94.3324
81.7517
69.1719
56.5931
44.0154
31.4387
18.8629
6.28755
182.38
169.813
157.24
144.665
132.086
119.507
106.926
94.3447
81.7637
69.183
56.6029
44.0235
31.4447
18.8666
6.28881
182.382
169.816
157.246
144.672
132.095
119.516
106.936
94.3549
81.7736
69.1922
56.611
44.0302
31.4497
18.8697
6.28985
182.383
169.819
157.25
144.678
132.102
119.524
106.944
94.3634
81.7818
69.1998
56.6177
44.0357
31.4538
18.8722
6.2907
182.383
169.821
157.254
144.682
132.108
119.531
106.951
94.3704
81.7885
69.206
56.6231
44.0401
31.4571
18.8742
6.29139
182.384
169.823
157.257
144.687
132.113
119.536
106.957
94.376
81.7939
69.211
56.6274
44.0436
31.4597
18.8758
6.29193
182.385
169.825
157.26
144.69
132.117
119.541
106.962
94.3806
81.7982
69.2148
56.6308
44.0463
31.4617
18.877
6.29233