/*--------------------------------*- C++ -*----------------------------------*\
| =========                 |                                                 |
| \\      /  F ield         | OpenFOAM: The Open Source CFD Toolbox           |
|  \\    /   O peration     | Version:  5.x                                   |
|   \\  /    A nd           | Web:      www.OpenFOAM.org                      |
|    \\/     M anipulation  |                                                 |
\*---------------------------------------------------------------------------*/
FoamFile
{
    version     2.0;
    format      ascii;
    class       volScalarField;
    location    "0.4";
    object      T;
}
// * * * * * * * * * * * * * * * * * * * * * * * * * * * * * * * * * * * * * //

dimensions      [0 0 0 1 0 0 0];

internalField   nonuniform List<scalar> 
6300
(
140.888
402.302
662.629
921.135
1177.08
1429.7
1678.24
1921.92
2159.94
2391.53
2615.91
2832.36
3040.18
3238.76
3427.61
141.252
403.397
664.461
923.714
1180.42
1433.82
1683.14
1927.6
2166.41
2398.77
2623.9
2841.03
3049.46
3248.56
3437.8
141.978
405.58
668.115
928.86
1187.08
1442.03
1692.92
1938.98
2179.37
2413.3
2639.92
2858.45
3068.14
3268.28
3458.33
143.062
408.838
673.569
936.547
1197.05
1454.32
1707.58
1956.04
2198.85
2435.16
2664.09
2884.78
3096.39
3298.17
3489.46
144.495
413.148
680.789
946.729
1210.26
1470.63
1727.08
1978.78
2224.87
2464.44
2696.54
2920.22
3134.54
3338.6
3531.65
146.266
418.477
689.722
959.339
1226.64
1490.9
1751.36
2007.17
2257.45
2501.22
2737.46
2965.09
3182.99
3390.11
3585.51
148.36
424.78
700.294
974.28
1246.08
1515.01
1780.3
2041.13
2296.56
2545.59
2787.05
3019.72
3242.27
3453.4
3651.89
150.756
431.995
712.407
991.42
1268.43
1542.78
1813.74
2080.51
2342.14
2597.55
2845.48
3084.51
3313.04
3529.38
3731.92
153.429
440.044
725.931
1010.58
1293.45
1573.95
1851.41
2125.06
2393.96
2657.02
2912.87
3159.86
3396.04
3619.21
3827.13
156.344
448.83
740.704
1031.54
1320.87
1608.2
1892.93
2174.38
2451.68
2723.75
2989.16
3246.07
3492.1
3724.34
3939.55
159.465
458.236
756.529
1054.01
1350.32
1645.06
1937.76
2227.88
2514.67
2797.16
3074
3343.21
3602.01
3846.57
4072.04
162.746
468.129
773.179
1077.67
1381.35
1683.97
1985.22
2284.73
2581.99
2876.29
3166.5
3450.81
3726.23
3987.92
4228.63
166.14
478.361
790.402
1102.15
1413.48
1724.29
2034.46
2343.86
2652.32
2959.54
3264.94
3567.34
3864.22
4150.29
4415.23
169.597
488.78
807.934
1127.05
1446.15
1765.27
2084.5
2403.98
2723.93
3044.64
3366.43
3689.46
4013.06
4333.86
4640.22
173.067
499.236
825.515
1152
1478.82
1806.16
2134.31
2463.66
2794.82
3128.71
3466.74
3811.03
4164.77
4531.9
4911.99
3591.42
3733.15
3867.59
3994.76
4114.7
4227.56
4333.5
4432.78
4525.66
4612.46
4693.51
4769.16
4839.77
4905.69
4967.28
5024.9
5078.88
5129.55
5177.23
5222.2
5264.75
5305.15
5343.62
5380.4
5415.67
5449.63
5482.42
5514.18
5545.02
5575.03
5604.28
5632.82
5660.68
5687.89
5714.45
5740.36
5765.62
5790.2
5814.09
5837.26
5859.68
5881.31
5902.11
5922.04
5941.05
5959.11
5976.15
5992.13
6007.02
6020.76
6033.3
6044.6
6054.6
6063.25
6070.49
6076.23
6080.42
6082.95
6083.75
6082.7
6079.71
6074.64
6067.39
6057.79
6045.72
6030.99
6013.44
5992.85
5969.02
5941.71
5910.66
5875.6
5836.24
5792.26
5743.33
5689.11
5629.24
5563.35
5491.06
5411.99
5325.76
5232
5130.35
5020.51
4902.17
4775.11
4639.14
4494.15
4340.12
4177.1
3601.85
3743.69
3878.15
4005.22
4124.99
4237.57
4343.18
4442.06
4534.5
4620.82
4701.37
4776.51
4846.6
4912.01
4973.1
5030.23
5083.74
5133.96
5181.21
5225.79
5267.96
5308.01
5346.17
5382.66
5417.68
5451.41
5484.01
5515.61
5546.32
5576.24
5605.42
5633.91
5661.75
5688.95
5715.51
5741.44
5766.72
5791.33
5815.26
5838.48
5860.95
5882.64
5903.51
5923.51
5942.59
5960.72
5977.83
5993.88
6008.84
6022.64
6035.26
6046.64
6056.73
6065.47
6072.81
6078.67
6082.98
6085.65
6086.59
6085.7
6082.88
6078
6070.94
6061.57
6049.74
6035.27
6018.01
5997.73
5974.24
5947.3
5916.65
5882.01
5843.1
5799.59
5751.16
5697.46
5638.12
5572.77
5501.03
5422.5
5336.8
5243.55
5142.37
5032.93
4914.94
4788.12
4652.3
4507.36
4353.25
4190.03
3622.86
3764.92
3899.4
4026.29
4145.68
4257.72
4362.63
4460.7
4552.23
4637.58
4717.11
4791.21
4860.25
4924.63
4984.71
5040.86
5093.43
5142.75
5189.14
5232.92
5274.35
5313.7
5351.22
5387.14
5421.65
5454.94
5487.15
5518.44
5548.9
5578.62
5607.66
5636.07
5663.86
5691.04
5717.62
5743.58
5768.91
5793.59
5817.6
5840.92
5863.5
5885.31
5906.31
5926.45
5945.67
5963.94
5981.19
5997.38
6012.47
6026.42
6039.18
6050.71
6060.96
6069.89
6077.44
6083.52
6088.08
6091.02
6092.26
6091.69
6089.2
6084.7
6078.04
6069.1
6057.75
6043.8
6027.11
6007.46
5984.65
5958.45
5928.59
5894.8
5856.79
5814.23
5766.8
5714.14
5655.87
5591.62
5520.99
5443.57
5358.94
5266.72
5166.49
5057.89
4940.59
4814.3
4678.8
4533.95
4379.69
4216.06
3654.74
3797.15
3931.65
4058.23
4177.02
4288.19
4392.02
4488.81
4578.94
4662.79
4740.76
4813.27
4880.72
4943.53
5002.07
5056.74
5107.88
5155.84
5200.95
5243.51
5283.82
5322.13
5358.69
5393.74
5427.49
5460.1
5491.75
5522.57
5552.66
5582.1
5610.94
5639.23
5666.96
5694.13
5720.74
5746.75
5772.17
5796.95
5821.09
5844.54
5867.29
5889.29
5910.5
5930.85
5950.29
5968.77
5986.23
6002.63
6017.92
6032.06
6045.03
6056.78
6067.29
6076.49
6084.34
6090.77
6095.7
6099.04
6100.72
6100.62
6098.64
6094.68
6088.61
6080.32
6069.67
6056.51
6040.66
6021.95
6000.16
5975.06
5946.39
5913.88
5877.23
5836.11
5790.19
5739.1
5682.46
5619.88
5550.94
5475.2
5392.24
5301.61
5202.86
5095.58
4979.39
4853.94
4718.96
4574.27
4419.79
4255.55
3697.96
3840.85
3975.35
4101.48
4219.39
4329.32
4431.6
4526.61
4614.77
4696.54
4772.36
4842.69
4907.97
4968.65
5025.11
5077.78
5127
5173.14
5216.52
5257.46
5296.25
5333.16
5368.45
5402.34
5435.05
5466.77
5497.66
5527.85
5557.45
5586.54
5615.15
5643.3
5670.98
5698.17
5724.83
5750.93
5776.45
5801.38
5825.68
5849.33
5872.31
5894.57
5916.06
5936.71
5956.46
5975.23
5992.97
6009.63
6025.17
6039.57
6052.8
6064.83
6075.65
6085.21
6093.47
6100.35
6105.78
6109.67
6111.92
6112.44
6111.13
6107.88
6102.59
6095.15
6085.42
6073.28
6058.56
6041.08
6020.64
5997.02
5969.94
5939.14
5904.31
5865.12
5821.23
5772.26
5717.82
5657.51
5590.87
5517.47
5436.8
5348.39
5251.72
5146.32
5031.71
4907.49
4773.3
4628.89
4474.14
4309.06
3753.2
3896.7
4031.16
4156.64
4273.32
4381.55
4481.73
4574.34
4659.9
4738.93
4811.94
4879.45
4941.95
4999.9
5053.73
5103.85
5150.65
5194.49
5235.7
5274.6
5311.49
5346.64
5380.31
5412.74
5444.15
5474.73
5504.67
5534.09
5563.11
5591.78
5620.14
5648.18
5675.84
5703.08
5729.84
5756.07
5781.74
5806.83
5831.33
5855.23
5878.5
5901.1
5922.97
5944.02
5964.17
5983.32
6001.42
6018.4
6034.24
6048.93
6062.45
6074.81
6086
6096
6104.75
6112.2
6118.26
6122.83
6125.81
6127.1
6126.61
6124.23
6119.88
6113.46
6104.86
6093.96
6080.62
6064.68
6045.93
6024.15
5999.08
5970.43
5937.89
5901.13
5859.79
5813.5
5761.87
5704.45
5640.79
5570.39
5492.73
5407.25
5313.38
5210.52
5098.1
4975.59
4842.53
4698.58
4543.54
4377.39
3821.37
3965.64
4099.99
4224.51
4339.51
4445.43
4542.83
4632.31
4714.51
4790.05
4859.53
4923.52
4982.57
5037.16
5087.77
5134.8
5178.66
5219.72
5258.3
5294.74
5329.33
5362.34
5394.05
5424.7
5454.53
5483.74
5512.52
5541.02
5569.36
5597.59
5625.71
5653.69
5681.42
5708.81
5735.74
5762.14
5787.98
5813.26
5837.98
5862.16
5885.79
5908.83
5931.2
5952.78
5973.46
5993.1
6011.63
6028.98
6045.13
6060.11
6073.94
6086.65
6098.25
6108.75
6118.1
6126.23
6133.06
6138.46
6142.32
6144.53
6144.99
6143.61
6140.34
6135.1
6127.8
6118.36
6106.65
6092.53
6075.8
6056.24
6033.58
6007.53
5977.76
5943.94
5905.7
5862.68
5814.45
5760.59
5700.61
5633.99
5560.14
5478.43
5388.18
5288.68
5179.22
5059.08
4927.66
4784.44
4629.13
4461.65
3903.73
4048.94
4183.02
4306.16
4418.83
4521.66
4615.4
4700.85
4778.79
4849.97
4915.09
4974.8
5029.68
5080.26
5127.02
5170.4
5210.8
5248.59
5284.09
5317.63
5349.51
5380.02
5409.41
5437.95
5465.89
5493.46
5520.87
5548.3
5575.87
5603.65
5631.61
5659.66
5687.63
5715.3
5742.51
5769.14
5795.17
5820.61
5845.54
5870.01
5894.06
5917.66
5940.69
5963
5984.38
6004.64
6023.68
6041.42
6057.88
6073.12
6087.21
6100.24
6112.26
6123.31
6133.36
6142.33
6150.1
6156.5
6161.4
6164.66
6166.19
6165.93
6163.84
6159.89
6154.04
6146.22
6136.36
6124.33
6109.95
6092.99
6073.18
6050.19
6023.68
5993.32
5958.73
5919.55
5875.37
5825.76
5770.23
5708.21
5639.08
5562.11
5476.52
5381.42
5275.9
5159.04
5029.96
4887.92
4732.44
4563.34
4001.98
4148.31
4281.85
4402.97
4512.38
4611.04
4699.99
4780.27
4852.87
4918.69
4978.53
5033.11
5083.06
5128.94
5171.23
5210.39
5246.79
5280.82
5312.78
5343.01
5371.78
5399.38
5426.08
5452.16
5477.88
5503.51
5529.3
5555.46
5582.18
5609.54
5637.5
5665.87
5694.35
5722.57
5750.22
5777.14
5803.31
5828.83
5853.88
5878.61
5903.12
5927.43
5951.38
5974.69
5997.03
6018.11
6037.73
6055.86
6072.55
6087.94
6102.18
6115.44
6127.85
6139.49
6150.35
6160.34
6169.27
6176.9
6183.01
6187.46
6190.15
6191.07
6190.22
6187.62
6183.29
6177.23
6169.4
6159.72
6148.02
6134.06
6117.55
6098.12
6075.38
6048.99
6018.58
5983.82
5944.33
5899.68
5849.39
5792.9
5729.51
5658.44
5578.75
5489.37
5389.13
5276.79
5151.1
5010.97
4855.55
4684.5
4118.49
4266.15
4398.65
4516.7
4621.49
4714.48
4797.13
4870.83
4936.79
4996.08
5049.61
5098.16
5142.38
5182.84
5220.04
5254.4
5286.3
5316.09
5344.08
5370.56
5395.81
5420.11
5443.74
5466.97
5490.09
5513.42
5537.27
5561.93
5587.67
5614.66
5642.88
5672.03
5701.57
5730.77
5759.09
5786.32
5812.49
5837.87
5862.79
5887.62
5912.61
5937.84
5963.1
5987.92
6011.66
6033.8
6054.08
6072.51
6089.25
6104.55
6118.71
6132.01
6144.7
6156.94
6168.77
6180.05
6190.48
6199.65
6207.21
6212.96
6216.87
6218.95
6219.3
6218.03
6215.23
6210.98
6205.32
6198.2
6189.52
6179.03
6166.35
6151
6132.56
6110.64
6084.93
6055.13
6020.92
5981.93
5937.72
5887.72
5831.23
5767.39
5695.13
5613.17
5520.01
5413.97
5293.27
5156.2
5001.37
4828.01
4256.68
4405.85
4536.34
4649.57
4747.66
4832.86
4907.24
4972.59
5030.38
5081.84
5127.95
5169.51
5207.18
5241.53
5273.01
5302.03
5328.93
5354.03
5377.62
5399.95
5421.29
5441.91
5462.05
5482.01
5502.1
5522.68
5544.14
5566.92
5591.46
5618.11
5647
5677.76
5709.36
5740.32
5769.67
5797.12
5822.93
5847.66
5871.97
5896.53
5921.89
5948.32
5975.6
6002.84
6028.72
6052.29
6073.25
6091.75
6108.17
6122.97
6136.63
6149.63
6162.36
6175.15
6188.14
6201.17
6213.69
6224.89
6234.17
6241.32
6246.38
6249.5
6250.91
6250.83
6249.46
6246.97
6243.51
6239.15
6233.85
6227.37
6219.18
6208.56
6194.95
6177.96
6157.37
6132.99
6104.61
6071.94
6034.6
5992.09
5943.75
5888.67
5825.7
5753.33
5669.66
5572.45
5459.21
5327.24
5174.06
4998.03
4421.83
4572.52
4698.94
4804.31
4892.45
4966.88
5030.41
5085.28
5133.17
5175.38
5212.9
5246.52
5276.86
5304.41
5329.6
5352.77
5374.22
5394.23
5413.03
5430.85
5447.91
5464.45
5480.7
5496.94
5513.5
5530.76
5549.21
5569.47
5592.28
5618.43
5648.51
5682.36
5718.16
5752.31
5783.06
5810.37
5835.04
5858.16
5880.9
5904.4
5929.73
5957.69
5988.26
6019.87
6049.22
6074.67
6096.1
6114.13
6129.55
6143.15
6155.67
6167.77
6180.09
6193.23
6207.6
6223.17
6238.98
6253.05
6264.39
6272.88
6278.84
6282.7
6284.86
6285.68
6285.48
6284.55
6283.18
6281.63
6280.08
6278.35
6275.7
6270.65
6262.4
6250.69
6235.49
6216.83
6194.67
6168.87
6139.14
6105.1
6066.17
6021.54
5970.04
5909.98
5839
5754.26
5652.33
5529.05
5379.87
5200.99
4622.95
4774.21
4891.92
4983.89
5057.08
5116.63
5166.14
5208.09
5244.21
5275.73
5303.54
5328.33
5350.6
5370.77
5389.16
5406.05
5421.68
5436.24
5449.92
5462.9
5475.36
5487.47
5499.44
5511.5
5523.95
5537.18
5551.75
5568.44
5588.38
5613.16
5644.68
5684.23
5729.42
5769.29
5801.51
5827.53
5849.47
5869.32
5888.83
5909.73
5933.91
5963.4
5999.56
6040.28
6075.47
6102.97
6124
6140.39
6153.68
6165.05
6175.46
6185.75
6196.81
6209.67
6225.48
6244.99
6266.93
6285.32
6298.86
6308.25
6314.51
6318.52
6320.91
6322.18
6322.73
6322.94
6323.29
6324.33
6326.73
6330.89
6335.85
6337.57
6335.06
6328.63
6318.8
6305.94
6290.22
6271.65
6250.12
6225.36
6197.02
6164.51
6126.93
6082.59
6028.37
5961.05
5876.4
5768.36
5628.64
5447.88
4878.22
5024.26
5122.02
5190.58
5241.39
5280.89
5312.81
5339.36
5361.93
5381.47
5398.61
5413.81
5427.43
5439.74
5450.95
5461.22
5470.72
5479.57
5487.89
5495.79
5503.37
5510.77
5518.11
5525.56
5533.34
5541.76
5551.3
5562.78
5577.59
5598.26
5629.38
5678.06
5748.43
5797.35
5829.01
5850.63
5867.01
5881.07
5894.86
5910.43
5930.53
5959.62
6004.4
6068.75
6112.91
6140.7
6158.72
6171.24
6180.69
6188.47
6195.55
6202.75
6211.07
6222.02
6238.18
6263.47
6300.14
6324.74
6339.5
6348.29
6353.6
6356.83
6358.76
6359.9
6360.63
6361.33
6362.57
6365.27
6371.05
6382.44
6400.87
6410.78
6413.56
6411.68
6406.69
6399.36
6390.06
6378.93
6365.94
6351.02
6334.07
6315.01
6293.77
6269.65
6236.83
6193.01
6134.39
6053.53
5936.75
5760.92
5234.83
5343.88
5394.23
5422.9
5442.02
5456.15
5467.27
5476.39
5484.09
5490.72
5496.51
5501.64
5506.22
5510.36
5514.12
5517.57
5520.76
5523.73
5526.52
5529.17
5531.72
5534.21
5536.69
5539.21
5541.86
5544.77
5548.15
5552.4
5558.4
5568.4
5588.84
5640.74
5798.38
5850.37
5871.02
5881.37
5887.99
5893.26
5898.44
5904.71
5914.32
5933.33
5981.17
6126.42
6174.04
6192.6
6201.48
6206.66
6210.23
6213.05
6215.6
6218.27
6221.65
6227.01
6237.88
6265.71
6350.89
6378.48
6388.88
6393.5
6395.86
6397.17
6397.93
6398.4
6398.73
6399.13
6399.93
6401.94
6407.48
6424.06
6478.35
6494.44
6498.97
6499.44
6498.14
6495.83
6492.78
6489.07
6484.75
6479.82
6474.38
6468.86
6464.99
6469.46
6461.35
6446.55
6424.64
6390.68
6330.1
6197.76
3988.03
3769.35
3538.8
3297.05
3044.88
2783.16
2512.82
2234.81
1950.09
1659.61
1364.32
1065.13
762.93
458.604
153.009
4000.6
3781.39
3550.15
3307.6
3054.55
2791.9
2520.6
2241.62
1955.93
1664.5
1368.28
1068.18
765.092
459.895
153.438
4025.92
3805.6
3572.97
3328.8
3073.96
2809.42
2536.17
2255.22
1967.59
1674.26
1376.17
1074.26
769.402
462.467
154.293
4064.31
3842.27
3607.48
3360.8
3103.21
2835.76
2559.54
2275.61
1985.04
1688.83
1387.95
1083.33
775.824
466.297
155.566
4116.29
3891.84
3654.03
3403.85
3142.45
2871
2590.71
2302.75
2008.21
1708.16
1403.55
1095.31
784.306
471.354
157.246
4182.6
3954.94
3713.1
3458.28
3191.86
2915.21
2629.68
2336.55
2037
1732.1
1422.83
1110.11
794.768
477.585
159.315
4264.25
4032.39
3785.29
3524.48
3251.64
2968.42
2676.36
2376.88
2071.22
1760.48
1445.64
1127.58
807.1
484.925
161.752
4362.59
4125.27
3871.34
3602.85
3321.93
3030.58
2730.59
2423.49
2110.6
1793.03
1471.73
1147.53
821.158
493.285
164.526
4479.42
4234.92
3972.1
3693.8
3402.79
3101.52
2792.04
2476
2154.76
1829.38
1500.78
1169.69
836.755
502.55
167.599
4617.21
4363.07
4088.51
3797.62
3494.06
3180.81
2860.16
2533.83
2203.13
1869.05
1532.38
1193.74
853.658
512.581
170.924
4779.39
4511.81
4221.41
3914.26
3595.18
3267.64
2934.07
2596.13
2254.97
1911.4
1566.02
1219.3
871.589
523.213
174.447
4970.83
4683.54
4371.25
4043.01
3704.89
3360.63
3012.47
2661.76
2309.31
1955.63
1601.08
1245.88
890.225
534.256
178.105
5198.68
4880.46
4537.2
4181.81
3820.9
3457.66
3093.56
2729.24
2364.97
2000.83
1636.84
1272.98
909.209
545.502
181.83
5473.11
5102.6
4715.48
4326.29
3939.4
3555.7
3175
2796.79
2420.6
2045.97
1672.56
1300.04
928.168
556.734
185.551
5804.29
5341.57
4896.02
4468.64
4054.87
3650.9
3254.06
2862.45
2474.76
2090
1707.44
1326.5
946.729
567.738
189.197
176.219
508.727
841.455
1174.58
1508.31
1842.94
2178.89
2516.73
2857.33
3202.03
3552.98
3913.86
4291.62
4701.6
5186.74
179.037
517.208
855.681
1194.69
1534.5
1875.49
2218.13
2563.09
2911.35
3264.38
3624.52
3995.65
4384.58
4803.71
5274.54
181.789
525.486
869.547
1214.25
1559.9
1906.91
2255.78
2607.19
2962.08
3321.82
3688.45
4065.11
4456.62
4869.95
5312.36
184.46
533.515
882.981
1233.16
1584.38
1937.06
2291.69
2648.89
3009.47
3374.51
3745.46
4124.29
4513.54
4916.03
5332.98
187.041
541.266
895.931
1251.35
1607.87
1965.88
2325.83
2688.26
3053.79
3423.13
3797.04
4176.26
4561.31
4952.09
5347.4
189.522
548.717
908.368
1268.79
1630.33
1993.36
2358.28
2725.52
3095.51
3468.6
3844.96
4224.22
4605.13
4985.05
5360.57
191.902
555.859
920.277
1285.48
1651.79
2019.56
2389.15
2760.9
3135.09
3511.85
3890.89
4271.09
4649.68
5021.11
5377.05
194.177
562.686
931.656
1301.4
1672.25
2044.52
2418.54
2794.61
3172.93
3553.55
3936.05
4319.11
4699.23
5067.96
5406.15
196.349
569.198
942.506
1316.58
1691.74
2068.29
2446.54
2826.78
3209.22
3593.97
3980.87
4369.2
4756.75
5136.07
5475.96
198.416
575.4
952.835
1331.03
1710.28
2090.9
2473.19
2857.45
3243.95
3632.95
4024.75
4419.89
4820.02
5231.6
5684.61
200.382
581.294
962.651
1344.75
1727.89
2112.38
2498.51
2886.6
3276.97
3670.02
4066.34
4467.16
4875.39
5298.42
5754.01
202.248
586.888
971.964
1357.77
1744.59
2132.74
2522.51
2914.2
3308.18
3704.85
4104.87
4509.35
4920.52
5342.69
5782.34
204.015
592.186
980.785
1370.1
1760.41
2152.01
2545.19
2940.26
3337.55
3737.42
4140.34
4546.93
4958.09
5374.88
5797.89
205.686
597.197
989.124
1381.75
1775.35
2170.2
2566.6
2964.83
3365.17
3767.92
4173.3
4581.41
4991.8
5402.8
5810.69
207.264
601.926
996.995
1392.74
1789.44
2187.36
2586.78
2987.96
3391.18
3796.63
4204.44
4614.36
5025.14
5432.96
5828.02
208.75
606.382
1004.41
1403.1
1802.71
2203.51
2605.77
3009.74
3415.67
3823.77
4234.18
4646.76
5060.61
5472.06
5865.05
210.148
610.572
1011.38
1412.83
1815.18
2218.69
2623.61
3030.19
3438.7
3849.37
4262.47
4678.35
5097.83
5524.03
5971.78
211.46
614.504
1017.92
1421.96
1826.88
2232.92
2640.33
3049.37
3460.28
3873.34
4288.89
4707.5
5130.45
5561.13
6008.09
212.689
618.187
1024.05
1430.52
1837.83
2246.24
2655.97
3067.29
3480.42
3895.64
4313.26
4733.71
5157.78
5587.02
6023.89
213.837
621.628
1029.77
1438.5
1848.05
2258.67
2670.57
3084
3499.18
3916.35
4335.73
4757.48
5181.62
5607.68
6034.12
214.907
624.835
1035.1
1445.94
1857.58
2270.24
2684.15
3099.54
3516.62
3935.59
4356.62
4779.67
5204.2
5628.16
6045.76
215.902
627.815
1040.06
1452.86
1866.43
2280.99
2696.76
3113.97
3532.81
3953.49
4376.18
4800.91
5227.27
5653.17
6068.8
216.823
630.577
1044.65
1459.26
1874.62
2290.94
2708.43
3127.31
3547.78
3970.06
4394.4
4821.1
5250.77
5685.39
6133.89
217.675
633.128
1048.89
1465.17
1882.18
2300.12
2719.2
3139.61
3561.57
3985.29
4411.06
4839.31
5270.93
5708.09
6155.98
218.458
635.474
1052.79
1470.61
1889.14
2308.56
2729.09
3150.9
3574.2
3999.18
4426.09
4855.28
5287.35
5723.44
6165.32
219.175
637.624
1056.37
1475.6
1895.51
2316.29
2738.14
3161.22
3585.73
4011.81
4439.64
4869.34
5301.07
5734.89
6170.69
219.829
639.583
1059.62
1480.13
1901.31
2323.33
2746.38
3170.63
3596.24
4023.32
4451.96
4882.11
5313.44
5745.09
6175.37
220.422
641.358
1062.57
1484.25
1906.57
2329.72
2753.86
3179.17
3605.79
4033.83
4463.34
4894.15
5325.71
5756.35
6182
220.954
642.953
1065.22
1487.94
1911.3
2335.46
2760.6
3186.88
3614.44
4043.42
4473.89
4905.79
5338.74
5771.18
6196.57
221.429
644.374
1067.59
1491.24
1915.51
2340.58
2766.6
3193.76
3622.2
4052.08
4483.56
4916.82
5352.23
5791.05
6239.15
221.846
645.625
1069.67
1494.14
1919.22
2345.08
2771.9
3199.82
3629.04
4059.72
4492.09
4926.47
5363.49
5804.61
6253.24
222.208
646.71
1071.47
1496.65
1922.44
2348.99
2776.48
3205.08
3634.95
4066.29
4499.33
4934.4
5372.02
5813.09
6258.79
222.516
647.632
1073
1498.79
1925.17
2352.31
2780.37
3209.52
3639.93
4071.78
4505.28
4940.67
5378.3
5818.51
6261.45
222.771
648.395
1074.27
1500.56
1927.43
2355.05
2783.58
3213.18
3644.01
4076.23
4510.02
4945.53
5382.91
5822.18
6263.03
222.973
649
1075.27
1501.96
1929.22
2357.22
2786.11
3216.06
3647.21
4079.7
4513.68
4949.22
5386.35
5824.89
6264.26
223.123
649.451
1076.02
1503
1930.55
2358.83
2788
3218.2
3649.58
4082.26
4516.36
4951.93
5388.95
5827.19
6265.84
223.223
649.749
1076.52
1503.69
1931.43
2359.89
2789.24
3219.61
3651.14
4083.96
4518.15
4953.78
5390.86
5829.35
6269.46
223.272
649.895
1076.76
1504.03
1931.86
2360.42
2789.85
3220.31
3651.92
4084.81
4519.07
4954.77
5391.93
5830.54
6270.63
223.271
649.892
1076.75
1504.02
1931.85
2360.4
2789.84
3220.3
3651.92
4084.83
4519.13
4954.89
5392.15
5830.87
6270.93
223.22
649.739
1076.5
1503.66
1931.39
2359.85
2789.19
3219.57
3651.13
4084
4518.31
4954.12
5391.51
5830.45
6270.8
223.119
649.437
1076
1502.96
1930.49
2358.75
2787.91
3218.13
3649.54
4082.31
4516.57
4952.41
5389.95
5829.23
6270.25
222.969
648.986
1075.24
1501.91
1929.14
2357.11
2785.99
3215.94
3647.13
4079.72
4513.86
4949.69
5387.34
5826.97
6268.98
222.769
648.386
1074.24
1500.51
1927.34
2354.92
2783.42
3213.01
3643.87
4076.18
4510.13
4945.87
5383.52
5823.25
6265.9
222.52
647.639
1073
1498.76
1925.09
2352.17
2780.17
3209.29
3639.71
4071.65
4505.31
4940.87
5378.42
5817.7
6257.21
222.222
646.745
1071.5
1496.66
1922.39
2348.85
2776.25
3204.77
3634.63
4066.05
4499.31
4934.66
5372.31
5812.18
6253.4
221.877
645.708
1069.77
1494.22
1919.23
2344.97
2771.64
3199.43
3628.57
4059.33
4492.01
4927.02
5364.83
5805.92
6250.38
221.485
644.53
1067.8
1491.45
1915.63
2340.54
2766.35
3193.27
3621.52
4051.4
4483.26
4917.61
5355.26
5797.53
6246.19
221.049
643.218
1065.6
1488.34
1911.61
2335.56
2760.38
3186.28
3613.48
4042.25
4472.94
4906.08
5342.67
5784.92
6237.94
220.571
641.779
1063.19
1484.94
1907.17
2330.06
2753.77
3178.51
3604.47
4031.9
4461.08
4892.34
5326.34
5765.03
6217.19
220.054
640.223
1060.57
1481.24
1902.35
2324.07
2746.56
3170
3594.58
4020.49
4447.92
4876.88
5306.95
5736
6154.54
219.503
638.561
1057.78
1477.28
1897.19
2317.64
2738.79
3160.81
3583.89
4008.19
4433.87
4860.84
5288.45
5714.49
6133.17
218.921
636.808
1054.83
1473.1
1891.72
2310.81
2730.52
3151.02
3572.47
3995.1
4419.08
4844.54
5271.26
5698.29
6123.49
218.315
634.98
1051.76
1468.73
1885.99
2303.64
2721.82
3140.67
3560.39
3981.21
4403.45
4827.54
5254.04
5683.6
6116.59
217.691
633.098
1048.59
1464.22
1880.06
2296.2
2712.76
3129.85
3547.67
3966.48
4386.71
4809.06
5234.91
5666.74
6108.28
217.056
631.182
1045.35
1459.61
1873.99
2288.57
2703.42
3118.65
3534.41
3950.94
4368.66
4788.36
5211.83
5643.37
6092.97
216.418
629.257
1042.1
1454.97
1867.87
2280.85
2693.94
3107.21
3520.76
3934.74
4349.41
4765.23
5183.36
5607.67
6054.99
215.787
627.35
1038.88
1450.36
1861.78
2273.14
2684.44
3095.7
3506.95
3918.23
4329.53
4740.69
5150.81
5556.22
5940.02
215.171
625.489
1035.73
1445.85
1855.81
2265.56
2675.08
3084.32
3493.27
3901.86
4309.95
4717.06
5121.75
5520.01
5901.83
214.581
623.703
1032.71
1441.52
1850.06
2258.25
2666.02
3073.29
3479.98
3886
4291.23
4695.31
5097.39
5495.46
5885.99
214.025
622.023
1029.86
1437.43
1844.63
2251.33
2657.42
3062.79
3467.3
3870.88
4273.49
4675.16
5076.03
5476.38
5876.58
213.515
620.478
1027.24
1433.67
1839.62
2244.94
2649.45
3053
3455.42
3856.6
4256.59
4655.77
5055.26
5457.63
5867.25
213.057
619.095
1024.9
1430.3
1835.13
2239.2
2642.28
3044.14
3444.55
3843.33
4240.45
4636.37
5032.73
5434.1
5851.58
212.662
617.898
1022.87
1427.39
1831.26
2234.24
2636.06
3036.43
3434.98
3831.37
4225.35
4616.89
5006.93
5399.64
5813.26
212.334
616.91
1021.2
1425
1828.09
2230.19
2630.99
3030.1
3427.06
3821.29
4212.12
4598.67
4979.54
5350.92
5696.39
212.08
616.143
1019.91
1423.17
1825.68
2227.14
2627.21
3025.41
3421.18
3813.74
4202.07
4584.63
4958.97
5320.46
5659.63
211.9
615.605
1019.02
1421.93
1824.08
2225.17
2624.83
3022.56
3417.69
3809.33
4196.21
4576.51
4947.58
5305.8
5647.58
211.795
615.294
1018.52
1421.26
1823.29
2224.3
2623.92
3021.65
3416.79
3808.4
4195.14
4575.04
4945.38
5302.82
5645.29
211.759
615.198
1018.39
1421.16
1823.29
2224.51
2624.45
3022.66
3418.49
3811.03
4199
4580.45
4952.4
5310.53
5650.06
211.786
615.295
1018.61
1421.57
1824.01
2225.69
2626.31
3025.47
3422.62
3817.02
4207.6
4592.67
4969.27
5331.44
5666.5
211.865
615.552
1019.1
1422.41
1825.33
2227.71
2629.3
3029.81
3428.83
3825.85
4220.23
4610.99
4996.41
5371.44
5714.33
211.983
615.928
1019.81
1423.56
1827.12
2230.36
2633.16
3035.3
3436.56
3836.7
4235.55
4633.24
5031
5434.02
5865.39
212.122
616.373
1020.64
1424.92
1829.19
2233.43
2637.58
3041.54
3445.23
3848.61
4251.85
4655.65
5062.17
5477.17
5914.46
212.265
616.83
1021.5
1426.33
1831.37
2236.67
2642.24
3048.09
3454.25
3860.78
4267.94
4676.38
5087.66
5505.05
5933.78
212.391
617.239
1022.28
1427.64
1833.44
2239.8
2646.81
3054.56
3463.14
3872.66
4283.31
4695.32
5109.13
5525.29
5944.23
212.479
617.534
1022.88
1428.71
1835.21
2242.57
2650.96
3060.56
3471.51
3883.93
4297.88
4713.19
5129.14
5543.82
5953.52
212.506
617.647
1023.18
1429.35
1836.44
2244.7
2654.38
3065.73
3478.98
3894.28
4311.67
4730.78
5150.23
5566
5968.15
212.45
617.511
1023.06
1429.42
1836.93
2245.92
2656.73
3069.7
3485.13
3903.31
4324.4
4748.29
5174.05
5597.83
6003.15
212.288
617.056
1022.41
1428.74
1836.45
2245.95
2657.68
3072.05
3489.49
3910.43
4335.32
4764.66
5199.38
5642.65
6109.32
211.997
616.215
1021.11
1427.14
1834.78
2244.52
2656.87
3072.36
3491.52
3914.94
4343.28
4777.4
5218.91
5671.36
6143.14
211.556
614.922
1019.05
1424.47
1831.71
2241.34
2653.97
3070.21
3490.7
3916.15
4347.32
4785.15
5230.95
5686.76
6155.1
210.946
613.116
1016.13
1420.56
1827.03
2236.16
2648.64
3065.18
3486.53
3913.48
4346.85
4787.46
5236.14
5693.56
6159.43
210.147
610.742
1012.25
1415.3
1820.55
2228.72
2640.56
3056.89
3478.56
3906.45
4341.44
4784.26
5235.36
5694.57
6160.41
209.144
607.75
1007.32
1408.53
1812.1
2218.78
2629.44
3044.96
3466.34
3894.59
4330.68
4775.4
5229.05
5691.05
6159.39
207.924
604.103
1001.29
1400.17
1801.52
2206.16
2614.99
3029.05
3449.44
3877.36
4314.02
4760.41
5217.01
5683.21
6156.67
206.48
599.775
994.09
1390.14
1788.71
2190.67
2596.99
3008.8
3427.38
3854.16
4290.68
4738.42
5198.39
5670.41
6152.03
204.807
594.754
985.712
1378.4
1773.6
2172.2
2575.24
2983.93
3399.69
3824.26
4259.64
4708.02
5171.48
5651.02
6144.69
202.909
589.046
976.158
1364.94
1756.16
2150.71
2549.63
2954.2
3365.97
3786.94
4219.64
4667.23
5133.48
5621.88
6132.84
200.793
582.677
965.468
1349.82
1736.46
2126.24
2520.17
2919.53
3325.93
3741.55
4169.36
4613.57
5080.17
5577.16
6112.04
198.475
575.691
953.718
1333.14
1714.62
2098.93
2487
2880.02
3279.56
3687.77
4107.78
4544.44
5005.83
5506.19
6069.97
195.977
568.156
941.023
1315.07
1690.86
2069.06
2450.45
2836.06
3227.24
3625.86
4034.7
4458.22
4904.5
5391.25
5968.32
6138.76
5545.09
5045.05
4586.81
4151.89
3731.79
3321.85
2919.16
2521.81
2128.42
1737.99
1349.74
963.062
577.434
192.412
6244.43
5665.23
5151.65
4678.18
4229.9
3798.37
3378.52
2967.1
2561.9
2161.36
1764.3
1369.82
977.207
585.844
195.203
6288.42
5739.97
5230.55
4752.18
4296.41
3856.96
3429.45
3010.8
2598.84
2191.94
1788.86
1388.65
990.51
593.767
197.834
6310.48
5787.76
5288.03
4810.61
4351.71
3907.36
3474.3
3049.95
2632.34
2219.92
1811.5
1406.09
1002.87
601.144
200.287
6323.38
5819.75
5330.16
4856.32
4397.01
3950.05
3513.21
3084.52
2662.3
2245.2
1832.09
1422.03
1014.22
607.935
202.547
6331.79
5842.13
5361.51
4892.08
4433.86
3985.82
3546.57
3114.66
2688.78
2267.77
1850.62
1436.47
1024.53
614.121
204.609
6337.67
5858.4
5385.25
4920.19
4463.76
4015.61
3574.93
3140.71
2711.96
2287.73
1867.13
1449.4
1033.81
619.701
206.471
6341.98
5870.58
5403.52
4942.43
4488.03
4040.33
3598.89
3163.06
2732.09
2305.22
1881.72
1460.88
1042.08
624.691
208.138
6345.24
5879.92
5417.79
4960.17
4507.78
4060.81
3619.06
3182.12
2749.45
2320.44
1894.49
1471.01
1049.4
629.116
209.619
6347.77
5887.21
5429.07
4974.42
4523.9
4077.77
3636
3198.32
2764.34
2333.61
1905.62
1479.86
1055.83
633.012
210.924
6349.75
5892.97
5438.08
4985.94
4537.09
4091.83
3650.19
3212.03
2777.06
2344.94
1915.25
1487.57
1061.44
636.42
212.066
6351.33
5897.58
5445.34
4995.3
4547.93
4103.49
3662.08
3223.61
2787.89
2354.64
1923.55
1494.23
1066.31
639.384
213.061
6352.61
5901.3
5451.23
5002.95
4556.84
4113.17
3672.03
3233.37
2797.08
2362.93
1930.66
1499.97
1070.51
641.948
213.923
6353.64
5904.32
5456.03
5009.22
4564.21
4121.21
3680.35
3241.59
2804.86
2369.98
1936.74
1504.89
1074.12
644.156
214.665
6354.48
5906.78
5459.97
5014.38
4570.29
4127.9
3687.3
3248.5
2811.43
2375.96
1941.92
1509.09
1077.22
646.049
215.302
6355.16
5908.8
5463.2
5018.63
4575.33
4133.46
3693.11
3254.3
2816.96
2381.02
1946.31
1512.66
1079.86
647.665
215.847
6355.73
5910.46
5465.86
5022.14
4579.5
4138.08
3697.96
3259.15
2821.62
2385.29
1950.03
1515.69
1082.1
649.039
216.31
6356.19
5911.83
5468.05
5025.04
4582.96
4141.93
3702.01
3263.22
2825.53
2388.88
1953.16
1518.25
1083.99
650.204
216.703
6356.57
5912.95
5469.85
5027.44
4585.82
4145.12
3705.37
3266.6
2828.79
2391.89
1955.8
1520.41
1085.59
651.186
217.034
6356.89
5913.88
5471.34
5029.41
4588.19
4147.75
3708.16
3269.42
2831.51
2394.4
1958
1522.21
1086.93
652.009
217.312
6357.14
5914.63
5472.56
5031.03
4590.13
4149.93
3710.46
3271.75
2833.77
2396.48
1959.83
1523.72
1088.05
652.696
217.543
6357.35
5915.25
5473.56
5032.35
4591.72
4151.71
3712.35
3273.66
2835.62
2398.2
1961.34
1524.96
1088.97
653.264
217.735
6357.52
5915.75
5474.36
5033.42
4593.01
4153.15
3713.89
3275.22
2837.13
2399.6
1962.57
1525.97
1089.72
653.728
217.892
6357.66
5916.15
5475
5034.27
4594.03
4154.3
3715.11
3276.46
2838.34
2400.72
1963.55
1526.78
1090.33
654.101
218.018
6357.76
5916.45
5475.49
5034.94
4594.82
4155.19
3716.06
3277.43
2839.28
2401.6
1964.33
1527.42
1090.8
654.393
218.117
6357.84
5916.68
5475.86
5035.43
4595.42
4155.86
3716.77
3278.15
2839.99
2402.25
1964.91
1527.9
1091.16
654.613
218.191
6357.89
5916.84
5476.11
5035.76
4595.82
4156.32
3717.26
3278.66
2840.48
2402.71
1965.31
1528.23
1091.41
654.767
218.243
6357.92
5916.92
5476.26
5035.96
4596.06
4156.58
3717.55
3278.95
2840.77
2402.98
1965.55
1528.43
1091.56
654.86
218.275
6357.93
5916.95
5476.3
5036.01
4596.13
4156.67
3717.64
3279.05
2840.87
2403.08
1965.64
1528.5
1091.61
654.895
218.286
6357.91
5916.91
5476.23
5035.93
4596.03
4156.56
3717.54
3278.95
2840.77
2403
1965.57
1528.45
1091.57
654.872
218.279
6357.88
5916.8
5476.06
5035.71
4595.77
4156.28
3717.24
3278.65
2840.49
2402.74
1965.35
1528.27
1091.44
654.793
218.252
6357.82
5916.63
5475.78
5035.34
4595.33
4155.79
3716.73
3278.15
2840.02
2402.31
1964.97
1527.97
1091.22
654.655
218.206
6357.73
5916.37
5475.37
5034.8
4594.7
4155.09
3716.01
3277.42
2839.33
2401.68
1964.43
1527.53
1090.89
654.457
218.139
6357.61
5916.02
5474.82
5034.08
4593.85
4154.16
3715.03
3276.46
2838.41
2400.84
1963.71
1526.94
1090.46
654.193
218.05
6357.46
5915.58
5474.11
5033.14
4592.74
4152.95
3713.78
3275.22
2837.24
2399.78
1962.79
1526.2
1089.92
653.86
217.938
6357.26
5915
5473.2
5031.95
4591.35
4151.44
3712.22
3273.68
2835.78
2398.47
1961.66
1525.29
1089.25
653.451
217.801
6357.01
5914.27
5472.04
5030.46
4589.62
4149.56
3710.29
3271.79
2834.01
2396.87
1960.29