/*--------------------------------*- C++ -*----------------------------------*\
| =========                 |                                                 |
| \\      /  F ield         | OpenFOAM: The Open Source CFD Toolbox           |
|  \\    /   O peration     | Version:  5.x                                   |
|   \\  /    A nd           | Web:      www.OpenFOAM.org                      |
|    \\/     M anipulation  |                                                 |
\*---------------------------------------------------------------------------*/
FoamFile
{
    version     2.0;
    format      ascii;
    class       volScalarField;
    location    "10.8";
    object      T;
}
// * * * * * * * * * * * * * * * * * * * * * * * * * * * * * * * * * * * * * //

dimensions      [0 0 0 1 0 0 0];

internalField   nonuniform List<scalar> 
6300
(
10.6059
11.8159
13.0205
14.2161
15.3992
16.5661
17.7132
18.8371
19.9342
21.001
22.0345
23.0315
23.9894
24.9058
25.779
10.6077
11.8212
13.0293
14.2285
15.4151
16.5855
17.7362
18.8635
19.9639
21.0339
22.0703
23.07
24.0301
24.9483
25.8227
10.6112
11.8317
13.0469
14.2532
15.4469
16.6244
17.7821
18.9163
20.0234
21.0999
22.1423
23.1474
24.1121
25.0339
25.9107
10.6165
11.8476
13.0734
14.2903
15.4946
16.6827
17.851
18.9957
20.1131
21.1995
22.2511
23.2645
24.2363
25.1638
26.0444
10.6235
11.8687
13.1086
14.3396
15.5582
16.7606
17.9432
19.1021
20.2334
21.3332
22.3975
23.4225
24.4043
25.3396
26.2257
10.6323
11.895
13.1525
14.4013
15.6377
16.8581
18.0587
19.2356
20.3847
21.5019
22.5828
23.6229
24.618
25.564
26.4574
10.6427
11.9265
13.2051
14.4751
15.7329
16.975
18.1974
19.3963
20.5674
21.7063
22.8081
23.8678
24.8802
25.8402
26.7435
10.6549
11.963
13.2661
14.5608
15.8437
17.1111
18.3594
19.5844
20.7819
21.9472
23.0749
24.1592
25.1939
26.1725
27.0889
10.6687
12.0044
13.3354
14.6582
15.9696
17.2661
18.5441
19.7995
21.0281
22.225
23.3844
24.4996
25.563
26.5662
27.5004
10.684
12.0506
13.4125
14.7668
16.1101
17.4393
18.7509
20.041
21.3056
22.5397
23.7373
24.8911
25.9917
27.0278
27.987
10.7009
12.1013
13.4973
14.886
16.2645
17.6298
18.9786
20.3076
21.613
22.8902
24.1335
25.3351
26.484
27.5655
28.5609
10.7192
12.1562
13.5891
15.0152
16.4319
17.8363
19.2258
20.5974
21.948
23.2741
24.5707
25.8308
27.0429
28.1885
29.2394
10.7388
12.2151
13.6875
15.1537
16.6112
18.0574
19.4903
20.9075
22.307
23.6867
25.0438
26.3738
27.6676
28.9054
30.0471
10.7596
12.2776
13.7921
15.3007
16.8012
18.2916
19.7699
21.2348
22.6853
24.1212
25.5433
26.9523
28.3473
29.7174
31.0188
10.7816
12.3436
13.9024
15.4556
17.0012
18.5374
20.0626
21.576
23.0775
24.569
26.0549
27.5439
29.0511
30.597
32.1877
26.5387
27.198
27.8261
28.4232
28.9899
29.5271
30.0361
30.5181
30.9747
31.4078
31.8191
32.2105
32.5841
32.9418
33.2857
33.6178
33.9399
34.2541
34.5622
34.866
35.1671
35.4673
35.768
36.0705
36.3762
36.6861
37.0011
37.3219
37.6491
37.9829
38.3236
38.671
39.025
39.3852
39.7511
40.1223
40.4979
40.8772
41.2593
41.6434
42.0283
42.4129
42.796
43.1765
43.553
43.9243
44.2893
44.6468
44.9958
45.3353
45.6644
45.9822
46.2877
46.5801
46.8585
47.1217
47.3688
47.5985
47.8099
48.0018
48.1729
48.322
48.4479
48.5492
48.6247
48.6727
48.6916
48.6797
48.6349
48.5552
48.4382
48.2814
48.0822
47.8378
47.5453
47.2016
46.8037
46.3484
45.8326
45.253
44.6066
43.8902
43.1009
42.2362
41.2937
40.2716
39.1684
37.9835
36.7168
35.3688
26.5829
27.2423
27.8699
28.466
29.0314
29.567
30.0739
30.5536
31.0077
31.4381
31.8466
32.2352
32.6058
32.9607
33.3017
33.6309
33.9503
34.2618
34.5672
34.8685
35.1674
35.4653
35.764
36.0648
36.3689
36.6775
36.9914
37.3115
37.6381
37.9718
38.3125
38.6602
39.0146
39.3755
39.7423
40.1144
40.4911
40.8716
41.2551
41.6407
42.0272
42.4135
42.7984
43.1806
43.5588
43.9318
44.2984
44.6574
45.0078
45.3486
45.679
45.9981
46.3049
46.5987
46.8785
47.1432
47.3919
47.6233
47.8363
48.0299
48.2027
48.3536
48.4814
48.5848
48.6624
48.7127
48.7342
48.7251
48.6835
48.6071
48.4937
48.3407
48.1455
47.9053
47.6171
47.2779
46.8846
46.4339
45.9227
45.3477
44.7056
43.9934
43.208
42.3466
41.4069
40.3867
39.2847
38.1
36.8324
35.4825
26.672
27.3313
27.958
28.5523
29.115
29.6471
30.1498
30.6249
31.0739
31.4988
31.9017
32.2845
32.6493
32.9983
33.3335
33.657
33.9708
34.2768
34.5771
34.8734
35.1675
35.4611
35.7558
36.0529
36.3539
36.6598
36.9716
37.2901
37.6158
37.9491
38.2899
38.6382
38.9937
39.3559
39.7243
40.0983
40.4772
40.8602
41.2465
41.635
42.0248
42.4145
42.803
43.1888
43.5706
43.947
44.3168
44.6787
45.0319
45.3753
45.7082
46.0298
46.3392
46.6358
46.9184
47.1862
47.438
47.6727
47.8891
48.086
48.2623
48.4167
48.5482
48.6556
48.7374
48.7925
48.8191
48.8156
48.7802
48.7105
48.6043
48.459
48.2718
48.04
47.7606
47.4304
47.0462
46.6048
46.1029
45.5371
44.9041
44.2003
43.4228
42.5683
41.6342
40.6182
39.5186
38.3343
37.065
35.7113
26.8073
27.4666
28.0919
28.6833
29.2417
29.7684
30.2648
30.7326
31.1738
31.5904
31.9846
32.3586
32.7145
33.0546
33.381
33.6958
34.0012
34.2991
34.5915
34.8803
35.1672
35.4542
35.7427
36.0343
36.3305
36.6323
36.9409
37.2571
37.5814
37.9141
38.2551
38.6045
38.9616
39.3259
39.6969
40.0739
40.456
40.8427
41.233
41.6261
42.0208
42.4159
42.8099
43.2013
43.5886
43.9702
44.3448
44.7111
45.0683
45.4155
45.752
46.0772
46.3905
46.691
46.978
47.2503
47.5069
47.7466
47.968
48.17
48.3515
48.5112
48.6481
48.7612
48.8493
48.9112
48.9455
48.9505
48.9242
48.8647
48.7693
48.6356
48.4607
48.2416
47.9754
47.6587
47.2884
46.8612
46.3735
45.8218
45.2025
44.512
43.7466
42.903
41.9779
40.9687
39.873
38.6896
37.4179
36.0583
26.9909
27.6503
28.2735
28.8608
29.4133
29.9324
30.4199
30.8777
31.308
31.7132
32.0956
32.4575
32.8014
33.1295
33.444
33.7472
34.0412
34.3281
34.6099
34.8885
35.1658
35.4437
35.7239
36.008
36.2975
36.5938
36.898
37.2111
37.5335
37.8656
38.2072
38.5581
38.9176
39.285
39.6595
40.0404
40.4269
40.8184
41.2142
41.6133
42.0148
42.4172
42.8189
43.2182
43.6131
44.0018
44.3829
44.7551
45.1174
45.4694
45.8104
46.1402
46.4583
46.7641
47.0569
47.3354
47.5986
47.845
48.0732
48.2819
48.4701
48.6366
48.7805
48.901
48.9971
49.068
49.1122
49.1283
49.1145
49.0685
48.9878
48.8698
48.7113
48.5094
48.2609
47.9625
47.6109
47.2028
46.7344
46.202
45.6018
44.9297
44.1816
43.3534
42.4413
41.4419
40.3523
39.1705
37.8958
36.5283
27.2259
27.8854
28.5057
29.0875
29.632
30.141
30.6166
31.0612
31.4774
31.8677
32.2349
32.5814
32.9099
33.2227
33.5222
33.8107
34.0903
34.3633
34.6316
34.8973
35.1623
35.4286
35.6981
35.9725
36.2535
36.5426
36.8412
37.1502
37.4704
37.8019
38.1447
38.498
38.8609
39.2324
39.6115
39.9973
40.3891
40.7865
41.1889
41.5957
42.0059
42.4179
42.83
43.2397
43.6448
44.0429
44.4322
44.8115
45.1799
45.5372
45.8833
46.2183
46.5421
46.8543
47.1543
47.4409
47.7126
47.9677
48.2045
48.4217
48.618
48.7926
48.9447
49.0739
49.1796
49.2611
49.3175
49.3475
49.3492
49.3204
49.2584
49.1602
49.0226
48.8424
48.6163
48.3411
48.0132
47.6293
47.1856
46.6782
46.1029
45.4552
44.7301
43.923
43.0289
42.0434
40.9627
39.784
38.5058
37.1281
27.5163
28.1759
28.7925
29.367
29.901
30.3967
30.857
31.2847
31.6829
32.0546
32.4028
32.7303
33.0398
33.334
33.6151
33.8857
34.1479
34.4039
34.6559
34.9058
35.1558
35.4078
35.664
35.9262
36.1965
36.4765
36.7679
37.072
37.3895
37.7208
38.0655
38.4225
38.7904
39.1675
39.5524
39.9441
40.3419
40.7458
41.1558
41.5717
41.9926
42.4171
42.8427
43.2664
43.6849
44.095
44.4944
44.8818
45.2568
45.6194
45.9705
46.3107
46.6407
46.9605
47.2694
47.5661
47.8486
48.1148
48.3624
48.5897
48.7955
48.979
49.1401
49.2788
49.395
49.4886
49.5591
49.6055
49.6259
49.6182
49.5791
49.5054
49.3934
49.2397
49.0408
48.7934
48.4943
48.14
47.7267
47.2505
46.7067
46.0901
45.3953
44.6161
43.7464
42.7804
41.7127
40.5392
39.2575
37.8671
27.8676
28.5275
29.1391
29.7039
30.224
30.7026
31.1432
31.5496
31.9254
32.2742
32.5993
32.9039
33.1908
33.4627
33.7222
33.9716
34.2132
34.4493
34.6818
34.913
35.145
35.3799
35.6199
35.8672
36.1241
36.3927
36.6751
36.973
37.2875
37.6191
37.9671
38.33
38.7052
39.0901
39.4822
39.8804
40.2845
40.6949
41.1128
41.5388
41.9727
42.4131
42.8567
43.2991
43.7353
44.1607
44.5723
44.9685
45.3496
45.7166
46.0715
46.4162
46.7523
47.0804
47.4002
47.7098
48.0064
48.2868
48.5477
48.7869
49.0031
49.196
49.3661
49.5141
49.641
49.7474
49.8336
49.8988
49.9415
49.9591
49.9479
49.9038
49.8225
49.7001
49.5332
49.3185
49.0531
48.7337
48.3568
47.9183
47.4133
46.8361
46.1801
45.4377
44.6011
43.6621
42.6134
41.4488
40.1642
38.7584
28.2873
28.9475
29.5524
30.104
30.6058
31.0621
31.4778
31.8575
32.2058
32.5268
32.8244
33.1018
33.3621
33.6082
33.8426
34.0676
34.2854
34.4984
34.7085
34.9179
35.1287
35.3433
35.5639
35.7931
36.0335
36.2878
36.5587
36.8487
37.1596
37.4923
37.8461
38.2184
38.6048
39.0006
39.4019
39.807
40.2163
40.6319
41.0566
41.4929
41.9421
42.4028
42.8709
43.3392
43.7996
44.2448
44.6705
45.0754
45.4608
45.8296
46.1856
46.5325
46.8736
47.2107
47.5438
47.8704
48.186
48.485
48.7625
49.0154
49.2424
49.444
49.6218
49.778
49.9146
50.0336
50.1363
50.2227
50.2915
50.3396
50.3622
50.3538
50.3088
50.2229
50.0925
49.9149
49.6877
49.4083
49.0737
48.68
48.2222
47.6939
47.0874
46.3934
45.6013
44.7003
43.6795
42.5296
41.2438
39.8194
28.7855
29.4461
30.0414
30.5749
31.052
31.4792
31.863
32.2096
32.5244
32.8122
33.0773
33.3231
33.5529
33.7694
33.9752
34.1726
34.3636
34.5504
34.735
34.9195
35.106
35.2968
35.4944
35.7017
35.9216
36.1577
36.4136
36.6929
36.999
37.3339
37.6971
38.0849
38.4895
38.9018
39.3147
39.726
40.1376
40.5543
40.9821
41.4271
41.8932
42.3804
42.883
43.3893
43.884
44.3553
44.797
45.2088
45.5943
45.9594
46.3109
46.6554
46.9988
47.345
47.6949
48.045
48.3876
48.7124
49.011
49.2792
49.5164
49.7245
49.907
50.0681
50.2117
50.3415
50.4605
50.57
50.6694
50.7548
50.8194
50.8544
50.8523
50.8078
50.7178
50.5808
50.3955
50.1606
49.8739
49.5321
49.1306
48.6626
48.1191
47.4884
46.7568
45.9091
44.9299
43.8046
42.5216
41.0749
29.3768
30.0377
30.6186
31.126
31.569
31.9576
32.3008
32.6063
32.8807
33.1293
33.3567
33.5664
33.7616
33.945
34.1189
34.2855
34.4467
34.6044
34.7605
34.9169
35.0757
35.2391
35.4098
35.5907
35.7853
35.9979
36.2333
36.4973
36.7957
37.1332
37.5115
37.9257
38.362
38.8005
39.2284
39.6432
40.0502
40.459
40.8815
41.3293
41.8122
42.3341
42.8885
43.4542
44.0007
44.5067
44.9649
45.3783
45.7555
46.1072
46.4444
46.7782
47.1182
47.4723
47.8439
48.2288
48.613
48.9755
49.3015
49.5859
49.8302
50.0399
50.2213
50.3814
50.5266
50.6631
50.7963
50.93
51.0654
51.1981
51.3172
51.4067
51.4549
51.4561
51.409
51.3143
51.173
50.9856
50.7514
50.4685
50.1329
49.7381
49.2743
48.727
48.0777
47.3057
46.389
45.305
44.0332
42.5605
30.0833
30.7437
31.3008
31.7685
32.1634
32.5004
32.7917
33.0467
33.273
33.476
33.6603
33.8294
33.9862
34.133
34.272
34.4049
34.5335
34.6595
34.7843
34.9097
35.0375
35.1699
35.3093
35.4586
35.6218
35.8037
36.0108
36.2511
36.5346
36.8724
37.2727
37.7335
38.23
38.713
39.1595
39.5702
39.9586
40.3427
40.7428
41.1796
41.6737
42.2397
42.8758
43.5454
44.1742
44.7252
45.1955
45.5983
45.9518
46.2739
46.5814
46.8901
47.2157
47.5726
47.9717
48.4118
48.868
49.2893
49.6501
49.9483
50.1923
50.3939
50.5645
50.7142
50.8522
50.9877
51.1294
51.2859
51.4632
51.6592
51.8556
52.0166
52.1232
52.172
52.1668
52.1129
52.0149
51.8759
51.6973
51.4788
51.2185
50.9113
50.5479
50.1107
49.5734
48.9088
48.0871
47.0742
45.8325
44.3311
30.9425
31.5974
32.1105
32.5149
32.8401
33.1079
33.3336
33.5276
33.6975
33.8485
33.9847
34.109
34.2239
34.3311
34.4325
34.5294
34.6231
34.7149
34.806
34.8978
34.9916
35.0894
35.1931
35.3054
35.4301
35.5722
35.739
35.9411
36.1943
36.5203
36.9457
37.4884
38.1158
38.6769
39.1405
39.528
39.8715
40.2021
40.5496
40.9462
41.4298
42.0428
42.8135
43.6935
44.458
45.0584
45.5215
45.8877
46.1916
46.4599
46.7147
46.9761
47.2661
47.6106
48.0388
48.57
49.1712
49.6882
50.0872
50.3867
50.6135
50.7908
50.9358
51.0617
51.1798
51.3013
51.4393
51.61
51.8321
52.1176
52.4431
52.7028
52.8727
52.9637
52.9927
52.973
52.914
52.8213
52.6985
52.5475
52.3694
52.1637
51.9256
51.6366
51.2507
50.736
50.0589
49.171
48.0042
46.4806
32.03
32.6541
33.0756
33.3743
33.5984
33.7751
33.9198
34.0421
34.1479
34.2413
34.325
34.4011
34.4712
34.5366
34.5983
34.6573
34.7142
34.7701
34.8256
34.8816
34.939
34.999
35.0631
35.1332
35.2121
35.3038
35.415
35.5565
35.7477
36.0239
36.4483
37.1199
38.096
38.7798
39.2298
39.5477
39.8017
40.0357
40.2842
40.5858
40.998
41.6175
42.592
44.0063
44.9766
45.5875
45.9855
46.2652
46.4807
46.6639
46.8367
47.0192
47.2361
47.5263
47.9557
48.6255
49.594
50.2549
50.666
50.9276
51.1043
51.2324
51.3327
51.4186
51.5004
51.5891
51.7
51.8582
52.1078
52.5165
53.1233
53.5162
53.7337
53.8429
53.8865
53.8879
53.8595
53.8082
53.7383
53.6533
53.5581
53.4609
53.3744
53.3003
53.1113
52.7953
52.3325
51.6675
50.6878
49.1981
33.5414
34.0015
34.2162
34.3401
34.424
34.4869
34.5372
34.5791
34.6151
34.6467
34.675
34.7006
34.7242
34.7462
34.7669
34.7867
34.8058
34.8246
34.8432
34.862
34.8814
34.9016
34.9233
34.9472
34.9743
35.0063
35.046
35.099
35.1776
35.3126
35.5937
36.3116
38.4956
39.2178
39.508
39.6579
39.7593
39.8469
39.941
40.0647
40.2663
40.6796
41.7354
44.9568
46.0112
46.4215
46.6179
46.7335
46.8147
46.8809
46.9432
47.011
47.0989
47.2396
47.5245
48.2491
50.4579
51.1794
51.4581
51.589
51.6631
51.7119
51.7485
51.7794
51.8092
51.8432
51.8905
51.9729
52.1522
52.6283
54.1095
54.5803
54.7487
54.8145
54.8392
54.8435
54.8358
54.8198
54.7977
54.7719
54.7476
54.7406
54.8035
55.1275
55.1529
55.064
54.895
54.6153
54.104
52.976
33.7982
31.9731
30.0413
28.0088
25.8829
23.6714
21.3826
19.025
16.6072
14.1378
11.6252
9.07765
6.50312
3.90948
1.30442
33.9087
32.0786
30.1407
28.1012
25.9676
23.7478
21.4506
19.0844
16.6582
14.1805
11.6598
9.10427
6.52199
3.92074
1.30817
34.1309
32.2909
30.3406
28.2867
26.1373
23.9009
21.5866
19.2033
16.76
14.2656
11.7287
9.15731
6.55958
3.94316
1.31562
34.4678
32.6124
30.6428
28.5667
26.3931
24.1312
21.7907
19.3813
16.9123
14.3928
11.8315
9.23641
6.61559
3.97657
1.32672
34.9238
33.0467
31.0502
28.9433
26.736
24.439
22.0629
19.6182
17.1146
14.5614
11.9675
9.34095
6.68955
4.02065
1.34137
35.5051
33.5993
31.567
29.4191
27.1677
24.825
22.4031
19.9131
17.3657
14.7702
12.1357
9.47
6.78076
4.07498
1.35941
36.2204
34.277
32.1981
29.9974
27.6896
25.2894
22.8103
20.2649
17.664
15.0177
12.3345
9.62229
6.88825
4.13895
1.38064
37.0811
35.089
32.9498
30.6815
28.3029
25.8315
23.2831
20.6712
18.0073
15.3013
12.5618
9.79608
7.01074
4.21178
1.40481
38.1029
36.0469
33.8292
31.4748
29.0079
26.4498
23.8185
21.1286
18.3919
15.618
12.8149
9.98912
7.14659
4.29248
1.43157
39.3067
37.1651
34.8442
32.3795
29.8029
27.1403
24.4117
21.6321
18.8131
15.9634
13.09
10.1986
7.29376
4.37982
1.46053
40.7215
38.4613
36.0015
33.3948
30.6828
27.8958
25.0548
22.1742
19.2642
16.3319
13.3828
10.4209
7.44981
4.47235
1.49119
42.3888
39.9554
37.3045
34.5142
31.6367
28.7043
25.7365
22.7449
19.7368
16.7167
13.6877
10.6522
7.61194
4.56842
1.52301
44.3692
41.6656
38.7455
35.7193
32.6442
29.5472
26.441
23.3313
20.2206
17.1096
13.9987
10.8878
7.77703
4.66622
1.55541
46.7482
43.5909
40.2909
36.9723
33.6722
30.3981
27.148
23.918
20.7038
17.5018
14.309
11.123
7.94183
4.76387
1.58776
49.61
45.6572
41.8533
38.2052
34.673
31.2237
27.834
24.488
21.1741
17.8842
14.6121
11.353
8.10313
4.8595
1.61945
10.8027
12.4071
14.0083
15.6042
17.1928
18.7723
20.3413
21.899
23.4457
24.984
26.5203
28.0689
29.6597
31.3614
33.3627
10.8227
12.467
14.1082
15.7442
17.3731
18.9929
20.6022
22.1998
23.7858
25.362
26.9344
28.5162
30.1354
31.8476
33.7523
10.8433
12.5289
14.2115
15.8889
17.5593
19.2206
20.8709
22.5084
24.1322
25.7422
27.3413
28.9369
30.5459
32.1992
33.9377
10.8646
12.5929
14.3181
16.0385
17.7517
19.4556
21.1479
22.8261
24.4876
26.1296
27.7499
29.3476
30.9251
32.491
34.0605
10.8866
12.6588
14.4282
16.1927
17.9502
19.6984
21.4345
23.1551
24.856
26.5315
28.1737
29.7716
31.3115
32.7795
34.1741
10.9092
12.7266
14.5414
16.3515
18.155
19.9492
21.7313
23.4973
25.2416
26.956
28.6276
30.2354
31.747
33.1184
34.3148
10.9323
12.7962
14.6577
16.5149
18.3658
20.2082
22.039
23.854
25.6474
27.4097
29.1251
30.7653
32.2792
33.5779
34.5403
10.9561
12.8675
14.7767
16.6823
18.5824
20.4749
22.3571
24.2253
26.0742
27.8954
29.6741
31.3823
32.9601
34.2701
35.0014
10.9802
12.9401
14.8982
16.8533
18.804
20.7484
22.6846
24.6096
26.5199
28.4099
30.2714
32.089
33.8263
35.3633
36.1781
11.0048
13.0138
15.0216
17.0272
19.0295
21.0274
23.0193
25.0037
26.9789
28.9437
30.8985
32.8509
34.8307
36.9573
39.7626
11.0295
13.0884
15.1464
17.2032
19.2579
21.31
23.3588
25.4037
27.4447
29.4836
31.5267
33.5928
35.7325
38.079
40.9507
11.0545
13.1634
15.272
17.3802
19.4878
21.5946
23.7006
25.8059
27.9114
30.02
32.1383
34.2827
36.4898
38.835
41.4389
11.0794
13.2384
15.3977
17.5575
19.718
21.8795
24.0424
26.2073
28.3755
30.5489
32.7311
34.9283
37.1503
39.4104
41.7189
11.1043
13.3132
15.5229
17.734
19.9471
22.1629
24.3822
26.606
28.8353
31.071
33.3127
35.5558
37.7834
39.9513
41.9749
11.1289
13.3873
15.6469
17.9088
20.174
22.4435
24.7185
27.0003
29.2901
31.5882
33.8926
36.1932
38.4571
40.5915
42.3642
11.1532
13.4603
15.7692
18.0812
20.3976
22.7199
25.0496
27.3885
29.7384
32.1004
34.4744
36.8551
39.22
41.4817
43.2533
11.1771
13.532
15.8891
18.2502
20.6167
22.9906
25.3739
27.7686
30.1775
32.6036
35.0509
37.527
40.0534
42.7114
45.8764
11.2004
13.602
16.0063
18.4151
20.8305
23.2545
25.6895
28.1383
30.6041
33.0913
35.6064
38.1632
40.7945
43.5878
46.7614
11.223
13.67
16.12
18.5752
21.0378
23.5103
25.9952
28.4956
31.0153
33.5587
36.1322
38.7466
41.4221
44.1989
47.1431
11.2449
13.7357
16.23
18.7299
21.238
23.7569
26.2895
28.839
31.4093
34.0044
36.6288
39.2866
41.9783
44.6927
47.3924
11.266
13.7991
16.3358
18.8787
21.4303
23.9936
26.5715
29.1675
31.7853
34.4289
37.1014
39.8022
42.5178
45.1955
47.6859
11.2862
13.8597
16.4372
19.0211
21.6142
24.2196
26.8403
29.4801
32.1428
34.8326
37.5534
40.3065
43.0825
45.8274
48.2857
11.3054
13.9177
16.5338
19.1568
21.7893
24.4344
27.0955
29.7762
32.4807
35.2139
37.9821
40.7941
43.6676
46.6571
50.0025
11.3238
13.9727
16.6257
19.2855
21.9552
24.6377
27.3364
30.0551
32.7979
35.5702
38.3794
41.2379
44.171
47.2385
50.5809
11.3411
14.0247
16.7125
19.4072
22.1118
24.8293
27.563
30.3165
33.0939
35.9001
38.7417
41.6289
44.5799
47.6279
50.822
11.3575
14.0738
16.7943
19.5217
22.259
25.0091
27.7752
30.5607
33.3691
36.2045
39.0712
41.9746
44.9204
47.9147
50.958
11.3728
14.1199
16.871
19.6291
22.3969
25.1774
27.9735
30.7883
33.6249
36.4863
39.3745
42.2897
45.2262
48.1662
51.0727
11.3872
14.1629
16.9427
19.7294
22.5256
25.3343
28.1582
31.0001
33.8628
36.7485
39.6581
42.5888
45.5284
48.4398
51.2307
11.4006
14.203
17.0095
19.8227
22.6454
25.4801
28.3297
31.1968
34.0839
36.9933
39.9261
42.8809
45.849
48.7957
51.5712
11.413
14.2402
17.0714
19.9092
22.7563
25.6151
28.4885
31.3789
34.2889
37.221
40.1777
43.1626
46.1834
49.2692
52.5563
11.4244
14.2745
17.1285
19.989
22.8585
25.7396
28.6348
31.5467
34.4777
37.4307
40.4089
43.4183
46.4716
49.6016
52.888
11.4349
14.306
17.1809
20.0622
22.9523
25.8538
28.769
31.7005
34.6506
37.6219
40.6175
43.6423
46.7053
49.8242
53.0261
11.4445
14.3347
17.2287
20.1289
23.0378
25.9578
28.8913
31.8406
34.8079
37.7953
40.8049
43.8387
46.8991
49.9878
53.1039
11.4531
14.3607
17.2719
20.1893
23.1152
26.0521
29.0021
31.9676
34.9505
37.9525
40.9744
44.0157
47.0719
50.1311
53.1699
11.4609
14.3839
17.3106
20.2434
23.1846
26.1366
29.1016
32.0818
35.079
38.0948
41.1296
44.1812
47.2415
50.2873
53.2619
11.4678
14.4045
17.3449
20.2913
23.2461
26.2115
29.1899
32.1834
35.1939
38.2232
41.272
44.3395
47.42
50.4918
53.4632
11.4738
14.4225
17.3748
20.3331
23.2997
26.2769
29.2671
32.2724
35.295
38.337
41.4004
44.4877
47.6035
50.7646
54.0512
11.4789
14.4378
17.4003
20.3688
23.3455
26.3329
29.3332
32.3487
35.3818
38.4351
41.5113
44.6149
47.7543
50.949
54.2449
11.4831
14.4505
17.4215
20.3984
23.3836
26.3793
29.3881
32.4121
35.4539
38.5162
41.6022
44.7162
47.8655
51.0617
54.3199
11.4865
14.4606
17.4384
20.422
23.4138
26.4163
29.4317
32.4624
35.511
38.58
41.6725
44.792
47.9429
51.13
54.3543
11.489
14.4682
17.4509
20.4395
23.4363
26.4437
29.464
32.4997
35.553
38.6267
41.7231
44.8448
47.994
51.1712
54.372
11.4906
14.4731
17.4591
20.451
23.451
26.4616
29.4851
32.5239
35.5802
38.6566
41.7551
44.8775
48.0245
51.1946
54.3816
11.4914
14.4755
17.463
20.4564
23.458
26.4701
29.495
32.5351
35.5928
38.6702
41.7694
44.8919
48.0379
51.205
54.3866
11.4914
14.4753
17.4627
20.4559
23.4572
26.4691
29.4937
32.5335
35.5908
38.6678
41.7666
44.8889
48.0353
51.2041
54.3904
11.4904
14.4725
17.458
20.4494
23.4488
26.4587
29.4813
32.519
35.5742
38.6493
41.7466
44.8682
48.0158
51.1896
54.3857
11.4887
14.4672
17.4492
20.4369
23.4327
26.4389
29.4578
32.4917
35.5431
38.6145
41.7086
44.8283
47.9771
51.1584
54.3724
11.4861
14.4594
17.4361
20.4185
23.409
26.4098
29.4231
32.4515
35.4973
38.5631
41.6517
44.767
47.9145
51.1033
54.3447
11.4826
14.449
17.4188
20.3943
23.3777
26.3713
29.3775
32.3986
35.4369
38.4949
41.5755
44.6823
47.8221
51.0103
54.2832
11.4783
14.4362
17.3973
20.3642
23.3389
26.3237
29.321
32.3329
35.362
38.4102
41.48
44.5735
47.6948
50.8571
54.1245
11.4732
14.4208
17.3718
20.3283
23.2926
26.2669
29.2536
32.2548
35.2729
38.3098
41.3669
44.4444
47.538
50.6297
53.6439
11.4673
14.4031
17.3421
20.2867
23.2389
26.2011
29.1754
32.1643
35.1699
38.1943
41.2388
44.303
47.3812
50.4549
53.4769
11.4606
14.3829
17.3085
20.2394
23.1779
26.1263
29.0867
32.0615
35.0532
38.064
41.0962
44.1508
47.2264
50.3148
53.3969
11.4531
14.3604
17.2708
20.1866
23.1097
26.0425
28.9873
31.9463
34.9223
37.9181
40.9369
43.983
47.0614
50.1779
53.3343
11.4448
14.3355
17.2293
20.1283
23.0344
25.95
28.8773
31.8187
34.7769
37.7552
40.7578
43.7916
46.8689
50.0121
53.2538
11.4358
14.3084
17.184
20.0646
22.9522
25.849
28.757
31.6788
34.6169
37.5745
40.556
43.569
46.6296
49.7767
53.1029
11.4261
14.2791
17.1351
19.9958
22.8633
25.7395
28.6266
31.5268
34.4426
37.3765
40.3315
43.3123
46.3289
49.4158
52.7307
11.4156
14.2477
17.0826
19.922
22.7678
25.622
28.4865
31.3635
34.2549
37.1628
40.0882
43.0297
45.9783
48.8954
51.6126
11.4045
14.2143
17.0267
19.8434
22.6662
25.4968
28.3372
31.1894
34.0552
36.9362
39.8327
42.7413
45.6483
48.5127
51.2321
11.3927
14.179
16.9677
19.7604
22.5587
25.3644
28.1792
31.0052
33.8441
36.698
39.5679
42.4531
45.3468
48.2295
51.0621
11.3804
14.142
16.9057
19.6731
22.4457
25.2251
28.013
30.8113
33.622
36.4478
39.2917
42.1579
45.0519
47.98
50.9452
11.3675
14.1032
16.8409
19.582
22.3277
25.0795
27.8391
30.6081
33.3888
36.1842
38.999
41.8424
44.7322
47.7037
50.8114
11.3542
14.063
16.7737
19.4873
22.205
24.9281
27.658
30.3962
33.1447
35.9062
38.6858
41.4937
44.3547
47.3316
50.5734
11.3403
14.0215
16.7042
19.3894
22.0782
24.7715
27.4706
30.1765
32.8908
35.615
38.352
41.1071
43.8959
46.7743
49.9943
11.3261
13.9788
16.6328
19.2889
21.9478
24.6106
27.2779
29.9505
32.6292
35.3143
38.0047
40.6963
43.3737
45.9788
48.2542
11.3116
13.9352
16.5598
19.186
21.8145
24.446
27.0809
29.7197
32.3627
35.009
37.6558
40.2944
42.9008
45.4111
47.671
11.2968
13.8907
16.4854
19.0813
21.6789
24.2785
26.8807
29.4856
32.0931
34.7027
37.3117
39.914
42.4936
45.0163
47.4241
11.2818
13.8457
16.41
18.9751
21.5414
24.109
26.6781
29.2489
31.8216
34.3959
36.9717
39.5484
42.125
44.7004
47.2731
11.2667
13.8001
16.3338
18.868
21.4026
23.9379
26.4739
29.0105
31.5482
34.0875
36.6302
39.1819
41.7564
44.3853
47.1231
11.2514
13.7543
16.2572
18.7602
21.2631
23.766
26.2686
28.7709
31.2731
33.7759
36.2818
38.7987
41.3491
43.9935
46.8801
11.2361
13.7084
16.1805
18.6522
21.1234
23.5938
26.0631
28.5309
30.997
33.4614
35.9249
38.3915
40.8756
43.4325
46.3102
11.2209
13.6625
16.1037
18.5443
20.9839
23.422
25.8581
28.2916
30.7215
33.1468
35.5651
37.9714
40.3506
42.6476
44.6158
11.2056
13.6168
16.0273
18.4369
20.8451
23.2512
25.6545
28.0541
30.4488
32.8364
35.2129
37.5693
39.882
42.0903
44.0473
11.1905
13.5713
15.9514
18.3303
20.7074
23.0819
25.453
27.8196
30.1803
32.533
34.8742
37.1966
39.4849
41.7065
43.8076
11.1755
13.5262
15.8762
18.2247
20.5712
22.9147
25.2543
27.5888
29.9168
32.237
34.5476
36.847
39.1334
41.4056
43.6637
11.1606
13.4816
15.8018
18.1204
20.4367
22.7498
25.0586
27.3618
29.6583
31.9471
34.2283
36.5056
38.791
41.1135
43.525
11.1459
13.4376
15.7283
18.0174
20.3042
22.5875
24.8663
27.1392
29.4047
31.6617
33.9109
36.1579
38.4219
40.7587
43.3051
11.1314
13.394
15.6557
17.9159
20.1737
22.4281
24.6778
26.9212
29.1563
31.3813
33.5945
35.7975
38.0017
40.2575
42.7923
11.1171
13.351
15.5841
17.8158
20.0453
22.2716
24.4933
26.7084
28.9146
31.1083
33.2846
35.4356
37.5449
39.5617
41.2664
11.1029
13.3084
15.5133
17.717
19.9189
22.118
24.3128
26.5015
28.6811
30.8469
32.9916
35.102
37.1516
39.0819
40.7621
11.0888
13.2662
15.4432
17.6194
19.7942
21.9669
24.1363
26.3005
28.4565
30.5996
32.7219
34.81
36.8405
38.7749
40.5622
11.0747
13.2242
15.3735
17.5224
19.6707
21.8179
23.963
26.1047
28.2404
30.3662
32.4754
34.5572
36.5954
38.5693
40.4633
11.0607
13.1822
15.3039
17.4257
19.5478
21.6699
23.7918
25.9125
28.0308
30.1439
32.2473
34.334
36.3944
38.4183
40.4021
11.0466
13.1401
15.234
17.3287
19.4245
21.5218
23.6209
25.7218
27.8243
29.9277
32.0301
34.1285
36.2181
38.2945
40.356
11.0324
13.0975
15.1634
17.2307
19.3
21.3723
23.4483
25.5294
27.6168
29.7117
31.8153
33.9283
36.0504
38.1802
40.3148
11.018
13.0543
15.0917
17.131
19.1733
21.2197
23.272
25.3323
27.4036
29.4892
31.5934
33.7212
35.8767
38.0619
40.2723
11.0033
13.0103
15.0186
17.0292
19.0434
21.0628
23.0897
25.1273
27.1799
29.2531
31.3547
33.4941
35.6817
37.9255
40.2218
10.9883
12.9654
14.9438
16.9247
18.9096
20.9003
22.8997
24.9115
26.9414
28.997
31.0891
33.2329
35.4472
37.7517
40.1532
10.973
12.9194
14.8671
16.8173
18.7714
20.7316
22.7006
24.6829
26.6846
28.7149
30.7872
32.9221
35.1493
37.51
40.0439
10.9573
12.8724
14.7886
16.707
18.6289
20.5563
22.4921
24.4404
26.4076
28.403
30.4414
32.5465
34.7582
37.1472
39.8342
10.9414
12.8246
14.7085
16.5941
18.4824
20.375
22.2745
24.1845
26.1105
28.0609
30.0488
32.0963
34.2433
36.5768
39.3393
52.4889
47.4131
43.1414
39.2279
35.5134
31.9248
28.4219
24.98
21.5825
18.2178
14.8774
11.5548
8.24502
4.94374
1.64738
53.3991
48.4498
44.0626
40.0183
36.1889
32.5018
28.9133
25.3958
21.9304
18.5037
15.1058
11.7292
8.36787
5.01678
1.67162
53.7783
49.095
44.7444
40.6584
36.7647
33.0093
29.3548
25.7749
22.2509
18.7691
15.3191
11.8927
8.48339
5.0856
1.69447
53.9687
49.5077
45.2412
41.1639
37.2434
33.446
29.7436
26.1143
22.5415
19.012
15.5156
12.0441
8.59069
5.14965
1.71577
54.0801
49.7841
45.6056
41.5594
37.6356
33.8158
30.0808
26.414
22.8014
19.2313
15.6943
12.1825
8.68922
5.20861
1.73539
54.1528
49.9777
45.8768
41.8689
37.9547
34.1257
30.3699
26.6754
23.0311
19.4271
15.8551
12.3078
8.77874
5.26232
1.75329
54.2036
50.1184
46.0822
42.1123
38.2137
34.3838
30.6157
26.9013
23.2322
19.6003
15.9984
12.42
8.85928
5.31077
1.76946
54.2409
50.2239
46.2404
42.3049
38.424
34.598
30.8235
27.0951
23.4068
19.7521
16.1249
12.5197
8.93109
5.35408
1.78393
54.2692
50.3047
46.3639
42.4586
38.5951
34.7755
30.9984
27.2605
23.5574
19.8841
16.2358
12.6076
8.99463
5.3925
1.79679
54.291
50.3678
46.4617
42.5821
38.7348
34.9226
31.1453
27.4009
23.6866
19.9984
16.3324
12.6844
9.05044
5.42632
1.80812
54.3082
50.4178
46.5398
42.6819
38.8492
35.0445
31.2684
27.5199
23.7969
20.0967
16.416
12.7513
9.09915
5.45592
1.81804
54.322
50.4578
46.6028
42.7631
38.9432
35.1457
31.3715
27.6204
23.8909
20.181
16.488
12.8092
9.14143
5.48166
1.82668
54.333
50.49
46.6538
42.8294
39.0206
35.2297
31.4578
27.7051
23.9707
20.2529
16.5498
12.859
9.17795
5.50393
1.83417
54.3419
50.5162
46.6955
42.8838
39.0845
35.2995
31.5301
27.7765
24.0383
20.3142
16.6026
12.9018
9.20935
5.52311
1.84062
54.3492
50.5376
46.7296
42.9286
39.1373
35.3576
31.5905
27.8365
24.0953
20.3661
16.6476
12.9383
9.23624
5.53957
1.84616
54.3552
50.5552
46.7577
42.9656
39.1811
35.4059
31.641
27.8869
24.1435
20.4101
16.6858
12.9694
9.25918
5.55363
1.85089
54.3601
50.5696
46.7808
42.9961
39.2174
35.4461
31.6832
27.9292
24.184
20.4473
16.7182
12.9957
9.27868
5.56559
1.85492
54.3641
50.5815
46.7999
43.0214
39.2475
35.4796
31.7184
27.9646
24.218
20.4785
16.7455
13.0181
9.29521
5.57574
1.85834
54.3675
50.5913
46.8157
43.0423
39.2725
35.5074
31.7478
27.9941
24.2465
20.5048
16.7685
13.0369
9.30915
5.5843
1.86123
54.3702
50.5994
46.8287
43.0595
39.2931
35.5304
31.7722
28.0187
24.2703
20.5268
16.7877
13.0526
9.32086
5.59151
1.86367
54.3725
50.606
46.8394
43.0737
39.3101
35.5495
31.7924
28.0392
24.2901
20.545
16.8038
13.0658
9.33064
5.59753
1.8657
54.3743
50.6114
46.8481
43.0854
39.3241
35.5652
31.809
28.056
24.3064
20.5602
16.8171
13.0767
9.33876
5.60253
1.86739
54.3758
50.6158
46.8552
43.0948
39.3355
35.5779
31.8226
28.0698
24.3198
20.5726
16.828
13.0857
9.34544
5.60665
1.86878
54.377
50.6194
46.8609
43.1025
39.3447
35.5882
31.8335
28.0809
24.3306
20.5826
16.8368
13.093
9.35085
5.60998
1.8699
54.3779
50.6222
46.8654
43.1085
39.3519
35.5963
31.8422
28.0897
24.3391
20.5905
16.8438
13.0988
9.35515
5.61263
1.8708
54.3787
50.6243
46.8689
43.1131
39.3574
35.6026
31.8488
28.0964
24.3457
20.5967
16.8492
13.1032
9.35846
5.61468
1.87149
54.3792
50.6258
46.8713
43.1164
39.3614
35.6071
31.8536
28.1013
24.3505
20.6011
16.8531
13.1064
9.36088
5.61617
1.872
54.3795
50.6268
46.8729
43.1185
39.364
35.61
31.8567
28.1045
24.3536
20.604
16.8557
13.1086
9.36248
5.61716
1.87233
54.3797
50.6273
46.8737
43.1195
39.3653
35.6114
31.8582
28.1061
24.3552
20.6055
16.857
13.1097
9.3633
5.61767
1.8725
54.3797
50.6273
46.8737
43.1195
39.3652
35.6114
31.8583
28.1062
24.3553
20.6056
16.8571
13.1098
9.36338
5.61772
1.87252
54.3795
50.6267
46.8728
43.1183
39.3639
35.6099
31.8567
28.1046
24.3538
20.6043
16.856
13.1089
9.36272
5.61731
1.87238
54.3791
50.6256
46.8711
43.1161
39.3612
35.6069
31.8536
28.1015
24.3508
20.6016
16.8536
13.1069
9.3613
5.61645
1.87209
54.3785
50.624
46.8684
43.1126
39.3571
35.6023
31.8488
28.0967
24.3463
20.5974
16.85
13.104
9.3591
5.6151
1.87164
54.3778
50.6217
46.8648
43.1077
39.3513
35.596
31.8422
28.0901
24.3399
20.5916
16.8449
13.0999
9.35607
5.61324
1.87101
54.3767
50.6187
46.8599
43.1014
39.3438
35.5877
31.8335
28.0814
24.3316
20.584
16.8384
13.0945
9.35214
5.61083
1.8702
54.3754
50.6148
46.8537
43.0932
39.3341
35.5771
31.8225
28.0705
24.3212
20.5745
16.8302
13.0879
9.34722
5.60782
1.86919
54.3737
50.6098
46.8458
43.0829
39.3221
35.5639