/*--------------------------------*- C++ -*----------------------------------*\
| =========                 |                                                 |
| \\      /  F ield         | OpenFOAM: The Open Source CFD Toolbox           |
|  \\    /   O peration     | Version:  5.x                                   |
|   \\  /    A nd           | Web:      www.OpenFOAM.org                      |
|    \\/     M anipulation  |                                                 |
\*---------------------------------------------------------------------------*/
FoamFile
{
    version     2.0;
    format      ascii;
    class       volScalarField;
    location    "1.1";
    object      gradTy;
}
// * * * * * * * * * * * * * * * * * * * * * * * * * * * * * * * * * * * * * //

dimensions      [0 -1 0 1 0 0 0];

internalField   nonuniform List<scalar> 
2048
(
-17.5549
-17.5591
-17.5668
-17.5767
-17.5867
-17.5942
-17.5957
-17.5872
-17.5643
-17.5218
-17.4549
-17.3582
-17.2268
-17.0562
-16.8424
-16.5822
-16.2738
-15.9168
-15.5127
-15.065
-14.5797
-14.0647
-13.5299
-12.9865
-12.4459
-11.9192
-11.416
-10.9441
-10.5093
-10.1146
-9.76157
-9.44956
-9.17685
-8.94074
-8.73797
-8.56507
-8.41851
-8.29491
-8.19111
-8.10425
-8.0318
-7.97151
-7.92144
-7.87995
-7.8456
-7.81721
-7.79377
-7.77444
-7.7585
-7.74537
-7.73457
-7.72569
-7.7184
-7.71242
-7.70753
-7.70355
-7.70032
-7.69771
-7.69564
-7.69402
-7.69279
-7.69191
-7.69133
-7.69105
-17.5507
-17.5554
-17.5641
-17.5756
-17.5879
-17.5981
-17.6028
-17.598
-17.5791
-17.5408
-17.478
-17.3853
-17.2576
-17.0902
-16.8789
-16.6202
-16.3121
-15.954
-15.5469
-15.0945
-14.6026
-14.0796
-13.5358
-12.9831
-12.4336
-11.899
-11.3895
-10.9131
-10.4755
-10.0798
-9.72713
-9.41656
-9.14602
-8.91252
-8.71257
-8.54251
-8.39868
-8.27762
-8.17614
-8.09134
-8.02069
-7.96196
-7.91324
-7.87289
-7.83951
-7.81194
-7.78918
-7.77041
-7.75495
-7.74221
-7.73174
-7.72313
-7.71606
-7.71027
-7.70553
-7.70167
-7.69853
-7.69601
-7.694
-7.69243
-7.69124
-7.69038
-7.68982
-7.68955
-17.5422
-17.5479
-17.5587
-17.5733
-17.5897
-17.6051
-17.6161
-17.6183
-17.6069
-17.5766
-17.5218
-17.4368
-17.3163
-17.1551
-16.9486
-16.6931
-16.3858
-16.0255
-15.613
-15.1515
-14.6471
-14.1085
-13.5473
-12.9764
-12.4095
-11.8597
-11.338
-10.853
-10.4104
-10.013
-9.66119
-9.35357
-9.08735
-8.85897
-8.6645
-8.4999
-8.36131
-8.2451
-8.148
-8.06709
-7.99985
-7.94407
-7.89788
-7.85967
-7.82811
-7.80205
-7.78057
-7.76287
-7.74829
-7.73629
-7.72643
-7.71832
-7.71167
-7.70621
-7.70175
-7.69812
-7.69517
-7.69279
-7.6909
-7.68943
-7.6883
-7.6875
-7.68697
-7.68672
-17.5293
-17.5364
-17.5501
-17.569
-17.5913
-17.6142
-17.634
-17.6463
-17.6459
-17.6271
-17.5838
-17.5099
-17.3998
-17.2476
-17.0485
-16.7977
-16.492
-16.1291
-15.7091
-15.2348
-14.7123
-14.151
-13.5639
-12.9662
-12.3738
-11.8016
-11.2624
-10.7653
-10.3159
-9.91648
-9.56656
-9.26364
-9.004
-8.78324
-8.59677
-8.44009
-8.30899
-8.19968
-8.10878
-8.03336
-7.97089
-7.91923
-7.87655
-7.84133
-7.81228
-7.78835
-7.76863
-7.7524
-7.73904
-7.72806
-7.71904
-7.71162
-7.70554
-7.70056
-7.69648
-7.69316
-7.69046
-7.68829
-7.68657
-7.68522
-7.68419
-7.68345
-7.68297
-7.68274
-17.5119
-17.5207
-17.5378
-17.5621
-17.5918
-17.624
-17.6552
-17.6805
-17.6942
-17.6901
-17.6616
-17.6021
-17.5053
-17.3651
-17.1758
-16.9318
-16.6288
-16.2635
-15.8346
-15.3442
-14.7982
-14.2071
-13.5858
-12.9523
-12.3259
-11.7245
-11.1626
-10.6503
-10.193
-9.79198
-9.44539
-9.14932
-8.89873
-8.68815
-8.51216
-8.36569
-8.24417
-8.14359
-8.06048
-7.9919
-7.93536
-7.88878
-7.85044
-7.81888
-7.79291
-7.77156
-7.754
-7.73956
-7.7277
-7.71795
-7.70994
-7.70337
-7.69798
-7.69357
-7.68996
-7.68702
-7.68463
-7.68271
-7.68118
-7.67998
-7.67908
-7.67842
-7.67799
-7.67779
-17.4895
-17.5002
-17.5213
-17.5518
-17.5901
-17.6335
-17.6783
-17.7192
-17.75
-17.7638
-17.7533
-17.7112
-17.6308
-17.5053
-17.3283
-17.0935
-16.795
-16.4279
-15.9894
-15.4801
-14.9056
-14.2773
-13.6129
-12.9342
-12.265
-11.6271
-11.0377
-10.5078
-10.0422
-9.64062
-9.29944
-9.01282
-8.77403
-8.5763
-8.41326
-8.2792
-8.16915
-8.07891
-8.00495
-7.94435
-7.89469
-7.85398
-7.82061
-7.79325
-7.7708
-7.75239
-7.73728
-7.72488
-7.7147
-7.70635
-7.6995
-7.69388
-7.68927
-7.6855
-7.68242
-7.67991
-7.67787
-7.67623
-7.67492
-7.6739
-7.67312
-7.67256
-7.6722
-7.67203
-17.4618
-17.4746
-17.5
-17.5373
-17.5852
-17.6413
-17.7018
-17.761
-17.8119
-17.8466
-17.857
-17.8352
-17.7739
-17.6659
-17.5042
-17.2812
-16.9896
-16.6222
-16.1741
-15.6438
-15.036
-14.3629
-13.6456
-12.9111
-12.1895
-11.5077
-10.8862
-10.3368
-9.86329
-9.4632
-9.13025
-8.85617
-8.63224
-8.45016
-8.30251
-8.18293
-8.08608
-8.0076
-7.94394
-7.89224
-7.8502
-7.81597
-7.78806
-7.76529
-7.74668
-7.73146
-7.71901
-7.70881
-7.70046
-7.69362
-7.68802
-7.68342
-7.67966
-7.67658
-7.67407
-7.67202
-7.67035
-7.66901
-7.66795
-7.66711
-7.66648
-7.66602
-7.66572
-7.66559
-17.4287
-17.4435
-17.4733
-17.5177
-17.576
-17.6462
-17.7243
-17.8044
-17.8783
-17.937
-17.9712
-17.9724
-17.9328
-17.845
-17.7013
-17.4933
-17.2116
-16.8465
-16.3898
-15.8372
-15.1914
-14.4655
-13.6844
-12.8823
-12.0974
-11.3638
-10.7059
-10.136
-9.65607
-9.26039
-8.93925
-8.68137
-8.47565
-8.31212
-8.18226
-8.07908
-7.99696
-7.93145
-7.87903
-7.83696
-7.80311
-7.77578
-7.75368
-7.73576
-7.72119
-7.70934
-7.69968
-7.69179
-7.68535
-7.68008
-7.67577
-7.67225
-7.66937
-7.66701
-7.66508
-7.66352
-7.66224
-7.66122
-7.6604
-7.65976
-7.65927
-7.65893
-7.65869
-7.65859
-17.3899
-17.4067
-17.4407
-17.4924
-17.5616
-17.6469
-17.7446
-17.8481
-17.9481
-18.0337
-18.0945
-18.121
-18.1055
-18.0404
-17.9178
-17.7282
-17.4601
-17.1008
-16.6378
-16.0626
-15.3747
-14.5874
-13.7301
-12.8466
-11.9861
-11.1923
-10.494
-9.90372
-9.42003
-9.03285
-8.72797
-8.49045
-8.30655
-8.16449
-8.05474
-7.96975
-7.90369
-7.85211
-7.81165
-7.77975
-7.75446
-7.73434
-7.71824
-7.70532
-7.69491
-7.68651
-7.67969
-7.67417
-7.66967
-7.666
-7.66302
-7.66058
-7.65859
-7.65696
-7.65564
-7.65455
-7.65368
-7.65297
-7.6524
-7.65196
-7.65163
-7.65139
-7.65123
-7.65117
-17.3456
-17.3642
-17.4021
-17.4607
-17.5409
-17.6422
-17.7613
-17.8909
-18.0202
-18.1359
-18.2258
-18.2798
-18.2902
-18.2501
-18.1515
-17.9841
-17.7342
-17.3854
-16.9198
-16.323
-15.5896
-14.7316
-13.7839
-12.8025
-11.8523
-10.9891
-10.2473
-9.63796
-9.15477
-8.78139
-8.49807
-8.28558
-8.12726
-8.00961
-7.92212
-7.85687
-7.80797
-7.7711
-7.74311
-7.7217
-7.70521
-7.69242
-7.68242
-7.67455
-7.66833
-7.66338
-7.65943
-7.65625
-7.6537
-7.65163
-7.64996
-7.6486
-7.64749
-7.6466
-7.64586
-7.64526
-7.64478
-7.64439
-7.64407
-7.64383
-7.64364
-7.64351
-7.64342
-7.6434
-17.296
-17.3159
-17.3571
-17.422
-17.5128
-17.6307
-17.7729
-17.9317
-18.0937
-18.2427
-18.3641
-18.4473
-18.4852
-18.4719
-18.4
-18.2588
-18.0325
-17.7001
-17.2375
-16.6219
-15.8405
-14.9021
-13.8473
-12.7484
-11.6919
-10.7496
-9.96195
-9.33676
-8.86
-8.5071
-8.25146
-8.06903
-7.94018
-7.84974
-7.78648
-7.74228
-7.71139
-7.68974
-7.67453
-7.66379
-7.65616
-7.65071
-7.64679
-7.64394
-7.64186
-7.64032
-7.63917
-7.63831
-7.63766
-7.63716
-7.63677
-7.63647
-7.63623
-7.63604
-7.63589
-7.63576
-7.63566
-7.63557
-7.6355
-7.63545
-7.63542
-7.63539
-7.63538
-7.63539
-17.2414
-17.2622
-17.3058
-17.3758
-17.4766
-17.6111
-17.7782
-17.9693
-18.168
-18.3538
-18.509
-18.6225
-18.6886
-18.7033
-18.6608
-18.55
-18.3531
-18.0447
-17.5925
-16.9633
-16.1329
-15.1038
-13.9222
-12.682
-11.4995
-10.4681
-9.63386
-8.99817
-8.53581
-8.21143
-7.99034
-7.8433
-7.74773
-7.68711
-7.64976
-7.62765
-7.61535
-7.60923
-7.6069
-7.60681
-7.60798
-7.60978
-7.61182
-7.61388
-7.61583
-7.6176
-7.61918
-7.62056
-7.62174
-7.62275
-7.6236
-7.62432
-7.62492
-7.62541
-7.62581
-7.62614
-7.6264
-7.62662
-7.62679
-7.62692
-7.62703
-7.62711
-7.62716
-7.62722
-17.1825
-17.2035
-17.2482
-17.3219
-17.4312
-17.5821
-17.7755
-18.0025
-18.2427
-18.4691
-18.6601
-18.8043
-18.8987
-18.9421
-18.9309
-18.8547
-18.6939
-18.4182
-17.9863
-17.3513
-16.4734
-15.3432
-14.0115
-12.6004
-11.2685
-10.1378
-9.25846
-8.62046
-8.18271
-7.89629
-7.71726
-7.61102
-7.55239
-7.52389
-7.51381
-7.51451
-7.52111
-7.53057
-7.54104
-7.55146
-7.56123
-7.57008
-7.57789
-7.58468
-7.59051
-7.59547
-7.59965
-7.60317
-7.60611
-7.60855
-7.61059
-7.61227
-7.61366
-7.6148
-7.61573
-7.61649
-7.61711
-7.6176
-7.61799
-7.6183
-7.61855
-7.61873
-7.61885
-7.61894
-17.1199
-17.1403
-17.1846
-17.26
-17.3759
-17.5421
-17.7631
-18.0303
-18.3178
-18.5891
-18.8174
-18.9921
-19.1137
-19.1856
-19.2073
-19.1697
-19.0521
-18.8192
-18.4199
-17.7906
-16.8696
-15.6286
-14.1189
-12.4998
-10.9907
-9.75084
-8.83103
-8.20235
-7.80188
-7.56413
-7.43507
-7.37497
-7.3566
-7.36213
-7.3803
-7.40419
-7.42974
-7.45462
-7.47764
-7.49827
-7.51636
-7.53197
-7.54531
-7.55661
-7.56613
-7.57409
-7.58074
-7.58628
-7.59087
-7.59467
-7.59781
-7.6004
-7.60254
-7.60429
-7.60572
-7.60688
-7.60783
-7.60859
-7.60919
-7.60967
-7.61004
-7.61031
-7.6105
-7.61062
-17.0545
-17.0734
-17.1155
-17.19
-17.3097
-17.4895
-17.7391
-18.0515
-18.3934
-18.7147
-18.9814
-19.185
-19.3319
-19.4313
-19.4868
-19.4915
-19.4242
-19.2454
-18.8936
-18.2856
-17.3306
-15.9702
-14.2494
-12.3749
-10.6555
-9.29799
-8.34686
-7.74324
-7.39525
-7.21799
-7.14697
-7.13802
-7.16276
-7.20376
-7.25073
-7.29787
-7.34213
-7.38208
-7.41725
-7.44768
-7.47369
-7.49574
-7.5143
-7.52985
-7.54282
-7.55361
-7.56257
-7.56999
-7.57612
-7.58118
-7.58536
-7.5888
-7.59162
-7.59394
-7.59583
-7.59737
-7.59862
-7.59963
-7.60043
-7.60106
-7.60156
-7.60191
-7.60216
-7.6023
-16.9873
-17.0037
-17.0416
-17.1121
-17.232
-17.4226
-17.7012
-18.0646
-18.4703
-18.8474
-19.153
-19.3826
-19.5515
-19.6764
-19.7659
-19.816
-19.8061
-19.6937
-19.4068
-18.8406
-17.8666
-16.3814
-14.4099
-12.2187
-10.2496
-8.76893
-7.80158
-7.24349
-6.96568
-6.86146
-6.85637
-6.90306
-6.97316
-7.05052
-7.1264
-7.1965
-7.259
-7.31348
-7.36025
-7.39998
-7.43348
-7.46156
-7.485
-7.50451
-7.5207
-7.53411
-7.5452
-7.55436
-7.56192
-7.56815
-7.57328
-7.57749
-7.58096
-7.58379
-7.58611
-7.588
-7.58953
-7.59077
-7.59175
-7.59252
-7.59313
-7.59356
-7.59387
-7.59401
-16.9192
-16.9322
-16.9636
-17.0267
-17.1422
-17.3393
-17.6464
-18.0678
-18.5498
-18.9895
-19.3331
-19.5845
-19.7709
-19.9183
-20.0411
-20.1391
-20.1934
-20.1598
-19.9578
-19.4589
-18.489
-16.8789
-14.6104
-12.0214
-9.75604
-8.15215
-7.19154
-6.70472
-6.51699
-6.49869
-6.5669
-6.67293
-6.78991
-6.90393
-7.00842
-7.10087
-7.1809
-7.24921
-7.30693
-7.35539
-7.39587
-7.42955
-7.45751
-7.48067
-7.49982
-7.51564
-7.52869
-7.53945
-7.54831
-7.5556
-7.5616
-7.56653
-7.57057
-7.57389
-7.57659
-7.5788
-7.58058
-7.58203
-7.58318
-7.58408
-7.58479
-7.58528
-7.58563
-7.58579
-16.8513
-16.8598
-16.8827
-16.9344
-17.04
-17.2379
-17.5715
-18.0587
-18.6339
-19.144
-19.5234
-19.7902
-19.9883
-20.1542
-20.3091
-20.4567
-20.5811
-20.6388
-20.5432
-20.143
-19.2101
-17.4838
-14.8648
-11.7689
-9.15375
-7.43536
-6.51437
-6.13008
-6.05404
-6.13428
-6.28221
-6.45033
-6.61491
-6.76529
-6.89764
-7.01155
-7.10822
-7.18952
-7.25747
-7.31402
-7.36094
-7.39977
-7.43187
-7.45837
-7.48022
-7.49822
-7.51305
-7.52526
-7.5353
-7.54355
-7.55034
-7.55591
-7.56048
-7.56423
-7.56729
-7.56978
-7.5718
-7.57343
-7.57473
-7.57575
-7.57656
-7.57709
-7.57748
-7.57764
-16.7846
-16.7877
-16.7998
-16.8362
-16.9255
-17.1162
-17.4719
-18.034
-18.7259
-19.315
-19.7253
-19.9992
-20.2018
-20.3818
-20.5666
-20.7644
-20.9637
-21.1245
-21.1579
-20.8932
-20.0424
-18.2226
-15.1933
-11.4409
-8.41631
-6.60596
-5.76962
-5.52448
-5.58268
-5.77316
-6.00595
-6.23774
-6.44979
-6.63565
-6.79472
-6.92894
-7.0412
-7.13457
-7.21194
-7.27591
-7.3287
-7.37222
-7.40807
-7.43759
-7.46187
-7.48185
-7.49828
-7.51179
-7.52289
-7.53201
-7.5395
-7.54565
-7.5507
-7.55483
-7.5582
-7.56095
-7.56318
-7.56498
-7.56642
-7.56753
-7.56843
-7.569
-7.56942
-7.56958
-16.7202
-16.7171
-16.7164
-16.7334
-16.7991
-16.9724
-17.3426
-17.9889
-18.8305
-19.5077
-19.9408
-20.2107
-20.4095
-20.5984
-20.8105
-21.0583
-21.336
-21.6099
-21.7949
-21.7072
-20.9978
-19.1278
-15.6258
-11.0078
-7.5112
-5.65203
-4.95947
-4.89483
-5.10963
-5.42043
-5.74157
-6.03737
-6.29589
-6.51581
-6.70012
-6.85328
-6.97994
-7.08437
-7.17033
-7.24103
-7.29913
-7.34687
-7.38608
-7.4183
-7.44477
-7.46651
-7.48436
-7.49903
-7.51108
-7.52097
-7.52909
-7.53575
-7.54121
-7.54568
-7.54934
-7.55232
-7.55473
-7.55668
-7.55824
-7.55944
-7.56041
-7.56102
-7.56146
-7.56164
-16.6589
-16.6489
-16.6338
-16.6274
-16.6618
-16.8049
-17.1772
-17.9163
-18.9549
-19.7285
-20.1713
-20.4234
-20.6095
-20.802
-21.0382
-21.3348
-21.6925
-22.0876
-22.4453
-22.5794
-22.0863
-20.2385
-16.2065
-10.4252
-6.39921
-4.56366
-4.08951
-4.25003
-4.64232
-5.08118
-5.49222
-5.85107
-6.15426
-6.40629
-6.61407
-6.78466
-6.92444
-7.03889
-7.13259
-7.20931
-7.27215
-7.32364
-7.36585
-7.40047
-7.42886
-7.45215
-7.47127
-7.48696
-7.49984
-7.51041
-7.51908
-7.5262
-7.53203
-7.5368
-7.54071
-7.54388
-7.54646
-7.54855
-7.55021
-7.55149
-7.55252
-7.55316
-7.55361
-7.55381
-16.6015
-16.5842
-16.5534
-16.5202
-16.5153
-16.6131
-16.9685
-17.8056
-19.1101
-19.985
-20.4178
-20.6359
-20.7997
-20.9906
-21.2476
-21.5907
-22.0282
-22.5496
-23.0982
-23.5002
-23.3139
-21.6009
-17.0013
-9.62739
-5.03435
-3.33479
-3.16945
-3.60091
-4.18856
-4.76023
-5.26066
-5.68031
-6.02562
-6.30742
-6.53668
-6.72305
-6.87463
-6.99803
-7.09859
-7.18065
-7.24768
-7.30247
-7.34731
-7.38403
-7.41411
-7.43877
-7.45899
-7.47557
-7.48918
-7.50034
-7.5095
-7.517
-7.52316
-7.52819
-7.53231
-7.53566
-7.53838
-7.54059
-7.54234
-7.54368
-7.54477
-7.54544
-7.5459
-7.54614
-16.5487
-16.524
-16.4766
-16.4139
-16.3621
-16.3969
-16.7082
-17.6411
-19.3121
-20.2857
-20.6805
-20.8458
-20.9781
-21.1624
-21.4368
-21.8234
-22.3386
-22.988
-23.7412
-24.4553
-24.6805
-23.2667
-18.1087
-8.51589
-3.36495
-1.96569
-2.21369
-2.95994
-3.75626
-4.46198
-5.04916
-5.52616
-5.91038
-6.21929
-6.46787
-6.66832
-6.83034
-6.96162
-7.06822
-7.15494
-7.22561
-7.28328
-7.3304
-7.36894
-7.40048
-7.42632
-7.44749
-7.46485
-7.47908
-7.49075
-7.50033
-7.50817
-7.5146
-7.51987
-7.52417
-7.52768
-7.53052
-7.53282
-7.53466
-7.53605
-7.53718
-7.53789
-7.53834
-7.53864
-16.5009
-16.4688
-16.4048
-16.3109
-16.2054
-16.1581
-16.3875
-17.3991
-19.5849
-20.6398
-20.9582
-21.0504
-21.1426
-21.3163
-21.6047
-22.0311
-22.6199
-23.3954
-24.3608
-25.4254
-26.1768
-25.2904
-19.6755
-6.94404
-1.33658
-0.465806
-1.24152
-2.34069
-3.35295
-4.19018
-4.8594
-5.38926
-5.8087
-6.1418
-6.40745
-6.62024
-6.79137
-6.92949
-7.04129
-7.13203
-7.20584
-7.26598
-7.31505
-7.35515
-7.38794
-7.41479
-7.43677
-7.45479
-7.46955
-7.48166
-7.49159
-7.49972
-7.50639
-7.51184
-7.51631
-7.51994
-7.52289
-7.52528
-7.52719
-7.52862
-7.52978
-7.53053
-7.53099
-7.53134
-16.4584
-16.4194
-16.3391
-16.2135
-16.0491
-15.9003
-15.9984
-17.0446
-19.9642
-21.0559
-21.2476
-21.246
-21.2913
-21.4512
-21.7506
-22.2124
-22.8692
-23.7649
-24.9432
-26.3867
-27.7811
-27.7237
-21.919
-4.69464
1.1021
1.14309
-0.276967
-1.75721
-2.98544
-3.94778
-4.69247
-5.26986
-5.72044
-6.07467
-6.35512
-6.57853
-6.75746
-6.9014
-7.01764
-7.11179
-7.18824
-7.25047
-7.30119
-7.3426
-7.37645
-7.40414
-7.4268
-7.44537
-7.46059
-7.47306
-7.48329
-7.49166
-7.49853
-7.50415
-7.50874
-7.51249
-7.51552
-7.51798
-7.51995
-7.52142
-7.52259
-7.52341
-7.52386
-7.52425
-16.4215
-16.376
-16.2805
-16.1239
-15.8981
-15.6298
-15.5349
-16.526
-20.5019
-21.5404
-21.543
-21.4286
-21.4225
-21.5667
-21.8744
-22.367
-23.0845
-24.0911
-25.4747
-27.3113
-29.4563
-30.6045
-25.1582
-1.44893
3.98914
2.82383
0.652034
-1.22313
-2.65942
-3.73683
-4.54886
-5.1678
-5.64523
-6.0175
-6.31048
-6.54284
-6.7283
-6.87712
-6.99704
-7.09403
-7.17269
-7.23664
-7.28873
-7.33123
-7.36594
-7.39433
-7.41756
-7.43659
-7.45218
-7.46495
-7.47542
-7.484
-7.49103
-7.49678
-7.50148
-7.50532
-7.50843
-7.51094
-7.51295
-7.51447
-7.51564
-7.51652
-7.51698
-7.51736
-16.39
-16.339
-16.2298
-16.0443
-15.7571
-15.3555
-14.9957
-15.7686
-21.2733
-22.0951
-21.8361
-21.5936
-21.5345
-21.6627
-21.9765
-22.4949
-23.2649
-24.3698
-25.9432
-28.169
-31.1476
-33.9415
-29.8553
3.25543
7.3331
4.5215
1.51509
-0.750726
-2.37911
-3.55837
-4.42845
-5.08259
-5.58249
-5.96973
-6.27304
-6.51274
-6.70355
-6.85634
-6.97927
-7.07856
-7.159
-7.22435
-7.27755
-7.32093
-7.35635
-7.3853
-7.40899
-7.42839
-7.44427
-7.45729
-7.46796
-7.4767
-7.48386
-7.48972
-7.49451
-7.49842
-7.50159
-7.50415
-7.50619
-7.50775
-7.50891
-7.50985
-7.51033
-7.51066
-16.3639
-16.3083
-16.1872
-15.9762
-15.6314
-15.0894
-14.3882
-14.6652
-22.386
-22.713
-22.1151
-21.7366
-21.6266
-21.7394
-22.0574
-22.5968
-23.4102
-24.5985
-26.3387
-28.9291
-32.7817
-37.6896
-36.6723
10.0801
11.0887
6.16271
2.28149
-0.350046
-2.14711
-3.41253
-4.3306
-5.01342
-5.53146
-5.9307
-6.24224
-6.48777
-6.68282
-6.83875
-6.96405
-7.06515
-7.14701
-7.21346
-7.26752
-7.31159
-7.34757
-7.37696
-7.40101
-7.42069
-7.43682
-7.45002
-7.46085
-7.46971
-7.47698
-7.48292
-7.48778
-7.49175
-7.49497
-7.49756
-7.49963
-7.50123
-7.50237
-7.50336
-7.50386
-7.5041
-16.3429
-16.2837
-16.1531
-15.9209
-15.5255
-14.8462
-13.7344
-13.0645
-23.9916
-23.3726
-22.3661
-21.8536
-21.698
-21.7975
-22.1183
-22.6739
-23.5214
-24.7763
-26.6543
-29.5633
-34.2685
-41.7152
-46.5421
19.9584
15.1225
7.65745
2.92298
-0.0281317
-1.96428
-3.29852
-4.25423
-4.95928
-5.49126
-5.89968
-6.2175
-6.46746
-6.66572
-6.82403
-6.95112
-7.05359
-7.13651
-7.20379
-7.25851
-7.30309
-7.33948
-7.36921
-7.39353
-7.41343
-7.42973
-7.44308
-7.45402
-7.46298
-7.47032
-7.47633
-7.48125
-7.48526
-7.48852
-7.49113
-7.4932
-7.49486
-7.49598
-7.49699
-7.49753
-7.49765
-16.3267
-16.2649
-16.1272
-15.8789
-15.4431
-14.6424
-13.0779
-10.7564
-26.3006
-24.0308
-22.5729
-21.9413
-21.7489
-21.838
-22.1606
-22.7278
-23.6001
-24.9042
-26.8864
-30.0489
-35.5076
-45.7492
-60.7606
34.1858
19.1652
8.90511
3.41672
0.211467
-1.8299
-3.2149
-4.19797
-4.91904
-5.461
-5.87597
-6.19825
-6.45136
-6.6519
-6.81189
-6.94024
-7.04368
-7.12735
-7.19521
-7.2504
-7.29535
-7.33203
-7.362
-7.3865
-7.40656
-7.42298
-7.43644
-7.44746
-7.45649
-7.46388
-7.46993
-7.47488
-7.47893
-7.48222
-7.48484
-7.48692
-7.48863
-7.48972
-7.49072
-7.49133
-7.49135
-16.3149
-16.2516
-16.1092
-15.8503
-15.3868
-14.4943
-12.4947
-7.45404
-29.6007
-24.612
-22.72
-21.9981
-21.7803
-21.8622
-22.1859
-22.7605
-23.6487
-24.9846
-27.0355
-30.3718
-36.3996
-49.3254
-81.098
54.5323
22.7505
9.80599
3.74828
0.368799
-1.74191
-3.15973
-4.16032
-4.89158
-5.43988
-5.85899
-6.18409
-6.43918
-6.64115
-6.8022
-6.93135
-7.0354
-7.11953
-7.18776
-7.24324
-7.28842
-7.32529
-7.3554
-7.38003
-7.40018
-7.41668
-7.43019
-7.44127
-7.45034
-7.45777
-7.46385
-7.46882
-7.47289
-7.47619
-7.47883
-7.48089
-7.48265
-7.48375
-7.48468
-7.48538
-7.48538
-16.3072
-16.2432
-16.0987
-15.8345
-15.3571
-14.4148
-12.1054
-2.77162
-34.2779
-24.9964
-22.7949
-22.0238
-21.7933
-21.8717
-22.1958
-22.774
-23.6698
-25.021
-27.1054
-30.5287
-36.8649
-51.7017
-109.933
83.3763
25.1361
10.2804
3.91425
0.447608
-1.69689
-3.13053
-4.13951
-4.87564
-5.42695
-5.84803
-6.17447
-6.4305
-6.63315
-6.7947
-6.92423
-7.02856
-7.11292
-7.18133
-7.23694
-7.28223
-7.31918
-7.34937
-7.37405
-7.39424
-7.41078
-7.42433
-7.43543
-7.44452
-7.45196
-7.45805
-7.46304
-7.46711
-7.47043
-7.47307
-7.47511
-7.47693
-7.47802
-7.47886
-7.47966
-7.47971
)
;

boundaryField
{
    left
    {
        type            calculated;
        value           nonuniform List<scalar> 
32
(
-17.5549
-17.5507
-17.5422
-17.5293
-17.5119
-17.4895
-17.4618
-17.4287
-17.3899
-17.3456
-17.296
-17.2414
-17.1825
-17.1199
-17.0545
-16.9873
-16.9192
-16.8513
-16.7846
-16.7202
-16.6589
-16.6015
-16.5487
-16.5009
-16.4584
-16.4215
-16.39
-16.3639
-16.3429
-16.3267
-16.3149
-16.3072
)
;
    }
    right
    {
        type            calculated;
        value           nonuniform List<scalar> 
32
(
-7.69105
-7.68955
-7.68672
-7.68274
-7.67779
-7.67203
-7.66559
-7.65859
-7.65117
-7.6434
-7.63539
-7.62722
-7.61894
-7.61062
-7.6023
-7.59401
-7.58579
-7.57764
-7.56958
-7.56164
-7.55381
-7.54614
-7.53864
-7.53134
-7.52425
-7.51736
-7.51066
-7.5041
-7.49765
-7.49135
-7.48538
-7.47971
)
;
    }
    interface
    {
        type            calculated;
        value           nonuniform List<scalar> 
64
(
-16.3043
-16.2401
-16.0951
-15.8297
-15.3489
-14.3935
-11.9775
-0.0302402
-37.016
-25.121
-22.8131
-22.0291
-21.7954
-21.8729
-22.1972
-22.7761
-23.6738
-25.0287
-27.1212
-30.5659
-36.9828
-52.4771
-126.814
100.263
25.9163
10.403
3.95618
0.46809
-1.6846
-3.12206
-4.13306
-4.87035
-5.42239
-5.84393
-6.1707
-6.42696
-6.62976
-6.79143
-6.92105
-7.02546
-7.10987
-7.17832
-7.23396
-7.27928
-7.31625
-7.34645
-7.37115
-7.39135
-7.4079
-7.42145
-7.43256
-7.44165
-7.4491
-7.4552
-7.46019
-7.46426
-7.46759
-7.47022
-7.47225
-7.47409
-7.47519
-7.47598
-7.47684
-7.47691
)
;
    }
    bottom
    {
        type            calculated;
        value           nonuniform List<scalar> 
64
(
-17.556
-17.5601
-17.5675
-17.5769
-17.5864
-17.5931
-17.5938
-17.5844
-17.5604
-17.5169
-17.4488
-17.3511
-17.2188
-17.0474
-16.8329
-16.5723
-16.2639
-15.9072
-15.5039
-15.0574
-14.5738
-14.0608
-13.5284
-12.9874
-12.4491
-11.9244
-11.4228
-10.9522
-10.518
-10.1237
-9.77051
-9.45815
-9.18488
-8.9481
-8.74461
-8.57097
-8.4237
-8.29943
-8.19503
-8.10764
-8.03471
-7.97401
-7.9236
-7.8818
-7.8472
-7.8186
-7.79498
-7.77549
-7.75943
-7.7462
-7.73531
-7.72636
-7.71901
-7.71299
-7.70806
-7.70404
-7.70078
-7.69816
-7.69607
-7.69443
-7.6932
-7.6923
-7.69173
-7.69145
)
;
    }
    defaultFaces
    {
        type            empty;
    }
}


// ************************************************************************* //
