/*--------------------------------*- C++ -*----------------------------------*\
| =========                 |                                                 |
| \\      /  F ield         | OpenFOAM: The Open Source CFD Toolbox           |
|  \\    /   O peration     | Version:  5.x                                   |
|   \\  /    A nd           | Web:      www.OpenFOAM.org                      |
|    \\/     M anipulation  |                                                 |
\*---------------------------------------------------------------------------*/
FoamFile
{
    version     2.0;
    format      ascii;
    class       volScalarField;
    location    "1.1";
    object      gradTx;
}
// * * * * * * * * * * * * * * * * * * * * * * * * * * * * * * * * * * * * * //

dimensions      [0 -1 0 1 0 0 0];

internalField   nonuniform List<scalar> 
2048
(
-0.000926619
-0.00263188
-0.0038743
-0.00434309
-0.0037278
-0.00170799
0.00200943
0.00768209
0.0155148
0.0256406
0.0381102
0.0528855
0.0698346
0.0887244
0.109208
0.130809
0.152906
0.174726
0.195364
0.213828
0.229116
0.240329
0.246787
0.24813
0.244379
0.235933
0.223504
0.208015
0.190469
0.171844
0.153
0.134633
0.117259
0.101218
0.0867002
0.0737758
0.0624256
0.0525701
0.0440925
0.0368567
0.0307207
0.0255451
0.021199
0.0175628
0.0145298
0.0120061
0.00991042
0.00817301
0.00673442
0.00554434
0.0045604
0.00374706
0.00307455
0.002518
0.00205663
0.0016731
0.0013529
0.0010839
0.000855904
0.000660262
0.000489519
0.000337114
0.000197273
6.49107e-05
-0.00286352
-0.00815797
-0.0120929
-0.0137406
-0.0121779
-0.00645128
0.00432361
0.0209251
0.0439713
0.0738646
0.11076
0.154549
0.204848
0.260979
0.321929
0.386302
0.452264
0.517519
0.579354
0.634765
0.680706
0.714419
0.733808
0.737761
0.726342
0.700782
0.663277
0.616654
0.563978
0.508203
0.451917
0.397194
0.345549
0.29797
0.254994
0.216801
0.183313
0.154273
0.129323
0.10805
0.090025
0.0748329
0.0620835
0.0514221
0.0425331
0.0351395
0.0290018
0.0239147
0.0197034
0.0162202
0.0133408
0.0109609
0.00899336
0.00736519
0.00601557
0.00489369
0.00395711
0.00317031
0.00250347
0.00193132
0.00143202
0.000986187
0.000576594
0.000189423
-0.00505271
-0.0144624
-0.0216743
-0.0251627
-0.0234008
-0.0148008
0.00213188
0.0287189
0.0660104
0.11469
0.175026
0.246851
0.329556
0.422066
0.522771
0.629435
0.73908
0.847927
0.951428
1.04448
1.12182
1.17863
1.21123
1.21763
1.19795
1.15436
1.09074
1.01202
0.923512
0.830253
0.736594
0.645957
0.560791
0.482645
0.412317
0.35002
0.295553
0.24844
0.20805
0.173675
0.144596
0.12012
0.0996024
0.0824617
0.0681818
0.0563123
0.0464646
0.0383062
0.0315551
0.025973
0.0213598
0.0175478
0.0143968
0.0117898
0.00962908
0.00783316
0.00633396
0.00507458
0.00400727
0.00309163
0.00229282
0.00157955
0.000922214
0.000301944
-0.00764752
-0.0220064
-0.0333974
-0.0397239
-0.0388545
-0.0285421
-0.00663732
0.028775
0.079218
0.145679
0.228547
0.327603
0.442044
0.570455
0.710728
0.859893
1.01393
1.16761
1.31449
1.44717
1.55787
1.63933
1.68592
1.69459
1.66549
1.60198
1.50997
1.3969
1.27063
1.13852
1.00675
0.880074
0.761779
0.653851
0.557216
0.472007
0.397805
0.333847
0.279178
0.232772
0.193601
0.160691
0.133148
0.110167
0.0910435
0.0751624
0.0619964
0.051096
0.0420807
0.0346298
0.0284745
0.0233898
0.0191879
0.0157123
0.0128321
0.0104386
0.00844069
0.00676249
0.00534027
0.00412019
0.00305616
0.00210702
0.00122888
0.00040077
-0.0107463
-0.0310937
-0.0477926
-0.0582074
-0.0595957
-0.0490064
-0.0235607
0.0193312
0.0817281
0.164949
0.269501
0.39511
0.540794
0.704874
0.884863
1.07722
1.27702
1.47764
1.67069
1.84619
1.99337
2.10199
2.16388
2.17461
2.1344
2.0481
1.92423
1.77332
1.60631
1.43312
1.2619
1.09867
0.947439
0.810442
0.688566
0.581709
0.489117
0.409651
0.341978
0.284714
0.236508
0.196099
0.162343
0.134225
0.110857
0.0914727
0.0754176
0.0621356
0.0511575
0.0420894
0.0346015
0.0284184
0.0233105
0.0190865
0.0155871
0.0126794
0.0102526
0.00821435
0.00648703
0.00500502
0.00371267
0.00256185
0.00149312
0.000485044
-0.0144002
-0.0418902
-0.0651714
-0.0811114
-0.0863473
-0.0771588
-0.0498276
-0.000970095
0.0720973
0.171055
0.296502
0.448072
0.624607
0.824238
1.04426
1.28077
1.52815
1.77854
2.0215
2.24417
2.4322
2.57148
2.65058
2.66317
2.60951
2.4965
2.33604
2.14264
1.93091
1.71373
1.50129
1.3008
1.11677
0.951459
0.805501
0.678375
0.568855
0.475327
0.396019
0.329151
0.273033
0.226114
0.187004
0.154486
0.127502
0.105146
0.0866497
0.0713612
0.0587339
0.0483099
0.0397067
0.0326057
0.0267417
0.0218941
0.017879
0.0145434
0.0117599
0.00942235
0.00744147
0.00574152
0.00425888
0.00294125
0.00171325
0.000554363
-0.0186181
-0.0544373
-0.0856495
-0.108683
-0.119547
-0.113665
-0.0863234
-0.0331758
0.0492091
0.162898
0.308523
0.485533
0.692561
0.927622
1.18799
1.4697
1.76675
2.07025
2.36775
2.64313
2.87767
3.05232
3.15123
3.16544
3.09529
2.95043
2.74732
2.50555
2.24423
1.9796
1.72392
1.48542
1.26881
1.0761
0.907378
0.761517
0.636661
0.530621
0.441125
0.365967
0.303103
0.25069
0.207106
0.170937
0.140973
0.116183
0.0956957
0.0787774
0.064815
0.0532963
0.0437949
0.0359562
0.0294857
0.0241384
0.0197107
0.0160331
0.0129647
0.0103881
0.0082048
0.00633064
0.00469548
0.00324537
0.00188917
0.000608734
-0.0233697
-0.0686616
-0.109162
-0.140943
-0.159384
-0.15894
-0.133696
-0.0781006
0.0121971
0.13967
0.304857
0.506859
0.744009
1.01427
1.31515
1.64297
1.99183
2.35216
2.7096
3.04446
3.33268
3.54882
3.67102
3.68662
3.59603
3.41273
3.15938
2.8621
2.54549
2.22955
1.92855
1.6514
1.40266
1.1837
0.993764
0.830879
0.692412
0.575506
0.477332
0.395234
0.326808
0.269928
0.222745
0.183671
0.151356
0.124659
0.102622
0.0844413
0.0694495
0.05709
0.0469009
0.038499
0.0315665
0.0258395
0.0210989
0.0171621
0.0138777
0.0111202
0.00878385
0.00677753
0.00502623
0.00347653
0.00202194
0.000648499
-0.0285878
-0.0843816
-0.135474
-0.1777
-0.20582
-0.213189
-0.192412
-0.136394
-0.0396217
0.100794
0.285087
0.511729
0.778584
1.08363
1.42485
1.79941
2.20203
2.62307
3.04654
3.44891
3.79972
4.06522
4.21529
4.23203
4.11592
3.88586
3.57289
3.21165
2.83334
2.46199
2.1137
1.7976
1.51753
1.27377
1.06443
0.886422
0.736202
0.610155
0.504854
0.417181
0.344376
0.28404
0.234117
0.192862
0.158803
0.130706
0.10754
0.0884487
0.0727184
0.059759
0.0490815
0.0402813
0.0330232
0.0270297
0.0220698
0.0179518
0.0145166
0.0116327
0.00918949
0.00709041
0.0052571
0.0036385
0.00211345
0.000674255
-0.0341715
-0.101316
-0.164194
-0.218562
-0.258606
-0.276435
-0.262805
-0.208607
-0.106809
0.0458906
0.249073
0.500142
0.796228
1.13534
1.51631
1.9377
2.39564
2.88119
3.37733
3.85658
4.28091
4.60579
4.78975
4.80738
4.65924
4.37189
3.9879
3.55287
3.10582
2.67499
2.27778
1.92285
1.6127
1.34601
1.11934
0.928313
0.768312
0.634908
0.524051
0.432162
0.356138
0.293328
0.241491
0.198744
0.163516
0.134496
0.110598
0.0909229
0.074725
0.0613894
0.0504084
0.0413624
0.033905
0.0277492
0.0226567
0.0184293
0.0149031
0.011943
0.00943536
0.00727962
0.00539559
0.00373607
0.0021662
0.000686818
-0.0399889
-0.11909
-0.194775
-0.262942
-0.31729
-0.348532
-0.345116
-0.295249
-0.189866
-0.0252657
0.196941
0.472433
0.797212
1.16933
1.58886
2.05645
2.5706
3.12415
3.69995
4.26681
4.77791
5.17489
5.40067
5.41894
5.23035
4.87247
4.40369
3.88366
3.36043
2.86628
2.41909
2.02609
1.68767
1.40031
1.15869
0.956911
0.789194
0.650248
0.535402
0.440628
0.362504
0.298156
0.245184
0.201592
0.165729
0.136228
0.111963
0.0920042
0.0755863
0.0620788
0.0509623
0.0418093
0.0342669
0.0280434
0.0228965
0.0186248
0.0150617
0.0120706
0.00953671
0.00735672
0.00545017
0.00377471
0.00218314
0.00068723
-0.045882
-0.137248
-0.226531
-0.310062
-0.381212
-0.42918
-0.439529
-0.396862
-0.289301
-0.112776
0.129085
0.429288
0.782166
1.18582
1.64202
2.15429
2.72463
3.34902
4.01153
4.678
5.29182
5.77708
6.05512
6.0738
5.83381
5.38873
4.8187
4.20111
3.59413
3.03336
2.53592
2.1064
1.74211
1.43679
1.18287
0.972752
0.799443
0.656776
0.539476
0.443098
0.363938
0.29893
0.245546
0.201704
0.165695
0.136115
0.111813
0.091842
0.0754269
0.0619303
0.0508288
0.0416924
0.034167
0.0279599
0.0228283
0.0185699
0.0150178
0.0120358
0.00950957
0.00733389
0.00542984
0.00376031
0.00216767
0.000676814
-0.0516718
-0.155263
-0.25865
-0.358956
-0.449502
-0.517917
-0.546204
-0.514084
-0.405698
-0.21665
0.0461707
0.371756
0.752097
1.18537
1.67554
2.22992
2.85525
3.55231
4.30832
5.08756
5.82308
6.41709
6.76124
6.78008
6.47437
5.92112
5.23032
4.50146
3.80335
3.17359
2.62667
2.16304
1.77595
1.45579
1.19245
0.97653
0.799777
0.655183
0.536908
0.44014
0.360937
0.29608
0.242945
0.199392
0.163677
0.134377
0.110331
0.0905885
0.0743729
0.0610484
0.0500942
0.041083
0.0336638
0.0275466
0.0224911
0.0182965
0.0147971
0.0118591
0.00937005
0.00722345
0.00534387
0.00369913
0.00212369
0.000657233
-0.0571653
-0.172562
-0.290207
-0.408479
-0.521061
-0.6141
-0.665292
-0.647731
-0.5398
-0.336829
-0.050852
0.301273
0.708393
1.16886
1.68947
2.28221
2.95992
3.73008
4.5856
5.49164
6.3712
7.09985
7.52855
7.54733
7.15699
6.4692
5.63475
4.78003
3.98415
3.28429
2.68992
2.19558
1.78942
1.45791
1.18822
0.969077
0.791011
0.646224
0.528377
0.43235
0.354015
0.290043
0.23775
0.194966
0.159934
0.131231
0.107698
0.0883935
0.0725483
0.0595357
0.048843
0.0400506
0.0328144
0.0268505
0.0219232
0.0178355
0.0144248
0.0115606
0.00913393
0.00703746
0.00520152
0.00359767
0.00205561
0.000630505
-0.0621641
-0.188538
-0.320197
-0.457313
-0.594545
-0.716878
-0.796949
-0.798887
-0.692599
-0.473203
-0.160723
0.219667
0.652823
1.13755
1.68416
2.31028
3.03613
3.87804
4.83775
5.88494
6.93443
7.83038
8.36839
8.3869
7.88676
7.03129
6.0268
5.03124
4.13224
3.36291
2.72457
2.20393
1.783
1.44396
1.17111
0.951339
0.774032
0.630696
0.514582
0.42033
0.343684
0.281252
0.230325
0.188731
0.154721
0.126887
0.104089
0.0854007
0.0700718
0.0574898
0.0471557
0.0386615
0.0316733
0.0259159
0.0211609
0.0172165
0.0139244
0.0111592
0.00881623
0.00678752
0.00501194
0.00346263
0.00196825
0.00059892
-0.0664737
-0.202587
-0.347561
-0.503987
-0.668342
-0.825133
-0.941326
-0.969012
-0.865448
-0.625613
-0.281835
0.129166
0.587503
1.09299
1.6603
2.31356
3.08159
3.99172
5.05823
6.26056
7.50941
8.61368
9.29442
9.31247
8.66871
7.60412
6.39964
5.24868
4.24324
3.40714
2.7299
2.18835
1.75752
1.41499
1.14221
0.924344
0.749769
0.609417
0.496225
0.404677
0.330447
0.270129
0.221021
0.180976
0.148277
0.121544
0.0996657
0.0817453
0.0670547
0.0550026
0.0451077
0.0369776
0.0302911
0.0247845
0.020238
0.0164669
0.0133182
0.0106726
0.00843108
0.00648455
0.00478392
0.0033008
0.00186662
0.000564822
-0.0699135
-0.214127
-0.371232
-0.546906
-0.740556
-0.937409
-1.09853
-1.16006
-1.06019
-0.793822
-0.412175
0.0323989
0.51486
1.03703
1.61892
2.29191
3.09437
4.06665
5.23974
6.60975
8.09057
9.45438
10.3233
10.3408
9.50753
8.1822
6.74466
5.42519
4.3128
3.41512
2.70567
2.14954
1.71407
1.37222
1.10271
0.889177
0.719173
0.5832
0.473994
0.385966
0.314784
0.25707
0.210166
0.171975
0.140825
0.115385
0.0945812
0.0775521
0.0635997
0.0521583
0.0427683
0.0350556
0.0287145
0.0234941
0.0191855
0.0156119
0.0126264
0.0101171
0.00799155
0.00613872
0.0045258
0.00311891
0.00175551
0.000530253
-0.0723267
-0.222639
-0.390178
-0.584391
-0.808991
-1.05181
-1.26856
-1.37466
-1.27932
-0.97746
-0.549247
-0.0676159
0.437554
0.97172
1.56136
2.24562
3.07304
4.09862
5.37442
6.9218
8.66952
10.3562
11.4757
11.4924
10.4071
8.75725
7.0513
5.55306
4.3369
3.38554
2.65221
2.08857
1.65403
1.31703
1.05387
0.846948
0.683192
0.552842
0.448552
0.364746
0.297146
0.242446
0.198065
0.161975
0.132572
0.108579
0.0889736
0.0729346
0.0597998
0.0490333
0.0402001
0.0329469
0.0269855
0.0220793
0.0180314
0.0146741
0.0118674
0.00950746
0.00750957
0.0057594
0.00424519
0.00292339
0.00163897
0.000496524
-0.0735898
-0.227688
-0.403458
-0.614736
-0.871154
-1.1659
-1.45117
-1.61629
-1.5262
-1.1759
-0.689973
-0.167503
0.358398
0.899251
1.48922
2.1755
3.01683
4.08398
5.45414
7.18403
9.23424
11.3213
12.7772
12.7929
11.3694
9.31737
7.30702
5.62437
4.31209
3.31786
2.57041
2.00695
1.57898
1.2509
0.997005
0.798767
0.642749
0.519103
0.420522
0.341525
0.277949
0.226597
0.184995
0.151205
0.123703
0.101279
0.0829669
0.0679944
0.0557384
0.0456957
0.037459
0.0306973
0.0251415
0.0205706
0.0168007
0.0136739
0.0110575
0.0088567
0.0069959
0.00535508
0.00394882
0.00271999
0.00151986
0.000463826
-0.07362
-0.228959
-0.410273
-0.636281
-0.92428
-1.27654
-1.64567
-1.88955
-1.80529
-1.38808
-0.830577
-0.263579
0.280242
0.821841
1.40433
2.08282
2.92576
4.01991
5.47093
7.38187
9.76823
12.3486
14.26
14.2747
12.3936
9.84616
7.49742
5.63136
4.2358
3.21236
2.46179
1.90651
1.49072
1.17541
0.933432
0.745717
0.598727
0.482698
0.390483
0.316773
0.257571
0.209831
0.171206
0.139868
0.114383
0.0936179
0.0766713
0.0628216
0.051489
0.042206
0.0345943
0.0283472
0.0232155
0.018995
0.0155152
0.0126291
0.0102112
0.00817644
0.00646009
0.00493342
0.00364226
0.00251348
0.00139948
0.000431054
-0.0723804
-0.226269
-0.410023
-0.647497
-0.965386
-1.37975
-1.85062
-2.20045
-2.12252
-1.61219
-0.966459
-0.35194
0.205849
0.741644
1.30864
1.96934
2.80071
3.9047
5.41748
7.49921
10.2496
13.4322
15.9648
15.9785
13.4739
10.3218
7.60656
5.56693
4.10662
3.07022
2.3284
1.78938
1.39112
1.09214
0.86444
0.688834
0.551952
0.444288
0.358962
0.290911
0.236354
0.192422
0.156919
0.128141
0.104757
0.0857156
0.0701833
0.0574947
0.0471158
0.0386164
0.0316489
0.0259317
0.0212363
0.0173758
0.014194
0.0115551
0.00934099
0.0074768
0.00591047
0.00450129
0.00332989
0.0023073
0.00127766
0.000395981
-0.0698829
-0.219586
-0.402347
-0.64709
-0.991374
-1.4706
-2.06334
-2.5569
-2.48564
-1.84521
-1.09207
-0.428585
0.137759
0.66065
1.2042
1.83724
2.64345
3.73803
5.28773
7.51901
10.6502
14.5584
17.9435
17.956
14.5965
10.7164
7.61753
5.42524
3.92449
2.89358
2.17282
1.65791
1.28217
1.00267
0.791266
0.629088
0.503186
0.404471
0.326432
0.264317
0.214596
0.17461
0.142328
0.116183
0.0949525
0.0776741
0.0635863
0.0520818
0.0426744
0.0349724
0.0286598
0.023481
0.0192286
0.0157333
0.0128537
0.0104654
0.00845787
0.00676648
0.00535415
0.00406472
0.00301481
0.00210338
0.00115328
0.000355892
-0.0661872
-0.209032
-0.387163
-0.634103
-0.999181
-1.5431
-2.27932
-2.96917
-2.90483
-2.08229
-1.20085
-0.489588
0.0781471
0.580595
1.09301
1.68904
2.45661
3.52113
5.07749
7.4242
10.9351
15.7015
20.2622
20.2734
15.7359
10.9949
7.51345
5.20234
3.69095
2.68546
1.99803
1.51461
1.16582
0.908503
0.715072
0.567372
0.453118
0.363783
0.293314
0.23732
0.19256
0.156603
0.1276
0.104127
0.0850774
0.0695812
0.0569514
0.0466408
0.0382117
0.0313122
0.0256583
0.0210206
0.0172133
0.0140846
0.011508
0.00937119
0.00757112
0.00605298
0.00479698
0.00362896
0.00269907
0.00190215
0.00102516
0.000308592
-0.061397
-0.194873
-0.36468
-0.608015
-0.985986
-1.59016
-2.49122
-3.45061
-3.39335
-2.31579
-1.2852
-0.531323
0.0286967
0.502894
0.977034
1.52749
2.24363
3.25686
4.78509
7.19896
11.0624
16.8184
23.0055
23.0156
16.8491
11.1157
7.27862
4.89674
3.40915
2.44968
1.8073
1.36202
1.04399
0.811072
0.636927
0.50449
0.40236
0.322696
0.259972
0.210206
0.170471
0.138581
0.112877
0.0920877
0.0752238
0.0615112
0.0503388
0.0412204
0.0337676
0.0276683
0.0226709
0.0185722
0.0152079
0.012444
0.0101686
0.00828201
0.00668861
0.00534266
0.00424361
0.00319843
0.00238395
0.0017028
0.000893229
0.00025358
-0.0556535
-0.177503
-0.335397
-0.56883
-0.949465
-1.60374
-2.68768
-4.01848
-3.96837
-2.53412
-1.33658
-0.550731
-0.00951234
0.428604
0.858064
1.35549
2.00856
2.94971
4.41186
6.83035
10.984
17.8411
26.2821
26.2909
17.868
11.0308
6.90023
4.50996
3.08385
2.19069
1.60407
1.20265
0.918486
0.711692
0.557792
0.441157
0.351448
0.281615
0.226719
0.183217
0.148519
0.120693
0.0982793
0.08016
0.0654682
0.0535259
0.0437984
0.0358612
0.0293749
0.0240674
0.0197193
0.0161535
0.013227
0.0108234
0.00884533
0.00720569
0.00581687
0.00464094
0.00369757
0.0027767
0.00207043
0.00150377
0.000759471
0.000192978
-0.049126
-0.157416
-0.30008
-0.517131
-0.888096
-1.57516
-2.85169
-4.69502
-4.65206
-2.72
-1.34592
-0.545635
-0.036078
0.358404
0.73773
1.17598
1.75593
2.60563
3.9625
6.31012
10.6478
18.6659
30.2308
30.2384
18.6889
10.6879
6.37016
4.0469
2.72126
1.9134
1.39184
1.03892
0.790997
0.611547
0.478518
0.377992
0.300843
0.240888
0.193819
0.156559
0.126863
0.103064
0.0839051
0.0684229
0.0558737
0.0456758
0.0373712
0.0305961
0.0250605
0.0205314
0.0168214
0.0137791
0.0112825
0.0092325
0.00754597
0.00614858
0.00496124
0.0039524
0.0031614
0.00236634
0.0017597
0.00130346
0.000628207
0.000131785
-0.0420004
-0.135176
-0.259712
-0.454097
-0.801474
-1.49569
-2.95842
-5.50874
-5.47286
-2.84841
-1.30411
-0.515055
-0.0513048
0.292618
0.617454
0.99179
1.4905
2.23177
3.44521
5.63671
10.0009
19.1411
35.0288
35.0351
19.1604
10.0344
5.68694
3.51589
2.32877
1.62293
1.17398
0.873074
0.663034
0.511679
0.399838
0.315523
0.250931
0.200804
0.161492
0.130399
0.105634
0.0857973
0.0698346
0.05694
0.0464911
0.0380019
0.0310899
0.0254519
0.0208458
0.0170777
0.0139912
0.0114604
0.00938381
0.00767899
0.00627688
0.00511577
0.00412597
0.00328088
0.00263683
0.00196897
0.00145363
0.00110087
0.000505322
7.70371e-05
-0.0344678
-0.111382
-0.215437
-0.381467
-0.690608
-1.35755
-2.97255
-6.49596
-6.46705
-2.88387
-1.20306
-0.459509
-0.0561753
0.231254
0.498439
0.805606
1.21708
1.83609
2.87148
4.81712
8.99621
19.0501
40.901
40.9061
19.0656
9.02323
4.85766
2.92857
1.91455
1.32439
0.953678
0.707136
0.535924
0.412987
0.322376
0.254193
0.202034
0.161599
0.129915
0.104871
0.0849346
0.0689725
0.0561317
0.0457618
0.0373605
0.0305361
0.0249805
0.0204493
0.0167478
0.01372
0.01124
0.00920662
0.00753829
0.00616893
0.00504301
0.00411124
0.00331435
0.00262957
0.00212503
0.00158516
0.00115495
0.0008961
0.000396286
3.58003e-05
-0.0267131
-0.0866284
-0.168483
-0.301449
-0.558144
-1.15534
-2.84497
-7.70263
-7.68051
-2.77713
-1.03713
-0.381239
-0.0522622
0.174074
0.381676
0.619855
0.940274
1.42694
2.25555
3.86826
7.60113
18.0909
48.1316
48.1355
18.1028
7.6218
3.8993
2.29929
1.48711
1.0227
0.733836
0.542888
0.410806
0.316222
0.246643
0.194362
0.154409
0.123462
0.0992282
0.0800822
0.0648472
0.0526529
0.0428456
0.034927
0.0285128
0.0233032
0.0190626
0.0156042
0.0127793
0.0104687
0.00857622
0.00702456
0.00575157
0.0047069
0.00384815
0.00313803
0.0025288
0.00200102
0.00162685
0.00121455
0.00086728
0.000690531
0.00030333
1.2315e-05
-0.0189047
-0.0614834
-0.120088
-0.216578
-0.40846
-0.888109
-2.50878
-9.18643
-9.17091
-2.46119
-0.805168
-0.284288
-0.0415798
0.120662
0.267953
0.43667
0.664338
1.01257
1.61355
2.81758
5.81028
15.8519
57.0768
57.0796
15.8603
5.82478
2.83936
1.64427
1.05486
0.722328
0.516991
0.381845
0.288626
0.222
0.173055
0.136314
0.108259
0.08654
0.0695398
0.0561136
0.0454328
0.0368857
0.0300129
0.0244645
0.0199707
0.0163211
0.0133506
0.0109282
0.00894965
0.00733131
0.00600592
0.00491921
0.0040277
0.00329624
0.00269505
0.00219834
0.00177101
0.00139717
0.00114308
0.00085602
0.000594666
0.000486543
0.000222771
5.24603e-06
-0.011189
-0.0364629
-0.0714343
-0.129525
-0.247535
-0.562023
-1.87466
-11.0191
-11.01
-1.84663
-0.513169
-0.17438
-0.0263891
0.0705112
0.157881
0.257853
0.393019
0.600699
0.962351
1.70227
3.66198
11.7831
68.1795
68.1811
11.788
3.67053
1.7151
0.980454
0.625635
0.427233
0.305291
0.225255
0.170145
0.130806
0.10193
0.0802687
0.0637355
0.050941
0.040929
0.0330236
0.0267358
0.0217048
0.0176597
0.0143945
0.01175
0.00960248
0.00785462
0.00642934
0.00526522
0.00431307
0.0035333
0.00289395
0.00236946
0.00193919
0.00158562
0.00129375
0.00104204
0.000819324
0.000674576
0.000507991
0.000340856
0.000286979
0.000144165
6.57061e-06
-0.00368774
-0.0120244
-0.0235906
-0.0428892
-0.0825428
-0.193767
-0.825517
-13.2891
-13.2861
-0.816303
-0.177707
-0.058491
-0.00897407
0.0230931
0.0519101
0.0848669
0.129466
0.198139
0.318247
0.566785
1.25932
5.16299
81.9849
81.9854
5.1646
1.26214
0.571002
0.324199
0.206341
0.140723
0.100482
0.0741034
0.0559558
0.0430083
0.0335087
0.0263844
0.020948
0.0167416
0.0134504
0.010852
0.00878543
0.00713203
0.00580273
0.00472972
0.00386074
0.00315509
0.00258077
0.00211245
0.00172995
0.00141711
0.0011609
0.000950826
0.000778492
0.000637145
0.000521006
0.000425246
0.000342484
0.000268172
0.000222359
0.000168805
0.000108313
9.46461e-05
5.3566e-05
4.13157e-06
)
;

boundaryField
{
    left
    {
        type            calculated;
        value           uniform 0;
    }
    right
    {
        type            calculated;
        value           uniform 0;
    }
    interface
    {
        type            calculated;
        value           nonuniform List<scalar> 
64
(
-0.00368774
-0.0120244
-0.0235906
-0.0428892
-0.0825428
-0.193767
-0.825517
-13.2891
-13.2861
-0.816303
-0.177707
-0.058491
-0.00897407
0.0230931
0.0519101
0.0848669
0.129466
0.198139
0.318247
0.566785
1.25932
5.16299
81.9849
81.9854
5.1646
1.26214
0.571002
0.324199
0.206341
0.140723
0.100482
0.0741034
0.0559558
0.0430083
0.0335087
0.0263844
0.020948
0.0167416
0.0134504
0.010852
0.00878543
0.00713203
0.00580273
0.00472972
0.00386074
0.00315509
0.00258077
0.00211245
0.00172995
0.00141711
0.0011609
0.000950826
0.000778492
0.000637145
0.000521006
0.000425246
0.000342484
0.000268172
0.000222359
0.000168805
0.000108313
9.46461e-05
5.3566e-05
4.13157e-06
)
;
    }
    bottom
    {
        type            calculated;
        value           nonuniform List<scalar> 
64
(
-0.000926619
-0.00263188
-0.0038743
-0.00434309
-0.0037278
-0.00170799
0.00200943
0.00768209
0.0155148
0.0256406
0.0381102
0.0528855
0.0698346
0.0887244
0.109208
0.130809
0.152906
0.174726
0.195364
0.213828
0.229116
0.240329
0.246787
0.24813
0.244379
0.235933
0.223504
0.208015
0.190469
0.171844
0.153
0.134633
0.117259
0.101218
0.0867002
0.0737758
0.0624256
0.0525701
0.0440925
0.0368567
0.0307207
0.0255451
0.021199
0.0175628
0.0145298
0.0120061
0.00991042
0.00817301
0.00673442
0.00554434
0.0045604
0.00374706
0.00307455
0.002518
0.00205663
0.0016731
0.0013529
0.0010839
0.000855904
0.000660262
0.000489519
0.000337114
0.000197273
6.49107e-05
)
;
    }
    defaultFaces
    {
        type            empty;
    }
}


// ************************************************************************* //
