/*--------------------------------*- C++ -*----------------------------------*\
| =========                 |                                                 |
| \\      /  F ield         | OpenFOAM: The Open Source CFD Toolbox           |
|  \\    /   O peration     | Version:  5.x                                   |
|   \\  /    A nd           | Web:      www.OpenFOAM.org                      |
|    \\/     M anipulation  |                                                 |
\*---------------------------------------------------------------------------*/
FoamFile
{
    version     2.0;
    format      ascii;
    class       volScalarField;
    location    "1.1";
    object      T;
}
// * * * * * * * * * * * * * * * * * * * * * * * * * * * * * * * * * * * * * //

dimensions      [0 0 0 1 0 0 0];

internalField   nonuniform List<scalar> 
2048
(
9.87387
9.87384
9.87379
9.87372
9.87365
9.87361
9.8736
9.87367
9.87384
9.87415
9.87464
9.87534
9.8763
9.87753
9.87907
9.88094
9.88316
9.88572
9.88862
9.89182
9.8953
9.89898
9.90281
9.9067
9.91056
9.91433
9.91794
9.92132
9.92444
9.92727
9.92981
9.93205
9.93401
9.93571
9.93718
9.93842
9.93948
9.94037
9.94112
9.94175
9.94228
9.94271
9.94307
9.94338
9.94362
9.94383
9.944
9.94414
9.94425
9.94435
9.94443
9.94449
9.94454
9.94459
9.94462
9.94465
9.94468
9.94469
9.94471
9.94472
9.94473
9.94474
9.94474
9.94474
9.62717
9.62708
9.62691
9.6267
9.62648
9.62632
9.62628
9.62645
9.62693
9.62783
9.62924
9.63129
9.63407
9.63769
9.64223
9.64775
9.6543
9.66188
9.67047
9.67999
9.69031
9.70126
9.71263
9.72419
9.73569
9.74689
9.75759
9.76762
9.77686
9.78524
9.79274
9.79936
9.80515
9.81016
9.81446
9.81813
9.82124
9.82386
9.82606
9.8279
9.82944
9.83071
9.83177
9.83265
9.83338
9.83398
9.83448
9.83489
9.83523
9.8355
9.83573
9.83592
9.83608
9.8362
9.83631
9.83639
9.83646
9.83651
9.83656
9.83659
9.83662
9.83664
9.83665
9.83666
9.39133
9.39117
9.39088
9.3905
9.39009
9.38977
9.38963
9.38983
9.39053
9.3919
9.39411
9.39737
9.40183
9.40766
9.41502
9.424
9.43469
9.4471
9.46118
9.47683
9.49382
9.51189
9.53066
9.54974
9.56871
9.58717
9.60478
9.62126
9.63641
9.65012
9.66235
9.67314
9.68254
9.69066
9.69762
9.70355
9.70856
9.71278
9.71632
9.71928
9.72175
9.7238
9.7255
9.72691
9.72808
9.72904
9.72984
9.7305
9.73104
9.73148
9.73185
9.73215
9.7324
9.7326
9.73277
9.7329
9.73301
9.7331
9.73317
9.73322
9.73327
9.7333
9.73332
9.73333
9.16595
9.16571
9.16526
9.16467
9.16402
9.16345
9.16313
9.16325
9.16403
9.16572
9.16858
9.17286
9.17882
9.18668
9.19665
9.20889
9.22352
9.24057
9.26
9.28165
9.30523
9.33033
9.35646
9.38302
9.40941
9.43507
9.45948
9.48225
9.50313
9.52196
9.53871
9.55342
9.56621
9.57723
9.58664
9.59464
9.60139
9.60707
9.61183
9.61579
9.6191
9.62184
9.62412
9.62601
9.62756
9.62885
9.62991
9.63079
9.63151
9.6321
9.63259
9.63299
9.63332
9.63359
9.63381
9.63399
9.63414
9.63426
9.63435
9.63442
9.63448
9.63452
9.63455
9.63456
8.95061
8.95027
8.94964
8.94878
8.94782
8.94692
8.94629
8.94618
8.94689
8.94874
8.95205
8.95716
8.96439
8.97406
8.98642
9.00171
9.02008
9.04162
9.06626
9.09382
9.12395
9.15612
9.18964
9.22374
9.2576
9.29044
9.3216
9.35057
9.37702
9.40077
9.4218
9.4402
9.45614
9.46981
9.48146
9.49133
9.49964
9.50661
9.51244
9.5173
9.52134
9.52469
9.52747
9.52976
9.53166
9.53323
9.53452
9.53558
9.53646
9.53718
9.53778
9.53826
9.53866
9.53899
9.53926
9.53948
9.53966
9.5398
9.53991
9.54
9.54007
9.54012
9.54015
9.54017
8.74492
8.74447
8.74361
8.74243
8.74108
8.73973
8.73866
8.73818
8.73863
8.74043
8.74398
8.7497
8.75798
8.76922
8.78374
8.80185
8.82376
8.8496
8.87934
8.91278
8.94947
8.98878
9.02983
9.07161
9.11306
9.15316
9.19107
9.22616
9.25803
9.2865
9.31158
9.33342
9.35223
9.36832
9.38197
9.39349
9.40317
9.41126
9.41802
9.42364
9.42831
9.43217
9.43537
9.43802
9.4402
9.442
9.44348
9.44471
9.44572
9.44654
9.44722
9.44778
9.44824
9.44862
9.44893
9.44918
9.44938
9.44955
9.44968
9.44978
9.44986
9.44991
9.44995
9.44997
8.54851
8.54792
8.54681
8.54525
8.54341
8.54151
8.53986
8.53881
8.53882
8.54035
8.54391
8.54999
8.55908
8.57164
8.58807
8.60876
8.634
8.66397
8.6987
8.73796
8.78129
8.82789
8.87668
8.92637
8.9756
9.02309
9.0678
9.10895
9.1461
9.17908
9.20796
9.23295
9.25438
9.2726
9.28801
9.30096
9.3118
9.32085
9.32839
9.33464
9.33982
9.34411
9.34766
9.35058
9.353
9.35499
9.35663
9.35798
9.35909
9.36001
9.36076
9.36137
9.36188
9.3623
9.36263
9.36291
9.36314
9.36332
9.36346
9.36357
9.36366
9.36372
9.36376
9.36378
8.36101
8.36028
8.35886
8.35687
8.35446
8.35189
8.34949
8.34771
8.34705
8.34809
8.35142
8.35762
8.36726
8.38087
8.39895
8.42197
8.45029
8.48421
8.5238
8.56888
8.61894
8.67303
8.72984
8.78775
8.84505
8.90013
8.95169
8.99886
9.04113
9.0784
9.11081
9.13867
9.16241
9.1825
9.1994
9.21356
9.22537
9.2352
9.24335
9.25011
9.25571
9.26033
9.26414
9.26729
9.26988
9.27202
9.27378
9.27522
9.27641
9.27739
9.2782
9.27886
9.2794
9.27985
9.28021
9.28051
9.28075
9.28094
9.28109
9.28121
9.2813
9.28137
9.28141
9.28143
8.18208
8.18119
8.17944
8.17695
8.17389
8.17052
8.16723
8.16451
8.16297
8.16327
8.16612
8.17218
8.18211
8.19651
8.21597
8.24104
8.2722
8.30985
8.35417
8.40506
8.46195
8.5238
8.58899
8.65552
8.72124
8.78415
8.84267
8.8958
8.94304
8.98434
9.01998
9.0504
9.07615
9.09782
9.11596
9.13108
9.14366
9.15409
9.16272
9.16986
9.17576
9.18063
9.18464
9.18794
9.19066
9.1929
9.19475
9.19627
9.19751
9.19854
9.19938
9.20007
9.20064
9.2011
9.20148
9.20179
9.20204
9.20225
9.20241
9.20253
9.20263
9.2027
9.20274
9.20276
8.01139
8.01032
8.00822
8.00519
8.00139
7.99711
7.99275
7.98889
7.98623
7.98556
7.98767
7.99334
8.0033
8.01822
8.03878
8.06561
8.09933
8.14047
8.18937
8.24601
8.30988
8.37979
8.45382
8.52947
8.60405
8.67507
8.74067
8.79969
8.85169
8.89675
8.93529
8.96793
8.99538
9.01833
9.03744
9.05331
9.06645
9.07732
9.08629
9.09369
9.0998
9.10482
9.10896
9.11237
9.11517
9.11748
9.11938
9.12094
9.12222
9.12327
9.12414
9.12485
9.12543
9.12591
9.1263
9.12661
9.12687
9.12708
9.12724
9.12737
9.12747
9.12754
9.12759
9.12761
7.8486
7.84735
7.84488
7.84126
7.83666
7.83135
7.82577
7.82056
7.81654
7.81463
7.81575
7.82078
7.83052
7.8457
7.86706
7.89535
7.93132
7.97568
8.02895
8.0913
8.16229
8.24061
8.32401
8.40938
8.49335
8.57283
8.64561
8.71045
8.76698
8.81546
8.85655
8.89106
8.91986
8.9438
8.96362
8.98001
8.99353
9.00467
9.01385
9.0214
9.02762
9.03273
9.03693
9.04039
9.04323
9.04557
9.04749
9.04907
9.05037
9.05143
9.05231
9.05302
9.05361
9.05409
9.05449
9.05481
9.05507
9.05528
9.05545
9.05558
9.05568
9.05575
9.0558
9.05582
7.6934
7.69197
7.68911
7.68489
7.67942
7.67298
7.66601
7.65924
7.65361
7.6502
7.65009
7.65423
7.6635
7.67868
7.70056
7.72999
7.76788
7.81513
7.87254
7.9405
8.01872
8.10586
8.19926
8.29509
8.38906
8.47739
8.55746
8.62798
8.68875
8.74029
8.78354
8.81954
8.84936
8.87398
8.89426
8.91095
8.92466
8.93593
8.94519
8.95279
8.95903
8.96416
8.96837
8.97183
8.97468
8.97701
8.97893
8.98051
8.9818
8.98286
8.98374
8.98445
8.98504
8.98552
8.98591
8.98623
8.98649
8.9867
8.98687
8.987
8.9871
8.98717
8.98722
8.98724
7.54548
7.54387
7.54063
7.53578
7.52941
7.52174
7.51323
7.50467
7.49716
7.49199
7.49039
7.49343
7.50201
7.51693
7.53905
7.5693
7.60874
7.65852
7.71975
7.79316
7.87873
7.97513
8.07927
8.18642
8.29114
8.38874
8.47618
8.55219
8.61685
8.67104
8.71602
8.75313
8.78362
8.80863
8.82911
8.84589
8.85963
8.87088
8.8801
8.88766
8.89386
8.89894
8.90311
8.90653
8.90934
8.91165
8.91354
8.91509
8.91637
8.91742
8.91828
8.91898
8.91956
8.92004
8.92042
8.92074
8.921
8.9212
8.92137
8.92149
8.92159
8.92166
8.92171
8.92173
7.40453
7.40274
7.39914
7.39367
7.38637
7.37739
7.36718
7.3566
7.34694
7.33973
7.33641
7.33814
7.34583
7.36028
7.38235
7.41307
7.45367
7.50557
7.57024
7.64887
7.74185
7.84797
7.96372
8.08324
8.19958
8.3069
8.40174
8.48298
8.55111
8.60749
8.65375
8.69155
8.72236
8.74747
8.76792
8.7846
8.7982
8.80932
8.8184
8.82583
8.83191
8.83689
8.84097
8.84432
8.84707
8.84932
8.85117
8.85268
8.85393
8.85495
8.85579
8.85648
8.85704
8.8575
8.85788
8.85819
8.85844
8.85864
8.8588
8.85892
8.85902
8.85909
8.85913
8.85915
7.27025
7.2683
7.26435
7.2583
7.25006
7.23972
7.22766
7.21481
7.20269
7.19317
7.18791
7.18815
7.19477
7.20855
7.23032
7.26118
7.30252
7.35606
7.42371
7.50724
7.60761
7.72394
7.85231
7.98545
8.1144
8.23191
8.33413
8.42025
8.49135
8.54938
8.59644
8.63452
8.66532
8.69024
8.71044
8.72684
8.74017
8.75103
8.75988
8.76711
8.77302
8.77785
8.7818
8.78505
8.7877
8.78988
8.79167
8.79313
8.79434
8.79532
8.79613
8.7968
8.79734
8.79779
8.79815
8.79845
8.79869
8.79888
8.79904
8.79916
8.79925
8.79931
8.79936
8.79938
7.14234
7.14026
7.136
7.1294
7.12025
7.10851
7.09447
7.07909
7.06419
7.05205
7.04464
7.04324
7.04867
7.0616
7.08283
7.11349
7.15513
7.20979
7.27987
7.36786
7.47551
7.60252
7.74469
7.89298
8.0357
8.16387
8.27333
8.36386
8.43735
8.49646
8.54383
8.58177
8.61221
8.63669
8.65643
8.67239
8.68532
8.69582
8.70436
8.71133
8.71701
8.72165
8.72545
8.72856
8.73111
8.73319
8.7349
8.73631
8.73746
8.7384
8.73918
8.73981
8.74033
8.74076
8.74111
8.74139
8.74162
8.74181
8.74196
8.74207
8.74216
8.74222
8.74226
8.74228
7.02051
7.01832
7.01382
7.00672
6.99673
6.98358
6.96743
6.94925
6.93118
6.91612
6.90637
6.90324
6.90738
6.91933
6.93979
6.96992
7.01141
7.06662
7.1385
7.23036
7.34505
7.48319
7.6405
7.8058
7.96365
8.10291
8.21934
8.31368
8.38888
8.44845
8.4956
8.533
8.56278
8.58657
8.60566
8.62103
8.63344
8.6435
8.65167
8.65831
8.66373
8.66815
8.67176
8.67472
8.67714
8.67912
8.68074
8.68208
8.68317
8.68406
8.6848
8.6854
8.68589
8.6863
8.68663
8.6869
8.68712
8.68729
8.68743
8.68754
8.68762
8.68768
8.68772
8.68774
6.90448
6.90222
6.89752
6.89002
6.87926
6.86474
6.84639
6.8251
6.80343
6.78512
6.77288
6.76796
6.77077
6.78163
6.80114
6.83042
6.87131
6.92646
6.9994
7.09441
7.2157
7.36533
7.53933
7.72395
7.89847
8.04917
8.17213
8.26952
8.34567
8.40505
8.45147
8.48793
8.51673
8.53962
8.55789
8.57255
8.58436
8.5939
8.60163
8.60792
8.61303
8.6172
8.62061
8.62339
8.62567
8.62754
8.62906
8.63032
8.63134
8.63218
8.63288
8.63344
8.6339
8.63428
8.63459
8.63485
8.63505
8.63522
8.63535
8.63545
8.63553
8.63559
8.63562
8.63564
6.79396
6.79166
6.78685
6.77906
6.76764
6.75183
6.7312
6.70648
6.6807
6.65879
6.64395
6.63723
6.63871
6.64843
6.66682
6.69497
6.7348
6.78924
6.86242
6.95968
7.08693
7.24825
7.44072
7.64754
7.8405
8.00284
8.13166
8.23118
8.30743
8.36593
8.41111
8.44626
8.47383
8.4956
8.51292
8.52676
8.53788
8.54684
8.5541
8.55999
8.56477
8.56867
8.57185
8.57445
8.57658
8.57832
8.57974
8.58091
8.58187
8.58265
8.5833
8.58382
8.58426
8.58461
8.5849
8.58513
8.58533
8.58548
8.5856
8.5857
8.58577
8.58582
8.58585
8.58587
6.6887
6.6864
6.68154
6.67358
6.66166
6.64469
6.62177
6.59327
6.56272
6.53685
6.51934
6.5109
6.51111
6.51965
6.53679
6.56354
6.60188
6.65497
6.7275
6.82593
6.95818
7.13119
7.34408
7.57682
7.79016
7.96412
8.09785
8.19841
8.27383
8.33078
8.37422
8.40771
8.4338
8.4543
8.47053
8.48347
8.49383
8.50218
8.50892
8.51438
8.51882
8.52243
8.52537
8.52778
8.52974
8.53135
8.53267
8.53375
8.53463
8.53536
8.53595
8.53644
8.53684
8.53716
8.53743
8.53765
8.53783
8.53797
8.53808
8.53817
8.53824
8.53828
8.53831
8.53833
6.58842
6.58615
6.58134
6.57334
6.56111
6.54317
6.51799
6.48534
6.44923
6.41901
6.39885
6.38881
6.38785
6.39524
6.41103
6.43614
6.47257
6.52366
6.59459
6.69296
6.82894
7.01326
7.2487
7.51216
7.74802
7.93322
8.07058
8.17092
8.24455
8.29925
8.34049
8.37202
8.39641
8.41549
8.43054
8.4425
8.45207
8.45975
8.46595
8.47097
8.47504
8.47835
8.48105
8.48326
8.48506
8.48653
8.48774
8.48872
8.48953
8.4902
8.49074
8.49119
8.49155
8.49185
8.49209
8.49229
8.49245
8.49258
8.49269
8.49277
8.49283
8.49287
8.4929
8.49291
6.49286
6.49068
6.486
6.4781
6.46578
6.44712
6.41982
6.38264
6.33992
6.30497
6.28225
6.27084
6.26886
6.27514
6.28951
6.31278
6.34692
6.39538
6.46373
6.56062
6.6987
6.89344
7.15365
7.45418
7.71478
7.91032
8.04966
8.14837
8.2192
8.27101
8.30963
8.33891
8.36143
8.37898
8.39277
8.4037
8.41243
8.41943
8.42507
8.42963
8.43333
8.43633
8.43878
8.44078
8.44241
8.44375
8.44484
8.44574
8.44647
8.44707
8.44756
8.44797
8.4483
8.44857
8.44879
8.44897
8.44911
8.44923
8.44933
8.4494
8.44945
8.44949
8.44952
8.44953
6.40179
6.39972
6.39526
6.38762
6.37544
6.3564
6.32722
6.28517
6.23443
6.19439
6.16936
6.15686
6.15406
6.15931
6.1722
6.19346
6.22499
6.27023
6.33502
6.4289
6.56703
6.77062
7.0577
7.40382
7.69124
7.89557
8.03483
8.13036
8.19741
8.2457
8.28133
8.30814
8.32866
8.34457
8.35705
8.36692
8.37478
8.38108
8.38615
8.39025
8.39357
8.39626
8.39846
8.40025
8.40171
8.40291
8.40389
8.40469
8.40535
8.40588
8.40632
8.40668
8.40698
8.40722
8.40742
8.40758
8.40771
8.40782
8.4079
8.40797
8.40802
8.40805
8.40808
8.40809
6.31496
6.31304
6.30887
6.30165
6.28987
6.27084
6.24018
6.19298
6.13235
6.08694
6.05998
6.04678
6.04338
6.04768
6.05909
6.07821
6.10683
6.14832
6.2086
6.29786
6.43357
6.64356
6.95915
7.36248
7.67838
7.88902
8.02575
8.11647
8.17877
8.22301
8.25532
8.27949
8.29789
8.31211
8.32323
8.33201
8.339
8.34459
8.34908
8.35271
8.35565
8.35804
8.35998
8.36157
8.36286
8.36392
8.36478
8.36549
8.36607
8.36655
8.36694
8.36725
8.36752
8.36773
8.3679
8.36805
8.36816
8.36826
8.36833
8.36839
8.36843
8.36846
8.36848
8.36849
6.23216
6.23042
6.22661
6.21994
6.20884
6.19027
6.15872
6.10628
6.03314
5.98227
5.95395
5.9405
5.93674
5.9402
5.95014
5.96702
5.9925
6.02979
6.08467
6.16766
6.29812
6.51091
6.85566
7.33222
7.67725
7.8906
8.02196
8.10623
8.1629
8.2026
8.23136
8.25273
8.26894
8.28143
8.29118
8.29886
8.30497
8.30984
8.31377
8.31693
8.31949
8.32157
8.32326
8.32464
8.32577
8.32669
8.32744
8.32806
8.32856
8.32897
8.32931
8.32959
8.32982
8.33
8.33016
8.33028
8.33038
8.33046
8.33053
8.33058
8.33061
8.33064
8.33066
8.33067
6.15317
6.15164
6.14825
6.14226
6.13209
6.11451
6.08287
6.02539
5.93615
5.88002
5.85115
5.83796
5.8341
5.83683
5.8453
5.85988
5.88205
5.91475
5.96347
6.03858
6.16067
6.37133
6.74398
7.31604
7.68892
7.90007
8.02292
8.09914
8.14939
8.18418
8.20918
8.22767
8.24165
8.25239
8.26076
8.26734
8.27257
8.27675
8.2801
8.2828
8.28499
8.28677
8.28821
8.28939
8.29035
8.29113
8.29178
8.2923
8.29273
8.29309
8.29337
8.29361
8.29381
8.29396
8.29409
8.2942
8.29429
8.29435
8.29441
8.29445
8.29448
8.29451
8.29452
8.29453
6.0778
6.07648
6.07357
6.06837
6.05938
6.04332
6.01264
5.95087
5.84049
5.77984
5.75148
5.73909
5.73538
5.73749
5.74453
5.75678
5.77552
5.80336
5.84527
5.91102
6.02141
6.22355
6.61957
7.3182
7.71442
7.91696
8.02799
8.09468
8.13787
8.16745
8.18858
8.20414
8.21587
8.22486
8.23186
8.23736
8.24172
8.2452
8.24799
8.25024
8.25207
8.25354
8.25475
8.25573
8.25653
8.25718
8.25771
8.25815
8.25851
8.2588
8.25904
8.25924
8.2594
8.25953
8.25964
8.25973
8.2598
8.25986
8.2599
8.25994
8.25997
8.25999
8.26
8.26
6.00584
6.00477
6.00236
5.99803
5.99044
5.97645
5.94802
5.88356
5.74502
5.68146
5.6549
5.64387
5.64054
5.64211
5.64776
5.65769
5.67294
5.69572
5.73032
5.78546
5.88085
6.06659
6.47617
7.34474
7.75448
7.94054
8.03646
8.09235
8.12798
8.15217
8.16936
8.18198
8.19146
8.19872
8.20437
8.2088
8.21231
8.21511
8.21736
8.21917
8.22064
8.22183
8.22279
8.22358
8.22422
8.22475
8.22518
8.22553
8.22582
8.22605
8.22625
8.2264
8.22653
8.22664
8.22673
8.2268
8.22685
8.2269
8.22694
8.22697
8.22699
8.227
8.22701
8.22702
5.93713
5.9363
5.93443
5.93103
5.92501
5.91359
5.8889
5.82469
5.64819
5.58467
5.56141
5.55226
5.5495
5.55063
5.55494
5.56255
5.57431
5.59194
5.6189
5.66242
5.73978
5.89996
6.30512
7.40407
7.80936
7.96978
8.04754
8.09164
8.11939
8.13811
8.15135
8.16104
8.16831
8.17388
8.1782
8.18159
8.18427
8.18641
8.18813
8.18951
8.19063
8.19154
8.19228
8.19288
8.19337
8.19377
8.1941
8.19436
8.19458
8.19476
8.19491
8.19503
8.19513
8.19521
8.19528
8.19533
8.19538
8.19541
8.19544
8.19546
8.19548
8.19549
8.1955
8.1955
5.8715
5.87091
5.86958
5.86716
5.86282
5.8544
5.83506
5.776
5.54799
5.48941
5.47107
5.46424
5.46219
5.46295
5.46596
5.47132
5.47961
5.49208
5.51125
5.5425
5.5993
5.72407
6.09467
7.50773
7.87841
8.00336
8.06043
8.09209
8.11182
8.12505
8.13439
8.14121
8.14632
8.15023
8.15326
8.15564
8.15752
8.15902
8.16022
8.16119
8.16198
8.16261
8.16313
8.16355
8.16389
8.16417
8.1644
8.16459
8.16474
8.16487
8.16497
8.16506
8.16513
8.16518
8.16523
8.16527
8.1653
8.16532
8.16534
8.16536
8.16537
8.16538
8.16538
8.16539
5.8088
5.80845
5.80766
5.80622
5.80361
5.79848
5.78605
5.7399
5.4417
5.39584
5.38399
5.3798
5.37854
5.37898
5.38075
5.38391
5.38881
5.39619
5.40758
5.42626
5.46077
5.5407
5.82899
7.67131
7.95965
8.03968
8.07436
8.09328
8.105
8.11283
8.11835
8.12237
8.12539
8.12769
8.12947
8.13087
8.13198
8.13287
8.13357
8.13415
8.13461
8.13498
8.13529
8.13553
8.13574
8.1359
8.13604
8.13615
8.13624
8.13631
8.13637
8.13642
8.13646
8.13649
8.13652
8.13654
8.13656
8.13658
8.13659
8.1366
8.1366
8.13661
8.13661
8.13661
5.74887
5.74876
5.7485
5.74802
5.74716
5.74544
5.7411
5.71964
5.32582
5.30445
5.30031
5.2989
5.29848
5.29862
5.2992
5.30024
5.30185
5.30429
5.30804
5.31423
5.32576
5.35358
5.4871
7.91561
8.04914
8.07701
8.08859
8.09485
8.09872
8.1013
8.10311
8.10444
8.10543
8.10619
8.10677
8.10723
8.1076
8.10789
8.10812
8.10831
8.10846
8.10858
8.10868
8.10877
8.10883
8.10889
8.10893
8.10897
8.109
8.10902
8.10904
8.10906
8.10907
8.10908
8.10909
8.1091
8.1091
8.10911
8.10911
8.10912
8.10912
8.10912
8.10912
8.10912
)
;

boundaryField
{
    left
    {
        type            zeroGradient;
    }
    right
    {
        type            zeroGradient;
    }
    interface
    {
        type            fixedValue;
        value           nonuniform List<scalar> 
64
(
5.71959
5.71959
5.71959
5.71959
5.71959
5.71959
5.71959
5.71959
5.25933
5.25933
5.25933
5.25933
5.25933
5.25933
5.25933
5.25933
5.25933
5.25933
5.25933
5.25933
5.25933
5.25933
5.25933
8.09569
8.09569
8.09569
8.09569
8.09569
8.09569
8.09569
8.09569
8.09569
8.09569
8.09569
8.09569
8.09569
8.09569
8.09569
8.09569
8.09569
8.09569
8.09569
8.09569
8.09569
8.09569
8.09569
8.09569
8.09569
8.09569
8.09569
8.09569
8.09569
8.09569
8.09569
8.09569
8.09569
8.09569
8.09569
8.09569
8.09569
8.09569
8.09569
8.09569
8.09569
)
;
    }
    bottom
    {
        type            fixedValue;
        value           uniform 10;
    }
    defaultFaces
    {
        type            empty;
    }
}


// ************************************************************************* //
