/*--------------------------------*- C++ -*----------------------------------*\
| =========                 |                                                 |
| \\      /  F ield         | OpenFOAM: The Open Source CFD Toolbox           |
|  \\    /   O peration     | Version:  5.x                                   |
|   \\  /    A nd           | Web:      www.OpenFOAM.org                      |
|    \\/     M anipulation  |                                                 |
\*---------------------------------------------------------------------------*/
FoamFile
{
    version     2.0;
    format      ascii;
    class       volScalarField;
    location    "16.7";
    object      gradTy;
}
// * * * * * * * * * * * * * * * * * * * * * * * * * * * * * * * * * * * * * //

dimensions      [0 -1 0 1 0 0 0];

internalField   nonuniform List<scalar> 
6300
(
1004.78
1014.32
1023.81
1033.24
1042.56
1051.76
1060.79
1069.64
1078.28
1086.68
1094.81
1102.65
1110.18
1117.38
1124.25
0.0213693
0.0641004
0.106799
0.149418
0.191867
0.233994
0.275558
0.316206
0.355445
0.392623
0.426924
0.457391
0.482973
0.502611
0.51536
0.0356235
0.106865
0.178081
0.249211
0.320128
0.390606
0.460273
0.528567
0.594688
0.657554
0.715786
0.767728
0.81153
0.845301
0.867329
0.0498817
0.149654
0.249443
0.349206
0.448817
0.548014
0.646342
0.743082
0.837164
0.927097
1.01092
1.08618
1.1501
1.19972
1.23231
0.0641268
0.192422
0.320822
0.449344
0.577905
0.706273
0.833982
0.960232
1.08376
1.20273
1.31457
1.41596
1.50294
1.57114
1.61639
0.0783293
0.235075
0.392068
0.549423
0.707164
0.865164
1.02305
1.18007
1.3349
1.48545
1.62861
1.76011
1.87449
1.96544
2.02664
0.0924427
0.277475
0.46294
0.649097
0.836141
1.02414
1.21296
1.40205
1.59027
1.7755
1.95428
2.12133
2.2694
2.38944
2.47174
0.106405
0.319429
0.533103
0.747861
0.964128
1.18228
1.40254
1.62486
1.84857
2.07196
2.29159
2.50146
2.69224
2.85107
2.96279
0.120147
0.360722
0.602162
0.845091
1.0902
1.33825
1.59003
1.84622
2.10712
2.37209
2.63856
2.90057
3.14692
3.35966
3.51477
0.133602
0.40114
0.669712
0.940113
1.2133
1.49046
1.77305
2.0628
2.36153
2.67063
2.98989
3.31522
3.63506
3.92573
4.1489
0.146718
0.44051
0.735412
1.03232
1.33239
1.63718
1.94884
2.27033
2.60548
2.95891
3.33499
3.73522
4.15221
4.55913
4.89665
0.159475
0.478756
0.799081
1.12133
1.44671
1.77696
2.11475
2.46409
2.83106
3.2244
3.65582
4.1383
4.67928
5.26179
5.80569
0.171895
0.515941
0.860799
1.20718
1.55609
1.90916
2.26901
2.64014
3.03013
3.45168
3.92542
4.48273
5.16465
6.00289
6.94176
0.184054
0.552297
0.920968
1.29044
1.66128
2.03449
2.41192
2.79722
3.1975
3.62662
4.11131
4.70238
5.49352
6.64311
8.33463
0.196071
0.588206
0.980305
1.37229
1.76406
2.15552
2.54687
2.9392
3.33589
3.74584
4.19069
4.72181
5.46376
6.7411
9.5176
1130.22
1135.41
1140.34
1145.04
1149.51
1153.74
1157.75
1161.56
1165.18
1168.61
1171.88
1175.01
1178
1180.87
1183.65
1186.34
1188.97
1191.54
1194.08
1196.6
1199.11
1201.63
1204.17
1206.74
1209.35
1212.02
1214.74
1217.53
1220.39
1223.32
1226.32
1229.4
1232.54
1235.75
1239.03
1242.36
1245.74
1249.16
1252.61
1256.08
1259.56
1263.04
1266.49
1269.91
1273.28
1276.58
1279.79
1282.91
1285.91
1288.78
1291.51
1294.06
1296.44
1298.62
1300.57
1302.29
1303.74
1304.89
1305.74
1306.23
1306.36
1306.08
1305.37
1304.18
1302.49
1300.25
1297.42
1293.96
1289.8
1284.9
1279.2
1272.62
1265.11
1256.58
1246.96
1236.18
1224.14
1210.76
1195.96
1179.65
1161.73
1142.12
1120.75
1097.52
1072.38
1045.26
1016.13
984.952
951.72
916.443
0.520086
0.518887
0.512187
0.500175
0.483216
0.461816
0.436575
0.408139
0.377157
0.344245
0.309967
0.274819
0.239226
0.203549
0.168089
0.133104
0.0988219
0.0654554
0.033216
0.00232718
-0.026966
-0.0543911
-0.0796478
-0.102414
-0.122361
-0.139172
-0.152576
-0.162372
-0.168465
-0.170877
-0.169748
-0.165316
-0.157861
-0.147651
-0.134876
-0.119614
-0.101831
-0.081412
-0.0582407
-0.032278
-0.0036408
0.0273556
0.0602066
0.0942825
0.128938
0.163637
0.198068
0.232209
0.266335
0.300975
0.336814
0.374579
0.414925
0.458333
0.505069
0.555175
0.608538
0.66498
0.724384
0.7868
0.852513
0.922071
0.996256
1.07602
1.16237
1.25631
1.35868
1.47013
1.59104
1.72149
1.86136
2.0103
2.16783
2.33337
2.50623
2.68556
2.8703
3.05897
3.24962
3.43962
3.62566
3.80361
3.96866
4.11547
4.23837
4.3318
4.39071
4.41102
4.39004
4.32679
0.875571
0.873596
0.862136
0.841538
0.812471
0.775852
0.732758
0.684332
0.631711
0.575961
0.518039
0.458779
0.398884
0.338938
0.279426
0.220754
0.163278
0.107329
0.0532399
0.00136742
-0.0478892
-0.0940765
-0.136684
-0.175152
-0.208897
-0.23735
-0.260005
-0.276486
-0.286604
-0.290398
-0.288143
-0.280308
-0.267462
-0.25014
-0.228722
-0.203341
-0.173876
-0.140028
-0.101466
-0.0580038
-0.00977131
0.0426928
0.0984446
0.156262
0.214869
0.273197
0.330618
0.38708
0.44312
0.499764
0.55834
0.620246
0.686718
0.758645
0.836462
0.920151
1.00936
1.10361
1.20254
1.3061
1.41475
1.52943
1.65156
1.78287
1.92523
2.08043
2.25003
2.43518
2.63652
2.85417
3.08783
3.33682
3.6003
3.8773
4.16674
4.46739
4.77762
5.09523
5.41715
5.73918
6.05579
6.36006
6.64372
6.8974
7.1111
7.27487
7.37956
7.4177
7.38433
7.27756
1.24465
1.24192
1.2252
1.19506
1.15256
1.09918
1.03659
0.966544
0.890756
0.810792
0.728033
0.643652
0.558616
0.473708
0.38956
0.30669
0.225544
0.146535
0.070084
-0.00334569
-0.0732175
-0.138901
-0.199662
-0.254671
-0.303036
-0.343855
-0.376303
-0.399742
-0.413827
-0.418607
-0.414551
-0.402497
-0.383485
-0.358509
-0.328257
-0.292931
-0.252216
-0.205417
-0.151729
-0.0905838
-0.0219796
0.0533109
0.133723
0.217119
0.301212
0.384072
0.464558
0.542566
0.619041
0.695778
0.775079
0.859345
0.950666
1.05049
1.15941
1.27718
1.40293
1.53552
1.67401
1.81809
1.96829
2.12607
2.29366
2.47382
2.66958
2.88381
3.119
3.37691
3.65849
3.96381
4.29219
4.64248
5.0133
5.40329
5.81112
6.23538
6.67428
7.12526
7.5845
8.04649
8.50366
8.94617
9.3619
9.73684
10.0557
10.303
10.4642
10.5273
10.4842
10.3318
1.63383
1.63039
1.6076
1.56636
1.50834
1.43577
1.35116
1.25705
1.15584
1.04968
0.940407
0.82952
0.71822
0.607445
0.49792
0.390215
0.284807
0.182136
0.0826593
-0.0130964
-0.104488
-0.190721
-0.270826
-0.343661
-0.40794
-0.462308
-0.50547
-0.536357
-0.554342
-0.559427
-0.552362
-0.534591
-0.507983
-0.47436
-0.434982
-0.390164
-0.339204
-0.280611
-0.212614
-0.133791
-0.0437012
0.05667
0.164818
0.277086
0.389447
0.498479
0.602177
0.700372
0.794697
0.88821
0.984779
1.0884
1.20249
1.32934
1.46972
1.62285
1.78678
1.95903
2.13754
2.32136
2.51104
2.7087
2.91774
3.14244
3.38742
3.65713
3.95533
4.28467
4.64639
5.04033
5.4651
5.91864
6.39878
6.90367
7.4319
7.98235
8.55362
9.14346
9.74794
10.3608
10.9727
11.5708
12.1389
12.6571
13.1034
13.455
13.69
13.7898
13.7416
13.5402
2.05073
2.04664
2.0165
1.96174
1.88499
1.78963
1.67932
1.55768
1.42796
1.29298
1.15503
1.01591
0.877008
0.739328
0.603608
0.470387
0.340089
0.213101
0.0898429
-0.0291607
-0.143213
-0.251388
-0.35248
-0.444988
-0.527127
-0.596912
-0.652319
-0.691561
-0.713439
-0.71775
-0.705596
-0.679421
-0.642591
-0.598512
-0.549551
-0.496259
-0.437198
-0.36937
-0.289113
-0.193249
-0.0802599
0.0487953
0.189946
0.336879
0.482432
0.620519
0.747671
0.863692
0.971464
1.07617
1.18426
1.30229
1.43587
1.58863
1.76159
1.95292
2.15854
2.37344
2.59336
2.8161
3.04221
3.27483
3.51917
3.78173
4.06954
4.38932
4.74672
5.14567
5.58779
6.07231
6.59645
7.15638
7.74849
8.37027
9.02055
9.69916
10.4061
11.1404
11.8992
12.6763
13.4613
14.2387
14.9873
15.6805
16.2874
16.7748
17.1102
17.2652
17.2194
16.9641
2.50496
2.50031
2.46076
2.3887
2.28835
2.16489
2.0237
1.86981
1.70754
1.54043
1.3712
1.20188
1.03392
0.868287
0.705602
0.54626
0.390524
0.238619
0.0908279
-0.0524211
-0.190464
-0.322308
-0.446548
-0.561294
-0.66415
-0.752258
-0.822487
-0.871803
-0.897866
-0.899817
-0.879056
-0.839627
-0.787675
-0.729733
-0.670396
-0.610707
-0.547863
-0.476074
-0.388138
-0.277431
-0.140022
0.0234293
0.206666
0.398573
0.586076
0.758211
0.909092
1.03879
1.15253
1.25916
1.3693
1.49368
1.64148
1.8187
2.02686
2.26226
2.5168
2.78049
3.04493
3.30584
3.56385
3.82392
4.09417
4.38449
4.70544
5.06712
5.47809
5.94428
6.46792
7.04704
7.67602
8.34753
9.05524
9.79557
10.5682
11.3749
12.2188
13.1018
14.0236
14.98
15.9606
16.9478
17.9153
18.8279
19.643
20.313
20.7897
21.0292
20.9987
20.6824
3.00923
3.00411
2.95169
2.85626
2.72484
2.56554
2.38626
2.19388
1.99397
1.79077
1.58735
1.38577
1.18736
0.992874
0.802665
0.616832
0.435337
0.258116
0.0851828
-0.0832626
-0.246719
-0.404252
-0.554353
-0.694787
-0.822467
-0.933403
-1.02282
-1.08558
-1.11706
-1.11464
-1.07945
-1.01792
-0.941439
-0.863021
-0.791811
-0.729759
-0.671474
-0.606092
-0.520024
-0.400139
-0.237369
-0.0305247
0.210794
0.466496
0.711726
0.926378
1.10089
1.23671
1.34372
1.43695
1.53368
1.6512
1.80454
2.00407
2.25272
2.54385
2.86169
3.18626
3.50139
3.79954
4.08229
4.35817
4.64004
4.94293
5.28246
5.67369
6.12971
6.65992
7.26792
7.9497
8.69405
9.48629
10.3147
11.1741
12.0662
12.997
13.9747
15.0068
16.0981
17.2484
18.45
19.6848
20.9217
22.1153
23.207
24.1291
24.8102
25.1819
25.1889
24.8021
3.58152
3.57586
3.50444
3.37551
3.20136
2.9949
2.76764
2.52877
2.28513
2.04145
1.80083
1.56509
1.33516
1.11132
0.89345
0.681188
0.474033
0.271483
0.0731271
-0.12123
-0.311437
-0.496827
-0.676
-0.846559
-1.0048
-1.14544
-1.26145
-1.34429
-1.385
-1.37653
-1.31768
-1.21765
-1.0979
-0.985837
-0.899945
-0.843297
-0.805214
-0.765803
-0.700508
-0.584506
-0.398094
-0.134041
0.194278
0.549558
0.881464
1.1524
1.34844
1.47616
1.55482
1.60974
1.66821
1.75719
1.90115
2.11877
2.41747
2.787
3.1969
3.60567
3.98231
4.31545
4.61065
4.88382
5.15569
5.44862
5.78508
6.18698
6.67449
7.26357
7.96163
8.76226
9.64307
10.573
11.5294
12.5057
13.5083
14.5515
15.6522
16.8266
18.0876
19.4429
20.8914
22.4185
23.9904
25.5494
27.015
28.292
29.2761
29.8595
29.9459
29.4764
4.24919
4.2422
4.1399
3.9598
3.72431
3.45416
3.16569
2.87054
2.57637
2.28781
2.00738
1.73616
1.47428
1.22127
0.976292
0.738321
0.506243
0.278959
0.0554722
-0.165004
-0.382916
-0.598171
-0.809862
-1.01587
-1.21229
-1.39275
-1.54761
-1.66345
-1.72353
-1.71076
-1.61499
-1.44555
-1.24307
-1.07076
-0.965753
-0.92989
-0.940658
-0.962577
-0.953799
-0.870046
-0.670405
-0.329886
0.139143
0.666472
1.13919
1.48645
1.69456
1.78644
1.80029
1.7776
1.75903
1.78422
1.89192
2.11694
2.48041
2.97222
3.53396
4.07155
4.52606
4.88618
5.17091
5.4115
5.64121
5.89181
6.19369
6.5772
7.0732
7.71049
8.50784
9.45955
10.5216
11.6215
12.7157
13.7994
14.8921
16.0234
17.2239
18.5216
19.9414
21.5032
23.2195
25.0878
27.0778
29.118
31.0945
32.8768
34.3188
35.2526
35.5034
34.94
5.05807
5.04566
4.8873
4.62376
4.29705
3.93963
3.57317
3.2107
2.85931
2.52224
2.20048
1.8936
1.60047
1.31949
1.0489
0.786833
0.531423
0.280848
0.0333743
-0.212573
-0.458311
-0.704727
-0.951987
-1.19904
-1.44282
-1.67697
-1.89001
-2.06293
-2.16701
-2.16453
-2.01842
-1.72108
-1.34483
-1.05882
-0.932046
-0.949382
-1.0601
-1.20363
-1.31513
-1.32255
-1.14567
-0.710886
-5.85496e-05
0.861897
1.57744
2.02075
2.20791
2.20892
2.0982
1.93934
1.78662
1.69222
1.71357
1.91554
2.35834
3.05653
3.90555
4.65682
5.20548
5.56522
5.79448
5.95456
6.09638
6.26088
6.48443
6.80514
7.26815
7.92661
8.83143
9.99768
11.3451
12.6779
13.9169
15.0796
16.22
17.3953
18.6549
20.0405
21.59
23.3405
25.3285
27.5812
30.0922
32.7779
35.4528
37.9512
40.0927
41.6287
42.2326
41.585
6.09596
6.05909
5.78594
5.37848
4.91382
4.43798
3.97478
3.53482
3.12149
2.73456
2.37203
2.03119
1.70907
1.4027
1.10918
0.825716
0.549611
0.278248
0.00906703
-0.260443
-0.532719
-0.810052
-1.09438
-1.38689
-1.68715
-1.99153
-2.29013
-2.56146
-2.76386
-2.82505
-2.63954
-2.11017
-1.31659
-0.817535
-0.690798
-0.834378
-1.13227
-1.49072
-1.82629
-2.04038
-1.99228
-1.48934
-0.356868
1.26814
2.40765
2.92381
2.98922
2.79223
2.46538
2.09221
1.73018
1.4335
1.27509
1.3673
1.86848
2.92358
4.41781
5.53375
6.15678
6.43203
6.51752
6.52382
6.51876
6.54479
6.63514
6.82809
7.18151
7.78787
8.77841
10.2747
12.1896
13.8691
15.2279
16.3916
17.4973
18.6455
19.9041
21.3232
22.9489
24.8355
27.0558
29.7022
32.8548
36.453
40.0648
43.5387
46.7381
49.3464
50.7635
50.1607
7.56668
7.41247
6.87767
6.21532
5.54648
4.91795
4.3428
3.82048
3.34562
2.91168
2.51233
2.1418
1.795
1.46743
1.15501
0.854043
0.561024
0.272571
-0.0146921
-0.304241
-0.599752
-0.905192
-1.22488
-1.56343
-1.92542
-2.31426
-2.72937
-3.15905
-3.56387
-3.84063
-3.75564
-2.87956
-0.864114
-0.0400052
-0.0601835
-0.497051
-1.11712
-1.81063
-2.51221
-3.1356
-3.49364
-3.17417
-1.42279
2.37354
4.13552
4.47594
4.14837
3.56255
2.8993
2.2291
1.57971
0.975791
0.475843
0.230263
0.581098
2.15835
5.47484
7.12043
7.60888
7.57207
7.35457
7.10943
6.89637
6.7361
6.63818
6.61998
6.73072
7.09594
7.99712
9.94912
13.3729
15.5219
16.8198
17.7869
18.7133
19.7366
20.922
22.3081
23.9319
25.8501
28.1691
31.0941
34.9754
40.1082
44.8749
49.5211
54.2343
58.779
62.2024
62.3962
10.0772
9.31367
8.15278
7.06131
6.12087
5.32082
4.63455
4.03759
3.51061
3.03884
2.61095
2.21808
1.85313
1.5102
1.18425
0.870828
0.565779
0.265111
-0.0352193
-0.339504
-0.652521
-0.979837
-1.32823
-1.70624
-2.12499
-2.59912
-3.14758
-3.79236
-4.54822
-5.37703
-6.01082
-5.28956
1.30386
1.95325
1.17041
0.104069
-0.996237
-2.11889
-3.31069
-4.61287
-5.97052
-6.92088
-5.43348
6.40829
7.91021
6.98976
5.67922
4.4442
3.34305
2.33588
1.36365
0.368275
-0.689756
-1.76566
-2.47239
-1.11149
8.93776
10.3731
9.81709
8.97202
8.23116
7.64858
7.19773
6.83742
6.52622
6.22601
5.91329
5.63207
5.70245
7.50385
16.3917
18.4
18.8875
19.2404
19.7894
20.5938
21.6507
22.9504
24.4904
26.287
28.4093
31.1085
35.2935
44.2897
49.858
55.4061
61.9725
69.8253
78.2907
83.4149
15.9681
11.7867
9.32765
7.68956
6.49288
5.55968
4.79755
4.15381
3.59601
3.10274
2.6591
2.25415
1.87952
1.5285
1.19548
0.875569
0.564258
0.25721
-0.0499953
-0.362125
-0.684617
-1.02404
-1.3888
-1.79026
-2.24467
-2.77679
-3.42689
-4.26552
-5.42727
-7.19399
-10.217
-16.1552
12.0313
6.00891
2.80928
0.754155
-0.843062
-2.32741
-3.95001
-6.01001
-9.03361
-14.1776
-24.3542
25.3323
15.1729
10.0651
7.10121
5.13301
3.65145
2.3924
1.18098
-0.148892
-1.82946
-4.29299
-8.50304
-16.8924
24.8045
16.4931
12.4414
10.2217
8.87975
7.99798
7.3687
6.86801
6.39845
5.85008
5.05059
3.66197
0.915249
-5.14583
29.3167
23.4678
21.1489
20.4113
20.4977
21.0869
22.0296
23.2463
24.6794
26.2547
27.8186
28.9832
28.6828
53.4071
54.8697
59.8239
67.8574
79.9889
99.1894
132.914
875.421
827.847
777.571
724.748
669.557
612.199
552.884
491.829
429.253
365.373
300.403
234.549
168.016
101.001
33.699
4.21161
4.03038
3.80112
3.53339
3.23748
2.92328
2.59947
2.27305
1.94908
1.63086
1.32002
1.0169
0.720758
0.430118
0.142974
7.08101
6.77058
6.37792
5.92031
5.41614
4.88284
4.33543
3.78572
3.24215
2.70992
2.1915
1.68708
1.19516
0.712981
0.23696
10.0464
9.59298
9.01964
8.35376
7.62391
6.85651
6.07368
5.29228
4.52386
3.77517
3.04894
2.34475
1.6598
0.989675
0.328838
13.1538
12.5352
11.7538
10.8511
9.86919
8.84557
7.81047
6.78584
5.78585
4.81796
3.88435
2.98315
2.10962
1.25706
0.417548
16.458
15.64
14.6091
13.4276
12.156
10.846
9.5367
8.25472
7.0157
5.82648
4.68734
3.59386
2.53843
1.5114
0.501834
20.0277
18.9575
17.6148
16.0938
14.481
12.8455
11.2354
9.68052
8.19568
6.78489
5.44466
4.16651
2.93885
1.74825
0.580223
23.9529
22.5472
20.7984
18.8513
16.8287
14.8193
12.8787
11.036
9.30145
7.67269
6.13987
4.68864
3.30219
1.96251
0.651031
28.3571
26.48
24.1802
21.6842
19.163
16.7241
14.4239
12.2833
10.3012
8.46442
6.75344
5.14596
3.61876
2.14857
0.712421
33.4172
30.8354
27.7581
24.5423
21.4148
18.4901
15.8094
13.3718
11.1555
9.13023
7.26342
5.52294
3.87827
2.30059
0.762499
39.3973
35.6856
31.4739
27.3118
23.4632
20.0121
16.9519
14.2388
11.8185
9.63747
7.64698
5.80407
4.07077
2.413
0.799478
46.7018
41.0351
35.1398
29.7673
25.1138
21.1428
17.7468
14.8129
12.2423
9.95402
7.88287
5.97555
4.18769
2.48116
0.821884
55.8994
46.6129
38.2827
31.5034
26.0818
21.6981
18.0797
15.0235
12.3834
10.0534
7.95483
6.02749
4.22325
2.50203
0.828777
67.295
51.2339
39.8743
31.8813
26.0115
21.488
17.85
14.8178
12.2142
9.92109
7.85553
5.95629
4.17575
2.4749
0.819965
77.1657
51.1523
38.099
30.1354
24.5945
20.3923
17.0143
14.1833
11.7344
9.56114
7.58982
5.76633
4.04854
2.40183
0.796141
0.207082
0.621122
1.03473
1.44741
1.85836
2.2663
2.66935
3.06504
3.45061
3.82429
4.18883
4.56039
4.99042
5.61885
6.80411
0.21718
0.651353
1.08487
1.51696
1.94627
2.37052
2.78595
3.18656
3.56294
3.90071
4.17797
4.36001
4.38127
4.06421
2.72792
0.227403
0.682026
1.13598
1.58839
2.03764
2.4808
2.91277
3.3248
3.70199
4.01908
4.23316
4.27114
4.00692
3.21726
1.51241
0.237748
0.713148
1.18814
1.66199
2.13319
2.59879
3.05336
3.48713
3.88267
4.20887
4.41052
4.39201
3.9974
3.00574
1.2135
0.248154
0.744541
1.24106
1.7374
2.23259
2.72437
3.20829
3.67592
4.11142
4.48504
4.74062
4.77394
4.4024
3.35009
1.35538
0.2585
0.775828
1.29407
1.81358
2.33429
2.85533
3.37446
3.88692
4.38305
4.84307
5.22492
5.43692
5.28003
4.34881
1.99447
0.268613
0.806463
1.34617
1.88889
2.43571
2.98754
3.54515
4.10914
4.67968
5.25527
5.82695
6.35599
6.69522
6.33571
3.76864
0.278286
0.835794
1.39614
1.96133
2.53358
3.11564
3.71131
4.32669
4.97268
5.67007
6.4584
7.40676
8.59545
9.85544
8.99426
0.287302
0.863135
1.44272
2.02881
2.62459
3.23422
3.86368
4.52284
5.22988
6.0216
6.97851
8.29043
10.446
14.8479
26.1136
0.295456
0.887848
1.48476
2.0895
2.70594
3.33895
3.99532
4.6856
5.42811
6.25827
7.25188
8.58806
10.7361
15.0736
26.2028
0.302576
0.9094
1.52132
2.14204
2.77572
3.42737
4.1033
4.81196
5.56534
6.38127
7.28715
8.32165
9.50556
10.5823
9.291
0.308526
0.927387
1.55175
2.18551
2.83295
3.49884
4.18844
4.90715
5.65896
6.44166
7.23292
7.95124
8.3492
7.73518
4.38637
0.313213
0.941533
1.5756
2.21943
2.87731
3.55376
4.25326
4.97921
5.73097
6.49595
7.22915
7.80308
7.89539
6.78702
3.24825
0.316575
0.951666
1.59263
2.24354
2.9087
3.5926
4.29961
5.03321
5.79366
6.57213
7.33578
7.98919
8.27517
7.52646
4.16403
0.318584
0.957699
1.60271
2.2577
2.92702
3.61528
4.32738
5.06844
5.84368
6.65845
7.51874
8.43028
9.37325
10.0808
8.52807
0.319233
0.959617
1.60581
2.26186
2.93211
3.62131
4.33493
5.07981
5.8661
6.71299
7.6659
8.84935
10.6346
14.2044
23.6582
0.318542
0.957478
1.60203
2.25612
2.92397
3.61029
4.32064
5.06227
5.84631
6.69375
7.65273
8.85031
10.6563
14.2417
23.6821
0.316556
0.951419
1.59159
2.24076
2.90293
3.58248
4.28451
5.01515
5.78234
6.59688
7.47368
8.42854
9.44202
10.2127
8.62391
0.313345
0.941653
1.57485
2.21634
2.86974
3.53899
4.22839
4.94252
5.68532
6.45662
7.24021
7.96583
8.39612
7.82189
4.43985
0.309005
0.928467
1.55232
2.1836
2.82549
3.48141
4.155
4.84984
5.56835
6.30768
7.04683
7.70799
8.04759
7.38077
4.07348
0.303647
0.912211
1.5246
2.14343
2.77143
3.41149
4.06674
4.7406
5.43677
6.15869
6.90743
7.67327
8.39775
8.77311
7.06788
0.297402
0.893276
1.49237
2.09685
2.70893
3.33094
3.96545
4.61576
5.28718
5.99091
6.75597
7.66711
8.99013
11.6101
18.6944
0.290405
0.872085
1.45636
2.04494
2.63947
3.24161
3.85308
4.47615
5.11503
5.78039
6.50289
7.37474
8.68163
11.3465
18.5792
0.282799
0.84907
1.41734
1.98884
2.56468
3.14573
3.73257
4.32542
4.92437
5.53008
6.14591
6.78006
7.42985
7.91066
6.66525
0.274719
0.824651
1.37603
1.92968
2.4862
3.04575
3.60777
4.17036
4.72888
5.27263
5.77605
6.17436
6.29522
5.67335
3.14355
0.266288
0.799208
1.33311
1.8685
2.40556
2.94398
3.48249
4.018
4.54351
5.04306
5.47904
5.76118
5.67624
4.76084
2.23103
0.257612
0.773062
1.28914
1.80611
2.32392
2.84207
3.35921
3.87249
4.37607
4.8575
5.28873
5.60277
5.6338
4.96935
2.66028
0.248773
0.74646
1.24453
1.74308
2.242
2.7408
3.23853
3.73363
4.22389
4.70669
5.17965
5.64078
6.07419
6.31985
5.18076
0.239831
0.719578
1.19955
1.67977
2.1601
2.6402
3.1196
3.59804
4.07681
4.56259
5.07864
5.69792
6.64482
8.63182
14.1056
0.230823
0.692524
1.15436
1.61633
2.07831
2.54004
3.00124
3.46212
3.92478
4.39737
4.90581
5.52743
6.493
8.52222
14.0643
0.221772
0.66536
1.10906
1.55286
1.99665
2.44017
2.88304
3.32488
3.76575
4.20717
4.65427
5.11793
5.60237
5.9729
5.0472
0.212684
0.638103
1.06366
1.48936
1.91514
2.34071
2.76548
3.18823
3.60623
4.01292
4.39111
4.69388
4.79072
4.3236
2.3971
0.203556
0.610739
1.01812
1.42579
1.83372
2.24174
2.64926
3.05479
3.45449
3.83836
4.18022
4.41273
4.3706
3.68765
1.73841
0.194373
0.583222
0.97237
1.36199
1.75221
2.14306
2.53435
2.92532
3.31367
3.69289
4.04515
4.32219
4.39539
3.93097
2.14051
0.185115
0.555483
0.926266
1.29775
1.67022
2.04403
2.41961
2.79761
3.17909
3.56605
3.96221
4.37312
4.79341
5.09506
4.27212
0.175757
0.527444
0.879658
1.23278
1.58726
1.94372
2.30314
2.66741
3.04065
3.43274
3.86894
4.41744
5.27371
7.04
11.7656
0.166275
0.499027
0.832399
1.16684
1.5029
1.8413
2.18323
2.5309
2.88904
3.26874
3.69756
4.24794
5.12193
6.92967
11.7239
0.156648
0.470169
0.784376
1.09976
1.41687
1.7364
2.05929
2.38705
2.7224
3.07055
3.44168
3.85359
4.32158
4.74524
4.13644
0.146861
0.440824
0.73552
1.03145
1.32913
1.62911
1.9319
2.23788
2.5468
2.85632
3.1574
3.42021
3.5519
3.27769
1.8712
0.136902
0.410961
0.68579
0.961897
1.23977
1.51983
1.80226
2.08661
2.37072
2.64788
2.89963
3.07781
3.06402
2.59636
1.22808
0.126762
0.380555
0.635156
0.891095
1.14887
1.40887
1.67125
1.93546
2.19939
2.45702
2.69287
2.86864
2.89125
2.54042
1.34038
0.116431
0.349578
0.583579
0.818998
1.05639
1.29624
1.53891
1.78446
2.0324
2.28122
2.52776
2.76578
2.97773
3.07413
2.48093
0.105901
0.318001
0.531002
0.745516
0.96217
1.18161
1.40453
1.63177
1.86475
2.10695
2.36851
2.68096
3.14437
4.08666
6.6552
0.09516
0.285791
0.477362
0.67053
0.865996
1.06454
1.26711
1.47503
1.69066
1.91918
2.17385
2.49124
2.97838
3.96977
6.61257
0.0842012
0.252921
0.422603
0.593933
0.767662
0.944651
1.12594
1.31291
1.50757
1.71322
1.93557
2.18357
2.46214
2.70595
2.3454
0.0730202
0.219375
0.36669
0.515657
0.667047
0.821748
0.980802
1.14541
1.3168
1.49561
1.67944
1.8546
1.96999
1.86176
1.08529
0.0616186
0.185158
0.309622
0.435686
0.564116
0.695803
0.831779
0.973161
1.12085
1.27448
1.42928
1.56711
1.63307
1.48159
0.793293
0.0500054
0.150294
0.251434
0.354061
0.45891
0.566862
0.67898
0.796508
0.920735
1.05251
1.19087
1.32947
1.44711
1.47415
1.12508
0.038198
0.114834
0.192208
0.270884
0.351537
0.435012
0.522406
0.615181
0.715355
0.825942
0.952242
1.10636
1.32401
1.72788
2.77705
0.0262233
0.078857
0.132072
0.186327
0.242193
0.300427
0.36208
0.428697
0.502725
0.58844
0.694264
0.839118
1.07156
1.53341
2.69915
0.0141177
0.042474
0.0712112
0.100646
0.131198
0.163457
0.198292
0.23705
0.281964
0.336958
0.409157
0.511025
0.659746
0.850097
0.864134
0.00192756
0.0058248
0.00986279
0.0141844
0.0190115
0.0246912
0.031768
0.041115
0.0541903
0.073519
0.103429
0.150377
0.219007
0.289192
0.239023
-0.0102922
-0.0309231
-0.051684
-0.0726299
-0.0937693
-0.115048
-0.136338
-0.157417
-0.177934
-0.197275
-0.21414
-0.22534
-0.222825
-0.188146
-0.0889611
-0.0224798
-0.0675811
-0.113103
-0.15931
-0.206453
-0.254782
-0.304592
-0.356342
-0.410878
-0.469791
-0.535648
-0.610583
-0.686998
-0.71028
-0.471625
-0.0345688
-0.103947
-0.174045
-0.245339
-0.318312
-0.393483
-0.471496
-0.55333
-0.640779
-0.737479
-0.85085
-0.99479
-1.18806
-1.41431
-1.34358
-0.0464903
-0.139811
-0.234153
-0.330199
-0.42864
-0.530207
-0.635742
-0.746411
-0.864246
-0.993579
-1.14482
-1.34472
-1.66622
-2.32453
-4.0325
-0.0581749
-0.174965
-0.293076
-0.413391
-0.536792
-0.664167
-0.796414
-0.934504
-1.07972
-1.23445
-1.40497
-1.61019
-1.91045
-2.5058
-4.10199
-0.069553
-0.209199
-0.350464
-0.494432
-0.642177
-0.794733
-0.953015
-1.11764
-1.28855
-1.46434
-1.641
-1.80962
-1.94973
-1.99199
-1.57098
-0.0805552
-0.242304
-0.40597
-0.572843
-0.74421
-0.921309
-1.1052
-1.29638
-1.49398
-1.69361
-1.88257
-2.02883
-2.05692
-1.79986
-0.929477
-0.0911132
-0.274073
-0.459243
-0.648123
-0.842248
-1.04316
-1.25229
-1.47066
-1.69797
-1.93026
-2.15378
-2.33006
-2.3621
-2.03361
-0.974471
-0.10116
-0.304303
-0.50993
-0.719751
-0.935562
-1.15927
-1.39294
-1.63869
-1.89848
-2.17295
-2.45774
-2.73141
-2.9176
-2.77473
-1.63736
-0.110635
-0.332804
-0.557696
-0.787207
-1.02337
-1.26846
-1.52517
-1.79695
-2.08875
-2.40843
-2.76939
-3.19346
-3.70156
-4.20641
-3.7845
-0.119482
-0.359408
-0.602245
-0.850029
-1.10496
-1.36956
-1.6469
-1.94128
-2.25962
-2.61519
-3.03716
-3.59709
-4.48772
-6.2816
-10.8948
-0.12766
-0.383985
-0.643349
-0.907871
-1.17983
-1.46177
-1.75677
-2.06892
-2.4046
-2.77581
-3.20905
-3.77099
-4.64652
-6.39878
-10.9396
-0.135138
-0.406444
-0.680859
-0.960535
-1.24773
-1.5449
-1.8547
-2.18017
-2.52487
-2.89329
-3.29151
-3.72706
-4.19638
-4.57935
-3.93069
-0.141899
-0.426736
-0.714706
-1.00796
-1.3087
-1.61921
-1.94171
-2.27802
-2.62861
-2.99001
-3.34799
-3.65959
-3.80613
-3.47622
-1.93057
-0.147936
-0.444844
-0.744873
-1.05015
-1.36286
-1.68518
-2.0191
-2.36592
-2.72479
-3.08905
-3.43662
-3.70667
-3.74667
-3.2173
-1.53838
-0.153252
-0.460776
-0.77138
-1.08717
-1.41032
-1.74305
-2.08749
-2.44539
-2.81719
-3.1996
-3.57902
-3.91342
-4.08253
-3.75662
-2.11689
-0.157856
-0.474561
-0.794271
-1.11906
-1.45111
-1.79275
-2.14649
-2.51516
-2.90216
-3.31217
-3.75262
-4.23489
-4.76208
-5.20822
-4.4968
-0.161767
-0.486252
-0.81362
-1.14589
-1.48521
-1.83401
-2.19509
-2.57216
-2.9711
-3.40354
-3.89708
-4.5251
-5.49781
-7.4636
-12.6281
-0.165014
-0.495932
-0.829554
-1.16779
-1.51272
-1.86669
-2.23252
-2.61392
-3.01673
-3.45242
-3.94807
-4.57586
-5.5438
-7.49748
-12.6411
-0.167639
-0.503725
-0.842268
-1.18502
-1.53391
-1.89112
-2.25911
-2.64075
-3.03946
-3.45959
-3.90722
-4.3903
-4.90515
-5.31599
-4.53916
-0.169701
-0.509803
-0.852042
-1.19797
-1.54931
-1.90801
-2.27616
-2.65567
-3.04727
-3.4476
-3.84166
-4.1826
-4.33862
-3.95918
-2.20206
-0.171274
-0.514387
-0.859239
-1.20713
-1.55957
-1.9183
-2.28527
-2.66215
-3.04894
-3.43989
-3.81293
-4.10324
-4.14386
-3.55901
-1.70312
-0.172451
-0.517754
-0.86431
-1.21311
-1.56542
-1.92284
-2.28746
-2.6617
-3.04764
-3.44456
-3.84158
-4.19718
-4.38337
-4.04143
-2.28076
-0.173345
-0.520241
-0.867803
-1.21664
-1.56768
-1.92234
-2.28291
-2.65307
-3.03867
-3.44908
-3.8989
-4.4087
-4.98955
-5.509
-4.8034
-0.174092
-0.522254
-0.87039
-1.21863
-1.56739
-1.91769
-2.27167
-2.63365
-3.01243
-3.42616
-3.91447
-4.57081
-5.63826
-7.8272
-13.5074
-0.174851
-0.524276
-0.872887
-1.22022
-1.56601
-1.91046
-2.2548
-2.60252
-2.96185
-3.35137
-3.81329
-4.44734
-5.50805
-7.72079
-13.4642
-0.175799
-0.526852
-0.876253
-1.22286
-1.56553
-1.90325
-2.23555
-2.56327
-2.89023
-3.22625
-3.59249
-4.02749
-4.5777
-5.16239
-4.65787
-0.177121
-0.530563
-0.881541
-1.22821
-1.56844
-1.89977
-2.21942
-2.5245
-2.81224
-3.0801
-3.32387
-3.52753
-3.62333
-3.36028
-1.97037
-0.178995
-0.535972
-0.889802
-1.238
-1.5775
-1.90435
-2.21337
-2.4977
-2.748
-2.9506
-3.08303
-3.10241
-2.91807
-2.34066
-1.05425
-0.181567
-0.543556
-0.901952
-1.25382
-1.59532
-1.92126
-2.2244
-2.49449
-2.71682
-2.86976
-2.92063
-2.81869
-2.48572
-1.81333
-0.70902
-0.184929
-0.553621
-0.918619
-1.27679
-1.62391
-1.95397
-2.25834
-2.5244
-2.73377
-2.85975
-2.86427
-2.69534
-2.28901
-1.58591
-0.581638
-0.189098
-0.566238
-0.940004
-1.30742
-1.6643
-2.00449
-2.31883
-2.59362
-2.80856
-2.93402
-2.92829
-2.73681
-2.29833
-1.56761
-0.564661
-0.193995
-0.581185
-0.965777
-1.34534
-1.71623
-2.0729
-2.40672
-2.70435
-2.94544
-3.09931
-3.12123
-2.94975
-2.51052
-1.73833
-0.635427
-0.199442
-0.597923
-0.995025
-1.38923
-1.77802
-2.15715
-2.51967
-2.85428
-3.1428
-3.35616
-3.44839
-3.34854
-2.95387
-2.13867
-0.822805
-0.205164
-0.615603
-1.02626
-1.43687
-1.84647
-2.25288
-2.65194
-3.03615
-3.39228
-3.69705
-3.90884
-3.95198
-3.68917
-2.88665
-1.23914
-0.210805
-0.633119
-1.0575
-1.48518
-1.91709
-2.35367
-2.79448
-3.23743
-3.67732
-4.1024
-4.48629
-4.76778
-4.79919
-4.22135
-2.23234
-0.215951
-0.649181
-1.08643
-1.53051
-1.98442
-2.45147
-2.93545
-3.44076
-3.97255
-4.53622
-5.13474
-5.75711
-6.33216
-6.53598
-4.94461
-0.220169
-0.662436
-1.1106
-1.56899
-2.04258
-2.53747
-3.06154
-3.62561
-4.2455
-4.9457
-5.7665
-6.7792
-8.12264
-10.0972
-13.4192
54.4413
40.6035
32.2405
26.4927
22.1607
18.6882
15.7838
13.2774
11.0608
9.06
7.22103
5.5027
3.87176
2.30014
0.762949
19.8944
25.9327
24.7029
22.0352
19.267
16.6934
14.3547
12.2287
10.2813
8.47918
6.79257
5.19557
3.66529
2.18114
0.72407
8.78527
16.3091
18.1635
17.6474
16.238
14.5355
12.7777
11.0559
9.40089
7.81806
6.30184
4.84206
3.42676
2.04332
0.678983
4.65291
10.6224
13.2701
13.8797
13.4125
12.4158
11.1756
9.83653
8.47025
7.11064
5.77186
4.45764
3.16607
1.8922
0.629472
2.83741
7.24247
9.79189
10.8596
10.9545
10.4651
9.64201
8.63601
7.53492
6.38868
5.22478
4.05746
2.89307
1.73335
0.577324
1.90364
5.15112
7.34258
8.51502
8.90225
8.74611
8.23536
7.50144
6.63089
5.67894
4.68004
3.6552
2.61682
1.5719
0.524216
1.35861
3.79307
5.60088
6.71565
7.22724
7.27328
6.98363
6.46169
5.78333
5.00175
4.15329
3.26232
2.34508
1.41238
0.471621
1.00991
2.87018
4.34041
5.33511
5.87546
6.03351
5.89315
5.53051
5.0074
4.37097
3.65601
2.88767
2.08407
1.25843
0.420748
0.772027
2.21811
3.41012
4.27003
4.7891
5.00093
4.95696
4.71073
4.31012
3.79471
3.19577
2.53747
1.83835
1.11282
0.372524
0.602169
1.74246
2.71043
3.44162
3.91606
4.14595
4.1612
3.99812
3.69253
3.27641
2.77673
2.2156
1.61094
0.977468
0.327596
0.476784
1.38645
2.17516
2.79148
3.21279
3.43999
3.48924
3.38443
3.15167
2.81612
2.40035
1.92393
1.40354
0.853494
0.286358
0.38188
1.11443
1.75957
2.27675
2.64431
2.85757
2.92425
2.85956
2.68217
2.4115
2.06607
1.66278
1.21672
0.741381
0.248992
0.308647
0.903102
1.43284
1.86589
2.18295
2.37692
2.45047
2.41292
2.27743
2.05879
1.77196
1.43131
1.05022
0.641101
0.21551
0.251271
0.736705
1.17324
1.53557
1.80705
1.97988
2.05381
2.03429
1.93043
1.7534
1.5152
1.2279
0.90319
0.552251
0.185795
0.205775
0.60426
0.965157
1.26832
1.49965
1.65149
1.72204
1.7142
1.63421
1.49047
1.29254
1.05047
0.774361
0.474171
0.159643
0.16935
0.497913
0.797161
1.05095
1.24744
1.37954
1.4447
1.4442
1.38225
1.26516
1.10052
0.896662
0.662248
0.406044
0.136795
0.139964
0.411919
0.660726
0.873363
1.03993
1.15407
1.21295
1.21685
1.16858
1.07286
0.935727
0.764064
0.565262
0.346972
0.116961
0.116113
0.341996
0.549404
0.727766
0.86881
0.966955
1.01936
1.02572
0.987857
0.909316
0.794902
0.650306
0.481805
0.296037
0.0998408
0.0966656
0.2849
0.458249
0.608078
0.727478
0.811599
0.857749
0.865284
0.835371
0.770674
0.675028
0.553142
0.410335
0.25234
0.0851407
0.0807571
0.238138
0.383423
0.509517
0.610639
0.682606
0.722944
0.730848
0.707033
0.653516