/*--------------------------------*- C++ -*----------------------------------*\
| =========                 |                                                 |
| \\      /  F ield         | OpenFOAM: The Open Source CFD Toolbox           |
|  \\    /   O peration     | Version:  5.x                                   |
|   \\  /    A nd           | Web:      www.OpenFOAM.org                      |
|    \\/     M anipulation  |                                                 |
\*---------------------------------------------------------------------------*/
FoamFile
{
    version     2.0;
    format      ascii;
    class       volScalarField;
    location    "16.7";
    object      T;
}
// * * * * * * * * * * * * * * * * * * * * * * * * * * * * * * * * * * * * * //

dimensions      [0 0 0 1 0 0 0];

internalField   nonuniform List<scalar> 
6300
(
10.0477
10.143
10.2378
10.3319
10.425
10.5168
10.607
10.6954
10.7816
10.8654
10.9466
11.025
11.1002
11.1722
11.2408
10.0478
10.1434
10.2385
10.3329
10.4263
10.5184
10.6089
10.6975
10.784
10.8681
10.9495
11.028
11.1034
11.1755
11.2442
10.0481
10.1442
10.2399
10.3349
10.4288
10.5215
10.6125
10.7017
10.7887
10.8733
10.9552
11.0341
11.1098
11.1822
11.2511
10.0486
10.1455
10.2421
10.3379
10.4327
10.5262
10.6181
10.7081
10.7959
10.8812
10.9638
11.0433
11.1196
11.1924
11.2615
10.0491
10.1472
10.2449
10.3419
10.4378
10.5324
10.6255
10.7166
10.8055
10.8918
10.9754
11.0558
11.1328
11.2062
11.2757
10.0498
10.1494
10.2485
10.3469
10.4442
10.5403
10.6347
10.7273
10.8175
10.9053
10.9901
11.0717
11.1497
11.2238
11.2939
10.0507
10.1519
10.2528
10.3529
10.4519
10.5497
10.6459
10.7402
10.8322
10.9216
11.008
11.091
11.1703
11.2455
11.3163
10.0517
10.1549
10.2577
10.3598
10.461
10.5608
10.659
10.7553
10.8494
10.9408
11.0292
11.1141
11.1951
11.2716
11.3433
10.0528
10.1583
10.2634
10.3678
10.4712
10.5734
10.674
10.7727
10.8691
10.963
11.0538
11.1411
11.2242
11.3025
11.3755
10.0541
10.1621
10.2698
10.3767
10.4828
10.5875
10.6908
10.7922
10.8915
10.9882
11.0819
11.1721
11.258
11.3388
11.4136
10.0555
10.1664
10.2768
10.3866
10.4955
10.6032
10.7094
10.8139
10.9164
11.0164
11.1136
11.2074
11.2969
11.3811
11.4585
10.057
10.1709
10.2845
10.3974
10.5094
10.6203
10.7298
10.8376
10.9436
11.0474
11.1486
11.2468
11.3411
11.43
11.5115
10.0587
10.1759
10.2928
10.409
10.5244
10.6387
10.7517
10.8632
10.973
11.0809
11.1867
11.2901
11.3905
11.4863
11.5746
10.0605
10.1813
10.3017
10.4215
10.5405
10.6585
10.7752
10.8904
11.0042
11.1164
11.2271
11.3365
11.4443
11.5501
11.6504
10.0624
10.187
10.3112
10.4349
10.5577
10.6794
10.8
10.9191
11.0369
11.1534
11.2689
11.3842
11.5003
11.6192
11.7413
11.3005
11.3523
11.4017
11.4488
11.4934
11.5359
11.5761
11.6143
11.6505
11.685
11.7178
11.7491
11.7792
11.808
11.8359
11.863
11.8893
11.9152
11.9407
11.966
11.9912
12.0165
12.042
12.0678
12.094
12.1206
12.1479
12.1758
12.2044
12.2337
12.2638
12.2945
12.3259
12.358
12.3907
12.424
12.4577
12.4919
12.5263
12.5609
12.5956
12.6303
12.6647
12.6988
12.7323
12.7652
12.7973
12.8283
12.8582
12.8868
12.9139
12.9394
12.963
12.9846
13.0041
13.021
13.0353
13.0467
13.0549
13.0597
13.0607
13.0577
13.0503
13.0382
13.021
12.9983
12.9697
12.9347
12.8927
12.8433
12.7858
12.7195
12.6438
12.558
12.4613
12.3528
12.2318
12.0974
11.9488
11.785
11.6052
11.4086
11.1943
10.9615
10.7097
10.4383
10.1467
9.83488
9.50263
9.15007
11.3039
11.3558
11.4051
11.4521
11.4967
11.5389
11.579
11.617
11.653
11.6873
11.7199
11.751
11.7808
11.8094
11.837
11.8638
11.89
11.9156
11.9409
11.966
11.991
12.0161
12.0414
12.0671
12.0931
12.1197
12.1469
12.1748
12.2033
12.2326
12.2626
12.2934
12.3249
12.3571
12.3898
12.4232
12.4571
12.4913
12.5259
12.5607
12.5956
12.6305
12.6651
12.6994
12.7332
12.7663
12.7986
12.8299
12.86
12.8888
12.9162
12.9419
12.9658
12.9877
13.0074
13.0247
13.0394
13.0512
13.0598
13.065
13.0664
13.0639
13.057
13.0454
13.0288
13.0067
12.9788
12.9445
12.9033
12.8548
12.7982
12.7329
12.6583
12.5736
12.478
12.3707
12.251
12.1178
11.9704
11.8079
11.6294
11.4339
11.2207
10.9889
10.7379
10.467
10.1759
9.86416
9.53176
9.17878
11.3109
11.3627
11.412
11.4588
11.5031
11.5451
11.5848
11.6224
11.6581
11.6919
11.724
11.7546
11.784
11.8121
11.8393
11.8656
11.8913
11.9165
11.9414
11.966
11.9907
12.0154
12.0404
12.0657
12.0915
12.1179
12.1449
12.1726
12.2011
12.2303
12.2604
12.2912
12.3228
12.3551
12.388
12.4216
12.4557
12.4902
12.5251
12.5603
12.5956
12.6308
12.6659
12.7007
12.7349
12.7685
12.8012
12.833
12.8636
12.8928
12.9207
12.9469
12.9713
12.9938
13.0142
13.0321
13.0475
13.06
13.0694
13.0754
13.0778
13.0762
13.0702
13.0597
13.0443
13.0234
12.9969
12.9641
12.9245
12.8777
12.823
12.7597
12.6872
12.6047
12.5114
12.4065
12.2892
12.1586
12.0138
11.8538
11.6777
11.4846
11.2736
11.0438
10.7945
10.5249
10.2345
9.92311
9.59043
9.2366
11.3214
11.3732
11.4224
11.4689
11.5129
11.5544
11.5936
11.6307
11.6657
11.6988
11.7302
11.7602
11.7887
11.8162
11.8426
11.8683
11.8933
11.9178
11.942
11.966
11.9901
12.0143
12.0387
12.0636
12.089
12.115
12.1417
12.1692
12.1976
12.2268
12.2569
12.2878
12.3195
12.352
12.3853
12.4191
12.4536
12.4885
12.5239
12.5596
12.5954
12.6313
12.6671
12.7025
12.7375
12.7718
12.8052
12.8376
12.8689
12.8988
12.9273
12.9543
12.9795
13.0029
13.0242
13.0431
13.0596
13.0732
13.0838
13.0911
13.0947
13.0945
13.09
13.0811
13.0673
13.0483
13.0238
12.9932
12.9561
12.9119
12.8599
12.7997
12.7303
12.6511
12.5613
12.4601
12.3465
12.2197
12.0788
11.9227
11.7505
11.5611
11.3535
11.1268
10.8801
10.6125
10.3235
10.0125
9.67945
9.32433
11.3358
11.3875
11.4365
11.4827
11.5262
11.5671
11.6056
11.6418
11.6759
11.7081
11.7386
11.7675
11.7951
11.8216
11.8471
11.8717
11.8958
11.9194
11.9428
11.966
11.9892
12.0126
12.0364
12.0606
12.0854
12.111
12.1373
12.1646
12.1928
12.2219
12.2521
12.2831
12.3151
12.3479
12.3815
12.4157
12.4506
12.4861
12.5221
12.5585
12.5951
12.6319
12.6686
12.705
12.7409
12.7762
12.8105
12.8438
12.8759
12.9068
12.9362
12.9641
12.9903
13.0148
13.0373
13.0577
13.0756
13.0907
13.1029
13.1118
13.1172
13.1187
13.1161
13.1092
13.0976
13.0811
13.0592
13.0316
12.9977
12.957
12.9088
12.8526
12.7874
12.7127
12.6276
12.5312
12.4227
12.3011
12.1655
12.0147
11.8478
11.6636
11.4609
11.2386
10.9956
10.7309
10.4438
10.1337
9.80012
9.44324
11.3541
11.4059
11.4545
11.5002
11.5431
11.5832
11.6207
11.6558
11.6888
11.7198
11.749
11.7767
11.8031
11.8283
11.8526
11.8761
11.899
11.9214
11.9436
11.9658
11.988
12.0104
12.0333
12.0567
12.0808
12.1057
12.1316
12.1585
12.1865
12.2156
12.2458
12.2771
12.3094
12.3426
12.3766
12.4113
12.4468
12.4829
12.5196
12.5569
12.5945
12.6324
12.6704
12.7081
12.7453
12.7818
12.8173
12.8516
12.8848
12.9166
12.947
12.9761
13.0036
13.0295
13.0536
13.0756
13.0953
13.1124
13.1266
13.1375
13.1449
13.1486
13.1484
13.1439
13.135
13.1215
13.1029
13.0789
13.049
13.0127
12.9692
12.918
12.8583
12.7892
12.71
12.6197
12.5176
12.4026
12.2737
12.1299
11.9699
11.7925
11.5963
11.38
11.1422
10.8816
10.5973
10.2883
9.95428
9.59514
11.3768
11.4285
11.4768
11.5219
11.5639
11.6029
11.6391
11.6729
11.7044
11.7339
11.7617
11.7878
11.8127
11.8364
11.8591
11.8812
11.9026
11.9237
11.9446
11.9654
11.9863
12.0076
12.0293
12.0517
12.0749
12.099
12.1243
12.1508
12.1785
12.2076
12.238
12.2696
12.3023
12.3359
12.3705
12.4058
12.4419
12.4787
12.5163
12.5546
12.5935
12.6329
12.6724
12.7117
12.7506
12.7886
12.8255
12.8611
12.8954
12.9283
12.9599
12.9901
13.0191
13.0466
13.0726
13.0967
13.1187
13.1382
13.1548
13.1681
13.178
13.1842
13.1865
13.1848
13.179
13.1689
13.1542
13.1345
13.1095
13.0784
13.0408
12.9957
12.9424
12.8801
12.808
12.7252
12.6308
12.5239
12.4034
12.2682
12.117
11.9483
11.7606
11.5522
11.3213
11.0664
10.786
10.479
10.1445
9.78252
11.4042
11.4559
11.5038
11.548
11.5888
11.6265
11.6611
11.6932
11.7229
11.7506
11.7765
11.8008
11.8238
11.8457
11.8667
11.887
11.9068
11.9262
11.9455
11.9647
11.9842
12.004
12.0244
12.0455
12.0675
12.0907
12.1152
12.1411
12.1685
12.1976
12.2282
12.2603
12.2936
12.328
12.3632
12.3991
12.4358
12.4734
12.5119
12.5513
12.5917
12.6329
12.6745
12.716
12.757
12.7969
12.8354
12.8724
12.9078
12.9418
12.9744
13.0059
13.0364
13.0658
13.0941
13.1208
13.1457
13.168
13.1875
13.2036
13.2162
13.2251
13.2303
13.2316
13.2291
13.2228
13.2124
13.1978
13.1784
13.1536
13.1228
13.085
13.0394
12.9851
12.9213
12.8472
12.762
12.6646
12.5542
12.4295
12.2891
12.1315
11.9546
11.7565
11.535
11.2879
11.0131
10.7089
10.3743
10.0088
11.437
11.4886
11.5359
11.579
11.6184
11.6542
11.6869
11.7168
11.7443
11.7698
11.7934
11.8155
11.8364
11.8562
11.8752
11.8935
11.9113
11.9289
11.9463
11.9637
11.9814
11.9995
12.0182
12.0378
12.0585
12.0804
12.1038
12.129
12.1562
12.1853
12.2164
12.2492
12.2834
12.3187
12.3546
12.3912
12.4285
12.4666
12.5059
12.5466
12.5888
12.6322
12.6766
12.7211
12.7648
12.8071
12.8475
12.8858
12.9223
12.957
12.9905
13.0231
13.0551
13.0867
13.1176
13.1476
13.176
13.2019
13.2248
13.2441
13.2596
13.2713
13.2793
13.2837
13.2847
13.2824
13.2768
13.2677
13.2548
13.2374
13.2146
13.1854
13.1487
13.1036
13.0493
12.9851
12.9103
12.8241
12.7254
12.6132
12.486
12.342
12.1791
11.9945
11.7855
11.549
11.2822
10.9826
10.6483
10.2786
11.4758
11.5274
11.5738
11.6155
11.6529
11.6863
11.7165
11.7438
11.7686
11.7914
11.8125
11.8321
11.8505
11.8679
11.8846
11.9006
11.9162
11.9316
11.9469
11.9623
11.9779
11.9941
12.0108
12.0285
12.0474
12.0678
12.0899
12.1142
12.1408
12.1701
12.2019
12.236
12.2717
12.3082
12.3452
12.3823
12.4197
12.4581
12.4979
12.5396
12.5838
12.6302
12.6784
12.727
12.7746
12.82
12.8624
12.9019
12.9389
12.974
13.0078
13.0411
13.0744
13.1082
13.1424
13.1766
13.2096
13.2401
13.2671
13.2899
13.3084
13.3228
13.3334
13.3406
13.3448
13.3465
13.3459
13.343
13.3376
13.3289
13.3156
13.2964
13.27
13.2352
13.1915
13.1382
13.075
13.0012
12.916
12.8184
12.707
12.5798
12.4344
12.2675
12.0753
11.8537
11.5986
11.3061
10.9732
10.5983
11.522
11.5734
11.6187
11.6582
11.6928
11.7233
11.7502
11.7742
11.7958
11.8155
11.8336
11.8503
11.8659
11.8807
11.8947
11.9083
11.9214
11.9344
11.9474
11.9604
11.9737
11.9876
12.0021
12.0175
12.0342
12.0525
12.0729
12.0958
12.1217
12.1511
12.1841
12.2203
12.2586
12.2973
12.3353
12.3726
12.4097
12.4474
12.4868
12.5292
12.5754
12.6257
12.6794
12.7344
12.7876
12.8369
12.8814
12.9216
12.9583
12.9926
13.0257
13.0588
13.093
13.129
13.1672
13.2071
13.2466
13.2834
13.3153
13.3418
13.3631
13.3796
13.3921
13.4015
13.4086
13.4139
13.4182
13.4219
13.425
13.4266
13.4251
13.4178
13.403
13.3796
13.3472
13.3056
13.2548
13.1945
13.1242
13.0433
12.9504
12.8438
12.7206
12.5769
12.4074
12.2066
11.9686
11.6876
11.3584
10.9774
11.577
11.6283
11.6716
11.708
11.7388
11.7651
11.788
11.808
11.8258
11.8419
11.8565
11.87
11.8825
11.8943
11.9055
11.9163
11.9269
11.9372
11.9476
11.958
11.9688
11.98
11.9918
12.0046
12.0186
12.0342
12.0521
12.0729
12.0975
12.1268
12.1615
12.2015
12.2448
12.2871
12.3265
12.3633
12.3985
12.434
12.4716
12.5132
12.5609
12.616
12.6784
12.7443
12.8062
12.8604
12.9066
12.9461
12.9809
13.0128
13.0435
13.0749
13.1087
13.1465
13.1896
13.2377
13.2877
13.3333
13.3712
13.4012
13.4243
13.4419
13.4553
13.4658
13.4745
13.4827
13.4913
13.5016
13.5142
13.5288
13.5425
13.55
13.5483
13.5368
13.5159
13.4861
13.4481
13.402
13.3478
13.2852
13.2135
13.1315
13.0363
12.9231
12.7844
12.6127
12.4004
12.1387
11.8178
11.43
11.6439
11.6946
11.7344
11.7658
11.7911
11.812
11.8297
11.8449
11.8583
11.8702
11.881
11.8909
11.9001
11.9087
11.9169
11.9248
11.9324
11.94
11.9475
11.9552
11.9631
11.9713
11.9802
11.9898
12.0005
12.0127
12.0271
12.0445
12.0664
12.0946
12.1313
12.1781
12.2322
12.2809
12.3215
12.3559
12.387
12.4176
12.4503
12.4884
12.5355
12.5959
12.6722
12.7598
12.8358
12.8953
12.9412
12.9774
13.0076
13.0344
13.0603
13.0875
13.1185
13.1564
13.2046
13.2655
13.335
13.394
13.4385
13.4705
13.4934
13.51
13.5225
13.5324
13.5413
13.5505
13.5619
13.5777
13.6005
13.6321
13.6689
13.6952
13.7076
13.7074
13.6971
13.6785
13.6529
13.6209
13.5832
13.54
13.4915
13.4378
13.3777
13.3059
13.2087
13.0773
12.9034
12.6746
12.3736
11.9806
11.7283
11.7765
11.8091
11.8323
11.8497
11.8635
11.8748
11.8844
11.8927
11.9001
11.9067
11.9128
11.9184
11.9237
11.9286
11.9334
11.9381
11.9427
11.9473
11.952
11.9568
11.9619
11.9673
11.9733
11.9801
11.988
11.9975
12.0097
12.0262
12.05
12.0864
12.1439
12.2275
12.2863
12.3253
12.3533
12.3762
12.3978
12.4213
12.4505
12.491
12.5525
12.6499
12.7917
12.8889
12.9499
12.9895
13.0174
13.0389
13.0573
13.0751
13.0944
13.1182
13.1511
13.2012
13.2809
13.3972
13.4757
13.5234
13.5527
13.5714
13.5841
13.5932
13.6005
13.6073
13.615
13.6259
13.6435
13.6742
13.7278
13.81
13.8604
13.8847
13.8925
13.8901
13.8809
13.8665
13.8481
13.8264
13.8022
13.7769
13.7533
13.7358
13.7252
13.6819
13.6032
13.4851
13.3142
13.0619
12.6779
11.8454
11.8809
11.8974
11.907
11.9135
11.9184
11.9224
11.9257
11.9285
11.931
11.9332
11.9353
11.9371
11.9389
11.9406
11.9422
11.9438
11.9453
11.9468
11.9484
11.95
11.9518
11.9536
11.9556
11.958
11.9607
11.9641
11.9687
11.9755
11.987
12.0111
12.0723
12.2583
12.32
12.3449
12.358
12.3671
12.3752
12.3841
12.3961
12.4161
12.4574
12.5636
12.8879
12.994
13.0351
13.0548
13.0663
13.0744
13.0811
13.0876
13.0949
13.1047
13.121
13.1552
13.2433
13.5138
13.6015
13.6348
13.6499
13.658
13.663
13.6665
13.6692
13.6718
13.675
13.6801
13.6903
13.7146
13.7822
13.9967
14.0632
14.0853
14.0922
14.0929
14.0904
14.0859
14.08
14.073
14.0657
14.0597
14.06
14.0836
14.1917
14.2058
14.1855
14.1428
14.0711
13.9394
13.6489
8.74023
8.26509
7.76308
7.23573
6.6848
6.11226
5.52018
4.91071
4.28602
3.64829
2.99962
2.3421
1.67776
1.00858
0.336512
8.76819
8.29185
7.78834
7.25922
6.70635
6.13172
5.5375
4.92587
4.29903
3.65917
3.00843
2.34889
1.68257
1.01145
0.337468
8.82447
8.34569
7.8391
7.3064
6.74955
6.17072
5.57217
4.95617
4.32501
3.6809
3.02602
2.36243
1.69217
1.01718
0.339372
8.90981
8.42726
7.9159
7.37763
6.81467
6.22938
5.62421
5.00158
4.36387
3.71337
3.05226
2.38263
1.70648
1.02571
0.342207
9.0254
8.53755
8.0195
7.47347
6.90203
6.30785
5.69364
5.06201
4.41548
3.75641
3.087
2.40933
1.72537
1.03697
0.345948
9.17289
8.67797
8.15097
7.59465
7.01205
6.40629
5.78042
5.1373
4.47959
3.80973
3.12995
2.4423
1.74867
1.05085
0.350558
9.35455
8.85036
8.31168
7.74203
7.14515
6.52477
5.88437
5.22711
4.5558
3.87294
3.18074
2.48121
1.77614
1.0672
0.355985
9.57344
9.05712
8.50327
7.91653
7.30167
6.6632
6.00512
5.33091
4.6435
3.94543
3.23884
2.52563
1.80744
1.08582
0.362163
9.83361
9.3013
8.72765
8.11905
7.48173
6.82116
6.14195
5.44783
4.74183
4.02639
3.30354
2.57498
1.84218
1.10645
0.369006
10.1406
9.58672
8.98687
8.35021
7.68493
6.99768
6.2936
5.57657
4.84953
4.11472
3.37391
2.62854
1.87982
1.12879
0.376411
10.502
9.91801
9.28281
8.6099
7.91002
7.19096
6.45814
5.71526
4.96494
4.20899
3.44881
2.68544
1.91974
1.15246
0.384256
10.9285
10.3004
9.61635
8.89645
8.1542
7.39792
6.63264
5.86135
5.0859
4.30747
3.52685
2.74463
1.96124
1.17705
0.392401
11.436
10.7387
9.98561
9.20524
8.4123
7.61382
6.81307
6.01152
5.20978
4.40807
3.60647
2.80495
2.0035
1.20209
0.400693
12.0465
11.2327
10.382
9.52652
8.67583
7.83189
6.99423
6.16182
5.33357
4.50853
3.68595
2.86518
2.0457
1.22709
0.408976
12.7819
11.7634
10.7831
9.84287
8.93253
8.04358
7.17007
6.30788
5.45406
4.6065
3.76358
2.92408
2.08701
1.25158
0.417093
10.0642
10.1925
10.3205
10.4478
10.5743
10.6997
10.8239
10.9467
11.0681
11.1882
11.3075
11.427
11.5492
11.6794
11.8324
10.066
10.1978
10.3293
10.4602
10.5901
10.719
10.8466
10.9727
11.0973
11.2203
11.3423
11.4641
11.588
11.7183
11.863
10.0678
10.2034
10.3386
10.4731
10.6067
10.7392
10.8703
10.9998
11.1275
11.2532
11.3771
11.4997
11.6222
11.7471
11.8779
10.0698
10.2092
10.3482
10.4866
10.6241
10.7604
10.8952
11.0282
11.159
11.2873
11.4128
11.5353
11.6547
11.7719
11.8882
10.0718
10.2153
10.3584
10.5008
10.6423
10.7826
10.9212
11.0579
11.1922
11.3233
11.4506
11.5729
11.6888
11.7972
11.8981
10.0739
10.2216
10.3689
10.5156
10.6613
10.8058
10.9486
11.0894
11.2275
11.3621
11.4918
11.6148
11.7281
11.8277
11.9108
10.0761
10.2282
10.3799
10.531
10.6812
10.8301
10.9775
11.1227
11.2652
11.4041
11.5377
11.6635
11.7768
11.8697
11.9314
10.0784
10.235
10.3914
10.5471
10.7019
10.8556
11.0077
11.1579
11.3055
11.4496
11.5889
11.7208
11.8397
11.9333
11.9736
10.0807
10.2421
10.4032
10.5637
10.7234
10.8821
11.0393
11.1948
11.3481
11.4986
11.6453
11.7869
11.9201
12.034
12.0813
10.0832
10.2494
10.4154
10.5809
10.7457
10.9095
11.0721
11.2333
11.3927
11.55
11.7052
11.8589
12.0138
12.1808
12.4088
10.0857
10.2569
10.4279
10.5985
10.7685
10.9377
11.1059
11.2729
11.4386
11.6029
11.7662
11.9301
12.099
12.2852
12.518
10.0882
10.2646
10.4408
10.6166
10.7919
10.9666
11.1405
11.3135
11.4854
11.6564
11.8267
11.9976
12.1722
12.3572
12.5637
10.0908
10.2724
10.4538
10.635
10.8157
10.996
11.1757
11.3547
11.5329
11.7102
11.8867
12.0626
12.2382
12.4141
12.5911
10.0934
10.2803
10.467
10.6536
10.8399
11.0258
11.2114
11.3965
11.5809
11.7646
11.9472
12.1277
12.3038
12.4703
12.6178
10.0961
10.2882
10.4803
10.6723
10.8642
11.0559
11.2474
11.4386
11.6295
11.8198
12.009
12.1957
12.3761
12.5396
12.6605
10.0987
10.2962
10.4937
10.6912
10.8887
11.0861
11.2835
11.4809
11.6783
11.8756
12.0725
12.2682
12.46
12.6383
12.7599
10.1014
10.3042
10.5071
10.71
10.9131
11.1163
11.3196
11.5233
11.7272
11.9316
12.1368
12.3432
12.5533
12.7763
13.0548
10.1041
10.3122
10.5204
10.7288
10.9374
11.1463
11.3555
11.5653
11.7758
11.9872
12.2
12.4157
12.6376
12.8757
13.1546
10.1067
10.3201
10.5336
10.7474
10.9615
11.176
11.391
11.6069
11.8236
12.0416
12.2613
12.4837
12.7107
12.9465
13.1985
10.1093
10.3279
10.5467
10.7657
10.9852
11.2052
11.426
11.6477
11.8705
12.0948
12.3207
12.5485
12.7776
13.006
13.2286
10.1118
10.3356
10.5595
10.7838
11.0086
11.234
11.4603
11.6877
11.9164
12.1467
12.3788
12.6122
12.8448
13.0695
13.2664
10.1143
10.3431
10.5721
10.8015
11.0314
11.2621
11.4938
11.7267
11.9611
12.1974
12.4358
12.6763
12.9175
13.1522
13.3464
10.1168
10.3505
10.5844
10.8187
11.0537
11.2895
11.5264
11.7646
12.0045
12.2466
12.4914
12.74
12.9947
13.263
13.578
10.1192
10.3576
10.5964
10.8355
11.0754
11.3161
11.558
11.8013
12.0464
12.2938
12.5442
12.7993
13.0622
13.3414
13.6561
10.1215
10.3646
10.608
10.8519
11.0964
11.3419
11.5886
11.8367
12.0866
12.3387
12.5938
12.853
13.1185
13.3949
13.6891
10.1238
10.3714
10.6193
10.8677
11.1168
11.3669
11.6181
11.8708
12.1252
12.3816
12.6405
12.9022
13.1671
13.4359
13.7085
10.1259
10.3779
10.6302
10.883
11.1365
11.391
11.6466
11.9037
12.1623
12.4228
12.6851
12.949
13.2131
13.4742
13.7263
10.1281
10.3843
10.6408
10.8978
11.1556
11.4143
11.6741
11.9353
12.1981
12.4626
12.7286
12.9955
13.261
13.5187
13.7528
10.1301
10.3904
10.651
10.9121
11.1739
11.4367
11.7006
11.9659
12.2327
12.5012
12.7714
13.043
13.3143
13.5796
13.8126
10.132
10.3963
10.6608
10.9258
11.1916
11.4583
11.7261
11.9953
12.2661
12.5386
12.8133
13.0905
13.3718
13.6626
13.9879
10.1339
10.4019
10.6702
10.939
11.2085
11.479
11.7506
12.0236
12.2981
12.5745
12.8532
13.1351
13.4226
13.7216
14.047
10.1357
10.4073
10.6793
10.9517
11.2248
11.4989
11.7742
12.0507
12.3288
12.6088
12.8908
13.1758
13.4652
13.7621
14.072
10.1375
10.4125
10.6879
10.9638
11.2405
11.518
11.7967
12.0767
12.3582
12.6414
12.9264
13.2133
13.5024
13.7936
14.087
10.1391
10.4175
10.6962
10.9754
11.2554
11.5363
11.8183
12.1016
12.3864
12.6727
12.9605
13.2493
13.538
13.8236
14.101
10.1407
10.4223
10.7041
10.9865
11.2697
11.5537
11.839
12.1255
12.4135
12.703
12.9938
13.2854
13.5757
13.8592
14.1226
10.1422
10.4268
10.7117
10.9971
11.2832
11.5704
11.8586
12.1483
12.4394
12.7322
13.0265
13.3222
13.6179
13.9085
14.1722
10.1436
10.4311
10.7188
11.0071
11.2961
11.5861
11.8773
12.1699
12.4641
12.7602
13.0583
13.359
13.6635
13.9765
14.3187
10.145
10.4351
10.7255
11.0165
11.3083
11.6011
11.895
12.1905
12.4876
12.7866
13.0882
13.393
13.7033
14.024
14.3676
10.1463
10.4389
10.7319
11.0254
11.3197
11.6151
11.9117
12.2097
12.5095
12.8113
13.1157
13.4232
13.7356
14.0556
14.3877
10.1474
10.4424
10.7378
11.0337
11.3304
11.6282
11.9272
12.2278
12.53
12.8342
13.1408
13.45
13.7625
14.0787
14.3988
10.1485
10.4457
10.7433
11.0414
11.3404
11.6404
11.9417
12.2445
12.549
12.8555
13.164
13.4745
13.7866
14.0989
14.4081
10.1496
10.4488
10.7484
11.0486
11.3496
11.6517
11.9551
12.26
12.5667
12.8752
13.1857
13.4978
13.8107
14.121
14.4211
10.1505
10.4516
10.753
11.0551
11.358
11.662
11.9674
12.2742
12.5829
12.8935
13.2061
13.5206
13.8363
14.1501
14.4495
10.1513
10.4541
10.7572
11.061
11.3656
11.6714
11.9785
12.2872
12.5977
12.9103
13.2252
13.5425
13.8631
14.1891
14.5321
10.1521
10.4563
10.761
11.0663
11.3724
11.6798
11.9885
12.2988
12.6111
12.9255
13.2423
13.5621
13.8859
14.2163
14.5597
10.1527
10.4583
10.7643
11.0709
11.3784
11.6871
11.9973
12.3091
12.6229
12.9389
13.2574
13.5789
13.9041
14.2342
14.5711
10.1533
10.46
10.7671
11.0749
11.3836
11.6935
12.0048
12.3179
12.633
12.9504
13.2703
13.5931
13.9187
14.2473
14.5778
10.1538
10.4614
10.7694
11.0782
11.3878
11.6987
12.0111
12.3253
12.6415
12.9601
13.2812
13.605
13.9313
14.2589
14.5844
10.1541
10.4625
10.7713
11.0808
11.3912
11.7029
12.0161
12.3312
12.6484
12.9679
13.2902
13.6152
13.9429
14.2719
14.5965
10.1544
10.4633
10.7726
11.0827
11.3937
11.706
12.0198
12.3356
12.6535
12.9739
13.2971
13.6235
13.9534
14.2877
14.6307
10.1546
10.4638
10.7735
11.0839
11.3952
11.7079
12.0222
12.3383
12.6568
12.9778
13.3018
13.6292
13.9607
14.2974
14.6415
10.1546
10.464
10.7738
11.0843
11.3959
11.7087
12.0231
12.3395
12.6582
12.9795
13.3039
13.632
13.9644
14.3019
14.6451
10.1546
10.4639
10.7736
11.0841
11.3956
11.7083
12.0227
12.339
12.6577
12.979
13.3035
13.6317
13.9644
14.3022
14.6455
10.1545
10.4635
10.773
11.0831
11.3943
11.7068
12.0209
12.3369
12.6552
12.9762
13.3004
13.6282
13.9607
14.2987
14.6436
10.1542
10.4628
10.7718
11.0814
11.3921
11.7041
12.0176
12.3331
12.6508
12.9712
13.2946
13.6215
13.9529
14.2904
14.6376
10.1539
10.4618
10.7701
11.079
11.389
11.7002
12.013
12.3277
12.6445
12.9639
13.2862
13.6117
13.9409
14.2752
14.6212
10.1534
10.4604
10.7679
11.0759
11.385
11.6952
12.007
12.3206
12.6364
12.9546
13.2755
13.5991
13.9252
14.2517
14.5704
10.1529
10.4588
10.7652
11.0722
11.3801
11.6892
11.9997
12.3121
12.6265
12.9433
13.2628
13.5848
13.909
14.2334
14.5528
10.1523
10.457
10.762
11.0677
11.3743
11.682
11.9911
12.302
12.6149
12.9302
13.2481
13.569
13.8927
14.2185
14.5443
10.1516
10.4548
10.7584
11.0626
11.3677
11.6738
11.9813
12.2905
12.6016
12.9151
13.2314
13.551
13.8747
14.2034
14.5373
10.1508
10.4524
10.7544
11.0569
11.3602
11.6646
11.9703
12.2775
12.5866
12.898
13.2122
13.5301
13.8533
14.1846
14.528
10.1499
10.4497
10.7499
11.0506
11.3521
11.6545
11.9581
12.2632
12.57
12.8789
13.1904
13.5055
13.8261
14.1571
14.51
10.1489
10.4468
10.7451
11.0438
11.3432
11.6435
11.9449
12.2476
12.5518
12.8579
13.1661
13.4769
13.7916
14.1145
14.4649
10.1479
10.4437
10.7399
11.0364
11.3336
11.6316
11.9306
12.2308
12.5323
12.8353
13.1398
13.4455
13.7513
14.0525
14.3285
10.1468
10.4404
10.7343
11.0286
11.3235
11.6191
11.9156
12.2131
12.5117
12.8116
13.1126
13.414
13.7142
14.0078
14.2826
10.1456
10.437
10.7285
11.0204
11.3128
11.6059
11.8997
12.1945
12.4902
12.7871
13.0849
13.3834
13.6814
13.9761
14.2629
10.1444
10.4333
10.7224
11.0118
11.3017
11.5921
11.8832
12.1751
12.4679
12.7618
13.0568
13.3531
13.6507
13.9499
14.2504
10.1432
10.4296
10.7161
11.0029
11.2901
11.5778
11.8661
12.155
12.4448
12.7356
13.0277
13.3216
13.6189
13.9225
14.2373
10.1419
10.4257
10.7096
10.9937
11.2782
11.5631
11.8484
12.1344
12.421
12.7085
12.9971
13.2878
13.5827
13.8873
14.2152
10.1405
10.4216
10.7029
10.9843
11.2659
11.5479
11.8303
12.1131
12.3965
12.6804
12.9651
13.2511
13.5396
13.8357
14.1624
10.1392
10.4176
10.696
10.9746
11.2534
11.5325
11.8118
12.0915
12.3715
12.6517
12.9322
13.2124
13.491
13.7629
14.0047
10.1378
10.4134
10.689
10.9648
11.2407
11.5168
11.7931
12.0696
12.3462
12.6229
12.8993
13.1748
13.4472
13.7107
13.9517
10.1364
10.4092
10.682
10.9549
11.2279
11.501
11.7742
12.0475
12.3208
12.5941
12.8671
13.1392
13.4093
13.6743
13.929
10.135
10.4049
10.6748
10.9449
11.2149
11.485
11.7552
12.0253
12.2954
12.5654
12.8353
13.1051
13.3749
13.6448
13.915
10.1335
10.4006
10.6677
10.9348
11.2019
11.469
11.7361
12.0031
12.27
12.5367
12.8035
13.0709
13.3402
13.6149
13.9007
10.1321
10.3963
10.6604
10.9246
11.1888
11.453
11.717
11.9809
12.2446
12.508
12.7713
13.0351
13.3018
13.5774
13.877
10.1306
10.3919
10.6532
10.9145
11.1758
11.437
11.698
11.9589
12.2193
12.4793
12.7385
12.9974
13.2571
13.5231
13.8206
10.1292
10.3876
10.6459
10.9043
11.1627
11.421
11.6792
11.937
12.1944
12.4509
12.706
12.9589
13.2078
13.447
13.6518
10.1277
10.3832
10.6386
10.8941
11.1497
11.4051
11.6605
11.9155
12.17
12.4234
12.675
12.9233
13.1653
13.3945
13.5962
10.1263
10.3788
10.6313
10.8839
11.1366
11.3893
11.6419
11.8943
12.1462
12.3971
12.6462
12.8918
13.1315
13.3609
13.5742
10.1248
10.3743
10.624
10.8737
11.1235
11.3735
11.6235
11.8734
12.1231
12.3721
12.6196
12.8645
13.1049
13.3384
13.5634
10.1233
10.3698
10.6165
10.8633
11.1103
11.3576
11.605
11.8527
12.1004
12.3479
12.5948
12.8401
13.0829
13.3219
13.5566
10.1217
10.3653
10.6089
10.8528
11.0969
11.3414
11.5864
11.8319
12.0778
12.3242
12.5709
12.8175
13.0635
13.3082
13.5515
10.1202
10.3606
10.6012
10.842
11.0833
11.325
11.5674
11.8106
12.0549
12.3003
12.547
12.7952
13.0447
13.2955
13.5469
10.1186
10.3558
10.5933
10.831
11.0692
11.308
11.5478
11.7886
12.031
12.2753
12.5221
12.7719
13.0251
13.2821
13.5421
10.117
10.3509
10.5851
10.8196
11.0546
11.2904
11.5273
11.7656
12.0058
12.2486
12.495
12.746
13.0029
13.2665
13.5363
10.1153
10.3459
10.5767
10.8078
11.0396
11.2721
11.5058
11.7411
11.9786
12.2194
12.4646
12.7161
12.9759
13.2465
13.5284
10.1135
10.3407
10.568
10.7957
11.0239
11.2529
11.4831
11.7149
11.9492
12.187
12.4299
12.6802
12.9414
13.2184
13.5157
10.1118
10.3353
10.559
10.7831
11.0076
11.2329
11.4592
11.6871
11.9173
12.151
12.3899
12.6366
12.8959
13.1761
13.4912
10.1099
10.3298
10.5499
10.7702
10.9908
11.212
11.4342
11.6576
11.883
12.1114
12.3443
12.5842
12.8359
13.1095
13.4333
13.5225
12.2147
11.1139
10.1054
9.14812
8.22339
7.32081
6.43402
5.55874
4.69199
3.83156
2.9758
2.12337
1.27316
0.424248
13.7566
12.4811
11.3505
10.3083
9.32147
8.37139
7.44684
6.54064
5.64793
4.76527
3.89011
3.02049
2.15485
1.29188
0.430459
13.8541
12.6469
11.5256
10.4726
9.46924
8.50161
7.56006
6.63783
5.73009
4.83331
3.94477
3.06239
2.18445
1.30952
0.436316
13.903
12.753
11.6532
10.6024
9.59211
8.61365
7.6598
6.7249
5.80461
4.89557
3.99514
3.10119
2.21196
1.32594
0.441775
13.9316
12.824
11.7468
10.7039
9.69278
8.70854
7.74632
6.80177
5.87126
4.95182
4.04097
3.13669
2.23722
1.34105
0.446807
13.9503
12.8737
11.8164
10.7834
9.77468
8.78807
7.8205
6.86883
5.93019
5.00205
4.08222
3.16881
2.26018
1.35483
0.451398
13.9634
12.9098
11.8692
10.8459
9.84115
8.85431
7.88357
6.92679
5.98178
5.04646
4.11897
3.19761
2.28084
1.36725
0.455544
13.9729
12.9369
11.9098
10.8953
9.89514
8.90929
7.93689
6.97653
6.02658
5.08541
4.15144
3.22319
2.29926
1.37837
0.459258
13.9802
12.9576
11.9415
10.9348
9.93908
8.95487
7.98179
7.01897
6.06524
5.11931
4.17991
3.24574
2.31557
1.38823
0.462557
13.9858
12.9739
11.9666
10.9665
9.97495
8.99264
8.01951
7.05504
6.09842
5.14865
4.2047
3.26548
2.3299
1.39691
0.465467
13.9902
12.9867
11.9867
10.9921
10.0043
9.02397
8.05115
7.08561
6.12678
5.17392
4.22618
3.28266
2.34242
1.40452
0.468017
13.9937
12.997
12.0029
11.013
10.0285
9.04997
8.07766
7.11145
6.15094
5.19559
4.24471
3.29754
2.35329
1.41114
0.470239
13.9966
13.0053
12.016
11.0301
10.0484
9.07159
8.09988
7.13326
6.17148
5.21411
4.26062
3.31037
2.3627
1.41687
0.472167
13.9989
13.012
12.0267
11.0441
10.0649
9.08959
8.11851
7.15166
6.1889
5.2299
4.27424
3.3214
2.3708
1.42182
0.473831
14.0008
13.0175
12.0356
11.0557
10.0785
9.10459
8.13411
7.16717
6.20365
5.24334
4.28587
3.33084
2.37775
1.42608
0.475263
14.0023
13.0221
12.0428
11.0652
10.0899
9.11711
8.14721
7.18023
6.21614
5.25474
4.29578
3.33891
2.3837
1.42973
0.476492
14.0036
13.0258
12.0489
11.0732
10.0993
9.12758
8.15819
7.19124
6.22669
5.26442
4.30421
3.34578
2.38879
1.43285
0.477543
14.0047
13.0289
12.0538
11.0798
10.1072
9.13635
8.16742
7.20051
6.23561
5.27263
4.31138
3.35164
2.39312
1.43551
0.478441
14.0055
13.0315
12.058
11.0853
10.1138
9.1437
8.17518
7.20833
6.24316
5.27958
4.31746
3.35662
2.39682
1.43778
0.479207
14.0063
13.0337
12.0615
11.0899
10.1193
9.14988
8.18172
7.21494
6.24954
5.28547
4.32263
3.36086
2.39996
1.43971
0.47986
14.0069
13.0355
12.0644
11.0938
10.124
9.15508
8.18723
7.22052
6.25494
5.29047
4.32702
3.36446
2.40264
1.44136
0.480417
14.0074
13.037
12.0668
11.0971
10.1279
9.15947
8.19189
7.22524
6.25953
5.29472
4.33075
3.36753
2.40493
1.44277
0.480892
14.0078
13.0383
12.0689
11.0998
10.1312
9.16319
8.19585
7.22926
6.26343
5.29834
4.33394
3.37016
2.40688
1.44397
0.481298
14.0082
13.0394
12.0707
11.1022
10.134
9.16636
8.19923
7.23269
6.26676
5.30143
4.33667
3.3724
2.40855
1.445
0.481646
14.0085
13.0403
12.0722
11.1042
10.1365
9.16908
8.20212
7.23563
6.26963
5.30409
4.33901
3.37434
2.40999
1.44589
0.481946
14.0088
13.0411
12.0735
11.1059
10.1386
9.17143
8.20463
7.23818
6.27211
5.3064
4.34105
3.37601
2.41124
1.44666
0.482207
14.009
13.0418
12.0746
11.1074
10.1404
9.17349
8.20682
7.24042
6.27428
5.30842
4.34283
3.37748
2.41233
1.44734
0.482435
14.0092
13.0425
12.0756
11.1088
10.142
9.17532
8.20877
7.2424
6.27621
5.31022
4.34441
3.37878
2.4133
1.44794
0.482637
14.0094
13.043
12.0766
11.11
10.1435
9.17697
8.21053
7.24419
6.27795
5.31183
4.34584
3.37996
2.41418
1.44848
0.48282
14.0096
13.0436
12.0774
11.1112
10.1449
9.17851
8.21216
7.24584
6.27956
5.31332
4.34715
3.38104
2.41498
1.44897
0.482987
14.0098
13.0441
12.0782
11.1122
10.1462
9.17997
8.21371
7.24741
6.28108
5.31473
4.34839
3.38205
2.41574
1.44944
0.483144
14.01
13.0446
12.079
11.1133
10.1474
9.1814
8.21523
7.24894
6.28255
5.31609
4.34958
3.38303
2.41646
1.44988
0.483295
14.0101
13.0451
12.0799
11.1144
10.1488
9.18286
8.21676
7.25048
6.28403
5.31745
4.35076
3.384
2.41718
1.45032
0.483443
14.0103
13.0457
12.0808
11.1156
10.1501
9.18438
8.21835
7.25207
6.28555
5.31884
4.35197
3.38498
2.4179
1.45077
0.483593
14.0105
13.0463
12.0817
11.1169
10.1516
9.18603
8.22006
7.25375
6.28715
5.32029
4.35323
3.386
2.41865
1.45122
0.483747
14.0108
13.047
12.0828
11.1183
10.1533
9.18785
8.22193
7.25559
6.28887
5.32185
4.35456
3.38707