/*--------------------------------*- C++ -*----------------------------------*\
| =========                 |                                                 |
| \\      /  F ield         | OpenFOAM: The Open Source CFD Toolbox           |
|  \\    /   O peration     | Version:  5.x                                   |
|   \\  /    A nd           | Web:      www.OpenFOAM.org                      |
|    \\/     M anipulation  |                                                 |
\*---------------------------------------------------------------------------*/
FoamFile
{
    version     2.0;
    format      ascii;
    class       volScalarField;
    location    "18.1";
    object      gradTx;
}
// * * * * * * * * * * * * * * * * * * * * * * * * * * * * * * * * * * * * * //

dimensions      [0 -1 0 1 0 0 0];

internalField   nonuniform List<scalar> 
6300
(
5.51041
5.49368
5.46022
5.41007
5.34329
5.25998
5.16033
5.04465
4.91341
4.7673
4.60731
4.43474
4.25128
4.05903
3.86042
5.52693
5.51018
5.4767
5.4265
5.35961
5.27611
5.17616
5.06001
4.92808
4.781
4.6197
4.44545
4.25992
4.06522
3.86387
5.55997
5.54321
5.50969
5.45939
5.39232
5.30849
5.20798
5.09095
4.95769
4.80873
4.64486
4.46725
4.27754
4.07788
3.87093
5.60956
5.59279
5.55924
5.50885
5.44158
5.35734
5.25612
5.13791
5.00283
4.85119
4.68357
4.50098
4.30496
4.09769
3.88203
5.67569
5.65894
5.6254
5.57499
5.50757
5.42298
5.32103
5.20153
5.06433
4.90942
4.73707
4.54797
4.34345
4.12571
3.89789
5.75835
5.74166
5.70822
5.65791
5.59052
5.50577
5.40329
5.28264
5.14333
4.98492
4.80714
4.61019
4.395
4.16365
3.91961
5.85747
5.8409
5.8077
5.75769
5.69061
5.60607
5.50351
5.38221
5.24124
5.07958
4.89621
4.69048
4.46255
4.21411
3.94896
5.97292
5.95656
5.92375
5.87431
5.80794
5.72417
5.62227
5.50123
5.35965
5.19575
5.00747
4.79278
4.55045
4.28113
3.98873
6.10451
6.08843
6.05619
6.00764
5.94246
5.86017
5.75995
5.64058
5.50018
5.33613
5.14493
4.92254
4.66515
4.37108
4.0435
6.25193
6.23621
6.20472
6.15735
6.09387
6.01386
5.91658
5.80074
5.66416
5.50343
5.31341
5.0871
4.81633
4.49437
4.12119
6.41484
6.39952
6.36889
6.32293
6.26156
6.1846
6.09156
5.9814
5.85209
5.69982
5.51797
5.29591
5.01852
4.66867
4.23644
6.59281
6.5779
6.54815
6.50367
6.44463
6.37119
6.28342
6.181
6.06276
5.92557
5.76251
5.55981
5.29295
4.92515
4.41872
6.78543
6.77087
6.74188
6.69872
6.64184
6.57188
6.48969
6.3962
6.29213
6.17694
6.04646
5.88763
5.66808
5.32008
4.73448
6.99235
6.97801
6.94951
6.90724
6.85189
6.78457
6.707
6.62174
6.53238
6.44333
6.35849
6.27593
6.17144
5.95244
5.35614
7.21334
7.19905
7.17065
7.12858
7.07365
7.00725
6.93175
6.85114
6.77203
6.70522
6.66795
6.68594
6.78913
6.96191
6.81181
3.67523
3.5061
3.33808
3.17288
3.01213
2.8573
2.70972
2.5705
2.44058
2.32067
2.21129
2.11282
2.02547
1.94932
1.88435
1.83045
1.7874
1.75495
1.73274
1.72036
1.7173
1.72299
1.73674
1.75777
1.78521
1.81805
1.85523
1.89558
1.9379
1.98096
2.02356
2.06454
2.10281
2.13737
2.16725
2.19154
2.2093
2.21958
2.22141
2.21376
2.19563
2.16608
2.12427
2.06953
2.00135
1.91939
1.82341
1.71318
1.58843
1.44873
1.29344
1.12168
0.932322
0.724046
0.495364
0.244702
-0.0295549
-0.329033
-0.655374
-1.01027
-1.39555
-1.8132
-2.26553
-2.75515
-3.28507
-3.85867
-4.47969
-5.15219
-5.88041
-6.66876
-7.52168
-8.44355
-9.43863
-10.511
-11.6644
-12.9023
-14.2277
-15.6427
-17.1488
-18.7462
-20.4335
-22.2078
-24.0638
-25.9939
-27.988
-30.0333
-32.1146
-34.2147
-36.3147
-38.395
3.676
3.50437
3.33389
3.16636
3.00346
2.84674
2.69755
2.55702
2.42607
2.30539
2.1955
2.09673
2.00925
1.93314
1.86835
1.81473
1.77208
1.74013
1.71852
1.70686
1.70464
1.7113
1.72617
1.74848
1.77734
1.81174
1.85058
1.89267
1.93675
1.98154
2.0258
2.06834
2.10808
2.14401
2.17522
2.20083
2.21996
2.23166
2.23495
2.22874
2.21198
2.18362
2.14279
2.08877
2.02109
1.93948
1.84381
1.73399
1.60985
1.47107
1.31705
1.14691
0.959471
0.753332
0.526921
0.278587
0.00667539
-0.290434
-0.61433
-0.966614
-1.34899
-1.76335
-2.21189
-2.69718
-3.22222
-3.79043
-4.40562
-5.07196
-5.79385
-6.5758
-7.4224
-8.33812
-9.32734
-10.3942
-11.5427
-12.7764
-14.0985
-15.5115
-17.0173
-18.6165
-20.3082
-22.09
-23.9569
-25.9016
-27.914
-29.9812
-32.0873
-34.2145
-36.3428
-38.4515
3.67756
3.50082
3.32532
3.15302
2.98577
2.82523
2.6728
2.52964
2.39665
2.27448
2.1636
2.06426
1.97659
1.90059
1.83616
1.78314
1.74129
1.71033
1.68992
1.67967
1.67912
1.68772
1.70483
1.72968
1.7614
1.79895
1.84118
1.88681
1.93448
1.9828
2.03042
2.0761
2.11872
2.15734
2.19114
2.21935
2.24119
2.25576
2.26203
2.25883
2.24489
2.21902
2.18017
2.12756
2.06077
1.9797
1.88447
1.77529
1.65225
1.51525
1.36377
1.19693
1.01344
0.811708
0.589946
0.346327
0.0790976
-0.213353
-0.532491
-0.879706
-1.25644
-1.66434
-2.1054
-2.58205
-3.09727
-3.65457
-4.25794
-4.91179
-5.62081
-6.38979
-7.22357
-8.12685
-9.10419
-10.16
-11.2983
-12.5232
-13.8382
-15.2467
-16.7512
-18.3533
-20.0533
-21.8494
-23.7378
-25.7117
-27.7611
-29.8726
-32.0296
-34.2123
-36.3989
-38.566
3.68009
3.49534
3.31199
3.13228
2.95831
2.79191
2.63458
2.4875
2.35153
2.22724
2.11498
2.01492
1.92705
1.8513
1.78748
1.73538
1.69474
1.66526
1.64662
1.63846
1.64036
1.65182
1.67225
1.70093
1.73698
1.77936
1.82681
1.87793
1.93118
1.98497
2.03776
2.08815
2.13503
2.17752
2.21501
2.24696
2.27279
2.29172
2.30266
2.30424
2.29489
2.273
2.23724
2.18666
2.12092
2.04021
1.94512
1.83641
1.71467
1.58015
1.43251
1.27083
1.09359
0.898824
0.684346
0.447974
0.187749
-0.09793
-0.410302
-0.750368
-1.11909
-1.51767
-1.9477
-2.41143
-2.91178
-3.4524
-4.03761
-4.67223
-5.36143
-6.1105
-6.92467
-7.80895
-8.76812
-9.80673
-10.9292
-12.14
-13.4434
-14.8436
-16.3445
-17.9492
-19.6596
-21.4759
-23.3955
-25.4129
-27.5185
-29.6984
-31.9345
-34.2045
-36.4828
-38.7419
3.68382
3.48774
3.29327
3.10315
2.91984
2.74542
2.5815
2.42926
2.28948
2.16257
2.04873
1.94792
1.85999
1.78473
1.72185
1.67105
1.63204
1.60451
1.58817
1.5827
1.58775
1.60292
1.62772
1.66148
1.70339
1.75237
1.80707
1.86591
1.92703
1.98851
2.04844
2.10519
2.15755
2.20482
2.24675
2.28327
2.31422
2.33906
2.35666
2.3653
2.36281
2.34687
2.31551
2.26748
2.2025
2.1213
2.02529
1.91617
1.7954
1.66382
1.52137
1.36703
1.19886
1.01422
0.810178
0.583873
0.332962
0.0558446
-0.248319
-0.579834
-0.938846
-1.32575
-1.74156
-2.18813
-2.66835
-3.18609
-3.74617
-4.35411
-5.01587
-5.7375
-6.52482
-7.38322
-8.31762
-9.33269
-10.433
-11.6234
-12.9091
-14.2954
-15.7882
-17.3927
-19.1134
-20.9533
-22.9123
-24.9869
-27.1686
-29.4432
-31.7905
-34.1844
-36.5939
-38.985
3.68917
3.47768
3.26817
3.06409
2.86847
2.68369
2.5115
2.35301
2.20878
2.07902
1.96361
1.86227
1.77463
1.70026
1.63874
1.58968
1.55273
1.52759
1.51399
1.51171
1.5205
1.54011
1.5702
1.61025
1.65955
1.71705
1.78132
1.8505
1.9223
1.99418
2.06361
2.12845
2.18729
2.23973
2.28618
2.3275
2.36435
2.39672
2.42347
2.4423
2.44996
2.44284
2.4177
2.37259
2.30734
2.22359
2.12424
2.01261
1.8916
1.76303
1.62725
1.48306
1.32773
1.15748
0.967963
0.75511
0.515821
0.248479
-0.0470329
-0.369784
-0.718502
-1.09229
-1.49117
-1.91646
-2.37094
-2.85887
-3.38585
-3.95852
-4.58413
-5.26993
-6.02264
-6.84803
-7.75098
-8.73586
-9.80709
-10.9697
-12.2297
-13.594
-15.0709
-16.6686
-18.3957
-20.2589
-22.2626
-24.4066
-26.6847
-29.083
-31.5791
-34.1414
-36.7312
-39.3041
3.69675
3.46465
3.23512
3.01275
2.80136
2.60376
2.42171
2.25611
2.10719
1.9747
1.85814
1.75683
1.67008
1.59721
1.53762
1.49081
1.45636
1.43398
1.42347
1.4247
1.43761
1.46216
1.49825
1.54563
1.60382
1.67191
1.74844
1.83123
1.91736
2.0033
2.08532
2.16024
2.22618
2.28316
2.33292
2.37804
2.42085
2.46236
2.50157
2.53526
2.55832
2.56462
2.54853
2.50658
2.4387
2.34823
2.24076
2.12245
1.99858
1.8725
1.74517
1.615
1.47801
1.32836
1.15926
0.964318
0.738982
0.48159
0.193393
-0.122421
-0.462138
-0.822752
-1.2028
-1.6028
-2.02542
-2.47548
-2.95978
-3.48675
-4.06574
-4.70606
-5.41581
-6.20115
-7.06636
-8.01467
-9.04956
-10.1757
-11.3998
-12.7307
-14.1793
-15.7584
-17.4816
-19.3621
-21.4106
-23.633
-26.0276
-28.582
-31.2719
-34.0589
-36.8925
-39.7125
3.70758
3.4478
3.19162
2.94547
2.7143
2.50132
2.30813
2.13512
1.98185
1.8474
1.73063
1.63036
1.54546
1.47497
1.41805
1.37407
1.34255
1.32323
1.31596
1.32081
1.33791
1.36754
1.40997
1.46539
1.53376
1.61455
1.70646
1.80707
1.91262
2.01797
2.11719
2.20486
2.27787
2.33691
2.38622
2.43181
2.47913
2.5312
2.5875
2.64344
2.6907
2.71854
2.71648
2.67779
2.60248
2.49725
2.37277
2.2402
2.10861
1.98367
1.86709
1.75667
1.64642
1.52714
1.38767
1.2172
1.00821
0.758965
0.473501
0.159276
-0.175762
-0.525303
-0.885765
-1.25662
-1.64044
-2.04282
-2.47232
-2.9401
-3.45908
-4.04223
-4.70015
-5.4393
-6.26206
-7.16883
-8.16057
-9.24071
-10.4161
-11.6977
-13.0998
-14.6406
-16.3411
-18.2232
-20.308
-22.6115
-25.1399
-27.886
-30.8244
-33.9093
-37.0729
-40.2303
3.72326
3.42562
3.13354
2.85648
2.60093
2.37026
2.1654
1.98563
1.82935
1.69458
1.57931
1.48167
1.40006
1.33312
1.27979
1.23931
1.21114
1.19504
1.19098
1.19919
1.22012
1.25443
1.30291
1.36645
1.44575
1.54112
1.65187
1.77575
1.90809
2.04137
2.1656
2.27048
2.3496
2.40455
2.44477
2.48298
2.53044
2.59386
2.67383
2.764
2.85092
2.91542
2.93703
2.90164
2.80922
2.67386
2.5163
2.3564
2.20898
2.08266
1.98005
1.89801
1.82774
1.75488
1.66064
1.52543
1.3353
1.0884
0.794932
0.470849
0.131411
-0.212216
-0.553832
-0.891847
-1.22879
-1.57118
-1.92976
-2.31975
-2.7601
-3.27075
-3.86755
-4.55707
-5.33681
-6.20064
-7.14429
-8.16844
-9.27973
-10.4909
-11.8205
-13.293
-14.9387
-16.7924
-18.8906
-21.2657
-23.9388
-26.9126
-30.1659
-33.6459
-37.2621
-40.8887
3.74657
3.39527
3.05369
2.73639
2.45157
2.20191
1.98641
1.80221
1.64578
1.5136
1.40253
1.30987
1.23347
1.1716
1.123
1.08675
1.06231
1.04946
1.04828
1.05922
1.08303
1.12084
1.17414
1.24473
1.33457
1.44545
1.57833
1.73215
1.90212
2.07772
2.24177
2.37312
2.45604
2.4933
2.50611
2.52074
2.55865
2.63255
2.74536
2.88914
3.04328
3.17394
3.23951
3.20747
3.07765
2.8823
2.66309
2.45449
2.27881
2.14741
2.06327
2.02227
2.01269
2.01329
1.9925
1.91263
1.74405
1.48476
1.16035
0.80444
0.444524
0.0978791
-0.227171
-0.528686
-0.809361
-1.07627
-1.34205
-1.62695
-1.95991
-2.3753
-2.90149
-3.54496
-4.29048
-5.11753
-6.01212
-6.97069
-7.99954
-9.11349
-10.3352
-11.6959
-13.2368
-15.0095
-17.0742
-19.4908
-22.3043
-25.5367
-29.1809
-33.1862
-37.4361
-41.7375
3.78248
3.35078
2.93875
2.56943
2.25154
1.98427
1.76224
1.57871
1.4272
1.30218
1.19916
1.11462
1.04589
0.990948
0.94836
0.91715
0.896758
0.887008
0.888104
0.900653
0.92572
0.964904
1.02043
1.09524
1.19302
1.31805
1.47457
1.66523
1.88795
2.13063
2.36495
2.54538
2.6281
2.61718
2.56471
2.52488
2.53493
2.6151
2.77218
2.99921
3.2693
3.52606
3.68242
3.65397
3.44029
3.12498
2.79448
2.50509
2.28476
2.14398
2.08422
2.1012
2.18284
2.3024
2.4093
2.42745
2.28331
1.97476
1.57105
1.14371
0.738455
0.376796
0.0655128
-0.195612
-0.409829
-0.583044
-0.72687
-0.864995
-1.04109
-1.32034
-1.76662
-2.38594
-3.12681
-3.93717
-4.78783
-5.67172
-6.59681
-7.58087
-8.64982
-9.83952
-11.2008
-12.8059
-14.7512
-17.1441
-20.0667
-23.5675
-27.6756
-32.374
-37.5357
-42.8592
3.84056
3.27782
2.76224
2.32834
1.97858
1.70149
1.48264
1.30905
1.17043
1.05902
0.96912
0.896576
0.838402
0.792469
0.757298
0.731931
0.715843
0.708906
0.711394
0.724025
0.748049
0.785397
0.838904
0.912617
1.01219
1.14526
1.32159
1.55208
1.84495
2.19549
2.56562
2.85824
2.93492
2.80077
2.605
2.45709
2.41015
2.48681
2.69817
3.04716
3.51438
4.0226
4.39129
4.36705
3.94912
3.38937
2.86659
2.45618
2.17608
2.02379
1.99458
2.08691
2.29828
2.60964
2.95376
3.17585
3.05918
2.60166
2.01567
1.45111
0.969553
0.583122
0.285915
0.0698525
-0.0693993
-0.132207
-0.119971
-0.0484396
0.0262028
-0.0249663
-0.382606
-1.05196
-1.86313
-2.69877
-3.5157
-4.31342
-5.10914
-5.92601
-6.79048
-7.73601
-8.81372
-10.1124
-11.7835
-14.0347
-16.9964
-20.7237
-25.32
-30.8942
-37.4022
-44.4003
3.94085
3.13685
2.46797
1.96596
1.60079
1.3347
1.13773
0.988968
0.874434
0.78486
0.714047
0.657801
0.613258
0.578459
0.55209
0.533322
0.521719
0.517202
0.520051
0.530963
0.55116
0.582589
0.628249
0.692727
0.783066
0.910126
1.09055
1.34904
1.7188
2.23207
2.87781
3.48193
3.54521
3.07301
2.57627
2.2438
2.10726
2.16444
2.42582
2.92475
3.70027
4.71988
5.66584
5.64688
4.66204
3.60037
2.77673
2.21945
1.88324
1.72626
1.72983
1.90109
2.2696
2.86959
3.67379
4.41192
4.32576
3.41346
2.42928
1.63887
1.06356
0.660872
0.389393
0.224642
0.160887
0.210503
0.401468
0.763555
1.27457
1.71164
1.4502
0.486168
-0.564294
-1.48739
-2.27127
-2.95804
-3.59103
-4.20261
-4.81442
-5.44212
-6.10846
-6.88257
-7.98038
-9.90185
-12.8238
-16.6281
-21.5563
-28.0697
-36.5625
-46.6419
4.12881
2.80116
1.93322
1.4065
1.08032
0.868381
0.723377
0.619549
0.542455
0.483648
0.437969
0.402149
0.374057
0.352286
0.335914
0.324373
0.317371
0.314868
0.317075
0.324507
0.338075
0.359265
0.390469
0.435567
0.501037
0.598109
0.74705
0.985736
1.38593
2.07783
3.2498
4.88432
4.92645
3.38046
2.31086
1.74832
1.52532
1.54792
1.8113
2.40391
3.53453
5.52305
8.32963
8.31737
5.48538
3.46845
2.30325
1.66431
1.33222
1.19745
1.22352
1.43115
1.90749
2.83535
4.48883
6.83476
6.78179
4.32861
2.56373
1.51683
0.90892
0.549633
0.33913
0.233944
0.227863
0.349612
0.676423
1.361
2.62933
4.45396
4.29459
2.14865
0.551065
-0.476508
-1.16669
-1.6801
-2.10377
-2.47889
-2.81549
-3.09259
-3.24801
-3.18661
-2.99124
-4.32834
-7.38057
-10.914
-15.5095
-22.3948
-33.4377
-50.1776
4.51157
1.80343
0.907135
0.55816
0.395273
0.305638
0.249698
0.211609
0.184122
0.163511
0.147677
0.135353
0.125741
0.118324
0.112769
0.108873
0.106533
0.105737
0.106564
0.109204
0.113997
0.121508
0.132667
0.149052
0.17348
0.211377
0.274283
0.389821
0.632936
1.2322
2.95558
8.57954
8.59438
3.00177
1.3152
0.763832
0.589648
0.584631
0.72263
1.10824
2.13327
5.14802
15.0522
15.0479
5.13484
2.10989
1.07183
0.667253
0.496994
0.436969
0.455721
0.574209
0.895095
1.75609
4.30658
12.7117
12.6938
4.25244
1.66418
0.762556
0.396213
0.224103
0.137172
0.100498
0.110726
0.193387
0.436141
1.11776
3.18289
10.053
9.99946
3.02135
0.845521
0.0484774
-0.316679
-0.531392
-0.686445
-0.810644
-0.902234
-0.918279
-0.69978
0.31639
4.20458
3.71488
-1.24437
-3.67068
-6.16508
-10.7329
-22.1091
-56.3249
-40.6346
-42.9972
-45.2438
-47.3498
-49.2958
-51.0682
-52.6586
-54.0631
-55.2811
-56.3146
-57.1671
-57.8425
-58.345
-58.6778
-58.8436
-40.7209
-43.1128
-45.3842
-47.5093
-49.469
-51.2498
-52.8441
-54.2491
-55.4652
-56.4953
-57.3437
-58.0151
-58.5141
-58.8444
-59.0089
-40.8966
-43.3488
-45.6703
-47.8341
-49.8206
-51.6174
-53.2187
-54.6236
-55.8348
-56.8572
-57.6968
-58.3596
-58.8514
-59.1765
-59.3382
-41.1688
-43.715
-46.1139
-48.3359
-50.3614
-52.1801
-53.7892
-55.1913
-56.3927
-57.4014
-58.2261
-58.8748
-59.3548
-59.6715
-59.8289
-41.5494
-44.2282
-46.734
-49.0337
-51.1087
-52.9522
-54.5663
-55.9594
-57.1429
-58.1293
-58.9309
-59.5584
-60.0209
-60.3253
-60.4764
-42.0567
-44.9143
-47.5596
-49.956
-52.0873
-53.9531
-55.564
-56.9366
-58.0897
-59.0417
-59.8092
-60.4064
-60.8446
-61.1321
-61.2745
-42.7189
-45.8124
-48.6338
-51.1432
-53.3309
-55.2084
-56.7996
-58.1331
-59.2372
-60.1381
-60.8575
-61.4131
-61.8185
-62.0835
-62.2145
-43.58
-46.9823
-50.0195
-52.6517
-54.8842
-56.7497
-58.2926
-59.5583
-60.5877
-61.4155
-62.069
-62.5694
-62.9323
-63.1685
-63.2849
-44.7099
-48.5169
-51.8098
-54.5594
-56.804
-58.6132
-60.0623
-61.2192
-62.1396
-62.8667
-63.4333
-63.8629
-64.1722
-64.3727
-64.4713
-46.2254
-50.5653
-54.143
-56.9716
-59.1587
-60.8362
-62.1237
-63.1161
-63.884
-64.4782
-64.9341
-65.2761
-65.5206
-65.6783
-65.7557
-48.3346
-53.3753
-57.225
-60.0249
-62.0226
-63.4488
-64.4796
-65.2368
-65.8017
-66.2275
-66.5484
-66.7863
-66.9552
-67.0638
-67.1169
-51.4412
-57.3761
-61.3563
-63.8798
-65.4576
-66.4568
-67.1084
-67.549
-67.858
-68.0813
-68.2452
-68.3651
-68.4498
-68.5041
-68.5307
-56.4261
-63.3311
-66.9439
-68.6796
-69.4706
-69.8121
-69.9477
-69.9923
-69.9995
-69.9938
-69.9855
-69.9787
-69.9741
-69.9716
-69.9705
-65.5224
-72.5775
-74.4083
-74.4236
-73.9322
-73.3732
-72.8773
-72.4721
-72.1533
-71.9082
-71.724
-71.5895
-71.496
-71.4371
-71.4086
-85.4739
-87.0479
-83.6879
-80.6734
-78.461
-76.8707
-75.7156
-74.8649
-74.2326
-73.7613
-73.4122
-73.1589
-72.9827
-72.8716
-72.8178
7.42875
7.41433
7.38564
7.34304
7.28721
7.21947
7.14221
7.05979
6.98016
6.91795
6.90072
6.98347
7.29136
8.18297
11.0177
7.6344
7.61976
7.59056
7.54699
7.48945
7.41883
7.33693
7.24733
7.15705
7.0799
7.04273
7.09746
7.34232
7.94341
9.00764
7.84999
7.8351
7.80527
7.76045
7.70059
7.62585
7.53681
7.4351
7.3246
7.21389
7.12078
7.07927
7.14562
7.38198
7.73948
8.07572
8.0606
8.0302
7.98415
7.92188
7.8426
7.74528
7.62874
7.49204
7.33547
7.16285
6.98598
6.83066
6.73621
6.72241
8.31172
8.29651
8.26579
8.21892
8.1548
8.07168
7.96686
7.83613
7.67304
7.468
7.20774
6.87752
6.47321
6.03423
5.69862
8.55805
8.54296
8.51239
8.46547
8.40071
8.31564
8.20621
8.06574
7.88294
7.63871
7.301
6.82033
6.13967
5.26029
4.44466
8.81463
8.79994
8.77013
8.72422
8.66053
8.57628
8.46686
8.32445
8.13529
7.8742
7.49332
6.90183
5.94399
4.44188
2.62722
9.08117
9.0672
9.03883
8.99511
8.93443
8.85418
8.75016
8.61533
8.43737
8.19276
7.83163
7.23754
6.12615
3.84036
-0.447427
9.35715
9.34421
9.31796
9.27757
9.22172
9.14838
9.05456
8.93583
8.78548
8.59214
8.33144
7.93227
7.12375
4.62896
-6.49664
9.64186
9.63023
9.60667
9.57056
9.52094
9.45657
9.37596
9.27796
9.16318
9.03819
8.92716
8.91103
9.29223
11.411
22.303
9.93438
9.92428
9.90386
9.8727
9.83022
9.77579
9.70914
9.63137
9.54769
9.47443
9.45669
9.61357
10.2539
12.1002
16.0983
10.2336
10.2252
10.2083
10.1825
10.1476
10.1033
10.0497
9.98852
9.92465
9.87201
9.86466
9.98012
10.3778
11.2945
12.674
10.5385
10.5318
10.5185
10.4984
10.4712
10.4369
10.3954
10.3471
10.2935
10.238
10.1871
10.1504
10.1409
10.1673
10.2115
10.8476
10.8428
10.8333
10.8189
10.7996
10.7753
10.7454
10.709
10.6634
10.6007
10.4992
10.3015
9.87896
9.02732
7.78358
11.1597
11.1568
11.1511
11.1426
11.1314
11.1172
11.0995
11.0769
11.0447
10.9902
10.878
10.6083
9.91482
8.15931
4.49597
11.4735
11.4725
11.4707
11.4681
11.4649
11.4612
11.4569
11.451
11.4411
11.4198
11.3657
11.209
10.688
8.6159
-1.33155
11.7876
11.7885
11.7904
11.7936
11.7985
11.8054
11.8148
11.8276
11.8451
11.8719
11.9243
12.0623
12.5382
14.5411
24.4227
12.1007
12.1034
12.109
12.1178
12.1304
12.1475
12.1702
12.2004
12.2421
12.3062
12.4231
12.6804
13.3278
14.9946
18.5583
12.4117
12.4161
12.4251
12.4391
12.4588
12.4853
12.52
12.5647
12.6233
12.7037
12.8241
13.0273
13.4092
14.1302
15.1734
12.7193
12.7252
12.7373
12.7561
12.7824
12.8173
12.8623
12.9189
12.9889
13.0731
13.1673
13.2496
13.2549
13.0418
12.5176
13.0224
13.0297
13.0446
13.0676
13.0997
13.142
13.1961
13.2633
13.3443
13.4355
13.5182
13.5251
13.2519
12.1689
9.50281
13.3201
13.3286
13.3458
13.3725
13.4095
13.4582
13.5203
13.5977
13.6922
13.8035
13.9213
13.9947
13.811
12.3949
4.64152
13.6115
13.621
13.6403
13.6699
13.711
13.7648
13.8335
13.9197
14.0281
14.167
14.3548
14.6426
15.2255
17.0214
25.0208
13.896
13.9063
13.9271
13.9592
14.0033
14.0609
14.1339
14.2257
14.3422
14.4963
14.7184
15.0849
15.7974
17.3392
20.341
14.1729
14.1838
14.2059
14.2397
14.2859
14.3458
14.421
14.5141
14.6298
14.7782
14.9812
15.2866
15.7931
16.6427
17.7511
14.4419
14.4533
14.4762
14.5112
14.5587
14.6197
14.6951
14.7862
14.8943
15.022
15.1724
15.3482
15.5502
15.7658
15.9365
14.7026
14.7143
14.7379
14.7736
14.8219
14.8833
14.958
15.0457
15.1448
15.2498
15.3454
15.3911
15.2975
14.9197
14.2461
14.9547
14.9667
14.9907
15.027
15.0758
15.1373
15.2113
15.2969
15.3907
15.484
15.5527
15.5301
15.242
14.2785
12.0935
15.1982
15.2103
15.2346
15.2713
15.3204
15.3821
15.4562
15.5417
15.6364
15.7351
15.8231
15.8528
15.6553
14.4849
8.42938
15.4328
15.445
15.4696
15.5066
15.5561
15.6181
15.6926
15.7794
15.8789
15.9936
16.1332
16.333
16.7438
18.0833
24.2282
15.6584
15.6708
15.6956
15.7329
15.7827
15.845
15.9199
16.0077
16.1103
16.2346
16.401
16.6662
17.187
18.3439
20.638
15.875
15.8876
15.9126
15.9502
16.0003
16.0628
16.1377
16.2251
16.3262
16.4462
16.5997
16.8214
17.188
17.8144
18.647
16.0825
16.0952
16.1205
16.1584
16.2089
16.2717
16.3463
16.4322
16.5284
16.6345
16.7505
16.8755
17.0083
17.141
17.2403
16.2807
16.2935
16.3192
16.3576
16.4086
16.4719
16.5467
16.6315
16.7232
16.8158
16.8945
16.9236
16.8283
16.4902
15.9087
16.4695
16.4826
16.5087
16.5477
16.5995
16.6638
16.7396
16.8253
16.917
17.0064
17.0723
17.0576
16.8166
16.008
14.1795
16.6489
16.6622
16.6887
16.7285
16.7814
16.8471
16.9251
17.0141
17.1118
17.2133
17.3056
17.3483
17.1988
16.2335
11.1868
16.8185
16.8321
16.8592
16.8999
16.9541
17.0216
17.1025
17.1963
17.3035
17.4262
17.5728
17.7718
18.1471
19.2928
24.4356
16.9783
16.9921
17.0199
17.0615
17.117
17.1865
17.2702
17.3686
17.4838
17.6226
17.8029
18.0725
18.56
19.5758
21.5224
17.1279
17.1421
17.1704
17.213
17.2699
17.3412
17.4271
17.5285
17.6473
17.7898
17.9706
18.2212
18.6057
19.2116
19.9677
17.2672
17.2817
17.3107
17.3543
17.4124
17.4853
17.5729
17.6754
17.7938
17.9302
18.0892
18.2763
18.4972
18.7426
18.9447
17.396
17.4108
17.4405
17.485
17.5444
17.6187
17.7076
17.8108
17.9272
18.0548
18.1877
18.3074
18.3713
18.3032
18.0686
17.514
17.5292
17.5595
17.605
17.6657
17.7415
17.8319
17.9362
18.0522
18.1756
18.2948
18.3766
18.3368
17.9787
17.0362
17.621
17.6365
17.6676
17.7141
17.7762
17.8537
17.9461
18.0527
18.1715
18.2992
18.4272
18.5297
18.523
18.0594
15.3561
17.7168
17.7326
17.7644
17.812
17.8756
17.955
18.05
18.1599
18.2841
18.4224
18.5768
18.758
19.0262
19.6949
22.5053
17.801
17.8172
17.8497
17.8985
17.9636
18.0451
18.1428
18.2565
18.3863
18.5343
18.7072
18.9254
19.2507
19.8424
20.9132
17.8735
17.8901
17.9233
17.9732
18.0399
18.1235
18.224
18.3412
18.4754
18.6285
18.8056
19.0177
19.2899
19.6565
20.0717
17.9339
17.9509
17.9848
18.0358
18.1041
18.1898
18.2929
18.4133
18.5509
18.706
18.8791
19.0677
19.263
19.4363
19.5255
17.9821
17.9994
18.034
18.0861
18.1559
18.2435
18.3492
18.4727
18.6135
18.7708
18.9412
19.1124
19.2511
19.2739
19.0481
18.0178
18.0354
18.0706
18.1236
18.1948
18.2844
18.3925
18.5193
18.6642
18.8263
19.0022
19.1791
19.3194
19.2835
18.4208
18.0409
18.0587
18.0944
18.1482
18.2206
18.3119
18.4224
18.5525
18.7023
18.872
19.0618
19.2708
19.5095
19.8666
20.9154
18.051
18.069
18.1051
18.1596
18.2329
18.3255
18.4381
18.5713
18.7259
18.9037
19.1074
19.3411
19.617
19.9688
20.4315
18.0482
18.0663
18.1026
18.1574
18.2313
18.3249
18.439
18.5744
18.7329
18.9171
19.1317
19.3815
19.6713
19.9933
20.2761
18.0323
18.0504
18.0867
18.1416
18.2157
18.3096
18.4243
18.5609
18.7213
18.9093
19.131
19.3934
19.7028
20.0444
20.3241
18.0034
18.0213
18.0575
18.1122
18.1859
18.2795
18.3938
18.53
18.6901
18.878
19.1012
19.3721
19.7117
20.1377
20.5735
17.9614
17.9792
18.0149
18.069
18.142
18.2346
18.3475
18.4818
18.6389
18.8219
19.0379
19.3024
19.6601
20.2236
21.1325
17.9066
17.9241
17.9592
18.0124
18.0841
18.1751
18.2859
18.417
18.5691
18.7428
18.9401
19.1673
19.4654
20.069
22.3299
17.8391
17.8562
17.8905
17.9425
18.0125
18.1013
18.2094
18.337
18.4836
18.6472
18.8211
18.9822
19.0581
18.7628
16.674
17.7593
17.7759
17.8091
17.8595
17.9275
18.0138
18.1188
18.243
18.3856
18.5444
18.7103
18.8556
18.9083
18.7013
18.005
17.6675
17.6834
17.7154
17.7639
17.8295
17.9127
18.0144
18.1353
18.2759
18.4363
18.6133
18.7928
18.9385
18.9789
18.8595
17.5641
17.5793
17.6099
17.6561
17.7187
17.7984
17.8961
18.0132
18.1519
18.3165
18.514
18.7529
19.0413
19.3669
19.6382
17.4497
17.4641
17.4929
17.5366
17.5957
17.6711
17.7637
17.8753
18.0094
18.1738
18.3853
18.6778
19.1179
19.7921
20.6122
17.3248
17.3382
17.3652
17.406
17.4612
17.5313
17.6174
17.721
17.8452
17.9981
18.1997
18.4998
19.0316
20.1152
22.1627
17.1902
17.2025
17.2274
17.265
17.3158
17.3801
17.4585
17.5516
17.6605
17.7886
17.9451
18.1601
18.5619
19.7681
25.142
17.0464
17.0577
17.0803
17.1145
17.1606
17.2187
17.2888
17.3705
17.462
17.5591
17.6492
17.6901
17.533
16.5263
11.2604
16.8943
16.9044
16.9248
16.9555
16.9967
17.0485
17.1106
17.1818
17.259
17.3344
17.3868
17.3571
17.0939
16.2415
14.3285
16.7347
16.7436
16.7616
16.7887
16.825
16.8707
16.9254
16.9882
17.0567
17.1256
17.1807
17.1857
17.0636
16.6927
16.0748
16.5683
16.5761
16.5916
16.6151
16.6466
16.6862
16.734
16.7898
16.8537
16.9262
17.0089
17.102
17.2059
17.3147
17.3987
16.3961
16.4026
16.4158
16.4356
16.4621
16.4957
16.5364
16.5851
16.644
16.7198
16.8291
17.0101
17.3443
17.9535
18.7875
16.2188
16.2242
16.2349
16.251
16.2725
16.2997
16.3327
16.3726
16.4221
16.4898
16.5991
16.8113
17.2915
18.4354
20.7622
16.0374
16.0415
16.0498
16.0622
16.0787
16.0992
16.1238
16.1527
16.1869
16.2308
16.297
16.4257
16.7774
18.0953
24.3594
15.8526
15.8555
15.8615
15.8702
15.8816
15.8955
15.9113
15.9283
15.9446
15.9563
15.9509
15.8847
15.5919
14.3199
8.07458
15.6652
15.6671
15.6707
15.676
15.6825
15.69
15.6975
15.7036
15.7049
15.6934
15.6466
15.5006
15.086
13.9975
11.6977
15.4761
15.4769
15.4785
15.4804
15.4825
15.484
15.4842
15.4816
15.4737
15.4548
15.4105
15.3025
15.0478
14.5159
13.73
15.2859
15.2858
15.2855
15.2845
15.2824
15.2786
15.2722
15.2626
15.2495
15.2337
15.2181
15.2057
15.2018
15.21
15.2228
15.0954
15.0945
15.0925
15.089
15.0832
15.0745
15.062
15.0454
15.0265
15.0125
15.0229
15.1026
15.347
15.9004
16.7308
14.905
14.9035
14.9002
14.8946
14.8858
14.8727
14.854
14.8292
14.7997
14.7742
14.7789
14.8844
15.2775
16.3978
18.8217
14.7151
14.7133
14.7092
14.7022
14.6911
14.6743
14.6498
14.6154
14.5696
14.5148
14.4645
14.466
14.7026
15.9894
22.602
14.5262
14.5242
14.5198
14.5122
14.4999
14.4809
14.452
14.4089
14.3453
14.2523
14.1135
13.8837
13.398
11.882
5.11891
14.3381
14.3363
14.3322
14.325
14.3131
14.2939
14.2636
14.2159
14.1408
14.0214
13.8252
13.4787
12.8087
11.4178
8.80689
14.1509
14.1495
14.1465
14.1408
14.131
14.1144
14.0868
14.0413
13.9665
13.8438
13.6406
13.2979
12.7196
11.8004
10.6877
13.9641
13.9636
13.9622
13.9591
13.9532
13.9421
13.9219
13.8863
13.825
13.7219
13.5525
13.2803
12.867
12.3168
11.8016
13.7773
13.7778
13.7786
13.7792
13.7788
13.7757
13.7673
13.7485
13.7119
13.646
13.5352
13.36
13.1093
12.8084
12.5636
13.5897
13.5914
13.5947
13.5996
13.6058
13.6128
13.6192
13.6226
13.6186
13.6012
13.5622
13.4917
13.386
13.2604
13.1615
13.4006
13.4035
13.4094
13.4187
13.432
13.4499
13.4729
13.5011
13.5342
13.5713
13.6105
13.6473
13.6764
13.6934
13.6965
13.2091
13.213
13.2213
13.2347
13.2547
13.2831
13.3224
13.3756
13.4464
13.5397
13.66
13.8077
13.9748
14.1356
14.2395
13.0144
13.0191
13.0292
13.0458
13.0712
13.1084
13.1617
13.2371
13.3426
13.4893
13.6901
13.9541
14.2772
14.6167
14.8604
12.8161
12.8212
12.8321
12.8506
12.8793
12.9222
12.9853
13.077
13.2098
13.4013
13.6756
14.0591
14.5679
15.1637
15.6564
12.6138
12.6188
12.6295
12.648
12.6771
12.7216
12.7885
12.8879
13.0356
13.2556
13.5849
14.0765
14.7977
15.7817
16.8003
12.4077
12.412
12.4213
12.4376
12.464
12.5052
12.5686
12.6647
12.8106
13.0338
13.381
13.9339
14.8448
16.3751
18.6573
12.1983
12.2012
12.2078
12.2198
12.2402
12.2732
12.3253
12.4064
12.5315
12.7259
13.0339
13.5422
14.4613
16.4456
22.105
-141.214
-104.834
-91.8769
-85.6663
-82.0415
-79.6777
-78.0376
-76.8575
-75.9903
-75.3473
-74.8717
-74.5262
-74.2855
-74.1334
-74.0596
-119.532
-104.738
-94.6358
-88.4089
-84.4203
-81.7267
-79.8288
-78.451
-77.432
-76.6724
-76.1079
-75.696
-75.4081
-75.2256
-75.137
-108.13
-101.382
-94.7032
-89.5963
-85.8993
-83.2229
-81.2582
-79.7947
-78.6932
-77.8616
-77.2378
-76.7793
-76.4571
-76.2521
-76.1524
-101.42
-97.9779
-93.6785
-89.8041
-86.669
-84.2247
-82.3393
-80.8863
-79.7663
-78.9061
-78.2525
-77.7675
-77.4245
-77.2051
-77.0981
-97.1078
-95.1682
-92.3581
-89.4979
-86.9583
-84.8383
-83.1194
-81.7459
-80.6586
-79.8066
-79.1497
-78.657
-78.3056
-78.0796
-77.9691
-94.1485
-92.9627
-91.072
-88.9684
-86.9559
-85.173
-83.6594
-82.4061
-81.3867
-80.5713
-79.9326
-79.4478
-79.0991
-78.8736
-78.7629
-92.0191
-91.2461
-89.9335
-88.375
-86.7934
-85.3206
-84.0179
-82.9033
-81.9727
-81.213
-80.6083
-80.1438
-79.8067
-79.5874
-79.4794
-90.433
-89.9036
-88.9653
-87.7968
-86.555
-85.3497
-84.2453
-83.272
-82.4395
-81.7464
-81.1863
-80.7509
-80.4322
-80.2235
-80.1204
-89.2211
-88.8447
-88.1566
-87.2689
-86.2907
-85.3086
-84.3812
-83.5423
-82.8088
-82.1872
-81.6774
-81.2766
-80.9808
-80.7859
-80.6893
-88.2771
-88.0017
-87.4862
-86.8031
-86.0287
-85.2293
-84.455
-83.7387
-83.1
-82.5497
-82.0925
-81.7292
-81.4588
-81.2797
-81.1906
-87.5307
-87.3248
-86.9319
-86.4001
-85.7834
-85.1323
-84.4881
-83.8804
-83.3292
-82.8473
-82.442
-82.1167
-81.8729
-81.7106
-81.6296
-86.9339
-86.7774
-86.4736
-86.0554
-85.5615
-85.0303
-84.4953
-83.9822
-83.5098
-83.0913
-82.7355
-82.4474
-82.23
-82.0846
-82.0118
-86.4523
-86.3319
-86.0943
-85.7626
-85.365
-84.9308
-84.4869
-84.055
-83.6522
-83.2913
-82.9815
-82.7287
-82.5367
-82.4078
-82.343
-86.0607
-85.9674
-85.7799
-85.515
-85.1935
-84.8378
-84.4696
-84.107
-83.765
-83.4555
-83.1875
-82.9674
-82.7992
-82.6859
-82.6288
-85.7405
-85.6677
-85.5188
-85.3061
-85.0451
-84.7532
-84.4479
-84.1441
-83.8547
-83.5905
-83.36
-83.1695
-83.0233
-82.9244
-82.8745
-85.4773
-85.4205
-85.3017
-85.1302
-84.9176
-84.6777
-84.4246
-84.1704
-83.9262
-83.7016
-83.5044
-83.3404
-83.2141
-83.1284
-83.0851
-85.2602
-85.2158
-85.1208
-84.9821
-84.8086
-84.6113
-84.4014
-84.1891
-83.9836
-83.7933
-83.6252
-83.4849
-83.3763
-83.3025
-83.2651
-85.0803
-85.0458
-84.9697
-84.8574
-84.7158
-84.5533
-84.3795
-84.2024
-84.0299
-83.8691
-83.7265
-83.6069
-83.5141
-83.4508
-83.4187
-84.9309
-84.9044
-84.8435
-84.7525
-84.6368
-84.5032
-84.3593
-84.2118
-84.0673
-83.932
-83.8114
-83.7099
-83.6309
-83.5769
-83.5495
-84.8064
-84.7863
-84.7378
-84.6642
-84.5697
-84.4599
-84.341
-84.2185
-84.0978
-83.9843
-83.8826
-83.7968
-83.7299
-83.6841
-83.6608
-84.7024
-84.6875
-84.6491
-84.5898
-84.5128
-84.4228
-84.3248
-84.2233
-84.1228
-84.0278
-83.9425
-83.8703
-83.8139
-83.7752
-83.7555
-84.6152
-84.6046
-84.5744
-84.5269
-84.4645
-84.3909
-84.3104
-84.2267
-84.1433
-84.0642
-83.9929
-83.9325
-83.8851
-83.8526
-83.836
-84.5419
-84.5348
-84.5115
-84.4738
-84.4234
-84.3636
-84.2979
-84.2291
-84.1603
-84.0947
-84.0355
-83.9851
-83.9456
-83.9184
-83.9046
-84.48
-84.4759
-84.4583
-84.4287
-84.3885
-84.3402
-84.2869
-84.2308
-84.1744
-84.1205
-84.0715
-84.0298
-83.9971
-83.9745
-83.963
-84.4274
-84.4258
-84.413
-84.3903
-84.3586
-84.3202
-84.2774
-84.2321
-84.1863
-84.1422
-84.1022
-84.068
-84.041
-84.0225
-84.013
-84.3826
-84.383
-84.3743
-84.3574
-84.333
-84.3029