/*--------------------------------*- C++ -*----------------------------------*\
| =========                 |                                                 |
| \\      /  F ield         | OpenFOAM: The Open Source CFD Toolbox           |
|  \\    /   O peration     | Version:  5.x                                   |
|   \\  /    A nd           | Web:      www.OpenFOAM.org                      |
|    \\/     M anipulation  |                                                 |
\*---------------------------------------------------------------------------*/
FoamFile
{
    version     2.0;
    format      ascii;
    class       volScalarField;
    location    "0.7";
    object      gradTx;
}
// * * * * * * * * * * * * * * * * * * * * * * * * * * * * * * * * * * * * * //

dimensions      [0 -1 0 1 0 0 0];

internalField   nonuniform List<scalar> 
3200
(
147.225
152.991
30.2477
2.57296
0.687044
-3.96034
-4.36403
-4.97206
-5.05516
-4.78895
-4.74371
-3.20492
-3.26049
-6.09502
-6.62543
-15.6168
-15.8443
-10.6698
-10.3931
-8.98288
-8.82547
-7.39366
-7.19451
-4.44072
-4.377
-6.25887
-6.57189
-12.0851
-12.1603
-8.01839
-7.78615
-6.42804
-6.25428
-3.68604
-3.73478
-7.76922
-7.82023
-4.9942
-4.80816
-3.67406
-3.58778
-3.06543
-3.00905
-2.25748
-2.18931
-1.59945
-1.53711
-0.880331
-0.85924
-1.17603
-1.16306
-0.640063
-0.60385
-0.308291
-0.294494
-0.308714
-0.302631
-0.146976
-0.14598
-0.210254
-0.243104
-0.830438
-0.879546
-1.20624
-1.26912
-1.99616
-2.1003
-3.19063
-3.32507
-4.45854
-4.61441
-5.83577
-5.98476
-6.96644
-6.99973
-1.64124
-1.28338
-0.496041
-0.142072
-13.1169
154.29
126.535
34.7141
6.72867
2.21294
-2.51583
-3.54898
-4.41799
-4.66028
-4.56592
-4.49877
-3.39895
-3.51827
-5.71893
-6.87954
-14.1924
-14.7404
-10.8695
-10.2806
-9.01249
-8.64135
-7.37928
-6.93331
-4.73394
-4.57255
-5.93604
-6.60434
-11.0432
-11.2197
-7.97386
-7.47857
-6.39983
-6.02172
-3.94474
-4.0362
-7.16295
-7.27173
-5.06737
-4.65276
-3.62925
-3.42976
-3.0158
-2.89312
-2.26591
-2.10962
-1.59538
-1.45322
-0.914699
-0.863338
-1.08087
-1.04914
-0.634135
-0.555342
-0.313676
-0.282434
-0.285373
-0.272295
-0.155812
-0.156399
-0.223519
-0.29863
-0.78418
-0.898871
-1.21205
-1.36357
-2.01759
-2.26565
-3.24262
-3.56772
-4.63418
-5.02007
-6.20283
-6.5736
-7.53431
-7.81192
-4.72371
-3.86733
-1.47079
-0.416613
-3.50303
160.161
104.946
36.6273
9.94581
3.74756
-1.21898
-2.74037
-3.8889
-4.27882
-4.34177
-4.29513
-3.5442
-3.69278
-5.38441
-6.88754
-13.0386
-13.8133
-10.9379
-10.1953
-9.00625
-8.49291
-7.33228
-6.74228
-4.94566
-4.70712
-5.64102
-6.48597
-10.1717
-10.4161
-7.81935
-7.19435
-6.34362
-5.85713
-4.11673
-4.21625
-6.67743
-6.81578
-5.069
-4.52177
-3.55151
-3.28035
-2.95454
-2.7974
-2.25552
-2.04426
-1.57645
-1.38521
-0.929596
-0.856694
-0.995688
-0.950576
-0.614769
-0.513358
-0.310652
-0.269013
-0.262678
-0.246099
-0.159969
-0.164161
-0.236469
-0.337744
-0.752762
-0.910262
-1.22433
-1.43793
-2.05526
-2.40184
-3.32069
-3.78074
-4.83706
-5.39388
-6.60239
-7.13888
-8.12954
-8.75877
-7.7169
-6.51288
-2.39183
-0.662363
6.12436
164.842
87.2782
36.8753
12.344
5.23324
-0.0596604
-1.94647
-3.39001
-3.91033
-4.12194
-4.11961
-3.65343
-3.80552
-5.05738
-6.70956
-12.0999
-13.0322
-10.921
-10.1279
-8.97303
-8.37041
-7.2625
-6.59956
-5.0951
-4.79483
-5.34959
-6.254
-9.43793
-9.72612
-7.586
-6.91922
-6.2729
-5.74276
-4.21517
-4.30187
-6.28488
-6.4353
-5.02269
-4.40775
-3.44587
-3.13318
-2.88659
-2.7171
-2.23195
-1.9892
-1.54649
-1.3278
-0.92921
-0.841596
-0.917891
-0.863653
-0.586042
-0.475439
-0.301196
-0.254191
-0.240401
-0.222694
-0.160521
-0.169205
-0.248266
-0.364316
-0.731653
-0.915401
-1.24065
-1.49615
-2.10378
-2.51517
-3.41713
-3.96993
-5.05995
-5.74167
-7.02889
-7.68604
-8.73928
-9.77249
-10.7166
-9.27511
-3.2172
-0.860245
15.7733
168.376
72.7744
36.0889
14.0458
6.64662
0.963756
-1.17004
-2.92788
-3.55408
-3.91059
-3.9626
-3.73789
-3.87423
-4.71428
-6.38198
-11.3393
-12.3728
-10.8513
-10.075
-8.91779
-8.26819
-7.175
-6.49057
-5.19642
-4.84837
-5.0442
-5.93086
-8.82
-9.13333
-7.29379
-6.64334
-6.1976
-5.66835
-4.24911
-4.31171
-5.96569
-6.1174
-4.94456
-4.30769
-3.31434
-2.98343
-2.8156
-2.64949
-2.19873
-1.94219
-1.50761
-1.27763
-0.916418
-0.819971
-0.845341
-0.785688
-0.550656
-0.440084
-0.286667
-0.238053
-0.218293
-0.201078
-0.158247
-0.171443
-0.258593
-0.380846
-0.717899
-0.914892
-1.25977
-1.54031
-2.16016
-2.60889
-3.52757
-4.13767
-5.29922
-6.06529
-7.48066
-8.21743
-9.34988
-10.7898
-13.8117
-12.222
-3.89452
-0.99162
25.4504
170.817
60.8295
34.7172
15.1623
7.99181
1.84559
-0.408363
-2.51081
-3.20848
-3.71134
-3.8166
-3.80786
-3.91473
-4.33799
-5.92274
-10.7357
-11.8156
-10.7519
-10.0373
-8.84232
-8.1838
-7.07122
-6.40603
-5.25995
-4.8802
-4.7112
-5.52765
-8.30514
-8.62671
-6.95408
-6.35935
-6.12571
-5.6296
-4.22384
-4.25796
-5.70667
-5.85257
-4.84508
-4.22198
-3.15638
-2.82722
-2.74462
-2.59331
-2.1578
-1.90235
-1.4606
-1.23274
-0.893072
-0.793505
-0.776221
-0.714764
-0.510314
-0.406462
-0.267962
-0.220775
-0.196096
-0.180498
-0.153743
-0.170733
-0.267526
-0.388795
-0.70976
-0.908483
-1.28147
-1.57091
-2.22341
-2.68385
-3.65039
-4.28339
-5.55437
-6.36301
-7.95965
-8.73307
-9.94824
-11.7439
-17.0913
-15.4384
-4.35484
-1.03904
35.16
172.222
50.9648
33.0837
15.784
9.29649
2.57211
0.347533
-2.14973
-2.87055
-3.52792
-3.67511
-3.87316
-3.94251
-3.91517
-5.3343
-10.2814
-11.3441
-10.6386
-10.019
-8.74546
-8.11765
-6.94963
-6.3408
-5.29289
-4.90364
-4.33881
-5.04602
-7.88855
-8.19991
-6.57131
-6.06098
-6.06439
-5.62732
-4.14104
-4.1477
-5.49983
-5.63395
-4.73031
-4.15406
-2.96906
-2.66123
-2.67644
-2.54857
-2.10972
-1.87002
-1.40507
-1.19238
-0.860158
-0.763779
-0.708896
-0.649586
-0.465971
-0.374245
-0.245621
-0.202612
-0.173549
-0.160375
-0.1475
-0.16684
-0.27549
-0.388767
-0.706523
-0.895117
-1.30654
-1.58701
-2.29437
-2.73858
-3.78658
-4.40363
-5.82806
-6.62927
-8.47165
-9.23112
-10.5235
-12.556
-20.651
-19.032
-4.50444
-0.987727
44.9039
172.634
42.8079
31.4275
15.9736
10.6111
3.11897
1.11459
-1.85955
-2.53504
-3.36483
-3.53153
-3.94356
-3.9741
-3.43442
-4.60466
-9.98235
-10.9433
-10.5219
-10.0269
-8.62285
-8.07318
-6.80574
-6.29319
-5.29953
-4.93414
-3.91557
-4.47901
-7.57324
-7.85076
-6.14388
-5.74214
-6.02077
-5.66707
-3.99859
-3.98368
-5.34178
-5.45692
-4.60252
-4.11056
-2.74672
-2.48238
-2.61405
-2.51632
-2.05373
-1.84674
-1.3395
-1.15683
-0.817843
-0.732423
-0.641774
-0.589403
-0.417972
-0.343522
-0.219871
-0.183904
-0.150378
-0.140251
-0.139977
-0.159383
-0.283279
-0.380571
-0.708465
-0.872852
-1.33686
-1.58604
-2.37588
-2.76919
-3.94004
-4.49162
-6.12672
-6.85395
-9.02703
-9.70792
-11.0691
-13.1255
-24.5992
-23.1419
-4.21359
-0.828179
54.6806
172.072
36.08
29.9345
15.76
12.0111
3.44659
1.92062
-1.66117
-2.19327
-3.22821
-3.3781
-4.02919
-4.02846
-2.88522
-3.70667
-9.85995
-10.5978
-10.4081
-10.0712
-8.46611
-8.05747
-6.6317
-6.26487
-5.28108
-4.9908
-3.42907
-3.81078
-7.37062
-7.58103
-5.6643
-5.39613
-6.00248
-5.75946
-3.79005
-3.7648
-5.23351
-5.31873
-4.4603
-4.10201
-2.48046
-2.28775
-2.56087
-2.4987
-1.98755
-1.83551
-1.26098
-1.12756
-0.765411
-0.701298
-0.573141
-0.534
-0.36611
-0.314781
-0.190626
-0.165109
-0.126281
-0.119742
-0.131674
-0.147755
-0.292138
-0.363158
-0.716956
-0.838613
-1.37578
-1.56347
-2.47326
-2.76872
-4.1183
-4.53629
-6.46175
-7.02084
-9.64216
-10.1576
-11.587
-13.3185
-29.0647
-27.9506
-3.30101
-0.560602
64.4849
170.517
30.59
28.7629
15.1296
13.6041
3.49283
2.80901
-1.5847
-1.83134
-3.12695
-3.20461
-4.14087
-4.12849
-2.2574
-2.59537
-9.95415
-10.2894
-10.3002
-10.1662
-8.26156
-8.0825
-6.41534
-6.26126
-5.23492
-5.09834
-2.86484
-3.01544
-7.302
-7.3964
-5.1188
-5.01518
-6.01821
-5.92095
-3.50378
-3.48619
-5.1806
-5.21833
-4.29811
-4.14403
-2.15708
-2.07451
-2.52114
-2.49906
-1.90704
-1.8412
-1.16484
-1.10746
-0.701074
-0.67275
-0.50096
-0.483759
-0.309596
-0.288961
-0.157443
-0.146853
-0.100897
-0.0984982
-0.12321
-0.130998
-0.303937
-0.33444
-0.734739
-0.787761
-1.4287
-1.51202
-2.59522
-2.7261
-4.33383
-4.52069
-6.85145
-7.10527
-10.3416
-10.5707
-12.0929
-12.9508
-34.2045
-33.7008
-1.51206
-0.202077
74.3081
277.022
51.1723
51.6158
13.5593
11.5921
0.511202
-0.0676527
-2.16269
-2.29084
-2.95838
-3.03634
-4.63244
-4.64232
-2.66646
-3.10363
-12.9625
-13.3581
-12.0859
-11.8891
-9.51057
-9.32103
-7.95732
-7.82192
-7.02604
-7.00005
-7.27039
-7.40438
-8.45576
-8.39036
-5.00713
-4.99928
-9.46555
-9.42825
-5.05777
-5.15424
-10.7328
-10.8981
-8.60855
-8.3085
-4.215
-4.17347
-7.75971
-7.80134
-5.75095
-5.59072
-4.18159
-4.03719
-2.23646
-2.24251
-4.44444
-4.47413
-3.32314
-3.20767
-1.70885
-1.72682
-3.80112
-3.82575
-2.26118
-2.36876
-6.30577
-6.4889
-6.72135
-6.81205
-8.26069
-8.44848
-10.9031
-11.159
-14.1219
-14.4032
-17.4992
-17.7976
-21.6996
-21.7426
-19.9896
-19.0772
-0.974496
-0.151492
-0.0329786
-0.00759908
119.929
309.282
41.7404
42.6592
13.7393
9.64609
0.676132
-0.579739
-2.36516
-2.64936
-3.19462
-3.34421
-4.49027
-4.53589
-3.33941
-4.37057
-12.4561
-13.3309
-12.2245
-11.7645
-9.77688
-9.3428
-8.14047
-7.80981
-7.01053
-6.95151
-7.32104
-7.68085
-8.8197
-8.71156
-5.97028
-5.90279
-9.14726
-9.02854
-5.61639
-5.8652
-10.5202
-10.8975
-8.95596
-8.28714
-5.05611
-4.94849
-7.61208
-7.67888
-6.04231
-5.6872
-4.50484
-4.18848
-2.77367
-2.77624
-4.41842
-4.46783
-3.54124
-3.29158
-2.12233
-2.15466
-3.72283
-3.77829
-2.64704
-2.88348
-5.95161
-6.34887
-6.62564
-6.83773
-8.0581
-8.48037
-10.5183
-11.0897
-13.5406
-14.1645
-16.7043
-17.3436
-20.3517
-20.3983
-18.6817
-16.6656
-2.2323
-0.42629
-0.0952074
-0.0220276
111.491
340.031
33.7821
34.8966
12.9269
7.89551
0.532757
-1.07049
-2.62758
-2.99739
-3.44667
-3.61219
-4.3921
-4.4791
-3.9232
-5.35528
-12.2381
-13.383
-12.3372
-11.7009
-9.98106
-9.3953
-8.28877
-7.81646
-6.96541
-6.88583
-7.37207
-7.92616
-9.23353
-9.13808
-6.82648
-6.67381
-8.9635
-8.76057
-6.02858
-6.39992
-10.4787
-10.9897
-9.25249
-8.3683
-5.77231
-5.61268
-7.56833
-7.62458
-6.28244
-5.8168
-4.79347
-4.38374
-3.25421
-3.24442
-4.45612
-4.50059
-3.73229
-3.41229
-2.48777
-2.5211
-3.70507
-3.77832
-2.97821
-3.28495
-5.70431
-6.21368
-6.53254
-6.8231
-7.88746
-8.44766
-10.1923
-10.9453
-13.0325
-13.8492
-15.9855
-16.7949
-19.1223
-19.1245
-17.3857
-14.7506
-2.98498
-0.642076
-0.147111
-0.0342392
103.053
369.62
26.937
28.0582
11.4377
6.23879
0.15941
-1.56284
-2.93737
-3.34217
-3.71002
-3.85557
-4.3216
-4.44797
-4.42739
-6.12186
-12.2494
-13.5227
-12.4336
-11.6807
-10.1399
-9.46867
-8.41171
-7.83827
-6.88944
-6.79752
-7.42038
-8.14133
-9.70347
-9.65325
-7.59632
-7.34714
-8.87943
-8.59375
-6.31663
-6.78634
-10.5799
-11.1719
-9.51494
-8.51798
-6.3911
-6.19229
-7.6006
-7.62625
-6.48756
-5.96876
-5.05762
-4.60783
-3.69
-3.66376
-4.54054
-4.5659
-3.90545
-3.55723
-2.81493
-2.84154
-3.73177
-3.81332
-3.26515
-3.60196
-5.53345
-6.08616
-6.44062
-6.77758
-7.73704
-8.36762
-9.90596
-10.7476
-12.5751
-13.4812
-15.3199
-16.1855
-17.986
-17.9204
-16.1256
-13.2009
-3.36073
-0.78392
-0.183717
-0.0430336
94.6159
398.325
20.9277
21.9305
9.49269
4.61807
-0.387714
-2.06881
-3.28578
-3.68834
-3.98222
-4.08609
-4.26463
-4.42263
-4.86286
-6.711
-12.4549
-13.7567
-12.5164
-11.692
-10.264
-9.55749
-8.51534
-7.87511
-6.7792
-6.6806
-7.46476
-8.32286
-10.2379
-10.2487
-8.29385
-7.9492
-8.86809
-8.50658
-6.49479
-7.0398
-10.8091
-11.4441
-9.75105
-8.71292
-6.93282
-6.70767
-7.68821
-7.67454
-6.66794
-6.13647
-5.30337
-4.8507
-4.09018
-4.04703
-4.65907
-4.65868
-4.06617
-3.71799
-3.11139
-3.12749
-3.79087
-3.87356
-3.51672
-3.85523
-5.41779
-5.96663
-6.34947
-6.70722
-7.59984
-8.25132
-9.64754
-10.5105
-12.1547
-13.0759
-14.6932
-15.5388
-16.9243
-16.7854
-14.9106
-11.9277
-3.44591
-0.846668
-0.201924
-0.0475751
86.1808
426.37
15.5348
16.3417
7.24627
3.00344
-1.06727
-2.59302
-3.66659
-4.03875
-4.26195
-4.31356
-4.20842
-4.38591
-5.24189
-7.14417
-12.8379
-14.0924
-12.5827
-11.7275
-10.3592
-9.65977
-8.60292
-7.93019
-6.62906
-6.52838
-7.50618
-8.4621
-10.8485
-10.9228
-8.92697
-8.50072
-8.90794
-8.48542
-6.57068
-7.1643
-11.1638
-11.8094
-9.96102
-8.9376
-7.4124
-7.17486
-7.81564
-7.7626
-6.82938
-6.31633
-5.53398
-5.10595
-4.46171
-4.40414
-4.80213
-4.77521
-4.21718
-3.88915
-3.383
-3.38759
-3.87325
-3.95142
-3.74054
-4.05958
-5.34274
-5.85381
-6.25938
-6.61554
-7.47235
-8.1053
-9.41052
-10.2422
-11.7633
-12.6429
-14.0974
-14.8706
-15.9237
-15.72
-13.74
-10.8745
-3.29573
-0.831203
-0.200495
-0.0474573
77.7475
453.944
10.578
11.1502
4.80689
1.38277
-1.84808
-3.13499
-4.07527
-4.39503
-4.54848
-4.54726
-4.14084
-4.32195
-5.57895
-7.42555
-13.3984
-14.5386
-12.6227
-11.7836
-10.4278
-9.77638
-8.67515
-8.01041
-6.43091
-6.33301
-7.54847
-8.54413
-11.5516
-11.6796
-9.49731
-9.0189
-8.98099
-8.52394
-6.54623
-7.15256
-11.6526
-12.2745
-10.1381
-9.18242
-7.84053
-7.60697
-7.97087
-7.88593
-6.97408
-6.50702
-5.75049
-5.36991
-4.80982
-4.74307
-4.96225
-4.91303
-4.35905
-4.06748
-3.63424
-3.62851
-3.97197
-4.0409
-3.9432
-4.22542
-5.29863
-5.74527
-6.17135
-6.50391
-7.35389
-7.93246
-9.1925
-9.9464
-11.3976
-12.1869
-13.529
-14.1913
-14.9734
-14.7255
-12.6047
-10.0097
-2.94094
-0.742353
-0.17994
-0.0427253
69.3159
481.211
5.9028
6.23644
2.25174
-0.244886
-2.70616
-3.69055
-4.50863
-4.75787
-4.84115
-4.79711
-4.0497
-4.21487
-5.8923
-7.54175
-14.1521
-15.107
-12.6196
-11.8603
-10.4682
-9.91101
-8.72995
-8.12724
-6.17349
-6.0851
-7.59954
-8.54567
-12.3699
-12.5289
-9.99949
-9.51945
-9.07079
-8.62328
-6.41842
-6.98507
-12.2965
-12.85
-10.2679
-9.44275
-8.22438
-8.01522
-8.14409
-8.04238
-7.10105
-6.70937
-5.95202
-5.6411
-5.13825
-5.07061
-5.13314
-5.07109
-4.49047
-4.25154
-3.86843
-3.85551
-4.08173
-4.13708
-4.13072
-4.35968
-5.27964
-5.63762
-6.08713
-6.37165
-7.24634
-7.73241
-8.99478
-9.62276
-11.0584
-11.7089
-12.9878
-13.5072
-14.0644
-13.8061
-11.4884
-9.32385
-2.39131
-0.588027
-0.142359
-0.0338581
60.886
508.321
1.36836
1.49633
-0.36214
-1.87338
-3.62296
-4.25254
-4.96462
-5.12729
-5.13887
-5.07507
-3.92201
-4.04723
-6.20668
-7.45942
-15.1319
-15.8131
-12.5474
-11.9624
-10.4752
-10.0706
-8.76163
-8.29812
-5.84147
-5.77307
-7.67335
-8.4321
-13.3348
-13.4857
-10.4197
-10.0187
-9.16054
-8.79291
-6.17973
-6.62779
-13.1309
-13.551
-10.3275
-9.71886
-8.56791
-8.40999
-8.32658
-8.23245
-7.20608
-6.9264
-6.13575
-5.92002
-5.44931
-5.39297
-5.30905
-5.24993
-4.60828
-4.44141
-4.08785
-4.07299
-4.19835
-4.23578
-4.30885
-4.46633
-5.28317
-5.52635
-6.00955
-6.21583
-7.15439
-7.50136
-8.82248
-9.26686
-10.7506
-11.2058
-12.4771
-12.8216
-13.188
-12.969
-10.366
-8.82868
-1.63647
-0.379375
-0.0912786
-0.0217202
52.4573
535.42
-3.1622
-3.16374
-2.98942
-3.49198
-4.58432
-4.81111
-5.44251
-5.50271
-5.43957
-5.39657
-3.74315
-3.79817
-6.55727
-7.12024
-16.3914
-16.6769
-12.368
-12.1005
-10.4389
-10.2664
-8.7595
-8.54873
-5.41391
-5.3823
-7.79281
-8.15276
-14.4898
-14.5713
-10.7333
-10.5363
-9.23067
-9.05236
-5.8186
-6.02831
-14.2085
-14.3977
-10.2826
-10.0167
-8.87174
-8.8018
-8.50951
-8.45985
-7.28128
-7.1639
-6.29652
-6.20917
-5.74382
-5.71646
-5.48399
-5.4521
-4.70711
-4.63878
-4.29375
-4.28488
-4.31852
-4.33306
-4.48364
-4.54663
-5.30967
-5.40552
-5.94309
-6.03075
-7.08614
-7.23138
-8.68528
-8.86941
-10.4841
-10.6701
-12.0034
-12.1352
-12.335
-12.2272
-9.20092
-8.55969
-0.644201
-0.13195
-0.031448
-0.00748276
44.0294
527.495
-2.90664
-2.81783
-1.63322
-2.07294
-3.18359
-3.43855
-4.21006
-4.30104
-4.34112
-4.31108
-2.99818
-3.02037
-4.67151
-5.05775
-12.4629
-12.8071
-11.5851
-11.55
-10.2155
-10.0767
-8.71148
-8.49437
-5.35855
-5.32263
-7.78891
-8.15793
-14.6849
-14.7695
-10.7454
-10.5384
-9.32915
-9.14974
-5.79677
-6.04555
-15.1272
-15.3659
-11.2385
-10.9817
-9.77672
-9.71534
-9.77608
-9.7505
-8.58209
-8.46595
-7.43519
-7.31296
-6.13373
-5.98177
-3.84732
-3.88633
-7.18789
-7.19092
-3.89267
-3.90007
-7.18933
-7.20381
-3.90728
-3.89361
-5.91344
-6.34248
-13.7091
-13.972
-11.7734
-11.7278
-11.7783
-11.8159
-12.1244
-12.1562
-12.2646
-12.2961
-11.8308
-11.6242
-8.17764
-7.5546
-0.508733
-0.0977817
-0.0229135
-0.0052762
78.4982
499.883
1.7065
2.06314
1.15754
-0.199782
-1.98402
-2.69405
-3.62313
-3.87091
-3.991
-3.9494
-3.00345
-3.05826
-4.37336
-5.20071
-11.0763
-11.889
-11.4347
-11.4287
-10.3656
-10.0462
-8.81144
-8.32278
-5.83187
-5.74804
-7.68298
-8.45983
-13.5117
-13.6722
-10.4771
-10.0489
-9.21178
-8.84167
-6.19274
-6.72982
-13.9279
-14.4651
-11.3275
-10.7497
-9.54059
-9.39732
-9.58647
-9.55198
-8.59354
-8.3238
-7.39285
-7.10478
-6.08102
-5.74554
-4.07934
-4.15281
-6.6479
-6.65709
-4.18876
-4.2119
-6.72634
-6.77123
-4.34848
-4.35745
-6.09822
-7.0442
-12.9125
-13.5156
-12.0416
-11.9873
-12.1089
-12.2104
-12.5155
-12.5967
-12.7271
-12.8385
-12.6856
-12.2058
-8.93012
-7.43084
-1.26075
-0.279864
-0.0664291
-0.0152939
86.3214
472.25
6.32517
6.9951
3.96687
1.69084
-0.827141
-1.94062
-3.06335
-3.44583
-3.64732
-3.62388
-2.96867
-3.04571
-4.09468
-5.14171
-9.89213
-11.0216
-11.2662
-11.3496
-10.4859
-10.0523
-8.88157
-8.2313
-6.20892
-6.0927
-7.62337
-8.59073
-12.5342
-12.7092
-10.0981
-9.57565
-9.07572
-8.62475
-6.46126
-7.14766
-12.995
-13.7112
-11.3141
-10.543
-9.26187
-9.06602
-9.40583
-9.39045
-8.57746
-8.20812
-7.32483
-6.92606
-6.00081
-5.56258
-4.24181
-4.32245
-6.20737
-6.22239
-4.38522
-4.42411
-6.36215
-6.43737
-4.69245
-4.75204
-6.31481
-7.54905
-12.3265
-13.1423
-12.253
-12.2397
-12.4404
-12.5969
-12.9156
-13.0353
-13.1903
-13.3914
-13.5535
-12.8991
-9.61141
-7.49374
-1.80504
-0.43114
-0.10339
-0.0237751
94.1444
444.449
11.0842
12.0758
6.74693
3.59178
0.273987
-1.18655
-2.53303
-3.02791
-3.31258
-3.32359
-2.90458
-2.99425
-3.81603
-4.93449
-8.85275
-10.1895
-11.1041
-11.3084
-10.5891
-10.0879
-8.93092
-8.19473
-6.50974
-6.37149
-7.58629
-8.60257
-11.7075
-11.8576
-9.63558
-9.10153
-8.9377
-8.47632
-6.61578
-7.35905
-12.2674
-13.0819
-11.2357
-10.3568
-8.93978
-8.71334
-9.23943
-9.26087
-8.54369
-8.11307
-7.23749
-6.76847
-5.90118
-5.41496
-4.34827
-4.41997
-5.84168
-5.86183
-4.50668
-4.5604
-6.07252
-6.17636
-4.96427
-5.08655
-6.54457
-7.91221
-11.899
-12.8373
-12.4294
-12.4835
-12.7737
-12.9768
-13.3237
-13.4725
-13.6518
-13.9459
-14.454
-13.6976
-10.2457
-7.6992
-2.17648
-0.540402
-0.130332
-0.0299058
101.967
416.324
16.1234
17.4104
9.44106
5.50001
1.30137
-0.436707
-2.03658
-2.61828
-2.98873
-3.04047
-2.8201
-2.91346
-3.52544
-4.61519
-7.9165
-9.37422
-10.9704
-11.304
-10.6835
-10.1497
-8.96346
-8.19614
-6.7487
-6.59617
-7.55715
-8.53088
-10.9989
-11.1009
-9.10553
-8.6126
-8.81158
-8.38385
-6.66615
-7.40383
-11.7035
-12.5591
-11.1186
-10.1921
-8.57013
-8.33062
-9.09327
-9.16088
-8.49852
-8.0359
-7.13397
-6.62688
-5.78639
-5.29064
-4.40925
-4.46354
-5.53211
-5.55633
-4.57185
-4.63841
-5.83928
-5.96805
-5.18277
-5.36767
-6.77801
-8.17066
-11.5936
-12.5862
-12.5874
-12.7181
-13.1106
-13.3511
-13.7398
-13.9086
-14.1088
-14.4919
-15.405
-14.6037
-10.8434
-8.02335
-2.39215
-0.600411
-0.144774
-0.0331071
109.789
387.71
21.5977
23.1165
11.9752
7.41943
2.23091
0.30797
-1.58065
-2.21698
-2.67756
-2.76818
-2.72303
-2.81187
-3.21566
-4.20731
-7.05387
-8.55325
-10.8871
-11.3378
-10.7744
-10.2376
-8.97928
-8.22478
-6.93589
-6.77631
-7.5275
-8.3994
-10.385
-10.4282
-8.51538
-8.09599
-8.71051
-8.34297
-6.61828
-7.30613
-11.2774
-12.1281
-10.9811
-10.0554
-8.14526
-7.90787
-8.97497
-9.09016
-8.44545
-7.97638
-7.01476
-6.49873
-5.65789
-5.18182
-4.43288
-4.46661
-5.26438
-5.29124
-4.59503
-4.6711
-5.64899
-5.79636
-5.36252
-5.59984
-7.0122
-8.34795
-11.3854
-12.3748
-12.7403
-12.9422
-13.4536
-13.7196
-14.1647
-14.3435
-14.5584
-15.0168
-16.4246
-15.628
-11.4032
-8.45954
-2.4539
-0.606746
-0.145337
-0.0330785
117.611
358.416
27.689
29.3302
14.2471
9.36502
3.03042
1.05163
-1.17461
-1.8226
-2.38112
-2.50128
-2.62056
-2.69763
-2.88229
-3.72513
-6.24501
-7.69877
-10.879
-11.4121
-10.8642
-10.3545
-8.97499
-8.27483
-7.07792
-6.92002
-7.49302
-8.22338
-9.84876
-9.83361
-7.86549
-7.53803
-8.64872
-8.35636
-6.47391
-7.07708
-10.9762
-11.7771
-10.8348
-9.95811
-7.65355
-7.43301
-8.8948
-9.04989
-8.38542
-7.93666
-6.87782
-6.38365
-5.51488
-5.08398
-4.42527
-4.43919
-5.02755
-5.05515
-4.58739
-4.6678
-5.49198
-5.64798
-5.51548
-5.78505
-7.24951
-8.45723
-11.2592
-12.1884
-12.8998
-13.154
-13.8065
-14.0809
-14.6004
-14.777
-14.9985
-15.5037
-17.5323
-16.7893
-11.9114
-9.0178
-2.34897
-0.557424
-0.131819
-0.0298235
125.432
328.214
34.6199
36.2139
16.1119
11.3695
3.65621
1.80551
-0.831508
-1.4317
-2.10215
-2.23438
-2.51973
-2.57903
-2.52251
-3.17577
-5.47866
-6.77513
-10.9767
-11.5296
-10.9526
-10.5061
-8.94355
-8.34477
-7.1784
-7.0345
-7.45224
-8.01156
-9.37816
-9.31719
-7.14998
-6.92253
-8.64305
-8.43335
-6.2301
-6.71619
-10.7989
-11.4959
-10.6859
-9.91801
-7.07854
-6.89091
-8.86694
-9.04246
-8.31683
-7.92143
-6.71838
-6.28365
-5.35443
-4.99533
-4.39082
-4.38884
-4.81321
-4.83892
-4.55788
-4.63479
-5.36176
-5.5112
-5.65241
-5.92252
-7.49714
-8.50279
-11.2079
-12.0108
-13.0776
-13.3499
-14.1746
-14.4325
-15.0498
-15.2087
-15.4272
-15.9296
-18.7508
-18.1157
-12.3398
-9.72671
-2.04863
-0.453265
-0.105258
-0.0236544
133.253
296.823
42.6735
43.9665
17.3631
13.4934
4.0479
2.59108
-0.569744
-1.0379
-1.84467
-1.96132
-2.42792
-2.46502
-2.13428
-2.56033
-4.75249
-5.73519
-11.2203
-11.6923
-11.0357
-10.7025
-8.87359
-8.43744
-7.23799
-7.12652
-7.40579
-7.76744
-8.96466
-8.88501
-6.35688
-6.22912
-8.71458
-8.59008
-5.87871
-6.21144
-10.757
-11.2749
-10.5353
-9.96082
-6.39751
-6.2623
-8.91115
-9.07113
-8.2351
-7.93857
-6.52827
-6.20349
-5.17124
-4.91655
-4.33231
-4.32149
-4.61487
-4.63501
-4.51409
-4.57584
-5.25468
-5.37478
-5.78423
-6.00785
-7.76757
-8.48042
-11.2328
-11.8226
-13.2873
-13.5238
-14.5655
-14.7698
-15.5177
-15.6382
-15.8446
-16.2629
-20.1075
-19.6476
-12.6415
-10.6379
-1.50476
-0.299058
-0.0679698
-0.0151721
141.074
263.887
52.2194
52.8354
17.7055
15.8407
4.12028
3.44495
-0.415603
-0.630518
-1.61477
-1.67424
-2.35327
-2.36569
-1.71573
-1.8742
-4.07462
-4.51511
-11.6643
-11.9001
-11.1059
-10.9586
-8.74794
-8.56065
-7.25408
-7.20291
-7.35605
-7.4899
-8.60224
-8.55078
-5.46777
-5.43117
-8.8905
-8.85027
-5.40555
-5.53817
-10.8762
-11.1043
-10.3782
-10.1232
-5.57939
-5.52236
-9.05494
-9.13967
-8.13182
-8.00031
-6.29479
-6.15167
-4.95699
-4.85099
-4.2509
-4.24201
-4.42748
-4.43677
-4.46304
-4.49222
-5.16998
-5.22683
-5.92351
-6.03176
-8.07991
-8.37649
-11.3442
-11.5996
-13.5462
-13.6655
-14.9898
-15.0854
-16.0106
-16.0642
-16.2536
-16.4591
-21.6363
-21.4413
-12.743
-11.8341
-0.643639
-0.105773
-0.0235115
-0.00521654
148.894
316.872
3.53512
3.18227
-5.81297
-6.12115
-4.22252
-4.48759
-12.2263
-12.4372
-9.84777
-9.5285
-6.85848
-6.63515
-4.00419
-4.14296
-7.20819
-7.63951
-14.1814
-14.2152
-10.2728
-9.92688
-6.49075
-6.19043
-3.28308
-3.26266
-4.75965
-4.98574
-8.38834
-8.32421
-4.47261
-4.31005
-5.17761
-5.16183
-4.26239
-4.23063
-3.60418
-3.5345
-2.69747
-2.56546
-1.26346
-1.27786
-2.94169
-2.98891
-2.38719
-2.3443
-2.29531
-2.2618
-1.51167
-1.64129
-5.57248
-5.82378
-6.97294
-7.1032
-7.95412
-8.09724
-10.4887
-10.5463
-8.02101
-8.71665
-26.4737
-27.1647
-25.1702
-25.1269
-25.176
-25.2392
-26.2996
-26.4022
-27.6062
-27.6416
-27.584
-27.5823
-28.6866
-28.4594
-23.6451
-24.5296
-55.3531
-54.415
-2.4433
-0.326606
547.416
328.401
2.27001
1.4045
-5.90156
-6.56689
-4.98812
-5.57096
-11.9169
-12.3602
-9.9897
-9.21674
-6.8638
-6.38797
-4.56546
-4.97552
-7.91326
-8.85743
-13.6414
-13.6416
-10.4398
-9.66964
-6.81957
-6.14833
-3.77369
-3.76719
-5.26414
-5.76451
-8.21377
-8.03419
-4.96173
-4.58043
-5.06748
-5.02013
-4.39081
-4.35404
-3.97233
-3.81626
-2.97713
-2.65609
-1.55266
-1.58252
-2.9456
-3.04857
-2.52613
-2.42007
-2.34
-2.26872
-1.73263
-2.00461
-5.04293
-5.61372
-6.82828
-7.14948
-7.84818
-8.15931
-10.0846
-10.2671
-8.75512
-10.2884
-24.1858
-25.6835
-24.4079
-24.3522
-24.4566
-24.6068
-25.4878
-25.7132
-26.6649
-26.7282
-26.6038
-26.5567
-27.1775
-26.626
-22.7489
-24.4329
-47.1998
-45.1564
-5.33567
-0.906105
518.462
339.843
1.12712
-0.115549
-6.25568
-7.10231
-5.66718
-6.42374
-11.8435
-12.3958
-10.0677
-8.9682
-6.79407
-6.19468
-5.03743
-5.70695
-8.69805
-9.92173
-13.2927
-13.196
-10.5097
-9.49565
-7.0613
-6.1744
-4.16959
-4.2116
-5.80849
-6.46533
-8.14436
-7.85991
-5.34325
-4.81611
-4.97875
-4.90175
-4.49557
-4.49127
-4.33148
-4.12537
-3.23611
-2.77805
-1.79654
-1.83388
-2.99995
-3.13327
-2.64844
-2.49482
-2.38435
-2.29426
-1.92127
-2.25729
-4.61208
-5.37792
-6.71936
-7.18067
-7.75776
-8.15682
-9.75021
-10.0558
-9.3674
-11.3655
-22.3939
-24.3133
-23.5967
-23.5712
-23.7354
-23.9451
-24.7022
-24.9951
-25.7592
-25.8223
-25.6206
-25.5044
-25.7153
-24.9256
-21.6303
-23.4928
-40.0388
-37.4087
-6.8123
-1.33862
489.539
351.24
0.0787101
-1.43955
-6.82138
-7.72885
-6.25845
-7.08989
-11.9647
-12.5466
-10.0967
-8.76268
-6.66138
-6.02372
-5.43633
-6.34548
-9.55348
-10.9001
-13.0827
-12.854
-10.5127
-9.37855
-7.2412
-6.24525
-4.48367
-4.59384
-6.39046
-7.12528
-8.15352
-7.77496
-5.64523
-5.02425
-4.89965
-4.79657
-4.58429
-4.63478
-4.69254
-4.46186
-3.47788
-2.92099
-1.99971
-2.04012
-3.09563
-3.24273
-2.75754
-2.56789
-2.42792
-2.33113
-2.08157
-2.42923
-4.2448
-5.11911
-6.64566
-7.20726
-7.6745
-8.10658
-9.46733
-9.88417
-9.87219
-12.0814
-20.9664
-23.0484
-22.7579
-22.7826
-23.0124
-23.2616
-23.9352
-24.2581
-24.8815
-24.9269
-24.6339
-24.439
-24.293
-23.3254
-20.3053
-21.9651
-33.6446
-30.7795
-7.28385
-1.59652
460.658
362.631
-0.901557
-2.6088
-7.56585
-8.45033
-6.75749
-7.59419
-12.2575
-12.8186
-10.081
-8.5879
-6.4702
-5.85077
-5.77534
-6.89201
-10.4833
-11.845
-12.9691
-12.5966
-10.4675
-9.30169
-7.37556
-6.34682
-4.72292
-4.90864
-7.01492
-7.77352
-8.219
-7.76012
-5.88693
-5.2126
-4.81976
-4.69583
-4.66257
-4.77806
-5.06522
-4.82855
-3.70264
-3.07856
-2.16446
-2.20579
-3.2277
-3.37753
-2.85487
-2.63901
-2.4698
-2.37414
-2.218
-2.54245
-3.91517
-4.83423
-6.61059
-7.23765
-7.59267
-8.01923
-9.22222
-9.72971
-10.2881
-12.5302
-19.8108
-21.8785
-21.9064
-21.9857
-22.2886
-22.5611
-23.1822
-23.5092
-24.0269
-24.0452
-23.6433
-23.3717
-22.9037
-21.8073
-18.7929
-20.0365
-27.8319
-24.9752
-7.04286
-1.67946
431.829
374.049
-1.84015
-3.64784
-8.47301
-9.27469
-7.15517
-7.94529
-12.7144
-13.2225
-10.0155
-8.43817
-6.21914
-5.65609
-6.06665
-7.33949
-11.5022
-12.7993
-12.9154
-12.4095
-10.3839
-9.25536
-7.47413
-6.47227
-4.88985
-5.14666
-7.69331
-8.43431
-8.32069
-7.80191
-6.08075
-5.38977
-4.72918
-4.59153
-4.73497
-4.91456
-5.45892
-5.2309
-3.9074
-3.2478
-2.29105
-2.3323
-3.3947
-3.53929
-2.93998
-2.70833
-2.50879
-2.41961
-2.33522
-2.61376
-3.60371
-4.51508
-6.62153
-7.27897
-7.50803
-7.90085
-9.00495
-9.57319
-10.6366
-12.7774
-18.8638
-20.7901
-21.053
-21.18
-21.566
-21.8467
-22.441
-22.7526
-23.1923
-23.1802
-22.6475
-22.3122
-21.5395
-20.3658
-17.1101
-17.8455
-22.4451
-19.7737
-6.2989
-1.60278
403.054
385.528
-2.7658
-4.56596
-9.54087
-10.2157
-7.4363
-8.13709
-13.3416
-13.775
-9.8849
-8.31417
-5.9019
-5.42249
-6.32345
-7.67132
-12.6357
-13.8008
-12.8865
-12.2832
-10.2644
-9.23525
-7.54164
-6.62104
-4.98327
-5.29311
-8.44394
-9.12931
-8.43864
-7.89187
-6.23344
-5.5658
-4.61775
-4.47605
-4.806
-5.03654
-5.88361
-5.67714
-4.08567
-3.42899
-2.37776
-2.41801
-3.59846
-3.73086
-3.01045
-2.77641
-2.5434
-2.46491
-2.43794
-2.65663
-3.2954
-4.14815
-6.69046
-7.33746
-7.41688
-7.75406
-8.80913
-9.39685
-10.9419
-12.8667
-18.0831
-19.7682
-20.2049
-20.3639
-20.8477
-21.1198
-21.7111
-21.9909
-22.3759
-22.3361
-21.6439
-21.2703
-20.1914
-19.0076
-15.2675
-15.4998
-17.3487
-15.004
-5.20357
-1.3904
374.329
397.1
-3.7123
-5.35687
-10.7805
-11.2947
-7.57807
-8.14862
-14.1596
-14.5004
-9.66154
-8.22388
-5.5074
-5.1337
-6.56235
-7.85843
-13.9211
-14.8855
-12.8453
-12.2136
-10.1055
-9.24184
-7.57833
-6.79857
-4.99882
-5.32594
-9.29321
-9.87938
-8.55088
-8.02635
-6.34657
-5.75311
-4.47413
-4.34177
-4.88107
-5.13394
-6.3505
-6.17885
-4.22661
-3.62601
-2.42087
-2.45815
-3.84419
-3.95658
-3.06151
-2.8445
-2.57188
-2.50818
-2.53085
-2.68269
-2.97855
-3.71365
-6.83523
-7.41869
-7.31545
-7.57859
-8.63202
-9.18219
-11.232
-12.8243
-17.4435
-18.7963
-19.368
-19.5349
-20.1379
-20.3801
-20.9936
-21.2251
-21.5764
-21.5181
-20.6276
-20.2566
-18.8474
-17.7515
-13.2658
-13.0891
-12.4198
-10.5322
-3.86857
-1.07053
345.648
408.802
-4.72257
-5.99646
-12.2164
-12.5428
-7.54823
-7.94244
-15.2043
-15.4331
-9.30217
-8.18478
-5.01922
-4.77282
-6.80654
-7.85483
-15.4103
-16.0903
-12.7476
-12.2031
-9.89693
-9.2805
-7.57976
-7.01697
-4.92934
-5.21319
-10.2777
-10.7061
-8.63099
-8.2071
-6.4163
-5.9679
-4.2847
-4.18068
-4.96765
-5.19284
-6.87299
-6.75184
-4.31354
-3.84726
-2.41432
-2.44438
-4.14091
-4.22265
-3.08549
-2.91485
-2.59203
-2.54802
-2.61861
-2.70301
-2.64413
-3.18371
-7.08155
-7.52742
-7.1994
-7.37153
-8.47505
-8.90753
-11.5403
-12.6607
-16.9346
-17.8555
-18.5472
-18.6884
-19.4426
-19.6255
-20.2915
-20.4544
-20.7933
-20.7335
-19.5904
-19.2845
-17.4909
-16.631
-11.0916
-10.698
-7.53946
-6.25131
-2.3788
-0.673311
317.001
420.678
-5.85439
-6.4381
-13.8879
-14.0036
-7.30276
-7.4615
-16.5303
-16.62
-8.74226
-8.22764
-4.4143
-4.32075
-7.09012
-7.59091
-17.1746
-17.4559
-12.5381
-12.2631
-9.62078
-9.3626
-7.53571
-7.29639
-4.76503
-4.90923
-11.4477
-11.6329
-8.64509
-8.44255
-6.43237
-6.23211
-4.03213
-3.98398
-5.07674
-5.19358
-7.46756
-7.41755
-4.32163
-4.1072
-2.34927
-2.36397
-4.50224
-4.5375
-3.07083
-2.99131
-2.60105
-2.58329
-2.70582
-2.72906
-2.28578
-2.51945
-7.46597
-7.66713
-7.06337
-7.12722
-8.34492
-8.54485
-11.9092
-12.371
-16.5598
-16.9239
-17.7485
-17.8175
-18.7701
-18.8517
-19.6095
-19.6767
-20.0261
-19.9921
-18.5199
-18.3719
-16.0971
-15.6976
-8.71157
-8.41728
-2.58414
-2.07364
-0.802257
-0.229597
288.375
)
;

boundaryField
{
    F1_1
    {
        type            calculated;
        value           nonuniform List<scalar> 
80
(
147.225
152.991
30.2477
2.57296
0.687044
-3.96034
-4.36403
-4.97206
-5.05516
-4.78895
-4.74371
-3.20492
-3.26049
-6.09502
-6.62543
-15.6168
-15.8443
-10.6698
-10.3931
-8.98288
-8.82547
-7.39366
-7.19451
-4.44072
-4.377
-6.25887
-6.57189
-12.0851
-12.1603
-8.01839
-7.78615
-6.42804
-6.25428
-3.68604
-3.73478
-7.76922
-7.82023
-4.9942
-4.80816
-3.67406
-3.58778
-3.06543
-3.00905
-2.25748
-2.18931
-1.59945
-1.53711
-0.880331
-0.85924
-1.17603
-1.16306
-0.640063
-0.60385
-0.308291
-0.294494