/*--------------------------------*- C++ -*----------------------------------*\
| =========                 |                                                 |
| \\      /  F ield         | OpenFOAM: The Open Source CFD Toolbox           |
|  \\    /   O peration     | Version:  5.x                                   |
|   \\  /    A nd           | Web:      www.OpenFOAM.org                      |
|    \\/     M anipulation  |                                                 |
\*---------------------------------------------------------------------------*/
FoamFile
{
    version     2.0;
    format      ascii;
    class       volScalarField;
    location    "0.7";
    object      gradTy;
}
// * * * * * * * * * * * * * * * * * * * * * * * * * * * * * * * * * * * * * //

dimensions      [0 -1 0 1 0 0 0];

internalField   nonuniform List<scalar> 
3200
(
200.304
-123.995
-94.4612
-60.3173
-47.7467
-45.6109
-32.4531
-37.5015
-26.8076
-33.483
-24.6216
-30.7351
-26.8808
-33.8687
-22.6592
-38.1021
-6.6629
-25.9833
-9.63913
-24.6316
-10.1857
-22.5355
-10.2883
-19.4125
-13.7584
-21.7571
-10.2163
-23.1216
1.29102
-12.8726
0.954362
-9.57154
0.999662
-6.76692
-2.11068
-10.5783
4.74876
-4.51776
3.48907
-2.77417
3.72767
-1.10671
4.13082
0.191673
3.90988
1.09301
3.84511
2.05078
3.37432
1.94224
4.39194
3.18338
4.35387
3.72034
4.24368
3.83534
4.48116
4.16863
4.36188
4.05139
4.23553
3.38524
4.80576
3.13648
4.80043
2.05915
4.71078
0.208497
4.38214
-2.41782
2.82133
-6.68747
-0.634709
-12.7423
-6.12373
-19.7859
-37.9485
-45.5394
-47.7826
-48.3329
156.024
-91.344
-84.2011
-59.4461
-47.3368
-44.1435
-33.63
-36.0252
-28.2142
-32.1435
-25.9783
-29.9006
-27.6747
-32.062
-24.1217
-33.3726
-11.231
-23.2179
-12.5713
-22.2288
-12.6881
-20.566
-12.3812
-18.3048
-14.9059
-19.9554
-11.8166
-19.5258
-2.24947
-10.8049
-1.25427
-7.84591
-0.83219
-5.86016
-2.98565
-8.26752
2.4733
-3.24526
2.09932
-1.81332
2.71205
-0.276182
3.26647
0.782091
3.27624
1.50735
3.39125
2.26684
3.14492
2.27957
4.04665
3.34196
4.17312
3.79443
4.16131
3.92183
4.3915
4.20449
4.32653
4.11358
4.19546
3.64038
4.58384
3.4868
4.49337
2.64275
4.19789
1.13504
3.54761
-1.14331
1.65503
-5.04066
-2.17809
-10.8112
-7.99361
-19.6064
-38.3719
-45.7539
-47.8509
-48.3554
121.638
-68.8749
-74.6461
-58.069
-46.5696
-42.9675
-34.2887
-34.955
-29.1489
-31.2052
-26.929
-29.3094
-28.2014
-30.7456
-24.8936
-29.8957
-14.4308
-21.3546
-14.6882
-20.591
-14.4909
-19.2362
-13.9071
-17.5675
-15.7129
-18.6789
-12.7806
-16.9272
-4.75437
-9.45917
-2.81507
-6.66246
-2.18044
-5.26767
-3.53261
-6.59602
0.857774
-2.41386
1.08118
-1.18879
1.99806
0.294108
2.64411
1.1742
2.81388
1.77627
3.05834
2.40337
2.98579
2.51208
3.80068
3.43953
4.04114
3.83905
4.10354
3.98026
4.3284
4.22827
4.30485
4.16424
4.18112
3.83581
4.44376
3.75316
4.30077
3.09025
3.86983
1.84264
2.99725
-0.1684
0.868374
-3.77639
-3.26196
-9.33858
-9.28678
-19.1414
-39.2512
-46.1803
-47.9833
-48.3985
94.8716
-53.7965
-65.9855
-56.4887
-45.4857
-41.9934
-34.5721
-34.1417
-29.7669
-30.518
-27.6111
-28.8554
-28.5795
-29.7626
-25.2289
-27.2349
-16.7324
-20.0323
-16.2998
-19.4307
-15.8575
-18.3072
-15.0711
-17.0486
-16.3249
-17.7548
-13.3408
-14.9792
-6.58219
-8.56551
-3.95439
-5.81045
-3.22426
-4.8665
-3.88615
-5.34381
-0.327428
-1.85191
0.294738
-0.781537
1.48062
0.703076
2.17531
1.44263
2.45925
1.95298
2.80345
2.49089
2.86934
2.6745
3.62108
3.49894
3.94164
3.86531
4.06157
4.02011
4.28349
4.24522
4.2921
4.20881
4.18147
3.9933
4.35579
3.97016
4.17863
3.45827
3.65413
2.42302
2.6197
0.638365
0.308864
-2.71869
-4.08248
-8.11144
-10.1841
-18.2667
-40.6583
-46.8122
-48.1717
-48.4585
74.051
-44.1779
-58.1926
-54.9684
-44.1009
-41.1755
-34.5746
-33.485
-30.1786
-29.9757
-28.1256
-28.4607
-28.8978
-29.0067
-25.3008
-25.0726
-18.4801
-18.9896
-17.635
-18.537
-16.9815
-17.6039
-16.0251
-16.6363
-16.8494
-17.0631
-13.6574
-13.4314
-7.99348
-7.93438
-4.83383
-5.13499
-4.09787
-4.56921
-4.14119
-4.34965
-1.25014
-1.43602
-0.362064
-0.507162
1.08537
1.0226
1.79521
1.64154
2.16595
2.0758
2.59543
2.55108
2.77612
2.79154
3.48447
3.53598
3.86312
3.88087
4.02929
4.04795
4.25081
4.25893
4.2847
4.2513
4.1884
4.1289
4.29787
4.16349
4.09374
3.78971
3.49555
2.94632
2.32927
1.37902
-0.14281
-1.72768
-4.79661
-6.96283
-10.8414
-16.8199
-42.7151
-47.6362
-48.4034
-48.5301
57.9592
-38.728
-51.0891
-53.7536
-42.398
-40.5043
-34.3563
-32.9164
-30.4655
-29.4988
-28.5522
-28.0613
-29.2285
-28.4027
-25.233
-23.1643
-19.9431
-18.0207
-18.8794
-17.7409
-18.0178
-16.9882
-16.8909
-16.2394
-17.3733
-16.5157
-13.8464
-12.0915
-9.18914
-7.42444
-5.57677
-4.51265
-4.91075
-4.30752
-4.37042
-3.48748
-2.04113
-1.07024
-0.969851
-0.302063
0.756531
1.3089
1.45235
1.81349
1.89739
2.17436
2.41008
2.60061
2.69139
2.88157
3.37361
3.56208
3.79704
3.89128
4.00227
4.06848
4.22599
4.27199
4.27973
4.29501
4.19524
4.2554
4.25212
4.35428
4.01825
4.12079
3.3472
3.47234
2.05216
2.14252
-0.592005
-0.677376
-5.54693
-5.74582
-11.4148
-14.5765
-45.6111
-48.6264
-48.6607
-48.6069
45.735
-36.6509
-44.3734
-53.0996
-40.3167
-40.0033
-33.9498
-32.3886
-30.6935
-29.0214
-28.9609
-27.5961
-29.6394
-27.8929
-25.1216
-21.3025
-21.3547
-16.9411
-20.2042
-16.8888
-19.1069
-16.3357
-17.7794
-15.7714
-17.9773
-16.0412
-13.9992
-10.798
-10.3397
-6.91821
-6.28872
-3.83217
-5.76401
-4.0195
-4.63779
-2.64812
-2.81337
-0.66989
-1.60057
-0.112807
0.447754
1.61139
1.10061
1.99639
1.62096
2.27445
2.22644
2.65403
2.60258
2.95945
3.27482
3.58625
3.73653
3.90095
3.97698
4.08531
4.20557
4.28654
4.2744
4.34328
4.19564
4.3844
4.20211
4.56256
3.92518
4.48687
3.16287
4.06015
1.71462
3.019
-1.14716
0.564312
-6.48405
-4.30996
-12.0884
-11.2182
-49.6277
-49.7358
-48.9214
-48.6815
36.8068
-37.5597
-37.617
-53.3059
-37.737
-39.7327
-33.3646
-31.8672
-30.9217
-28.4809
-29.4232
-26.9958
-30.2033
-27.4256
-25.0536
-19.2875
-22.9465
-15.5561
-21.7937
-15.8168
-20.397
-15.5159
-18.8073
-15.1363
-18.7483
-15.5721
-14.1996
-9.39589
-11.61
-6.30146
-7.07488
-2.97722
-6.76534
-3.63793
-5.01038
-1.72343
-3.67876
-0.147327
-2.32871
0.112911
0.114286
1.98033
0.692133
2.22969
1.30298
2.40223
2.02344
2.72632
2.49717
3.03872
3.17594
3.61665
3.67525
3.91397
3.95022
4.10149
4.18657
4.30466
4.26569
4.40008
4.18245
4.52813
4.13029
4.81065
3.78407
4.92832
2.88964
4.77763
1.23107
4.11432
-1.93737
2.15649
-7.78991
-2.47578
-13.1077
-6.28837
-55.1761
-50.8818
-49.159
-48.7461
30.8541
-41.4398
-30.2349
-54.7626
-34.4553
-39.7977
-32.586
-31.3255
-31.2117
-27.807
-30.0224
-26.1724
-31.0089
-26.9443
-25.1238
-16.8979
-24.9827
-13.6284
-23.8743
-14.325
-22.0679
-14.3716
-20.1159
-14.2119
-19.7928
-15.0329
-14.5392
-7.71505
-13.183
-5.44326
-8.05762
-1.80849
-8.04486
-3.07786
-5.57077
-0.590388
-4.76488
0.602584
-3.24283
0.43527
-0.29465
2.47464
0.169888
2.56089
0.903351
2.58858
1.77666
2.83542
2.3605
3.13378
3.06457
3.662
3.60645
3.9348
3.91859
4.12006
4.166
4.32883
4.24983
4.47075
4.14654
4.7014
4.01516
5.12686
3.55598
5.49696
2.45925
5.71244
0.490311
5.56707
-3.13331
4.31046
-9.70593
-0.00341238
-14.8247
0.870184
-62.8513
-51.9245
-49.3437
-48.794
27.7944
-48.6587
-21.423
-58.0129
-30.1484
-40.3662
-31.5712
-30.7401
-31.6357
-26.9109
-30.8667
-25.0042
-32.1732
-26.3761
-25.4531
-13.8589
-27.7997
-10.8399
-26.7497
-12.1444
-24.3591
-12.6923
-21.893
-12.8307
-21.2535
-14.3254
-15.1344
-5.54487
-15.2867
-4.17309
-9.397
-0.142332
-9.77441
-2.2212
-6.43181
0.907233
-6.2342
1.71961
-4.45918
0.93279
-0.844611
3.17094
-0.541073
3.05322
0.369269
2.87415
1.45444
3.00531
2.17339
3.26207
2.92609
3.73306
3.52192
3.96906
3.87792
4.14454
4.14046
4.36239
4.2217
4.56297
4.07521
4.9241
3.82791
5.55019
3.18726
6.26462
1.77712
6.9862
-0.662419
7.57096
-4.97488
7.32306
-12.5704
3.45035
-17.7618
11.2059
-73.5119
-52.6328
-49.4466
-48.8194
151.442
181.016
47.3631
83.7484
56.3811
62.4646
60.1303
57.0402
58.4989
53.3471
56.2543
49.9647
57.9932
51.4261
50.781
36.8723
57.7378
37.4772
56.1367
39.1602
53.0359
39.1775
50.9587
39.4306
50.9598
39.8567
50.4807
36.9085
47.0645
34.3601
36.758
24.4303
40.8416
29.294
34.3619
21.0879
37.571
21.5845
33.699
22.5568
24.4776
14.0811
26.6628
15.7241
23.3712
15.0092
19.8859
13.8276
14.1524
8.05103
14.8472
8.35024
12.4591
7.78786
8.02097
3.09821
9.21386
3.89067
5.02086
-2.0224
9.31328
-0.631905
10.2988
-1.16024
12.577
-1.93244
16.8642
-1.78141
23.2135
0.0423851
31.7215
3.86162
45.972
17.664
58.8833
45.2181
42.8494
42.3292
42.2084
42.1811
150.254
164.794
63.303
81.1972
60.1412
62.7141
60.249
57.6999
57.9245
54.1671
55.483
51.2878
56.6847
52.1039
50.401
40.8457
54.0234
40.7211
52.7667
41.6622
50.4143
41.2908
48.7571
41.3181
49.0602
41.8892
48.5518
39.2803
44.6629
35.5417
35.5662
27.1691
38.0765
30.5075
33.2224
24.2791
34.4933
23.8208
31.2736
23.5218
23.487
16.3257
24.4439
17.2095
21.7864
16.0792
18.727
14.3464
13.6382
9.33686
13.5798
9.20458
11.5341
8.18144
7.63946
4.21007
8.11972
4.44721
4.53456
-0.13378
7.54187
1.2423
8.48594
1.18701
10.3521
1.19113
13.906
2.25932
19.3534
5.02907
26.9216
10.0426
39.8079
23.133
52.8274
44.7657
42.775
42.3128
42.2043
42.1796
148.481
153.207
74.4637
80.2019
62.9555
63.1654
60.3719
58.2499
57.5108
54.7858
54.9338
52.229
55.7772
52.6686
50.3373
43.9121
51.3706
42.9535
50.3253
43.3723
48.5102
42.743
47.154
42.6007
47.7594
43.3707
47.2627
41.0683
42.8438
36.3598
34.7136
29.138
36.0528
31.312
32.5516
26.7063
32.2534
25.3344
29.4585
24.1802
22.7835
17.9612
22.8409
18.2243
20.6146
16.8166
17.8507
14.7198
13.2691
10.2822
12.6584
9.7919
10.8374
8.4636
7.37438
5.02923
7.32966
4.85407
4.23913
1.26166
6.32995
2.57518
7.25504
2.8759
8.86032
3.43968
11.9223
5.15026
16.7499
8.56676
23.6722
14.3572
35.5008
26.7467
48.2812
44.0701
42.6391
42.2819
42.1965
42.1769
146.514
144.955
82.2422
80.1245
65.0712
63.7372
60.4689
58.7456
57.1779
55.2909
54.5002
52.9215
55.1375
53.2038
50.4392
46.4252
49.355
44.5566
48.4589
44.6009
47.0443
43.79
45.9114
43.4968
46.8425
44.5229
46.3791
42.5394
41.3572
36.9864
34.0203
30.6094
34.4974
31.8793
32.1663
28.6799
30.5141
26.4082
28.0213
24.6852
22.2187
19.2102
21.6194
18.9604
19.6919
17.3621
17.1424
15.0272
12.9626
11.0142
11.9478
10.2237
10.2784
8.69523
7.16031
5.66328
6.73131
5.18711
4.03876
2.33575
5.47136
3.571
6.38673
4.15041
7.82485
5.1321
10.5486
7.30621
14.9374
11.1726
21.3992
17.453
32.3891
29.1483
44.7644
43.2629
42.4598
42.2399
42.1858
42.1732
144.606
139.146
87.5952
80.5636
66.638
64.3868
60.5046
59.236
56.8586
55.7531
54.099
53.4631
54.6648
53.7734
50.5923
48.6619
47.6499
45.813
46.9044
45.5789
45.8077
44.6234
44.8517
44.1638
46.1536
45.5095
45.7246
43.9056
39.9993
37.5581
33.3461
31.7902
33.2035
32.3318
31.9332
30.442
29.0137
27.2546
26.7833
25.1565
21.6768
20.2437
20.6016
19.5619
18.8925
17.824
16.5107
15.3335
12.6522
11.6316
11.3442
10.585
9.78558
8.92547
6.94523
6.1952
6.23787
5.50471
3.86092
3.21661
4.81448
4.37838
5.72065
5.18857
7.04411
6.50015
9.52132
9.02711
13.5806
13.2186
19.6928
19.7933
30.0041
30.7954
41.9321
42.4274
42.2571
42.191
42.1732
42.1689
142.916
135.18
91.167
81.2784
67.738
65.1019
60.4362
59.771
56.4887
56.2375
53.6574
53.9317
54.2763
54.4351
50.6959
50.8623
45.9784
46.9529
45.4472
46.4952
44.6282
45.4007
43.8291
44.7242
45.5705
46.4622
45.152
45.3558
38.5834
38.2011
32.5661
32.8527
32.0016
32.7659
31.7444
32.2021
27.527
28.0499
25.592
25.7024
21.0534
21.2058
19.6402
20.1489
18.1095
18.2961
15.8739
15.7001
12.2757
12.2199
10.7597
10.9482
9.29537
9.20072
6.68113
6.69558
5.77562
5.85888
3.64323
4.00788
4.23903
5.11469
5.12959
6.13125
6.35935
7.72557
8.63458
10.5461
12.4203
14.9911
18.2413
21.729
27.9958
32.0285
39.5253
41.6185
42.0501
42.1401
42.16
42.1643
141.535
132.666
93.3747
82.1398
68.402
65.8982
60.2076
60.4105
55.9974
56.8149
53.1014
54.3972
53.895
55.2523
50.6429
53.2644
44.0721
48.1915
43.8873
47.5276
43.3426
46.2714
42.7075
45.2862
44.9853
47.5026
44.5185
47.0847
36.9115
39.0539
31.5489
33.9603
30.7347
33.271
31.496
34.1671
25.8321
28.964
24.2976
26.4383
20.2377
22.2364
18.5954
20.8376
17.2371
18.8723
15.1469
16.1965
11.7641
12.8642
10.1091
11.3848
8.74264
9.57279
6.31551
7.23319
5.2731
6.30487
3.3222
4.80439
3.63771
5.88535
4.499
7.10483
5.62904
8.96927
7.70774
12.0665
11.2323
16.7364
16.7803
23.5536
26.077
33.1231
37.3347
40.8762
41.8568
42.0921
42.1475
42.1601
140.511
131.372
94.4623
83.1025
68.6172
66.8218
59.7428
61.234
55.2961
57.5727
52.3441
54.9337
53.4383
56.3073
50.2996
56.1379
41.6321
49.7658
42.0084
48.8719
41.7713
47.4006
41.3389
45.9621
44.2861
48.7618
43.6617
49.3219
34.7458
40.2914
30.1338
35.2922
29.2361
33.9473
31.0686
36.5711
23.6772
30.1889
22.7298
27.5067
19.0929
23.4916
17.3144
21.759
16.1544
19.6621
14.228
16.9115
11.0306
13.662
9.29658
11.9775
8.05045
10.1078
5.78241
7.88546
4.6505
6.91107
2.82225
5.70655
2.89956
6.80115
3.70856
8.24156
4.70603
10.397
6.55611
13.7947
9.79077
18.7003
15.0504
25.5485
23.9775
34.3314
35.1712
40.2365
41.6935
42.0514
42.1369
42.1564
139.856
131.193
94.531
84.192
68.3252
67.9565
58.9344
62.3537
54.265
58.6295
51.2729
55.6322
52.8056
57.7157
49.4808
59.8233
38.2845
51.9737
39.5426
50.7726
39.6888
48.9956
39.541
46.8881
43.3389
50.4021
42.3726
52.3667
31.7733
42.155
28.1042
37.0707
27.3048
34.9253
30.3039
39.7091
20.7443
31.9708
20.6707
29.1011
17.434
25.1682
15.6069
23.0809
14.7058
20.8082
12.9833
17.9679
9.95547
14.7386
8.2012
12.8336
7.11801
10.8974
4.99141
8.75056
3.80744
7.77066
2.04283
6.8359
1.89267
7.9964
2.61285
9.70088
3.41386
12.206
4.96136
15.9728
7.83292
21.1668
12.7548
28.0266
21.4015
35.9208
32.8391
39.7416
41.5746
42.022
42.1292
42.1538
139.553
132.139
93.5503
85.5043
67.4138
69.4369
57.6274
63.9323
52.7343
60.1535
49.7313
56.6165
51.8617
59.648
47.9167
64.7816
33.5254
55.2239
36.1278
53.5635
36.7883
51.3386
37.0688
48.2477
41.965
52.6439
40.3603
56.6326
27.5594
44.9937
25.1516
39.5962
24.6758
36.3906
28.9758
43.9795
16.6013
34.6515
17.8204
31.4973
14.997
27.5347
13.2162
25.035
12.6764
22.5099
11.2247
19.5428
8.36716
16.2668
6.65781
14.1024
5.80471
12.0734
3.81291
9.96292
2.60736
9.01719
0.841957
8.35414
0.44342
9.65077
1.018
11.695
1.51844
14.6565
2.63643
18.9171
5.01637
24.5035
9.51241
31.381
17.9803
38.2147
30.1081
39.4498
41.5115
42.0065
42.1251
42.1525
-142.295
-134.471
-95.4943
-85.4425
-67.9124
-66.8458
-55.7461
-59.5044
-49.7409
-55.1931
-46.2257
-51.3197
-46.5455
-52.0245
-43.311
-54.8579
-28.0329
-45.3645
-26.7657
-43.8915
-28.5057
-43.3407
-29.7349
-41.0411
-35.0882
-45.7956
-33.6094
-50.0462
-20.5894
-38.2519
-18.6696
-33.1558
-17.7018
-29.4404
-22.3819
-38.0497
-8.62023
-28.168
-10.284
-25.6586
-8.15143
-22.5027
-6.23803
-20.289
-6.56286
-18.6844
-6.32103
-16.3911
-5.99932
-13.6322
-8.7542
-16.9495
-2.69454
-10.9509
-6.31652
-14.7256
-1.03157
-9.73749
-6.10017
-14.7826
-7.62973
-23.1872
1.757
-18.1309
-1.35531
-20.7441
-4.65923
-24.7436
-8.51472
-29.164
-13.1241
-34.4881
-21.7239
-39.6556
-29.8136
-37.1337
-38.661
-39.0219
-39.1077
-39.1248
-142.612
-133.61
-96.4531
-84.545
-68.4526
-65.7261
-56.6704
-58.2365
-50.9369
-53.9605
-47.4679
-50.5244
-47.3203
-50.6512
-44.4362
-51.071
-31.5825
-42.1438
-29.9879
-41.1419
-31.3401
-41.0196
-32.1905
-39.7042
-36.4424
-43.5546
-35.6147
-45.7186
-24.8615
-35.4171
-21.6249
-30.6032
-20.3577
-27.9783
-23.6802
-33.4888
-13.0193
-25.2153
-13.3972
-23.022
-10.8229
-19.7754
-8.97165
-17.9752
-8.94849
-16.6861
-8.39665
-14.7515
-7.73207
-12.6556
-9.70452
-14.8362
-4.80192
-9.99356
-7.26467
-12.6138
-3.12877
-8.78156
-7.05462
-13.0737
-9.06145
-19.1066
-2.14863
-14.9582
-4.54657
-17.5172
-7.85729
-21.422
-11.8131
-25.8175
-16.4419
-31.2939
-25.0552
-37.6681
-32.2241
-37.3638
-38.7056
-39.0306
-39.108
-39.1231
-143.294
-133.88
-96.4052
-83.8165
-68.4582
-64.8587
-57.1682
-57.3212
-51.7178
-53.1062
-48.3257
-49.9772
-47.8313
-49.6571
-45.0447
-48.326
-33.927
-39.8286
-32.2745
-39.2271
-33.3918
-39.4354
-33.9892
-38.7952
-37.3785
-41.9124
-36.8951
-42.6262
-27.8738
-33.5531
-23.6662
-28.8164
-22.2958
-26.9897
-24.411
-30.1358
-16.1086
-23.2201
-15.6496
-21.2555
-12.6455
-17.8356
-10.9103
-16.3801
-10.6611
-15.3264
-9.88427
-13.6449
-8.9851
-11.992
-10.3297
-13.3278
-6.29865
-9.35146
-7.88824
-11.0939
-4.61917
-8.11963
-7.6981
-11.7651
-9.92989
-16.1052
-4.86275
-12.7136
-6.80192
-15.1951
-10.1259
-19.0271
-14.1668
-23.406
-18.7905
-28.9433
-27.6324
-36.4024
-34.2101
-37.7442
-38.7888
-39.0469
-39.1083
-39.1199
-144.355
-135.276
-95.3644
-83.1999
-67.9935
-64.154
-57.3509
-56.6345
-52.2171
-52.4967
-48.9242
-49.5797
-48.1813
-48.9184
-45.3351
-46.2858
-35.4569
-38.0488
-33.9779
-37.8211
-34.9656
-38.3081
-35.375
-38.1323
-38.0739
-40.6496
-37.7428
-40.3504
-30.0662
-32.309
-25.1032
-27.4938
-23.7825
-26.2893
-24.8069
-27.5701
-18.3495
-21.8095
-17.3723
-20.0551
-13.9136
-16.3781
-12.3508
-15.2303
-11.9561
-14.3691
-11.0019
-12.8732
-9.92977
-11.5135
-10.767
-12.219
-7.39071
-8.88868
-8.32383
-9.96015
-5.70947
-7.61355
-8.16109
-10.6917
-10.4771
-13.7997
-6.81246
-11.019
-8.48456
-13.4109
-11.8354
-17.1823
-15.9562
-21.5487
-20.5483
-27.0513
-29.8061
-35.5746
-35.9661
-38.2227
-38.9017
-39.069
-39.1086
-39.1157
-145.783
-137.909
-93.2152
-82.7055
-67.0738
-63.5672
-57.2892
-56.0946
-52.5273
-52.04
-49.3522
-49.263
-48.4444
-48.3511
-45.4426
-44.7152
-36.4482
-36.5338
-35.3629
-36.681
-36.2895
-37.43
-36.5314
-37.5802
-38.6621
-39.6043
-38.3681
-38.5884
-31.7557
-31.441
-26.1547
-26.4133
-25.0187
-25.7466
-25.0312
-25.482
-20.0815
-20.713
-18.8085
-19.206
-14.8359
-15.1787
-13.5136
-14.3251
-13.0224
-13.6417
-11.9087
-12.293
-10.6922
-11.1272
-11.1153
-11.3605
-8.22881
-8.50756
-8.67055
-9.06109
-6.55288
-7.16107
-8.54413
-9.72751
-10.8823
-11.9062
-8.31397
-9.59355
-9.86844
-11.8866
-13.2678
-15.6003
-17.4729
-19.955
-22.006
-25.3092
-31.8591
-34.9616
-37.6467
-38.7633
-39.0338
-39.095
-39.1088
-39.1109
-147.527
-142.015
-89.6989
-82.416
-65.669
-63.0909
-57.0237
-55.6492
-52.7138
-51.6709
-49.6757
-48.9749
-48.678
-47.8958
-45.4622
-43.4455
-37.1048
-35.0682
-36.6476
-35.6087
-37.5515
-36.6327
-37.6092
-37.0261
-39.2552
-38.6454
-38.9346
-37.1079
-33.1838
-30.7712
-26.9836
-25.3984
-26.1694
-25.2609
-25.2082
-23.6272
-21.5714
-19.7172
-20.152
-18.5471
-15.5691
-14.059
-14.5767
-13.504
-14.0112
-13.0079
-12.7304
-11.7917
-11.3729
-10.7585
-11.453
-10.6367
-8.93017
-8.13076
-9.00789
-8.27771
-7.27138
-6.67736
-8.93494
-8.76425
-11.2925
-10.1971
-9.62046
-8.20818
-11.1825
-10.3877
-14.6621
-14.0366
-18.9651
-18.3785
-23.4137
-23.4372
-34.05
-34.365
-39.3897
-39.3372
-39.1738
-39.1223
-39.109
-39.1059
-149.491
-147.992
-84.3805
-82.5045
-63.6971
-62.7543
-56.5706
-55.2666
-52.8249
-51.3401
-49.9479
-48.6711
-48.9314
-47.5069
-45.4656
-42.3491
-37.5896
-33.4585
-38.0376
-34.4176
-38.9285
-35.7601
-38.7499
-36.3601
-39.9624
-37.6511
-39.5861
-35.7118
-34.552
-30.157
-27.725
-24.2897
-27.3877
-24.7416
-25.4468
-21.7919
-23.0539
-18.6305
-21.5776
-17.9435
-16.2441
-12.8587
-15.7039
-12.6202
-15.0609
-12.3454
-13.5789
-11.2701
-12.0617
-10.3376
-11.8514
-9.94879
-9.59553
-7.68717
-9.40976
-7.50561
-7.9736
-6.07979
-9.42308
-7.69322
-11.8478
-8.46744
-10.9605
-6.64748
-12.6474
-8.68608
-16.2524
-12.2508
-20.678
-16.5772
-25.0218
-21.1416
-36.6527
-33.58
-41.3359
-39.9158
-39.3096
-39.1484
-39.1092
-39.1013
-151.513
-156.451
-76.5909
-83.2694
-61.0106
-62.6276
-55.9232
-54.9304
-52.8989
-51.0069
-50.2166
-48.307
-49.2534
-47.144
-45.5134
-41.32
-38.0508
-31.5021
-39.7572
-32.903
-40.6144
-34.643
-40.1074
-35.456
-40.9078
-36.4885
-40.4717
-34.2088
-36.0512
-29.4658
-28.5081
-22.9213
-28.8374
-24.0899
-25.8614
-19.7616
-24.7654
-17.2506
-23.2681
-17.2641
-16.9879
-11.4105
-17.0697
-11.5167
-16.3181
-11.5263
-14.5703
-10.6254
-12.8521
-9.78828
-12.3874
-9.19982
-10.3239
-7.09914
-9.95746
-6.63934
-8.77096
-5.27336
-10.1147
-6.38736
-12.705
-6.50331
-12.5733
-4.67464
-14.5111
-6.52365
-18.3057
-9.96809
-22.8921
-14.2742
-27.1229
-18.0703
-39.9988
-32.3621
-43.6497
-40.4627
-39.4286
-39.1709
-39.1094
-39.0976
-153.335
-168.298
-65.337
-85.1905
-57.3689
-62.8345
-55.0485
-54.6373
-52.969
-50.6314
-50.5321
-47.8307
-49.6997
-46.764
-45.6658
-40.2562
-38.6457
-28.9561
-42.0839
-30.8085
-42.8503
-33.071
-41.8722
-34.1504
-42.2506
-34.9924
-41.7697
-32.3842
-37.8901
-28.5522
-29.479
-21.0953
-30.7163
-23.1799
-26.5935
-17.2898
-26.9802
-15.3319
-25.4419
-16.3579
-17.9461
-9.5152
-18.8861
-10.0012
-17.961
-10.3956
-15.8431
-9.73569
-13.8558
-9.01396
-13.1563
-8.27978
-11.2276
-6.26903
-10.7534
-5.55619
-9.79454
-4.13435
-11.15
-4.68055
-14.0638
-4.04903
-14.7454
-1.99299
-17.0882
-3.57086
-21.1642
-6.83514
-25.9681
-11.1126
-30.1001
-13.7599
-44.5277
-30.3876
-46.5433
-40.9247
-39.5183
-39.1873
-39.1096
-39.0951
-154.553
-184.857
-49.1676
-89.0173
-52.3957
-63.5725
-53.8805
-54.3965
-53.0681
-50.1687
-50.9539
-47.174
-50.3407
-46.3131
-45.9934
-39.0433
-39.5667
-25.5006
-45.39
-27.7846
-45.9623
-30.7591
-44.3011
-32.2151
-44.2109
-32.9381
-43.7173
-29.967
-40.3258
-27.231
-30.8254
-18.5524
-33.2846
-21.8352
-27.8375
-14.0614
-30.0518
-12.5459
-28.3864
-15.0278
-19.3079
-6.91051
-21.4354
-7.81445
-20.2274
-8.74667
-17.5802
-8.43889
-15.22
-7.88212
-14.2877
-7.04844
-12.4492
-5.06272
-11.938
-4.09695
-11.2153
-2.48947
-12.7258
-2.34065
-16.1995
-0.76718
-17.8563
1.80188
-20.8105
0.62586
-25.2999
-2.36402
-30.4039
-6.59734
-34.4905
-7.5651
-50.853
-27.2019
-50.309
-41.22
-39.567
-39.1958
-39.1096
-39.0939
57.6045
58.3755
44.1899
38.8692
45.0413
34.853
36.9524
22.5246
41.5527
23.8541
39.6793
27.4419
39.1368
30.3953
32.9701
21.4843
26.4461
8.08295
33.1482
14.615
30.7583
17.8055
26.8429
18.748
21.3596
13.3992
16.5689
4.97625
19.0081
8.634
13.379
5.72422
14.6571
7.31795
13.1994
6.20289
9.40661
3.53886
6.46902
2.86654
3.31383
-0.509953
3.59801
-0.976733
2.09686
-1.73315
1.64698
-1.65907
-0.738548
-6.05263
5.29297
-4.13161
6.94343
-4.73847
8.14441
-5.80872
12.6525
-2.50084
4.6672
-21.6306
30.959
-6.28199
38.1925
1.44622
45.3838
7.57094
53.6937
14.2411
63.3402
23.3941
73.1309
33.429
88.4886
52.6804
96.3102
47.6596
184.195
150.452
145.3
144.289
57.5743
57.2772
45.5343
40.7882
43.3208
35.8824
36.0975
26.2017
38.0119
26.4085
36.912
29.2101
37.2341
31.4124
32.0679
23.5925
24.6186
12.1813
29.0623
17.2776
27.8778
19.4338
25.0251
19.5139
20.5925
14.7692
15.3483
7.37127
16.5683
9.69277
12.2151
7.16248
13.2094
8.46289
12.0435
7.15968
8.40698
4.20534
5.71379
3.14237
3.04839
0.362269
2.75709
-0.359532
1.45083
-1.11213
1.00566
-1.27443
-1.04236
-4.35445
3.75965
-2.12516
5.02757
-2.51249
6.00936
-2.81034
9.70203
-0.357902
2.97009
-13.6024
23.3689
0.654633
31.2367
8.43326
38.4398
14.9036
46.427
21.9393
55.6621
31.0361
65.4793
41.4257
80.3362
59.0946
90.4101
64.2789
166.982
149.31
145.137
144.25
57.5566
56.6378
46.6001
42.4176
42.001
36.6078
35.6494
29.0131
35.4104
28.0814
34.8756
30.3517
35.8877
32.173
31.5334
25.3232
23.3323
15.1098
26.1259
19.0475
25.7616
20.503
23.6535
20.0184
20.1036
15.8851
14.472
9.08126
14.7732
10.3774
11.3557
8.15831
12.1949
9.2761
11.2275
7.87239
7.62635
4.64437
5.12261
3.31987
2.88733
1.03189
2.13719
0.0610791
0.980133
-0.678001
0.540533
-0.990034
-1.20418
-3.11309
2.78647
-0.640043
3.69954
-0.928933
4.56797
-0.665293
7.6544
1.24951
2.06908
-7.71568
18.1665
5.45967
26.4165
13.3081
33.6377
20.034
41.4009
27.3092
50.318
36.3154
60.1677
46.9039
74.5899
63.4068
86.8083
75.7456
154.584
147.63
144.843
144.178
57.5764
56.3642
47.433
43.8979
40.8821
37.1578
35.4305
31.3055
33.3602
29.1916
33.2941
31.0931
34.9135
32.8126
31.2239
26.8873
22.2977
17.2711
23.9156
20.268
24.1265
21.2378
22.5552
20.3758
19.7886
16.8905
13.7564
10.3496
13.3832
10.8486
10.6648
8.86609
11.4598
9.89567
10.6247
8.46171
6.95604
4.94578
4.62338
3.44321
2.78379
1.58361
1.64502
0.36229
0.612867
-0.358656
0.185611
-0.758084
-1.29802
-2.1839
2.18651
0.53456
2.73032
0.249647
3.55578
0.937597
6.1957
2.56795
1.59233
-3.25549
14.5078
8.9184
22.9591
16.8456
30.1931
23.7657
37.7932
31.1951
46.4545
40.0805
56.3407
50.744
70.3984
66.3357
84.5854
83.617
145.62
145.785
144.467
144.08
57.6451
56.3999
48.0508
45.3584
39.7927
37.6292
35.309
33.3523
31.5605
29.9725
31.9663
31.5951
34.1775
33.4332
31.0258
28.4631
21.2821
18.9671
22.1185
21.1898
22.7626
21.8057
21.598
20.6706
19.5671
17.9065
13.0529
11.3614
12.217
11.2266
10.0394
9.39905
10.8918
10.4243
10.1384
9.02536
6.30649
5.18018
4.15893
3.54614
2.70225
2.08522
1.20692
0.60243
0.294703
-0.0997616
-0.109641
-0.542149
-1.37788
-1.46483
1.82755
1.55534
1.94821
1.19677
2.78054
2.22541
5.09242
3.78032
1.27054
0.30037
11.7834
11.5921
20.308
19.6048
27.5396
26.6793
35.0107
34.2068
43.4563
42.9404
53.388
53.5742
67.1557
68.3722
83.1316
88.9702
139.129
143.999
144.054
143.968
57.7639
56.7201
48.4427
46.9343
38.5677
38.1074
35.1736
35.393
29.7533
30.6107
30.7336
31.9794
33.575
34.1208
30.8345
30.2243
20.0724
20.445
20.4852
22.012
21.5005
22.3441
20.6701
20.973
19.3683
19.0507
12.2233
12.2717
11.125
11.613
9.39248
9.84699
10.4025
10.9459
9.68538
9.65348
5.59343
5.41056
3.6783
3.65846
2.61178
2.5974
0.757968
0.830788
-0.0199193
0.143808
-0.387936
-0.310037
-1.48766
-0.880891
1.6112
2.54954
1.21188
2.05049
2.09086
3.37631
4.1563
5.04061
0.887199
3.35816
9.52609
13.9095
18.0337
22.0186
25.238
29.2253
32.5936
36.8165
40.8488
45.3617
50.8458
55.8685
64.4075
69.8671
82.0348
92.5507
134.451
142.407
143.647
143.852
57.9245
57.3295
48.5637
48.7843
37.0261
38.6843
34.9116
37.6676
27.6857
31.2779
29.4555
32.3494
33.0142
34.9613
30.5357
32.3667
18.4414
21.9358
18.792
22.9152
20.1837
22.9828
19.6626
21.3513
19.1178
20.4549
11.1183
13.2295
9.96736
12.1073
8.63826
10.2906
9.91349
11.5394
9.183
10.4425
4.7251
5.70275
3.12902
3.81172
2.47989
3.18246
0.232427
1.09599
-0.375198
0.415131
-0.69067
-0.027748
-1.66884
-0.372405
1.45697
3.63475
0.388473
2.93612
1.35136
4.54744
3.21601
6.50243
0.23889
6.26806
7.34009
16.2373
15.765
24.4628
22.9055
31.796
30.1422
39.4337
38.2221
47.7441
48.322
58.0222
61.7826
71.0937
81.0041
94.8759
131.13
141.083
143.282
143.744
58.1085
58.2652
48.3246
51.1127
34.9469
39.4772
34.3872
40.4504
25.0737
32.1602
27.9874
32.8071
32.4008
36.0555
29.9854
35.1379
16.1122
23.6907
16.8067
24.0913
18.6443
23.865
18.4537
21.8854
18.7233
22.285
9.55438
14.4012
8.59262
12.8251
7.67832
10.8146
9.34358
12.2915
8.53532
11.51
3.58842
6.1365
2.44904
4.04515
2.26627
3.9133
-0.445957
1.45433
-0.821157
0.762118
-1.0643
0.346572
-1.96765
0.114651
1.2887
4.93683
-0.666754
3.98701
0.420618
5.89969
2.09104
8.34626
-0.90116
9.37615
4.84095
18.9397
13.1293
27.3172
20.1551
34.7883
27.253
42.471
35.166
50.4843
45.4333
60.4134
58.9356
72.2963
79.8147
96.3053
128.861
140.069
142.985
143.654
58.2857
59.6039
47.5752
54.1978
32.0382
40.6531
33.4148
44.0887
21.561
33.4907
26.1574
33.4719
31.6229
37.5366
28.9841
38.8742
12.7165
26.0219
14.2524
25.7745
16.6762
25.1707
16.8893
22.6816
18.0583
24.7652
7.28577
15.9976
6.81473
13.9166
6.38572
11.5216
8.59573
13.3106
7.61739
13.0124
2.0321
6.81891
1.55703
4.41297
1.91503
4.88387
-1.37518
1.9793
-1.4218
1.24522
-1.56766
0.869695
-2.44251
0.63786
1.02131
6.60884
-2.13237
5.36667
-0.871938
7.62348
0.563561
10.8102
-2.82227
13.0766
1.59625
22.4382
9.69347
31.0254
16.5327
38.6673
23.4536
46.409
31.2048
54.0391
41.7433
63.4629
55.495
73.7324
78.2661
97.0915
127.445
139.384
142.776
143.589
58.4094
61.4754
46.0784
58.4325
27.8966
42.461
31.7233
49.0525
16.6674
35.5891
23.739
34.5007
30.5321
39.594
27.2426
44.0498
7.73967
29.3533
10.7637
28.2798
14.002
27.145
14.7598
23.8923
16.938
28.2108
3.96755
18.3079
4.38362
15.5918
4.58483
12.5496
7.54081
14.7448
6.25469
15.1687
-0.155921
7.90236
0.339487
4.99419
1.34445
6.22294
-2.68949
2.77403
-2.26556
1.94719
-2.28129
1.62256
-3.17329
1.26873
0.545559
8.85385
-4.24769
7.29578
-2.75385
9.96954
-1.65613
14.2293
-5.92473
17.872
-2.9416
27.28
4.89434
36.1664
11.4451
44.0401
18.1272
51.8734
25.722
58.9991
36.6927
67.7
51.0062
75.7165
76.1453
97.4158
126.763
139.041
142.669
143.555
)
;

boundaryField
{
    F1_1
    {
        type            calculated;
        value           nonuniform List<scalar> 
80
(
225.244
-143.276
-99.7277
-60.5855
-47.8558
-46.4318
-31.7138
-38.3635
-25.9634
-34.2752
-23.8217
-31.2286
-26.3998
-34.9181
-21.7174
-40.8438
-3.96839
-27.6446
-7.92416
-26.0661
-8.72126
-23.715
-9.07033
-20.0811
-13.0784
-22.8147
-9.2225
-25.2193
3.37248
-14.1269
2.25393
-10.6006
2.06242
-7.31702
-1.57127
-11.9255
6.0849
-5.28949
4.29728
-3.35623
4.32638
-1.60151
4.63638
-0.164037
4.2788
0.841677
4.10856
1.91836
3.51066
1.74228
4.59425
3.08543
4.45885
3.67428
4.29232
3.78369
4.53387
4.1469
4.38367
4.01662
4.2636
3.23957
4.94149
2.9353
4.98894
1.72515
5.02388
-0.322719
4.88644
-3.14882
3.52119
-7.63152
0.279672
-13.8529
-5.01962
-19.818
-37.8445
-45.4857
-47.7653
-48.3271
)
;
    }
    F1_2
    {
        type            calculated;
        value           nonuniform List<scalar> 
80
(
139.485
132.902
92.7855
86.2328
66.7854
70.284
56.8263
64.8606
51.8191
61.0572
48.8201
57.1982
51.2922
60.7706
46.9082
67.646
30.7198
57.1694
34.1306
55.2302
35.0888
52.7383
35.6285
49.0626
41.1454
53.9472
39.1305
59.1314
25.0786
46.7086
23.399
41.0893
23.1486
37.2727
28.1374
46.4556
14.1646
36.2667
16.1534
32.9367
13.545
28.9296
11.8127
26.204
11.485
23.5288
10.1893
20.4861
7.41932
17.1691
5.75003
14.862
5.03222
12.7775
3.10759
10.6755
1.89818
9.75698
0.115211
9.23388
-0.416823
10.6188
0.0677027
12.8565
0.386055
16.0797
1.25004
20.6263
3.3442
26.4421
7.59987
33.3332
16.0062
39.5832
28.6111
39.3635
41.4951
42.0025
42.1241
42.1521
)
;
    }
    F1_3
    {
        type            calculated;
        value           nonuniform List<scalar> 
80
(
-142.224
-135.191
-94.7536
-85.9448
-67.4975
-67.483
-55.1604
-60.2453
-49.0193
-55.9238
-45.4902
-51.7939
-46.077
-52.8245
-42.5896
-57.0618
-25.8994
-47.2553
-24.8696
-45.5224
-26.8488
-44.7263
-28.3076
-41.843
-34.2808
-47.0979
-32.3826
-52.5801
-18.0741
-39.9641
-16.9177
-34.6675
-16.1559
-30.3174
-21.5563
-40.6933
-6.02613
-29.9382
-8.46401
-27.2392
-6.56006
-24.1077
-4.62936
-21.6654
-5.16459
-19.8778
-5.1044
-17.373
-4.98809
-14.2176
-8.17761
-18.1873
-1.45819
-11.5285
-5.74126
-15.9595
0.198694
-10.3091
-5.52643
-15.7609
-6.7378
-25.553
4.06971
-20.0043
0.526823
-22.6367
-2.77448
-26.6903
-6.57457
-31.126
-11.1685
-36.3506
-19.8201
-40.8702
-28.4747
-37.064
-38.6494
-39.0197
-39.1076
-39.1252
)
;
    }
    F1_4
    {