/*--------------------------------*- C++ -*----------------------------------*\
| =========                 |                                                 |
| \\      /  F ield         | OpenFOAM: The Open Source CFD Toolbox           |
|  \\    /   O peration     | Version:  5.x                                   |
|   \\  /    A nd           | Web:      www.OpenFOAM.org                      |
|    \\/     M anipulation  |                                                 |
\*---------------------------------------------------------------------------*/
FoamFile
{
    version     2.0;
    format      ascii;
    class       volScalarField;
    location    "0.7";
    object      T;
}
// * * * * * * * * * * * * * * * * * * * * * * * * * * * * * * * * * * * * * //

dimensions      [0 0 0 1 0 0 0];

internalField   nonuniform List<scalar> 
3200
(
1.12622
13.5963
16.4253
16.621
16.6826
16.6897
16.2866
16.2533
15.7894
15.7478
15.3105
15.2734
14.99
14.9474
14.3805
14.2849
12.8188
12.7004
11.7518
11.6611
10.8535
10.7786
10.1142
10.0591
9.6701
9.62142
9.04421
8.96423
7.8357
7.7482
7.03386
6.96958
6.39105
6.34416
6.02245
5.97068
5.24553
5.18866
4.74611
4.70784
4.3787
4.34906
4.07216
4.04816
3.84641
3.82923
3.68647
3.67552
3.59843
3.58959
3.48083
3.47329
3.41682
3.4129
3.38599
3.38345
3.35512
3.35319
3.34043
3.33859
3.3194
3.31428
3.23636
3.22633
3.11573
3.09941
2.91612
2.88938
2.59705
2.55688
2.1512
2.09543
1.56762
1.49696
0.870977
0.796985
0.706853
0.668647
0.657249
0.65444
2.87986
12.5491
15.5334
16.0205
16.2062
16.2418
15.9547
15.8869
15.5129
15.4209
15.0563
14.971
14.7164
14.6192
14.1445
13.9312
12.7252
12.4572
11.6383
11.4291
10.737
10.565
9.99911
9.87168
9.52571
9.41442
8.93211
8.75399
7.82779
7.63202
7.03041
6.88416
6.39042
6.28199
5.99595
5.87837
5.27965
5.1512
4.77292
4.68592
4.40999
4.34294
4.10841
4.05363
3.88182
3.84267
3.72228
3.69735
3.63081
3.61101
3.52273
3.5061
3.45931
3.45056
3.42794
3.42232
3.39941
3.39509
3.38383
3.37945
3.36147
3.34959
3.28306
3.2597
3.16185
3.12334
2.96009
2.89678
2.63583
2.54001
2.17241
2.038
1.55213
1.38064
0.798699
0.599448
0.326328
0.212715
0.17925
0.171054
4.24671
11.7694
14.7413
15.4321
15.7359
15.8069
15.614
15.5328
15.2251
15.1049
14.7909
14.6754
14.4365
14.3062
13.898
13.6174
12.5942
12.2361
11.5004
11.2165
10.5998
10.3672
9.86655
9.69302
9.37198
9.22231
8.80788
8.57371
7.79071
7.5321
7.00877
6.81267
6.37441
6.22695
5.96274
5.80533
5.29499
5.12375
4.78809
4.67157
4.43294
4.34354
4.13749
4.0638
3.91194
3.85937
3.75429
3.72085
3.66133
3.63518
3.56176
3.54012
3.50029
3.48879
3.46922
3.46189
3.44295
3.43728
3.42696
3.42086
3.40331
3.38709
3.32803
3.29606
3.2056
3.15227
3.00007
2.91208
2.668
2.53401
2.1843
1.99462
1.52406
1.28073
0.711105
0.404857
-0.0605853
-0.246431
-0.299768
-0.312667
5.31262
11.1716
14.0404
14.8592
15.2748
15.3825
15.2689
15.1878
14.9299
14.7968
14.5177
14.3848
14.1523
14.0043
13.6466
13.3333
12.4366
12.0301
11.3445
11.0173
10.4472
10.1803
9.72097
9.52033
9.21146
9.04084
8.6765
8.41544
7.7327
7.44283
6.9741
6.75091
6.34681
6.17663
5.9253
5.74645
5.29681
5.10292
4.79454
4.66214
4.44995
4.34883
4.16129
4.07711
3.9381
3.87819
3.78345
3.74541
3.69053
3.66125
3.59874
3.57489
3.54014
3.52735
3.51002
3.50193
3.48598
3.47966
3.46992
3.46274
3.4451
3.42631
3.37193
3.33476
3.24787
3.18515
3.03749
2.93363
2.69578
2.53664
2.18978
1.96247
1.48689
1.19387
0.612963
0.21662
-0.458697
-0.710891
-0.780417
-0.796915
6.14414
10.6934
13.4216
14.3023
14.8262
14.967
14.9225
14.85
14.6297
14.4946
14.2387
14.0983
13.8649
13.7109
13.3935
13.0727
12.2595
11.8354
11.1744
10.8279
10.2826
10.0011
9.56512
9.35205
9.04548
8.86721
8.54106
8.27413
7.65906
7.36079
6.92968
6.69646
6.30992
6.12962
5.88501
5.69845
5.28844
5.08671
4.79399
4.65594
4.46256
4.3576
4.18099
4.09265
3.96112
3.89843
3.81036
3.77067
3.71872
3.68867
3.63418
3.6101
3.57912
3.5661
3.55045
3.54229
3.52862
3.52218
3.5128
3.50504
3.48694
3.46695
3.41515
3.37546
3.28917
3.22143
3.07316
2.96054
2.7204
2.54678
2.19048
1.94025
1.44241
1.11851
0.507422
0.0395241
-0.873751
-1.18267
-1.2632
-1.28184
6.79364
10.2881
12.8766
13.7598
14.3928
14.559
14.5774
14.5181
14.3263
14.1973
13.9552
13.8156
13.5744
13.4242
13.1406
12.8319
12.067
11.6503
10.9918
10.6466
10.1076
9.82821
9.40046
9.1876
8.87447
8.69958
8.40335
8.14682
7.57283
7.28415
6.87743
6.64821
6.26486
6.08525
5.84247
5.65945
5.27181
5.0742
4.7873
4.652
4.47166
4.36928
4.1972
4.10995
3.98142
3.91971
3.83536
3.79644
3.74605
3.71709
3.66843
3.64561
3.6174
3.60496
3.5906
3.58289
3.57099
3.56484
3.55562
3.54776
3.52886
3.50888
3.45789
3.41803
3.32974
3.26094
3.1074
2.99256
2.74236
2.56422
2.18692
1.92792
1.39096
1.05461
0.396135
-0.119777
-1.313
-1.66361
-1.74848
-1.76752
7.30332
9.91889
12.3998
13.2273
13.9782
14.1569
14.2354
14.1917
14.0204
13.9046
13.6676
13.5371
13.2803
13.1428
12.8888
12.6094
11.8607
11.475
10.7968
10.4731
9.92227
9.66134
9.22731
9.02726
8.69802
8.5369
8.26413
8.03229
7.47528
7.2123
6.81815
6.6062
6.21171
6.04347
5.79761
5.6287
5.24762
5.06531
4.77459
4.6499
4.47769
4.38378
4.21004
4.12892
3.99907
3.94192
3.85856
3.82268
3.77255
3.7463
3.70166
3.68135
3.65506
3.64392
3.6305
3.62366
3.61314
3.60762
3.59839
3.59094
3.57084
3.55206
3.50019
3.46255
3.36954
3.30385
3.1401
3.02999
2.76144
2.58963
2.17864
1.9267
1.33147
1.00359
0.279126
-0.252006
-1.78597
-2.1552
-2.23642
-2.25398
7.70834
9.55505
11.9891
12.6978
13.5865
13.7589
13.8984
13.8704
13.7124
13.6169
13.376
13.2637
12.9816
12.8663
12.6382
12.4058
11.6399
11.3115
10.5877
10.3088
9.72545
9.50149
9.04488
8.87217
8.51492
8.37876
8.12336
7.93086
7.36604
7.14578
6.75165
6.57157
6.14958
6.00486
5.74972
5.60649
5.21554
5.0608
4.75529
4.64974
4.48061
4.4015
4.21921
4.14987
4.01384
3.9652
3.87989
3.84952
3.7981
3.77627
3.73393
3.71733
3.69213
3.68298
3.67014
3.66459
3.6551
3.65057
3.64111
3.63463
3.61278
3.59657
3.54193
3.50929
3.40825
3.35068
3.17066
3.07376
2.77665
2.6246
2.16398
1.93921
1.26128
0.968413
0.154366
-0.344141
-2.30555
-2.65833
-2.72691
-2.74115
8.03946
9.16769
11.6475
12.1611
13.2235
13.3623
13.5681
13.5543
13.402
13.335
13.0792
12.9972
12.6763
12.5943
12.3877
12.2237
11.4017
11.1639
10.3609
10.1568
9.51433
9.35102
8.85116
8.72453
8.32305
8.22545
7.98014
7.84438
7.24308
7.08627
6.67665
6.54666
6.0764
5.97071
5.6974
5.59423
5.17405
5.06236
4.72802
4.65216
4.47997
4.42338
4.22388
4.17352
4.02513
3.98996
3.89903
3.87721
3.82249
3.80708
3.76518
3.75368
3.72856
3.7222
3.7095
3.70569
3.69687
3.69372
3.68371
3.67894
3.65449
3.64262
3.5828
3.55876
3.44522
3.40242
3.19789
3.12554
2.78606
2.67191
2.13989
1.96983
1.17567
0.954073
0.0169709
-0.377774
-2.88949
-3.17284
-3.2196
-3.2289
8.32542
8.72625
11.3844
11.6025
12.8974
12.963
13.2467
13.2439
13.0882
13.0607
12.7755
12.7403
12.3614
12.3274
12.1357
12.0679
11.1403
11.0389
10.1102
10.0223
9.28409
9.21406
8.64256
8.58793
8.11907
8.0781
7.83258
7.77656
7.10238
7.03692
6.5905
6.5354
5.98868
5.9433
5.6383
5.59468
5.12024
5.07285
4.69043
4.65845
4.47472
4.451
4.22261
4.20109
4.0319
4.01697
3.91542
3.90623
3.84531
3.83895
3.79522
3.79057
3.76426
3.76168
3.74851
3.74699
3.73842
3.73714
3.7261
3.72404
3.69571
3.6906
3.62223
3.61182
3.47936
3.46062
3.21984
3.18801
2.78646
2.73594
2.10132
2.02541
1.06716
0.968345
-0.142128
-0.326737
-3.56258
-3.69682
-3.71379
-3.71703
13.7545
13.9477
18.8717
19.1093
20.2276
20.2685
20.2787
20.2617
20.0625
20.0327
19.7666
19.729
19.3034
19.2648
19.0367
18.9544
17.7405
17.6186
16.5319
16.4297
15.5808
15.4976
14.7851
14.7154
14.0825
14.0154
13.3555
13.275
12.5099
12.4359
12.0092
11.936
11.0626
10.9932
10.5568
10.4778
9.48356
9.38795
8.62271
8.5571
8.20121
8.13975
7.42524
7.35962
6.85014
6.80054
6.43198
6.39683
6.20834
6.17257
5.76389
5.72516
5.43158
5.40439
5.26069
5.23171
4.88058
4.84914
4.65446
4.61226
4.02389
3.96337
3.35175
3.28217
2.52568
2.43732
1.43537
1.32142
0.0231812
-0.118894
-1.72674
-1.89866
-3.89669
-4.07291
-5.89565
-5.98063
-5.9931
-5.99578
-5.9964
-5.99654
15.265
15.6632
19.439
19.9292
20.813
20.8938
20.8806
20.8358
20.6441
20.5709
20.3246
20.2364
19.8756
19.7828
19.5416
19.3458
18.296
18.0127
17.0736
16.8362
16.0959
15.902
15.2818
15.121
14.5808
14.4258
13.8487
13.6578
12.9667
12.7866
12.3697
12.1963
11.455
11.2935
10.8933
10.7069
9.84131
9.61719
8.94571
8.78848
8.4401
8.29363
7.67889
7.52574
7.07466
6.95702
6.62418
6.53817
6.34681
6.26055
5.90497
5.81376
5.55085
5.48461
5.33861
5.26914
4.96633
4.89131
4.70163
4.60296
4.10646
3.96808
3.4439
3.2843
2.63809
2.43627
1.58626
1.3273
0.232192
-0.0891552
-1.43824
-1.82352
-3.47341
-3.86335
-5.34158
-5.5299
-5.5648
-5.57253
-5.57433
-5.57473
16.7595
17.2436
20.1378
20.7332
21.4304
21.5228
21.4837
21.4157
21.221
21.116
20.8763
20.7548
20.4371
20.3069
20.0448
19.7713
18.821
18.433
17.5872
17.2629
16.5891
16.3234
15.7603
15.5418
15.0637
14.8532
14.3265
14.0606
13.4032
13.1468
12.7205
12.4794
11.8242
11.6033
11.2213
10.9633
10.1734
9.86436
9.24818
9.02753
8.67095
8.46627
7.91411
7.70381
7.28587
7.12213
6.80652
6.68375
6.4811
6.35931
6.03549
5.90925
5.66226
5.56802
5.41348
5.31591
5.04298
4.93808
4.74516
4.60959
4.17472
3.98822
3.52147
3.30591
2.73272
2.46114
1.71349
1.36661
0.41025
-0.0183121
-1.1883
-1.6978
-3.10053
-3.61025
-4.8391
-5.08532
-5.1376
-5.14952
-5.15231
-5.15295
18.2346
18.7274
20.9283
21.5332
22.0721
22.1571
22.088
22.0008
21.7943
21.6666
21.4233
21.281
20.9911
20.8362
20.5484
20.224
19.3234
18.8718
18.0801
17.7037
17.0661
16.7568
16.2249
15.973
15.536
15.2932
14.7939
14.4791
13.8236
13.5138
13.064
12.7791
12.176
11.9197
11.5444
11.2411
10.4864
10.1239
9.53488
9.27208
8.89577
8.65285
8.13571
7.89023
7.48695
7.29335
6.98119
6.83257
6.61219
6.46619
6.15814
6.0096
5.76759
5.65388
5.4861
5.36972
5.11292
4.98839
4.78641
4.6282
4.23306
4.01958
3.589
3.34182
2.8153
2.50506
1.8247
1.4303
0.567189
0.08218
-0.964797
-1.53637
-2.76339
-3.32841
-4.37595
-4.6485
-4.71202
-4.72689
-4.7304
-4.73119
19.6898
20.1427
21.7826
22.3357
22.7319
22.7975
22.6931
22.5907
22.3645
22.2218
21.9663
21.8132
21.5398
21.3709
21.0535
20.6998
19.8081
19.3242
18.5564
18.155
17.53
17.1992
16.6785
16.4117
16.0006
15.7436
15.2541
14.9114
14.2303
13.8865
13.4009
13.0916
12.5141
12.2409
11.8646
11.5369
10.7837
10.3925
9.8086
9.52124
9.11532
8.85047
8.3465
8.08302
7.67971
7.46937
7.14937
6.9843
6.74035
6.5796
6.27445
6.11373
5.86783
5.74193
5.55669
5.42918
5.1776
5.04182
4.82593
4.6563
4.28415
4.05964
3.64921
3.38892
2.88922
2.56378
1.92447
1.51273
0.708997
0.20514
-0.76032
-1.34874
-2.45275
-3.02729
-3.94381
-4.22006
-4.2884
-4.30473
-4.3086
-4.30948
21.1267
21.5103
22.6802
23.1445
23.4048
23.4448
23.2981
23.1855
22.9315
22.7816
22.5053
22.3503
22.0844
21.9117
21.5602
21.1973
20.2764
19.788
19.0182
18.6153
17.9823
17.6493
17.122
16.8563
16.4591
16.2034
15.7084
15.3572
14.6236
14.265
13.7309
13.4149
12.8401
12.5663
12.183
11.8499
11.0666
10.669
10.0705
9.77521
9.32931
9.05772
8.54774
8.28146
7.86481
7.64983
7.31141
7.13924
6.86524
6.69882
6.38502
6.2213
5.96331
5.83239
5.625
5.49363
5.23768
5.09849
4.86363
4.69253
4.32935
4.10715
3.70341
3.44559
2.95618
2.63506
2.01513
1.61084
0.838801
0.346552
-0.570941
-1.14051
-2.16331
-2.7125
-3.53731
-3.79995
-3.86688
-3.88307
-3.88693
-3.88782
22.5481
22.8463
23.6059
23.9613
24.0866
24.0996
23.9018
23.7861
23.4943
23.3466
23.0394
22.8918
22.6254
22.4596
22.0675
21.7171
20.7276
20.2632
19.4654
19.0849
18.4226
18.1072
17.5551
17.3062
16.912
16.6729
16.1571
15.8185
15.002
14.6505
14.0522
13.7486
13.1541
12.8962
12.4995
12.181
11.3343
10.9535
10.3204
10.0353
9.53639
9.27459
8.73931
8.48599
8.0419
7.83529
7.46685
7.2983
6.98587
6.82399
6.48964
6.33269
6.05374
5.92594
5.69031
5.56309
5.29312
5.159
4.8988
4.73646
4.36893
4.16193
3.7518
3.51154
3.01641
2.7183
2.09716
1.72366
0.957404
0.504961
-0.395495
-0.914164
-1.89284
-2.38672
-3.15331
-3.38769
-3.4474
-3.46192
-3.4654
-3.4662
23.9574
24.1636
24.5477
24.7873
24.7729
24.7628
24.5023
24.3937
24.0514
23.9179
23.5673
23.4382
23.1623
23.0167
22.5731
22.2626
21.1579
20.7519
19.8959
19.5658
18.8491
18.5747
17.9761
17.762
17.3588
17.1535
16.5988
16.2989
15.3618
15.046
14.3619
14.0941
13.4548
13.2318
12.8129
12.5333
11.5833
11.2483
10.5565
10.304
9.73406
9.50245
8.91965
8.69822
8.20955
8.02728
7.61434
7.46317
7.10052
6.95611
6.58721
6.449
6.13816
6.02384
5.75132
5.63829
5.34314
5.22458
4.93007
4.78862
4.40211
4.22485
3.79339
3.58769
3.06876
2.81445
2.16928
1.85217
1.06345
0.68128
-0.235335
-0.669436
-1.64177
-2.05004
-2.79062
-2.98243
-3.02975
-3.04123
-3.04398
-3.04462
25.3584
25.4737
25.4952
25.6233
25.459
25.436
25.0967
25.0108
24.6002
24.498
24.0863
23.9905
23.6941
23.5858
23.0735
22.8399
21.5603
21.2585
20.3055
20.0623
19.258
19.0552
18.3818
18.2254
17.7977
17.6481
17.0304
16.8049
15.6969
15.4563
14.6549
14.4545
13.7389
13.5752
13.1209
12.9124
11.8078
11.5573
10.775
10.5854
9.91825
9.74442
9.08559
8.92117
8.36498
8.22853
7.75141
7.63653
7.20648
7.09723
6.67557
6.57224
6.21475
6.1281
5.80596
5.7208
5.38613
5.29722
4.95524
4.85059
4.42692
4.29795
3.82597
3.67637
3.11053
2.92624
2.22828
1.99955
1.15322
0.878967
-0.0944879
-0.403194
-1.41329
-1.70009
-2.44989
-2.58296
-2.61353
-2.6209
-2.62266
-2.62307
26.7546
26.7875
26.4383
26.4711
26.1394
26.1219
25.681
25.6408
25.1367
25.0905
24.5928
24.5509
24.2184
24.171
23.5627
23.459
21.9236
21.7913
20.6868
20.5813
19.6429
19.5546
18.7669
18.6998
18.2255
18.1615
17.4463
17.3463
15.9973
15.8891
14.924
14.8355
14.0009
13.9303
13.419
13.3274
11.9982
11.8877
10.9699
10.886
10.0827
10.0058
9.23179
9.15983
8.50366
8.44344
7.87401
7.82253
7.29963
7.25088
6.75123
6.70567
6.28052
6.24179
5.85114
5.8133
5.41929
5.38
4.97093
4.92533
4.43996
4.38478
3.84565
3.78171
3.13704
3.05857
2.26851
2.17163
1.2201
1.10462
0.0197616
-0.108905
-1.21374
-1.33163
-2.13383
-2.1876
-2.19825
-2.20079
-2.2014
-2.20154
26.3572
26.3923
26.0665
26.1105
25.9032
25.9032
25.5848
25.5594
25.1638
25.1293
24.7297
24.6982
24.4299
24.3961
23.9627
23.8904
22.7164
22.6097
21.5579
21.4547
20.5364
20.447
19.6652
19.5976
19.1294
19.0653
18.3505
18.2495
16.882
16.7725
15.8075
15.7187
14.8745
14.8037
14.2949
14.1992
12.7821
12.6626
11.6583
11.5644
10.6806
10.5929
9.70301
9.61783
8.8448
8.77124
8.10128
8.03994
7.48791
7.44176
7.10318
7.05313
6.38439
6.33404
5.99512
5.94403
5.27619
5.22365
4.88546
4.83429
4.29412
4.20004
2.92321
2.80284
1.74587
1.63006
0.568046
0.448467
-0.644398
-0.767155
-1.87086
-1.99677
-3.05394
-3.15919
-3.8717
-3.91465
-3.92258
-3.92443
-3.92487
-3.92496
24.9335
25.0548
25.1041
25.2611
25.2199
25.2412
25.0215
24.9718
24.6592
24.5847
24.2601
24.1897
23.9597
23.8839
23.5224
23.3638
22.4148
22.1749
21.2713
21.0321
20.2348
20.0274
19.3536
19.1952
18.7704
18.6204
18.0021
17.7744
16.651
16.4072
15.6032
15.4023
14.6821
14.5181
14.0628
13.8451
12.67
12.3986
11.5373
11.3236
10.5832
10.3839
9.62454
9.42871
8.76519
8.59633
8.02591
7.88585
7.4178
7.31129
7.00987
6.89601
6.34508
6.2303
5.9262
5.80911
5.25357
5.13199
4.81872
4.69625
4.2089
3.99183
2.91765
2.64027
1.7135
1.44154
0.502607
0.220498
-0.748947
-1.03918
-2.02165
-2.32302
-3.29022
-3.5436
-4.18323
-4.28668
-4.3093
-4.31467
-4.31595
-4.3162
23.5049
23.7201
24.1374
24.4196
24.5341
24.5887
24.4514
24.3947
24.1451
24.0501
23.7803
23.6877
23.4835
23.3831
23.074
22.869
22.0848
21.7668
20.9582
20.6318
19.9096
19.6266
19.0214
18.8035
18.4005
18.1942
17.6382
17.3351
16.3848
16.0642
15.375
15.1066
14.4674
14.2442
13.8213
13.5294
12.5218
12.1583
11.3903
11.104
10.4642
10.1974
9.52358
9.25833
8.66583
8.43751
7.93335
7.74491
7.33327
7.18865
6.90909
6.75641
6.28835
6.13417
5.84983
5.69176
5.21361
5.04802
4.74437
4.57281
4.11289
3.81791
2.88024
2.50368
1.65494
1.27971
0.410901
0.0200264
-0.880661
-1.28351
-2.1997
-2.62265
-3.55504
-3.91255
-4.51618
-4.66193
-4.69669
-4.70504
-4.70703
-4.70742
22.0676
22.3772
23.176
23.5848
23.8507
23.944
23.8781
23.8253
23.6248
23.5225
23.2936
23.1902
23.0031
22.8908
22.6215
22.3973
21.7362
21.3784
20.6258
20.2475
19.5669
19.2387
18.6738
18.4193
18.0229
17.7821
17.2642
16.9219
16.0935
15.7361
15.1299
14.8259
14.2361
13.9783
13.5746
13.2424
12.3478
11.9342
11.2243
10.8985
10.3303
10.0272
9.40634
9.1011
8.55197
8.2898
7.82822
7.61295
7.2381
7.07145
6.80328
6.62946
6.21911
6.04327
5.76844
5.58723
5.16119
4.9696
4.66476
4.46094
4.0103
3.66972
2.8204
2.38599
1.57746
1.13764
0.300088
-0.160044
-1.03228
-1.5073
-2.39746
-2.90189
-3.84286
-4.27165
-4.86743
-5.04157
-5.08508
-5.09561
-5.09811
-5.0986
20.6178
21.0146
22.2301
22.7556
23.1743
23.3056
23.3044
23.262
23.1007
23.0001
22.8019
22.6961
22.5198
22.4048
22.1673
21.9432
21.3757
21.0058
20.2786
19.8754
19.2103
18.8604
18.3139
18.0408
17.6391
17.3812
16.8833
16.5281
15.7834
15.418
14.8729
14.5568
13.9917
13.7184
13.3251
12.978
12.1548
11.7221
11.0429
10.7029
10.1859
9.86981
9.27656
8.95372
8.42671
8.15013
7.71331
7.48744
7.13467
6.95838
6.69375
6.51203
6.14054
5.95639
5.68335
5.49255
5.09942
4.89575
4.58115
4.35898
3.90335
3.54191
2.74399
2.2833
1.48525
1.01149
0.174192
-0.32362
-1.19979
-1.71448
-2.61066
-3.16367
-4.15117
-4.62404
-5.23551
-5.42638
-5.47472
-5.48642
-5.4892
-5.48973
19.152
19.6191
21.3117
21.9307
22.5093
22.6726
22.7324
22.7034
22.5743
22.4817
22.3065
22.2049
22.0342
21.9237
21.7127
21.503
21.0073
20.6477
19.9186
19.5139
18.8411
18.4901
17.9432
17.6677
17.2496
16.99
16.4969
16.1501
15.4584
15.1073
14.6068
14.2977
13.7358
13.4634
13.0739
12.7328
11.9462
11.5199
10.8481
10.5144
10.0336
9.72362
9.13607
8.8146
8.29152
8.01696
7.59005
7.36709
7.02426
6.84891
6.58097
6.40225
6.05453
5.87312
5.59503
5.40601
5.03013
4.82638
4.49388
4.26639
3.79266
3.4316
2.65412
2.19412
1.38009
0.899907
0.0347311
-0.47205
-1.38174
-1.9064
-2.83758
-3.40807
-4.48005
-4.97088
-5.62036
-5.81683
-5.86575
-5.87751
-5.88029
-5.88081
17.6673
18.1743
20.4362
21.1073
21.8609
22.0438
22.1639
22.149
22.0465
21.9667
21.8083
21.7166
21.5463
21.4468
21.2581
21.0743
20.6336
20.3044
19.5457
19.1632
18.4592
18.1278
17.5617
17.3003
16.8539
16.6083
16.1046
15.786
15.1198
14.8026
14.3332
14.0488
13.4683
13.2132
12.821
12.5055
11.7233
11.3277
10.6399
10.3319
9.87451
9.58863
8.98503
8.68364
8.14649
7.88997
7.4587
7.25161
6.90722
6.74321
6.46469
6.29929
5.96193
5.79378
5.50319
5.327
4.954
4.7622
4.40245
4.1837
3.6775
3.33797
2.55158
2.11913
1.2616
0.80374
-0.11905
-0.604352
-1.57909
-2.08205
-3.07893
-3.63241
-4.83216
-5.31134
-6.0233
-6.21312
-6.2582
-6.26887
-6.27138
-6.27185
16.1621
16.6592
19.6241
20.2806
21.2353
21.4176
21.6009
21.5981
21.5178
21.4549
21.3076
21.2315
21.0556
20.9736
20.8033
20.656
20.2555
19.9785
19.1578
18.8255
18.0626
17.7749
17.1682
16.9405
16.4504
16.237
15.7051
15.4358
14.7673
14.5041
14.0523
13.8119
13.188
12.9685
12.565
12.2969
11.4851
11.1473
10.4165
10.1555
9.70868
9.46644
8.82199
8.5622
7.9903
7.77005
7.31847
7.14169
6.78302
6.64216
6.34394
6.20327
5.86262
5.71938
5.40683
5.2559
4.87066
4.70478
4.30542
4.11253
3.5557
3.26225
2.43491
2.06117
1.12715
0.726186
-0.290318
-0.717066
-1.7953
-2.23794
-3.33802
-3.8309
-5.2131
-5.64248
-6.44708
-6.61515
-6.65195
-6.66048
-6.66247
-6.66284
14.637
15.0453
18.9044
19.4419
20.6407
20.7913
21.0455
21.0504
20.9885
20.9466
20.804
20.7505
20.5612
20.504
20.3478
20.2479
19.8725
19.6744
18.7505
18.5052
17.6469
17.4349
16.7596
16.5912
16.0358
15.8785
15.2952
15.1018
14.3987
14.2133
13.7631
13.5904
12.8916
12.7314
12.3037
12.1102
11.228
10.9827
10.1745
9.98665
9.53475
9.36042
8.64363
8.45331
7.82012
7.65945
7.1673
7.0391
6.65017
6.54745
6.21694
6.1153
5.75545
5.6518
5.30405
5.19421
4.77858
4.65673
4.20015
4.05595
3.4234
3.20791
2.30012
2.02564
0.971381
0.673267
-0.485165
-0.803714
-2.03693
-2.36753
-3.62139
-3.99382
-5.63214
-5.95859
-6.89629
-7.02238
-7.04677
-7.05228
-7.05357
-7.0538
13.0955
13.2933
18.3174
18.5768
20.0879
20.1609
20.5
20.5054
20.4584
20.4423
20.2969
20.2749
20.0616
20.0383
19.89
19.8509
19.4826
19.3994
18.3161
18.2094
17.2056
17.1135
16.3308
16.2574
15.6053
15.5372
14.8697
14.7882
14.0095
13.9331
13.4627
13.39
12.5737
12.5049
12.0331
11.9511
10.9455
10.8407
9.9077
9.82838
9.34976
9.27614
8.44427
8.36217
7.63108
7.56214
7.00161
6.94698
6.50591
6.46188
6.08082
6.03768
5.63807
5.594
5.19177
5.14478
4.67477
4.62209
4.08242
4.01892
3.27443
3.18127
2.14
2.02131
0.785381
0.654768
-0.713601
-0.853769
-2.31466
-2.46019
-3.94002
-4.1061
-6.10365
-6.25023
-7.37795
-7.43364
-7.44231
-7.44422
-7.44466
-7.44474
15.84
15.8472
16.1935
16.1654
15.6122
15.5533
15.19
15.1046
13.9674
13.8608
12.9826
12.908
12.2967
12.2445
11.8963
11.8302
11.1755
11.0662
9.75735
9.64471
8.73008
8.65202
8.081
8.03298
7.75269
7.70671
7.27673
7.20814
6.43789
6.37572
5.99063
5.94471
5.47287
5.42853
5.04663
5.00546
4.68622
4.65201
4.41647
4.39547
4.29012
4.26768
3.99596
3.96879
3.75724
3.73436
3.5277
3.50818
3.37654
3.34405
2.81929
2.76167
2.122
2.05135
1.32658
1.24163
0.277709
0.187004
-0.524392
-0.684661
-3.17176
-3.40113
-5.68879
-5.91382
-8.20639
-8.43774
-10.8364
-11.078
-13.597
-13.8421
-16.3554
-16.6004
-19.224
-19.4463
-21.5885
-21.8993
-27.1239
-27.3407
-27.3682
-27.3734
16.4159
16.4242
16.6429
16.5646
16.0528
15.9079
15.554
15.3508
14.3623
14.1148
13.3633
13.1932
12.6769
12.5544
12.2204
12.0568
11.4291
11.1711
10.0649
9.8069
9.02094
8.83994
8.33898
8.22511
7.96161
7.84839
7.4352
7.27194
6.61382
6.46852
6.11765
6.01047
5.6109
5.50846
5.17182
5.07306
4.77458
4.69143
4.47687
4.42582
4.32161
4.26757
4.02705
3.96271
3.77443
3.72071
3.54043
3.49383
3.36717
3.29337
2.86288
2.732
2.18005
2.01705
1.39523
1.20112
0.38677
0.174409
-0.488742
-0.85443
-2.90733
-3.42278
-5.34811
-5.85801
-7.79377
-8.31868
-10.3426
-10.89
-13.009
-13.5628
-15.6694
-16.2185
-18.3872
-18.8811
-20.6621
-21.3244
-25.382
-25.84
-25.9156
-25.9306
16.9915
16.9928
17.1042
16.9812
16.4787
16.271
15.9119
15.6286
14.7276
14.389
13.7208
13.4922
13.0414
12.8727
12.5377
12.302
11.6679
11.3099
10.3386
9.99026
9.28763
9.04069
8.5815
8.42325
8.16455
8.00209
7.5837
7.35556
6.76926
6.56957
6.23494
6.08796
5.73706
5.59778
5.2875
5.14866
4.85436
4.73612
4.53075
4.45832
4.35109
4.27493
4.0511
3.9616
3.78625
3.71212
3.54782
3.48269
3.35569
3.25696
2.89448
2.71917
2.22255
2.0011
1.44677
1.18542
0.47175
0.179846
-0.46499
-0.956709
-2.70439
-3.38804
-5.06405
-5.74516
-7.43759
-8.13967
-9.90781
-10.6392
-12.4837
-13.2214
-15.0458
-15.7718
-17.6173
-18.2644
-19.7803
-20.6137
-23.7842
-24.3545
-24.4654
-24.4884
17.5671
17.5569
17.5749
17.413
16.8928
16.6401
16.267
15.9311
15.0705
14.6765
14.0608
13.8002
13.3947
13.1978
12.8511
12.5633
11.8957
11.4733
10.5874
10.1879
9.53617
9.25
8.81205
8.62547
8.36368
8.16609
7.72464
7.45356
6.90928
6.67607
6.34476
6.17364
5.8548
5.69398
5.39637
5.23051
4.92711
4.78432
4.57932
4.49222
4.37935
4.28821
4.06979
3.96394
3.79403
3.70715
3.55124
3.47403
3.34309
3.23111
2.91861
2.7192
2.25404
1.99847
1.48659
1.18782
0.539858
0.199399
-0.447361
-1.00874
-2.544
-3.31359
-4.81978
-5.59184
-7.12102
-7.918
-9.51454
-10.3438
-12.0027
-12.8365
-14.4661
-15.2804
-16.8954
-17.6129
-18.9259
-19.8095
-22.2904
-22.8874
-23.0187
-23.0471
18.143
18.12
18.0529
17.8592
17.2963
17.0141
16.6206
16.2547
15.3948
14.9728
14.3867
14.1141
13.7397
13.529
13.1622
12.8398
12.1138
11.6553
10.8169
10.3956
9.77016
9.46545
9.03261
8.83077
8.56032
8.33991
7.85882
7.56255
7.03692
6.78654
6.44823
6.26528
5.96626
5.7957
5.5
5.31789
4.99348
4.83504
4.62321
4.52718
4.40677
4.3066
4.084
3.96885
3.79851
3.70495
3.55153
3.46753
3.32973
3.21329
2.93821
2.72986
2.27715
2.0061
1.51789
1.20418
0.595664
0.231205
-0.433144
-1.02182
-2.41423
-3.20967
-4.60487
-5.40824
-6.83373
-7.66435
-9.15195
-10.0153
-11.5546
-12.4198
-13.919
-14.757
-16.2093
-16.9377
-18.0886
-18.9413
-20.8718
-21.4389
-21.5761
-21.6068
18.72
18.6849
18.536
18.3202
17.6887
17.3927
16.9731
16.5982
15.7017
15.2759
14.7001
14.4321
14.0782
13.8665
13.4716
13.1325
12.3213
11.8526
11.0298
10.6116
9.99142
9.68611
9.24401
9.03889
8.75502
8.52422
7.98569
7.68079
7.15362
6.9006
6.54555
6.36162
6.07263
5.90247
5.59913
5.41101
5.05324
4.88792
4.6625
4.56314
4.4334
4.32991
4.09393
3.97598
3.79993
3.70515
3.54905
3.46319
3.31553
3.20181
2.95516
2.75031
2.293
2.02241
1.5422
1.23232
0.641706
0.275006
-0.42195
-1.00274
-2.30833
-3.08175
-4.41362
-5.19975
-6.57023
-7.38442
-8.81432
-9.65968
-11.1336
-11.9777
-13.3983
-14.2089
-15.5523
-16.2455
-17.2633
-18.0301
-19.5078
-20.0074
-20.1377
-20.1677
19.2983
19.2544
19.0217
18.7978
18.0677
17.7763
17.324
16.9626
15.9899
15.5851
15.0014
14.7536
14.4112
14.2114
13.7788
13.4443
12.5153
12.0642
11.2266
10.8359
10.2002
9.91233
9.44601
9.25023
8.94768
8.72092
8.10329
7.80799
7.25943
7.0188
6.63608
6.46222
6.17431
6.01462
5.69371
5.51096
5.10535
4.94325
4.69678
4.60035
4.459
4.35855
4.09916
3.98546
3.79811
3.70782
3.54377
3.46133
3.29998
3.19567
2.97044
2.78085
2.30139
2.04711
1.5597
1.2717
0.67879
0.332017
-0.4154
-0.954655
-2.22371
-2.93148
-4.2442
-4.96787
-6.32897
-7.07985
-8.50008
-9.27894
-10.7377
-11.5126
-12.9021
-13.6396
-14.9212
-15.5403
-16.4479
-17.0903
-18.1828
-18.5907
-18.7032
-18.7298
19.8785
19.8315
19.5072
19.2958
18.4292
18.1664
17.6714
17.3515
16.2554
15.9015
15.2893
15.0791
14.7385
14.5657
14.0823
13.7799
12.6902
12.2913
11.4056
11.07
10.3951
10.1458
9.63726
9.46591
9.13738
8.93332
8.20806
7.94538
7.35297
7.14274
6.71831
6.56743
6.2709
6.13326
5.78279
5.61986
5.14774
5.00198
4.72508
4.63938
4.483
4.39356
4.09858
3.9979
3.79243
3.71345
3.53524
3.46264
3.28215
3.19437
2.9843
2.823
2.30077
2.08113
1.56923
1.32327
0.706026
0.405054
-0.417172
-0.877375
-2.16153
-2.757
-4.09832
-4.71049
-6.11212
-6.7485
-8.21148
-8.87101
-10.3691
-11.0228
-12.4319
-13.0485
-14.3166
-14.8236
-15.6432
-16.1325
-16.8852
-17.1858
-17.272
-17.2928
20.4605
20.4197
19.9882
19.8201
18.7666
18.5658
18.0118
17.7716
16.4913
16.2283
15.5611
15.4098
15.0592
14.9325
14.3786
14.147
12.8375
12.538
11.5628
11.3177
10.5731
10.3896
9.81508
9.68794
9.32215
9.16662
8.29438
8.09601
7.43128
7.2753
6.78965
6.67851
6.36118
6.26045
5.86441
5.74116
5.17711
5.06598
4.74576
4.68125
4.50433
4.43681
4.09024
4.01455
3.78169
3.72306
3.52249
3.46826
3.26062
3.19796
2.99621
2.87959
2.28806
2.12685
1.56812
1.3897
0.720611
0.498942
-0.433423
-0.767132
-2.12689
-2.55268
-3.98161
-4.42153
-5.92587
-6.38408
-7.95502
-8.42952
-10.0343
-10.5029
-11.9934
-12.4313
-13.7425
-14.0944
-14.8516
-15.1642
-15.6056
-15.7893
-15.8435
-15.8567
21.0442
21.0236
20.4587
20.3798
19.0699
18.9794
18.3397
18.2333
16.6866
16.5713
15.8124
15.7485
15.371
15.3164
14.662
14.5573
12.9445
12.8118
11.6907
11.5854
10.7286
10.6492
9.97505
9.91954
9.49855
9.42862
8.35377
8.26533
7.48927
7.42108
6.84603
6.79787
6.44282
6.39947
5.93514
5.88011
5.18839
5.13836
4.75622
4.72764
4.5213
4.49124
4.07107
4.03749
3.76399
3.73836
3.50388
3.48003
3.2333
3.20712
3.00472
2.95518
2.25813
2.18847
1.55179
1.47574
0.717298
0.621258
-0.473618
-0.615843
-2.1296
-2.30824
-3.90446
-4.08998
-5.78146
-5.97515
-7.74241
-7.94282
-9.74502
-9.94204
-11.597
-11.7792
-13.2067
-13.349
-14.0779
-14.1907
-14.3363
-14.3981
-14.4165
-14.421
)
;

boundaryField
{
    F1_1
    {
        type            fixedValue;
        value           nonuniform List<scalar> 
80
(
0
14.3126
16.924
16.924
16.9219
16.9219
16.4451
16.4451
15.9192
15.9192
15.4296
15.4296
15.122
15.122
14.4891
14.4891
12.8386
12.8386
11.7914
11.7914
10.8971
10.8971
10.1595
10.1595
9.73549
9.73549
9.09032
9.09032
7.81883
7.81883
7.02259
7.02259
6.38074
6.38074
6.03031
6.03031
5.2151
5.2151
4.72462
4.72462
4.35707
4.35707
4.04898
4.04898
3.82502
3.82502
3.66592
3.66592
3.58088
3.58088
3.45786
3.45786
3.39453
3.39453
3.36453
3.36453
3.33245
3.33245
3.31851
3.31851
3.29808
3.29808
3.21165
3.21165
3.09079
3.09079
2.891
2.891
2.57262
2.57262
2.13359
2.13359
1.56622
1.56622
0.896075
0.896075
0.896075
0.896075
0.896075
0.896075
)
;
    }
    F1_2
    {
        type            fixedValue;
        value           nonuniform List<scalar> 
80
(
27.452
27.452
26.9023
26.9023
26.4733
26.4733
25.9651
25.9651
25.3958
25.3958
24.8369
24.8369
24.4749
24.4749
23.7973
23.7973
22.0772
22.0772
20.8574
20.8574
19.8183
19.8183
18.9451
18.9451
18.4313
18.4313
17.6419
17.6419
16.1227
16.1227
15.0409
15.0409
14.1166
14.1166
13.5597
13.5597
12.069
12.069
11.0507
11.0507
10.1505
10.1505
9.29085
9.29085
8.56109
8.56109
7.92496
7.92496
7.33673
7.33673
6.77998
6.77998
6.30568
6.30568
5.86668
5.86668
5.42878
5.42878
4.9715
4.9715
4.43788
4.43788
3.84599
3.84599
3.13897
3.13897
2.27476
2.27476
1.23683
1.23683
0.0577609
0.0577609
-1.13371
-1.13371
-1.99078
-1.99078
-1.99078
-1.99078
-1.99078
-1.99078
)
;
    }
    F1_3
    {
        type            fixedValue;
        value           nonuniform List<scalar> 
80
(
27.0683
27.0683
26.5403
26.5403
26.2407
26.2407
25.8606
25.8606
25.4089
25.4089
24.9572
24.9572
24.6603
24.6603
24.1757
24.1757
22.8459
22.8459
21.6823
21.6823
20.6706
20.6706
19.8068
19.8068
19.3008
19.3008
18.5124
18.5124
16.9724
16.9724
15.892
15.892
14.9553
14.9553
14.4026
14.4026
12.8123
12.8123
11.7006
11.7006
10.7134
10.7134
9.72616
9.72616
8.87062
8.87062
8.1268
8.1268
7.51285
7.51285
7.14407
7.14407
6.39168
6.39168
6.02383
6.02383
5.2752
5.2752
4.91309
4.91309
4.32781
4.32781
2.90286
2.90286
1.74324
1.74324
0.581919
0.581919
-0.611526
-0.611526
-1.81502
-1.81502
-2.95484
-2.95484
-3.72933
-3.72933
-3.72933
-3.72933
-3.72933
-3.72933
)
;
    }
    F1_4
    {
        type            fixedValue;
        value           nonuniform List<scalar> 
80
(
21.3364
21.3364
20.6843
20.6843
19.1972
19.1972
18.493
18.493
16.7557
16.7557
15.9242
15.9242
15.5204
15.5204
14.7927
14.7927
12.9684
12.9684
11.7344
11.7344
10.7909
10.7909
10.0427
10.0427
9.57973
9.57973
8.36375
8.36375
7.50411
7.50411
6.86369
6.86369
6.4774
6.4774
5.96232
5.96232
5.18119
5.18119
4.75439
4.75439
4.52626
4.52626
4.05376
4.05376
3.75018
3.75018
3.49037
3.49037
3.21523
3.21523
3.00592
3.00592
2.23061
2.23061
1.53241
1.53241
0.702393
0.702393
-0.512768
-0.512768
-2.15766
-2.15766
-3.89409
-3.89409
-5.73921
-5.73921
-7.66744
-7.66744
-9.63246
-9.63246
-11.4283
-11.4283
-12.9645
-12.9645
-13.7033
-13.7033
-13.7033
-13.7033
-13.7033
-13.7033
)
;
    }
    F2_1
    {
        type            fixedValue;
        value           nonuniform List<scalar> 
80
(
8.46039
8.46039
11.3017
11.3017
12.7589
12.7589
13.0917
13.0917
12.9287
12.9287
12.6187
12.6187
12.1971
12.1971
12.0072
12.0072
10.993
10.993