/*--------------------------------*- C++ -*----------------------------------*\
| =========                 |                                                 |
| \\      /  F ield         | OpenFOAM: The Open Source CFD Toolbox           |
|  \\    /   O peration     | Version:  5.x                                   |
|   \\  /    A nd           | Web:      www.OpenFOAM.org                      |
|    \\/     M anipulation  |                                                 |
\*---------------------------------------------------------------------------*/
FoamFile
{
    version     2.0;
    format      ascii;
    class       volScalarField;
    location    "7";
    object      gradTy;
}
// * * * * * * * * * * * * * * * * * * * * * * * * * * * * * * * * * * * * * //

dimensions      [0 -1 0 1 0 0 0];

internalField   nonuniform List<scalar> 
6300
(
1294.24
1881.86
2466.92
3047.72
3622.53
4189.63
4747.27
5293.73
5827.27
6346.21
6848.92
7333.85
7799.62
8245.02
8669.07
1.25863
3.77913
6.30878
8.85168
11.4086
13.9754
16.5413
19.087
21.5829
23.9875
26.2475
28.2987
30.07
31.489
32.4906
2.09404
6.28825
10.4998
14.737
19.003
23.2929
27.5908
31.8667
36.0723
40.1392
43.9768
47.4744
50.5066
52.944
54.6681
2.92326
8.77971
14.6647
20.5931
26.5729
32.6015
38.6616
44.7154
50.6994
56.5189
62.0446
67.1136
71.5358
75.11
77.6477
3.74245
11.2423
18.7857
26.397
34.0929
41.8775
49.7371
57.6321
65.4889
73.19
80.5669
87.3968
93.4098
98.3087
101.806
4.54652
13.6609
22.8381
32.1155
41.5229
51.0771
60.7754
70.5852
80.4316
90.1825
99.6327
108.494
116.394
122.904
127.591
5.32906
16.0162
26.7895
37.7029
48.8044
60.1307
71.6998
83.4987
95.4667
107.472
119.284
130.546
140.763
149.318
155.55
6.08244
18.2849
30.5998
43.1009
55.8594
68.9395
82.3918
96.2401
110.461
124.95
139.479
153.637
166.787
178.05
186.397
6.79802
20.4404
34.2226
48.2401
62.5907
77.3735
92.6844
108.605
125.181
142.383
160.038
177.731
194.69
209.689
221.101
7.46698
22.4554
37.609
53.0444
68.8874
85.2764
102.363
120.31
139.271
159.358
180.55
202.552
224.547
244.906
261.043
8.08124
24.3043
40.7124
57.4391
74.6355
92.4779
111.179
130.995
152.231
175.219
200.246
227.372
256.029
284.338
308.289
8.63462
25.9676
43.4956
61.3623
79.7347
98.8175
118.874
140.255
163.432
189.032
217.837
250.653
287.848
328.117
365.989
9.12401
27.4349
45.9385
64.7777
84.1206
104.179
125.241
147.712
172.202
199.634
231.407
269.544
316.58
374.28
438.551
9.55022
28.7087
48.0444
67.687
87.7872
108.535
130.191
153.146
178.025
205.888
238.604
279.525
334.637
413.853
528.273
9.9181
29.8043
49.8418
70.1363
90.8031
111.978
133.838
156.649
180.855
207.282
237.587
275.304
328.572
418.206
605.946
9037.59
9357.06
9660.93
9949.31
10222.5
10480.8
10724.8
10955.1
11172.6
11377.9
11572.1
11755.8
11930.2
12096.1
12254.5
12406.3
12552.3
12693.5
12830.7
12964.7
13096.3
13226.3
13355.2
13483.7
13612.3
13741.6
13871.9
14003.5
14136.7
14271.6
14408.2
14546.6
14686.7
14828.2
14971.1
15115.1
15259.9
15405.2
15550.8
15696.2
15841.2
15985.2
16127.9
16268.8
16407.6
16543.7
16676.8
16806.5
16932.5
17054.4
17171.9
17284.8
17392.7
17495.4
17592.6
17683.9
17769
17847.5
17919.1
17983.3
18039.7
18088
18127.6
18158.2
18179.2
18190.2
18190.4
18179.4
18156.3
18120.4
18070.8
18006.6
17926.9
17830.6
17716.7
17584
17431.4
17257.7
17061.8
16842.4
16598.5
16328.8
16032.3
15708
15355
14972.7
14560.4
14118
13645.3
13142.7
32.9806
33.0847
32.8449
32.2718
31.388
30.2255
28.8226
27.2209
25.4626
23.5878
21.6333
19.6315
17.6104
15.5933
13.5996
11.6455
9.74491
7.90998
6.15219
4.48296
2.91426
1.45888
0.130528
-1.0565
-2.08802
-2.95107
-3.63538
-4.13492
-4.44945
-4.58542
-4.55601
-4.37999
-4.0793
-3.67593
-3.18875
-2.63117
-2.01051
-1.32901
-0.586529
0.216092
1.07374
1.97493
2.90154
3.83065
4.73804
5.60248
6.40965
7.15458
7.84224
8.48619
9.10569
9.72213
10.3553
11.0202
11.7256
12.4734
13.2603
14.0802
14.9275
15.8
16.7009
17.6399
18.632
19.6964
20.8542
22.1253
23.5265
25.0695
26.7595
28.5953
30.5699
32.6723
34.889
37.2053
39.6065
42.0769
44.5994
47.1531
49.7112
52.2394
54.6939
57.0206
59.1562
61.0293
62.5644
63.6867
64.3277
64.4317
63.9619
62.9045
55.5113
55.6884
55.2715
54.2804
52.7564
50.7575
48.3529
45.6164
42.6217
39.4384
36.1291
32.7484
29.3424
25.9494
22.6007
19.3219
16.1346
13.0581
10.1101
7.30897
4.67402
2.22652
-0.0101857
-2.01114
-3.75094
-5.20569
-6.3557
-7.18862
-7.70252
-7.90812
-7.82927
-7.50102
-6.96492
-6.26266
-5.42927
-4.48826
-3.45006
-2.31428
-1.07526
0.270719
1.71849
3.2493
4.83008
6.41703
7.963
9.42648
10.7796
12.0133
13.1379
14.1805
15.179
16.175
17.2062
18.3005
19.473
20.7246
22.0455
23.4207
24.8361
26.2849
27.7713
29.3121
30.935
32.6758
34.5733
36.6651
38.982
41.5452
44.3638
47.4343
50.7429
54.2684
57.986
61.8704
65.8972
70.0423
74.28
78.5788
82.8976
87.1814
91.3584
95.3378
99.0107
102.253
104.931
106.911
108.067
108.299
107.538
105.757
78.8894
79.1461
78.5238
77.0551
74.8071
71.8726
68.3597
64.3822
60.0512
55.4692
50.7267
45.9009
41.0554
36.2418
31.5012
26.8667
22.3656
18.0217
13.8575
9.89668
6.16496
2.69186
-0.489021
-3.34039
-5.82278
-7.89752
-9.53095
-10.7
-11.3978
-11.6386
-11.4599
-10.9195
-10.088
-9.03641
-7.82296
-6.48353
-5.02838
-3.44652
-1.71638
0.180381
2.24521
4.45328
6.75125
9.06393
11.3083
13.4108
15.3231
17.0304
18.5529
19.9396
21.2574
22.5785
23.9672
25.4697
27.1076
28.8769
30.7538
32.7045
34.6979
36.7168
38.7645
40.8669
43.0692
45.4301
48.0136
50.8812
54.0834
57.6538
61.6056
65.9307
70.6037
75.5879
80.8428
86.3302
92.0169
97.8738
103.872
109.975
116.133
122.276
128.306
134.094
139.483
144.287
148.301
151.317
153.136
153.595
152.579
150.045
103.519
103.864
102.989
100.946
97.8408
93.8147
89.0297
83.6511
77.836
71.7249
65.4384
59.0758
52.7168
46.4236
40.2439
34.2147
28.3655
22.7217
17.3079
12.1502
7.27938
2.73242
-1.44625
-5.20474
-8.48537
-11.2284
-13.3785
-14.8935
-15.7546
-15.9768
-15.6148
-14.7608
-13.5318
-12.0469
-10.4019
-8.64932
-6.79306
-4.79631
-2.6015
-0.156184
2.56137
5.52334
8.64673
11.8046
14.853
17.6644
20.1569
22.3088
24.1587
25.7927
27.3259
28.8793
30.5591
32.4387
34.5475
36.8691
39.3503
41.9211
44.5173
47.1013
49.6733
52.272
54.9692
57.8576
61.0388
64.6092
68.648
73.2068
78.3031
83.9194
90.0094
96.5104
103.357
110.495
117.884
125.495
133.304
141.283
149.382
157.524
165.591
173.417
180.79
187.448
193.1
197.435
200.155
201.003
199.799
196.466
129.887
130.335
129.132
126.363
122.195
116.845
110.55
103.544
96.0423
88.2285
80.2547
72.2409
64.2791
56.4376
48.7658
41.2997
34.0661
27.0877
20.3864
13.9879
7.92497
2.24035
-3.01065
-7.7592
-11.9239
-15.4149
-18.1425
-20.03
-21.0329
-21.1579
-20.4798
-19.1436
-17.3455
-15.2898
-13.1373
-10.9662
-8.76193
-6.4332
-3.84933
-0.886821
2.52336
6.35863
10.49
14.7005
18.7362
22.3745
25.4784
28.0194
30.0721
31.7883
33.3623
34.9951
36.8601
39.0743
41.6777
44.6276
47.8144
51.0973
54.3504
57.4995
60.5395
63.5316
66.5895
69.8593
73.499
77.6581
82.4591
87.9809
94.2466
101.221
108.818
116.929
125.447
134.294
143.424
152.822
162.486
172.409
182.562
192.874
203.214
213.386
223.114
232.051
239.785
245.87
249.859
251.357
250.073
245.878
158.609
159.178
157.522
153.788
148.246
141.229
133.088
124.148
114.694
104.959
95.1246
85.3274
75.6647
66.2038
56.9885
48.0469
39.397
31.0522
23.0268
15.3408
8.02427
1.12258
-5.29968
-11.1553
-16.3333
-20.7016
-24.1165
-26.4412
-27.5757
-27.4959
-26.2928
-24.1923
-21.5307
-18.6728
-15.9
-13.3319
-10.9108
-8.43837
-5.6433
-2.26303
1.87221
6.76632
12.2183
17.8464
23.1899
27.8527
31.6085
34.4311
36.4683
37.9868
39.3123
40.7745
42.6563
45.1475
48.3065
52.0429
56.1378
60.314
64.3305
68.0523
71.4717
74.6934
77.9016
81.3256
85.2083
89.7794
95.2287
101.68
109.166
117.62
126.883
136.756
147.059
157.679
168.573
179.761
191.287
203.199
215.508
228.174
241.073
253.984
266.57
278.376
288.836
297.313
303.142
305.706
304.532
299.385
190.507
191.22
188.899
183.813
176.414
167.229
156.771
145.489
133.749
121.831
109.941
98.2205
86.7607
75.6172
64.8186
54.376
44.2905
34.5592
25.1815
16.1646
7.52956
-0.681951
-8.40082
-15.5232
-21.9043
-27.3567
-31.6558
-34.5616
-35.8624
-35.4468
-33.3934
-30.0444
-25.9941
-21.9289
-18.3634
-15.4814
-13.1293
-10.9038
-8.27571
-4.72208
0.132612
6.37499
13.6971
21.4062
28.6276
34.6411
39.086
41.9776
43.6153
44.4668
45.0693
45.9536
47.5788
50.2627
54.108
58.9453
64.3476
69.7639
74.7384
79.0437
82.6919
85.8777
88.9062
92.1341
95.929
100.639
106.558
113.891
122.696
132.854
144.07
155.963
168.218
180.668
193.301
206.21
219.535
233.413
247.94
263.135
278.912
295.047
311.148
326.633
340.741
352.566
361.122
365.436
364.705
358.491
226.751
227.623
224.25
217.16
207.149
195.057
181.635
167.484
153.054
138.661
124.512
110.736
97.4002
84.5332
72.1356
60.1911
48.6743
37.5579
26.8179
16.44
6.42696
-3.19365
-12.3584
-20.9555
-28.8098
-35.6693
-41.1982
-44.9896
-46.6174
-45.7527
-42.3562
-36.903
-30.4755
-24.4622
-19.8395
-16.8648
-15.1622
-13.9464
-12.2381
-9.05199
-3.60261
4.43153
14.621
25.6707
35.807
43.6904
48.8024
51.3317
51.8965
51.3073
50.4222
50.0678
50.9786
53.7076
58.4826
65.0362
72.5389
79.8515
86.1116
90.9824
94.579
97.2896
99.6243
102.127
105.333
109.756
115.854
123.98
134.279
146.566
160.28
174.649
189.093
203.392
217.63
232.057
246.981
262.69
279.405
297.253
316.23
336.155
356.605
376.866
395.924
412.52
425.202
432.422
432.766
425.347
269.13
270.129
264.944
254.706
240.873
224.794
207.538
189.87
172.296
155.127
138.537
122.606
107.355
92.7644
78.7918
65.3821
52.4743
40.0076
27.926
16.184
4.75334
-6.36724
-17.1388
-27.4624
-37.1524
-45.9023
-53.2467
-58.5371
-60.9655
-59.7082
-54.2849
-45.1684
-34.365
-24.9975
-18.9474
-16.4214
-16.4989
-17.7031
-18.3337
-16.6465
-11.0656
-0.621591
14.3003
31.244
46.2238
56.7237
62.2308
63.5077
61.8322
58.5666
55.0033
52.3523
51.7524
54.1984
60.2881
69.7521
80.9958
91.4461
99.4767
104.747
107.733
109.234
110.092
111.096
112.978
116.45
122.218
130.93
142.986
158.214
175.537
193.213
210.163
226.193
241.671
257.175
273.285
290.502
309.221
329.728
352.168
376.488
402.315
428.813
454.633
478.09
497.125
509.287
511.987
503.263
320.648
321.527
312.9
297.419
277.817
256.214
234.027
212.115
190.949
170.755
151.608
133.495
116.356
100.103
84.6355
69.8488
55.6384
41.9024
28.5451
15.4799
2.63417
-10.0422
-22.5624
-34.8795
-46.8466
-58.1563
-68.2502
-76.2028
-80.6176
-79.6597
-71.5285
-55.8602
-36.1844
-20.7537
-12.9788
-12.2273
-16.2115
-22.284
-27.7649
-29.8457
-25.5295
-12.121
11.0695
39.6463
63.0923
76.9465
81.7508
79.9348
74.0577
66.2553
58.2711
51.6841
48.1409
49.4428
57.2353
71.9056
90.5948
106.525
116.815
121.801
123.025
122.101
120.349
118.799
118.331
119.836
124.344
133.06
147.126
166.841
190.28
212.822
232.551
249.783
265.671
281.412
297.987
316.143
336.458
359.409
385.388
414.642
447.05
481.722
516.732
550.012
578.934
599.762
607.641
597.853
387.064
386.599
370.714
346.05
317.631
288.463
260.11
233.275
208.195
184.868
163.183
142.978
124.078
106.307
89.4962
73.4841
58.1178
43.251
28.7435
14.4601
0.271768
-13.9406
-28.2771
-42.7984
-57.485
-72.1583
-86.3337
-98.9595
-108.003
-109.937
-99.6222
-72.3197
-31.889
-5.48363
3.10471
-1.21205
-12.9158
-27.7151
-42.0906
-52.2546
-53.0843
-37.7047
0.0833218
55.4375
93.7728
110.201
110.803
102.209
89.0551
74.2053
59.5272
46.633
37.5528
35.341
44.2788
68.2716
104.166
129.724
141.792
144.27
141.408
136.161
130.312
124.941
120.844
118.895
120.408
127.485
143.127
170.101
206.312
236.477
258.531
275.303
289.874
304.443
320.407
338.665
359.89
384.719
413.883
448.244
488.509
534.132
581.309
628.192
672.382
708.867
728.717
719.859
481.721
473.862
441.155
400.075
358.511
319.527
283.996
251.898
222.904
196.609
172.617
150.573
130.166
111.122
93.2002
76.1838
59.8727
44.0777
28.615
13.2998
-2.05892
-17.6629
-33.7278
-50.4808
-68.1432
-86.8779
-106.649
-126.875
-145.623
-157.854
-152.177
-107.685
-7.39873
35.4404
37.7688
20.4377
-5.16468
-33.7583
-62.4824
-88.1065
-103.982
-95.5585
-36.201
95.7314
155.995
166.238
153.094
131.046
106.489
81.9033
58.2098
36.0859
17.07
5.17999
9.6386
47.4942
132.618
172.341
180.57
174.423
163.221
151.079
139.582
129.243
120.254
112.964
108.452
109.571
122.802
160.051
231.041
271.801
292.108
303.98
314.067
325.454
339.508
356.901
378.12
403.769
434.877
473.325
522.234
584.284
646.289
710.224
776.898
841.899
891.105
894.116
644.186
596.887
523.634
454.779
395.659
345.609
302.925
266.041
233.721
205.026
179.24
155.807
134.286
114.318
95.5988
77.8666
60.8834
44.4259
28.2746
12.203
-4.03488
-20.7192
-38.185
-56.8503
-77.2536
-100.101
-126.303
-156.912
-192.623
-231.549
-260.621
-223.387
99.8171
134.7
100.743
53.9992
6.89537
-39.611
-87.3346
-137.993
-189.864
-226.753
-176.99
239.228
290.245
255.951
208.202
163.495
123.965
88.3169
54.6333
21.0648
-13.6721
-48.5207
-73.0909
-41.3485
226.447
260.307
240.047
211.856
186.383
165.069
147.181
131.6
117.219
103.031
88.3855
74.2168
67.8889
101.413
299.298
336.573
337.824
335.221
336.383
342.616
353.792
369.62
389.959
414.947
445.289
483.331
537.021
634.486
708.469
788.293
883.803
997.651
1119.99
1194.22
1026.47
757.261
599.753
495.448
419.727
361.067
313.49
273.599
239.307
209.246
182.466
158.28
136.165
115.708
96.5716
78.4662
61.1332
44.33
27.817
11.3434
-5.36939
-22.6508
-40.9152
-60.7166
-82.8434
-108.492
-139.607
-179.6
-234.987
-319.43
-464.536
-750.882
622.21
333.086
182.124
88.0762
18.0932
-43.7115
-107.961
-186.129
-297.319
-482.722
-845.47
908.607
547.334
365.033
258.925
188.485
135.844
91.8988
50.8883
7.72465
-44.2546
-117.022
-236.91
-470.108
657.137
426.2
310.935
245.37
203.549
174.121
151.453
132.224
113.902
93.7509
67.629
27.5673
-44.415
-193.91
598.824
453.21
389.078
361.028
351.385
352.649
361.366
375.829
395.091
418.401
444.594
470.788
488.753
718.48
762.214
843.749
964.269
1141.14
1418.12
1902.6
12557.3
11877.4
11158.2
10401.8
9611.06
8788.77
7938.04
7062.06
6164
5247.02
4314.22
3368.6
2413.13
1450.66
484.014
61.1077
58.376
54.9787
51.0495
46.7329
42.1678
37.476
32.7554
28.0769
23.486
19.0053
14.6384
10.3741
6.19029
2.05759
102.699
98.0299
92.2199
85.5116
78.1633
70.4198
62.492
54.5455
46.6977
39.0213
31.5494
24.2836
17.2009
10.2605
3.40992
145.621
138.82
130.355
120.61
109.986
98.8536
87.5246
76.2352
65.1465
54.3517
43.8875
33.7459
23.8854
14.2408
4.73157
190.508
181.268
169.765
156.582
142.311
127.48
112.514
97.7211
83.299
69.3502
55.9024
42.9269
30.3539
18.0858
6.00718
238.128
225.97
210.847
193.636
175.189
156.235
137.324
118.832
100.974
83.8449
67.4436
51.7047
36.5174
21.7414
7.21863
289.445
273.631
254.012
231.917
208.57
184.941
161.712
139.302
117.916
97.6073
78.3197
59.9295
42.2688
25.1436
8.34468
345.728
325.09
299.647
271.448
242.228
213.244
185.279
158.743
133.778
110.344
88.2949
67.4225
47.4838
28.2192
9.36112
408.718
381.345
348.033
311.99
275.644
240.52
207.412
176.613
148.104
121.691
97.0904
73.9792
52.0231
30.8875
10.2416
480.92
443.521
399.13
352.823
307.825
265.769
227.229
192.187
160.331
131.223
104.393
79.3782
55.7404
33.0652
10.959
566.131
512.675
452.13
392.334
337.056
287.491
243.538
204.57
169.804
138.472
109.876
83.398
58.4933
34.673
11.4879
670.179
588.908
504.37
427.317
360.567
303.592
254.857
212.743
175.837
142.981
113.237
85.8417
60.16
35.6447
11.8074
801.275
668.381
549.103
451.985
374.287
311.442
259.546
215.701
177.816
144.372
114.244
86.5694
60.6584
35.9373
11.9041
963.958
734.22
571.654
457.217
373.144
308.328
256.177
212.694
175.346
142.442
112.796
85.5304
59.9651
35.5412
11.7754
1105.16
732.866
546.059
432.071
352.733
292.54
244.131
203.546
168.427
137.25
108.962
82.7888
58.1287
34.4863
11.4314
10.2127
30.6798
51.2702
72.0629
93.1315
114.543
136.361
158.654
181.529
205.222
230.311
258.264
292.746
342.909
431.681
10.4485
31.3799
52.4115
73.5988
94.9781
116.552
138.271
159.997
181.459
202.17
221.284
237.237
246.48
237.945
167.292
10.6601
32.0099
53.4435
74.9997
96.6868
118.458
140.172
161.52
181.907
200.223
214.443
220.863
212.554
176.11
86.1853
10.851
32.581
54.3892
76.3081
98.3346
120.401
142.322
163.708
183.789
201.115
213.013
214.712
198.16
151.411
62.3297
11.0224
33.0973
55.257
77.5401
99.9525
122.44
144.842
166.798
187.581
205.771
218.661
221.23
204.731
156.107
63.1793
11.1729
33.5541
56.0379
78.6805
101.516
124.537
147.668
170.698
193.168
214.103
231.473
240.983
233.605
191.566
87.2431
11.2986
33.9391
56.7077
79.6855
102.947
126.555
150.56
174.986
199.815
224.906
249.738
272.458
286.546
270.272
160.03
11.3943
34.2345
57.231
80.4919
104.134
128.295
153.156
178.991
206.275
235.882
269.468
309.92
360.567
414.228
378.52
11.4538
34.421
57.5698
81.0317
104.959
129.546
155.072
181.988
211.116
244.09
284.425
340.296
432.487
620.237
1097.93
11.4718
34.4809
57.6901
81.2467
105.324
130.143
156.018
183.444
213.283
247.181
288.587
345.442
438.038
624.885
1099.85
11.4442
34.4014
57.5684
81.0989
105.17
130.002
155.884
183.222
212.628
245.053
282.014
325.763
378.127
429.438
385.074
11.3688
34.1756
57.1933
80.5739
104.487
129.13
154.734
181.561
209.872
239.77
270.721
300.095
318.94
300.424
174.305
11.2451
33.8028
56.5654
79.6775
103.296
127.589
152.731
178.867
206.009
233.75
260.517
281.734
285.69
246.13
118.038
11.0744
33.2872
55.6936
78.4284
101.633
125.455
150.035
175.47
201.727
228.403
254.163
275.354
282.656
253.311
136.758
10.8591
32.6365
54.5928
76.8514
99.5407
122.793
146.741
171.5
197.15
223.688
250.977
278.615
305.065
321.048
264.479
10.6025
31.861
53.2812
74.9739
97.055
119.646
142.88
166.909
191.952
218.446
247.544
282.695
334.738
439.164
720.244
10.3085
30.9727
51.7792
72.8254
94.2132
116.052
138.464
161.61
185.742
211.393
239.904
275.039
328.027
434.595
718.703
9.98164
29.9851
50.1098
70.4383
91.0566
112.056
133.537
155.623
178.475
202.349
227.66
254.98
284.102
306.727
259.816
9.62666
28.9129
48.2979
67.8488
87.6338
107.723
128.189
149.1
170.497
192.304
214.015
233.666
244.685
227.143
129.202
9.24871
27.7714
46.3701
65.0955
83.9979
103.127
122.529
142.236
162.23
182.323
201.798
218.343
225.096
203.389
110.019
8.85302
26.5768
44.3537
62.2181
80.203
98.3396
116.655
135.171
153.89
172.767
191.614
209.815
225.268
229.397
178.799
8.44485
25.345
42.2757
59.2559
76.3015
93.426
110.641
127.963
145.439
163.229
181.874
203.19
233.302
293.407
460.768
8.02931
24.0914
40.1628
56.2472
72.3441
88.4479
104.55
120.645
136.768
153.095
170.276
190.455
220.502
282.929
456.339
7.61128
22.8308
38.0402
53.2289
68.3805
83.4699
98.4611
113.306
127.952
142.365
156.595
170.862
185.212
195.374
163.56
7.19523
21.577
35.9314
50.2355
64.4589
78.5586
92.4723
106.104
119.296
131.76
142.885
151.209
152.829
136.965
75.8515
6.78509
20.3419
33.8569
47.2973
60.6219
73.7752
86.6777
99.2054
111.145
122.081
131.12
136.208
132.586
109.978
51.0513
6.38418
19.1354
31.8336
44.4389
56.9029
69.1647
81.1417
92.7138
103.688
113.717
122.095
127.255
125.525
108.209
56.2338
5.9951
17.9653
29.8745
41.6777
53.3234
64.7509
75.8856
86.6356
96.8866
106.498
115.302
123.085
129.285
130.508
103.424
5.61978
16.8374
27.9885
39.0251
49.8947
60.5392
70.8953
80.9026
90.5276
99.8377
109.218
120.012
136.5
172.464
275.449
5.25956
15.7556
26.1814
36.4877
46.6216
56.5266
66.1461
75.4338
84.3858
93.1271
102.15
112.983
130.189
167.873
273.712
4.91531
14.7222
24.457
34.0695
43.5065
52.7114
61.6262
70.197
78.389
86.2195
93.8225
101.527
109.655
115.951
97.7843
4.58749
13.7385
22.8171
31.7727
40.5518
49.0967
57.3441
65.2221
72.6419
79.4685
85.4232
89.7756
90.3919
81.0152
45.0508
4.27623
12.805
21.2621
29.5978
37.759
45.6878
53.3174
60.5643
67.3058
73.3215
78.1353
80.6174
78.067
64.542
29.9121
3.98134
11.921
19.7911
27.5434
35.127
42.4857
49.5556
56.2562
62.4727
68.0081
72.4654
74.9526
73.3622
62.7239
32.269
3.70236
11.0851
18.4015
25.6058
32.6503
39.4835
46.0492
52.2834
58.1114
63.4421
68.1626
72.1184
74.9395
74.6667
58.2945
3.43857
10.2951
17.0893
23.7788
30.3196
36.6663
42.772
48.5918
54.0943
59.2986
64.3899
70.071
78.6645
97.7886
153.915
3.18905
9.54802
15.8494
22.0543
28.1231
34.0157
39.6925
45.1196
50.2831
55.2325
60.2065
65.9999
75.0755
95.2139
152.948
2.95273
8.84071
14.6762
20.4239
26.0484
31.514
36.7855
41.8295
46.6195
51.1482
55.4531
59.6484
63.8031
66.5297
55.1711
2.72848
8.16965
13.5634
18.8784
24.0832
29.1464
34.0356
38.7148
43.1364
47.218
50.7747
53.324
53.5214
47.626
26.1318
2.51513
7.53123
12.505
17.4088
22.2156
26.8986
31.4304
35.7778
39.8883
43.651
46.7948
48.6315
47.4699
39.5539
18.4597
2.31151
6.92192
11.4948
16.0061
20.4331
24.7549
28.9522
33.0043
36.8804
40.5124
43.7212
46.02
46.1079
40.6326
21.7771
2.11654
6.33839
10.5269
14.6612
18.7228
22.6968
26.5736
30.3517
34.0406
37.6664
41.2781
44.9424
48.6078
51.0019
42.2458
1.92929
5.77771
9.5961
13.3662
17.0726
20.7051
24.2625
27.7596
31.2431
34.8287
38.7969
43.8622
51.9891
69.1128
115.307
1.74899
5.23755
8.69833
12.1146
15.4726
18.7644
21.9918
25.1754
28.3732
31.7236
35.552
40.6541
49.1206
67.0334
114.523
1.57512
4.71634
7.83092
10.9026
13.9177
16.8672
19.7502
22.5798
25.3954
28.2845
31.4207
35.1076
39.6899
44.412
39.7042
1.40739
4.21327
6.99269
9.72902
12.4072
15.015
17.544
19.9921
22.3647
24.6717
26.9048
28.9368
30.1599
28.3369
16.759
1.24572
3.72817
6.18374
8.59487
10.9445
13.2159
15.3923
17.4551
19.3774
21.1079
22.5259
23.3252
22.7426
19.0338
9.04901
1.09016
3.26131
5.40495
7.50247
9.53473
11.4811
13.3177
15.0134
16.5208
17.7586
18.5737
18.6704
17.4931
14.0861
6.97161
0.940802
2.81312
4.65741
6.45433
8.18324
9.8209
11.3391
12.7001
13.849
14.7
15.1174
14.8968
13.7881
11.709
9.6329
0.797736
2.38391
3.94196
5.45228
6.89364
8.24184
9.46736
10.5316
11.3811
11.9394
12.1006
11.7358
10.7525
9.32382
8.65782
0.660957
1.97372
3.2588
4.4969
5.66715
6.74601
7.70535
8.5097
9.11241
9.45118
9.44537
9.00024
8.02143
6.40283
3.67129
0.530356
1.58223
2.60737
3.58732
4.50244
5.33109
6.04849
6.62499
7.02382
7.19857
7.09116
6.63096
5.73007
4.25
1.88314
0.405709
1.20872
1.98637
2.72141
3.39596
3.99119
4.48684
4.86065
5.08744
5.13805
4.97771
4.56332
3.83637
2.70909
1.06472
0.286708
0.852215
1.39396
1.89608
2.34269
2.71808
3.007
3.19516
3.26978
3.21993
3.03618
2.70795
2.21587
1.52312
0.581186
0.172997
0.51159
0.828024
1.10778
1.33689
1.50254
1.59417
1.60509
1.53461
1.39038
1.19018
0.960827
0.729084
0.504907
0.247708
0.064215
0.185705
0.286459
0.353083
0.373078
0.335832
0.234344
0.0679928
-0.153506
-0.405062
-0.640761
-0.7909
-0.769946
-0.498032
0.0728681
-0.0399637
-0.126451
-0.23254
-0.370877
-0.553157
-0.788964
-1.08362
-1.43447
-1.82505
-2.21657
-2.53665
-2.66819
-2.45147
-1.71982
-0.389343
-0.139809
-0.425684
-0.730317
-1.06602
-1.44448
-1.87572
-2.36587
-2.91311
-3.50033
-4.08293
-4.56934
-4.79416
-4.49878
-3.36898
-1.25344
-0.235538
-0.712596
-1.20772
-1.73321
-2.30148
-2.92447
-3.61195
-4.36792
-5.18332
-6.02145
-6.78974
-7.28805
-7.13301
-5.71086
-2.39625
-0.327347
-0.987686
-1.66526
-2.37245
-3.12286
-3.93144
-4.81402
-5.78551
-6.85508
-8.01382
-9.20364
-10.2419
-10.654
-9.37297
-4.56878
-0.415475
-1.25155
-2.10348
-2.98349
-3.90625
-4.89005
-5.95798
-7.13917
-8.46965
-9.98993
-11.7287
-13.637
-15.357
-15.4874
-9.75326
-0.500289
-1.50514
-2.5235
-3.56667
-4.64968
-5.79329
-7.02694
-8.39344
-9.95737
-11.8198
-14.1421
-17.1699
-21.171
-25.6806
-24.5054
-0.582383
-1.75011
-2.92757
-4.12406
-5.35351
-6.63708
-8.00727
-9.51486
-11.2428
-13.3362
-16.0715
-20.0343
-26.6397
-39.8303
-72.4841
-0.662664
-1.98908
-3.31972
-4.66048
-6.02227
-7.42385
-8.89583
-10.4874
-12.2795
-14.4129
-17.1546
-21.0712
-27.5444
-40.4761
-72.7261
-0.742428
-2.22589
-3.70614
-5.18418
-6.66598
-8.16495
-9.70505
-11.3249
-13.084
-15.073
-17.4282
-20.3402
-23.9731
-27.7185
-25.2871
-0.823397
-2.46569
-4.09539
-5.70716
-7.30031
-8.88073
-10.4627
-12.0699
-13.7337
-15.4848
-17.3218
-19.1158
-20.3316
-19.2593
-11.2878
-0.907733
-2.71496
-4.49837
-6.24494
-7.94598
-9.59863
-11.2067
-12.7799
-14.3277
-15.8425
-17.2516
-18.2996
-18.2863
-15.5974
-7.43384
-0.998029
-2.98152
-4.92818
-6.81616
-8.62772
-10.3506
-11.9788
-13.5118
-14.9496
-16.2793
-17.4383
-18.227
-18.1058
-15.7431
-8.23833
-1.09729
-3.27441
-5.39998
-7.44225
-9.37346
-11.1714
-12.8208
-14.3141
-15.6517
-16.8403
-17.8883
-18.7935
-19.489
-19.466
-15.2769
-1.20889
-3.60381
-5.93085
-8.14725
-10.2141
-12.0983
-13.7747
-15.2287
-16.4622
-17.5047
-18.4435
-19.513
-21.3791
-26.0906
-40.6315
-1.33661
-3.98103
-6.53975
-8.95784
-11.184
-13.1726
-14.8864
-16.3005
-17.4103
-18.2468
-18.9141
-19.687
-21.3023
-25.9014
-40.5283
-1.48453
-4.41844
-7.24746
-9.90342
-12.3212
-14.4406
-16.2095
-17.5876
-18.5529
-19.1122
-19.3176
-19.2833
-19.1622
-18.7606
-14.8836
-1.65704
-4.92931
-8.07643
-11.016
-13.6677
-15.9549
-17.8075
-19.1652
-19.9818
-20.229
-19.8937
-18.947
-17.2249
-14.0419
-7.22567
-1.85878
-5.52766
-9.05053
-12.33
-15.2694
-17.7738
-19.7525
-21.1223
-21.8104
-21.7557
-20.9004
-19.1554
-16.3091
-11.8524
-4.87344
-2.09448
-6.22796
-10.1946
-13.8816
-17.1751
-19.9602
-22.1236
-23.5564
-24.1589
-23.8432
-22.5307
-20.1348
-16.518
-11.4205
-4.4462
-2.36886
-7.04463
-11.5335
-15.7078
-19.4355
-22.5806
-25.0047
-26.5707
-27.1493
-26.6277
-24.9188
-21.9686
-17.762
-12.2984
-5.35478
-2.68639
-7.99148
-13.0918
-17.8452
-22.102
-25.7038
-28.4843
-30.2737
-30.9074
-30.2413
-28.174
-24.6819
-19.8869
-14.2131
-8.8868
-3.05103
-9.08089
-14.8916
-20.3285
-25.2248
-29.3991
-32.6543
-34.7818
-35.5717
-34.8323
-32.4235
-28.3067
-22.6309
-15.8995
-9.44791
-3.46587
-10.3228
-16.9515
-23.1879
-28.8503
-33.7342
-37.6093
-40.2211
-41.3007
-40.5865
-37.8637
-33.0203
-26.116
-17.4044
-7.03585
-3.93273
-11.7233
-19.2842
-26.4465
-33.0173
-38.7711
-43.4431
-46.7262
-48.2775
-47.7389
-44.7805
-39.1699
-30.8624
-20.0681
-7.2032
-4.45166
-13.2833
-21.894
-30.1163
-37.7523
-44.5603
-50.2425
-54.4352
-56.7072
-56.574
-53.5419
-47.1959
-37.3404
-24.174
-8.44408
-5.02035
-14.9968
-24.7734
-34.1934
-43.0625
-51.1317
-58.0769
-63.4789
-66.8081
-67.4234
-64.6064
-57.6613
-46.12
-30.0629
-10.4906
-5.63364
-16.8489
-27.9005
-38.6529
-48.9283
-58.4837
-66.9829
-73.9622
-78.794
-80.6569
-78.5381
-71.3196
-58.0368
-38.3939
-13.5161
-6.28298
-18.8145
-31.235
-43.4433
-55.2936
-66.5687
-76.9437
-85.9361
-92.8411
-96.6549
-96.0105
-89.1894
-74.3701
-50.3605
-18.0378
-6.95614
-20.857
-34.7164
-48.4817
-62.0576
-75.2778
-87.8633
-99.358
-109.033
-115.748
-117.77
-112.612
-97.0843
-68.0992
-25.1653
-7.6371
-22.9278
-38.2626
-53.6509
-69.0675
-84.4263
-99.5384
-114.041
-127.278
-138.096
-144.513
-143.234
-129.141
-95.5229
-37.4288
-8.30643
-24.9676
-41.7707
-58.7993
-76.1161
-93.7443
-111.634
-129.6
-147.199
-163.496
-176.597
-182.749
-174.755
-139.94
-61.3331
-8.94201
-26.9083
-45.1214
-63.7464
-82.9467
-102.878
-123.674
-145.41
-168.02
-191.111
-213.501
-232.083
-238.987
-214.763
-115.833
-9.52031
-28.6769
-48.185
-68.2923
-89.2673
-111.409
-135.058
-160.607
-188.502
-219.208
-253.041
-289.518
-324.827
-341.455
-262.508
-10.0179
-30.2007
-50.8315
-72.2343
-94.7755
-118.889
-145.117
-174.168
-207.025
-245.126
-290.736
-347.753
-423.631
-534.504
-718.943
779.745
581.717
462.054
379.8
317.787
268.056
226.443
190.519
158.737
130.038
103.653
78.9932
55.5832
33.0219
10.9534
284.975
371.565
354.038
315.891
276.277
239.427
205.924
175.455
147.536
121.69
97.4932
74.5767
52.6138
31.3104
10.3942
125.864
233.705
260.335
252.995
232.841
208.469
183.291
158.617
134.891
112.192
90.442
69.4965
49.1855
29.3293
9.74613
66.6741
152.238
190.216
198.99
192.327
178.066
160.305
141.117
121.531
102.034
82.8299
63.9742
45.4402
27.1582
9.03473
40.6662
103.811
140.372
155.702
157.086
150.091
138.305
123.89
108.106
91.6691
74.9744
58.227
41.5192
24.8764
8.28565
27.2877
73.8438
105.27
122.093
127.662
125.438
118.127
107.611
95.1321
81.4814
67.1538
52.4512
37.5521
22.5579
7.52294
19.4774
54.3813
80.3059
96.2985
103.645
104.316
100.172
92.6938
82.9695
71.7618
59.5921
46.8106
33.6504
20.2672
6.76769
14.4799
41.1532
62.2372
76.5058
84.2614
86.5355
84.5293
79.3339
71.835
62.7088
52.4541
41.4321
29.903
18.0567
6.03723
11.0699
31.8056
48.9
61.2344
68.6825
71.7253
71.0995
67.5719
61.829
54.4381
45.8478
36.4047
26.3752
15.9662
5.34482
8.6346
24.9859
38.8674
49.3547
56.1611
59.4612
59.6831
57.3468
52.9661
46.9991
39.8327
31.7839
23.1103
14.0228
4.69972
6.83664
19.8807
31.1909
40.03
46.0734
49.3334
50.0417
48.5402
45.2035
40.392
34.4294
27.5964
20.1324
12.2426
4.10758
5.47548
15.9791
25.2298
32.646
37.9173
40.9764
41.9337
41.007
38.4641
34.5832
29.6299
23.8465
17.4496
10.6326
3.57096
4.42486
12.9472
20.5419
26.7507
31.2967
34.0781
35.1331
34.5953
32.6531
29.5185
25.4062
20.5221
15.0582
9.19217
3.09001
3.60147
10.5592
16.8161
22.0094
25.9007
28.378
29.4378
29.158
27.6693
25.1319
21.7178
17.5999
12.9457
7.91555
2.66304
2.94827
8.65761
13.8284
18.1719
21.4861
23.6614
24.6721
24.5595
23.4133
21.3537
18.5178
15.0496
11.0939
6.79318
2.28711
2.42501
7.12982
11.4148
15.0487
17.862
19.7532
20.6858
20.6782
19.7909
18.1141
15.7565
12.8376
9.48137
5.81326
1.95847
2.00251
5.89342
9.45305
12.495
14.8777
16.5102
17.352
17.4073
16.7164
15.3467
13.3847
10.929
8.08523
4.96286
1.67292
1.65921
4.88695
7.85058
10.399
12.414
13.8158
14.564
14.6543
14.1128
12.9903
11.3554
9.28954
6.88238
4.22869
1.42615
1.37884
4.06378
6.53627
8.67312
10.3758
11.5751
12.2327
12.3396
11.9124
10.9894
9.62513
7.88691
5.85056
3.5978
1.2139
1.14896
3.38803
5.4549
7.24858
8.68683
9.71017
10.2835
10.3954
10.0561
9.29452
8.15435
6.6911
4.96889
3.05788
1.03212
0.959913
2.83179
4.56311
6.0707
7.28583
8.15758
8.65443
8.76424
8.49293
7.86234
6.90771
5.67496
4.21822
2.59756
0.87703
0.804143
2.37309
3.82658
5.09576
6.1231
6.86513
7.29395
7.39754
7.17898
6.65499
5.85403
4.81422
3.58126
2.20652
0.745207
0.675666
1.99452
3.21792
4.28864
5.15835
5.78999
6.15913
6.25436
6.07695
5.6398
4.96606
4.08747
3.04268
1.87554
0.633572
0.569726
1.68218
2.71521
3.62098
4.35877
4.89699
5.21435
5.30034
5.15512
4.78875
4.22021
3.47603
2.58896
1.59647
0.539403
0.482517
1.42494
2.3008
3.06985
3.69766
4.15722
4.43007
4.50673
4.38669
4.07796
3.59619
2.96372
2.20836
1.36219
0.460318
0.410994
1.21388
1.96049
2.61671
3.15325
3.54698
3.78188
3.84955
3.74916
3.48718
3.07671
2.53666
1.89076
1.16654
0.394249
0.352723
1.04184
1.68286
2.2466
2.7079
3.04689
3.2497
3.30893
3.22371
2.99939
2.6471
2.183
1.62747
1.00424
0.339419
0.305774
0.903163
1.45884
1.94751
2.34738
2.64124
2.81708
2.86849
2.7947
2.60035
2.29503
1.89274
1.41113
0.870766
0.294312
0.268643
0.793404
1.28129
1.70998
2.06037
2.31741
2.47072
2.51485
2.44928
2.27822
2.01019