/*--------------------------------*- C++ -*----------------------------------*\
| =========                 |                                                 |
| \\      /  F ield         | OpenFOAM: The Open Source CFD Toolbox           |
|  \\    /   O peration     | Version:  5.x                                   |
|   \\  /    A nd           | Web:      www.OpenFOAM.org                      |
|    \\/     M anipulation  |                                                 |
\*---------------------------------------------------------------------------*/
FoamFile
{
    version     2.0;
    format      ascii;
    class       volScalarField;
    location    "7";
    object      gradTx;
}
// * * * * * * * * * * * * * * * * * * * * * * * * * * * * * * * * * * * * * //

dimensions      [0 -1 0 1 0 0 0];

internalField   nonuniform List<scalar> 
6300
(
587.206
585.501
582.086
576.956
570.101
561.516
551.2
539.163
525.429
510.051
493.109
474.724
455.06
434.328
412.783
588.887
587.185
583.778
578.655
571.807
563.224
552.899
540.835
527.052
511.593
494.531
475.983
456.109
435.123
413.287
592.244
590.551
587.159
582.055
575.225
566.649
556.312
544.204
530.33
514.716
497.42
478.546
458.25
436.749
414.319
597.269
595.591
592.226
587.158
580.363
571.812
561.472
549.317
535.325
519.498
501.867
482.512
461.578
439.284
415.931
603.947
602.293
598.972
593.964
587.233
578.738
568.426
556.242
542.133
526.061
508.015
488.037
466.247
442.861
418.211
612.254
610.634
607.381
602.466
595.844
587.456
577.227
565.068
550.883
534.576
516.073
495.355
472.49
447.681
421.297
622.155
620.584
617.427
612.648
606.195
597.99
587.934
575.898
561.731
545.262
526.326
504.799
480.657
454.057
425.403
633.599
632.095
629.068
624.48
618.271
610.351
600.595
588.835
574.856
558.392
539.147
516.835
491.263
462.468
430.865
646.522
645.102
642.243
637.908
632.033
624.523
615.234
603.967
590.441
574.28
555.014
532.107
505.07
473.667
438.233
660.838
659.519
656.868
652.849
647.405
640.445
631.827
621.332
608.634
593.248
574.496
551.487
523.22
488.878
448.441
676.444
675.244
672.832
669.186
664.265
657.999
650.268
640.875
629.488
615.559
598.208
576.103
547.424
510.164
463.192
693.223
692.151
690.002
686.772
682.444
676.988
670.344
662.384
652.858
641.264
626.649
607.27
580.186
541.138
485.875
711.046
710.105
708.227
705.426
701.721
697.138
691.705
685.433
678.266
669.964
659.828
646.114
624.889
588.305
524.055
729.782
728.965
727.345
724.954
721.845
718.108
713.877
709.346
704.78
700.469
696.559
692.443
684.922
663.109
597.24
749.305
748.599
747.205
745.168
742.569
739.542
736.316
733.266
731.008
730.543
733.466
742.147
759.217
781.941
764.925
392.584
374.034
355.509
337.197
319.272
301.897
285.217
269.351
254.401
240.442
227.531
215.705
204.983
195.371
186.863
179.442
173.083
167.754
163.416
160.021
157.519
155.849
154.945
154.732
155.128
156.044
157.384
159.049
160.936
162.948
164.99
166.977
168.832
170.494
171.909
173.033
173.828
174.258
174.29
173.89
173.028
171.677
169.821
167.453
164.576
161.209
157.376
153.11
148.441
143.395
137.991
132.237
126.128
119.654
112.796
105.533
97.842
89.7049
81.1043
72.0246
62.4498
52.3601
41.7293
30.5221
18.6926
6.18411
-7.06957
-21.1423
-36.1123
-52.059
-69.06
-87.188
-106.509
-127.082
-148.958
-172.178
-196.775
-222.77
-250.17
-278.966
-309.126
-340.59
-373.267
-407.03
-441.709
-477.097
-512.947
-548.98
-584.891
-620.363
392.801
373.981
355.191
336.624
318.466
300.886
284.03
268.023
252.962
238.924
225.961
214.106
203.376
193.774
185.29
177.905
171.594
166.322
162.049
158.731
156.315
154.741
153.944
153.85
154.375
155.428
156.912
158.722
160.753
162.9
165.065
167.159
169.107
170.845
172.323
173.503
174.348
174.827
174.906
174.551
173.726
172.401
170.555
168.179
165.278
161.874
157.997
153.686
148.979
143.908
138.493
132.743
126.652
120.204
113.377
106.145
98.483
90.3707
81.7927
72.7365
63.1903
53.1388
42.5592
31.4184
19.6708
7.25823
-5.88876
-19.8483
-34.7034
-50.5381
-67.4337
-85.4656
-104.702
-125.201
-147.016
-170.189
-194.754
-220.737
-248.151
-276.992
-307.236
-338.83
-371.691
-405.694
-440.673
-476.415
-512.666
-549.136
-585.503
-621.432
393.243
373.871
354.534
335.448
316.816
298.819
281.611
265.319
250.041
235.847
222.784
210.878
200.137
190.558
182.126
174.817
168.601
163.443
159.303
156.136
153.89
152.509
151.927
152.07
152.855
154.187
155.963
158.072
160.396
162.82
165.237
167.549
169.677
171.563
173.163
174.447
175.391
175.967
176.144
175.882
175.138
173.871
172.048
169.656
166.702
163.215
159.239
154.829
150.039
144.912
139.475
133.736
127.686
121.299
114.54
107.374
99.7701
91.7055
83.168
74.1528
64.6577
54.6774
44.1972
33.1887
21.6072
9.39094
-3.53646
-17.2627
-31.8814
-47.4866
-64.1676
-82.0051
-101.07
-121.421
-143.112
-166.186
-190.683
-216.635
-244.066
-272.987
-303.388
-335.235
-368.457
-402.94
-438.52
-474.981
-512.053
-549.419
-586.724
-623.592
393.933
373.693
353.501
333.606
314.239
295.602
277.861
261.145
245.549
231.133
217.932
205.962
195.217
185.684
177.337
170.146
164.077
159.092
155.151
152.208
150.216
149.12
148.859
149.361
150.541
152.302
154.532
157.106
159.889
162.748
165.554
168.197
170.593
172.687
174.452
175.878
176.957
177.677
178.008
177.903
177.3
176.135
174.357
171.939
168.89
165.254
161.101
156.516
151.58
146.357
140.887
135.175
129.203
122.925
116.286
109.232
101.718
93.7195
85.2297
76.2587
66.8229
56.9352
46.5957
35.7844
24.458
12.5486
-0.0325402
-13.3901
-27.6365
-42.8832
-59.2328
-76.7738
-95.5792
-115.708
-137.21
-160.129
-184.51
-210.396
-237.828
-266.839
-297.448
-329.648
-363.393
-398.59
-435.084
-472.651
-511
-549.771
-588.553
-626.904
394.906
373.432
352.025
330.989
310.597
291.082
272.623
255.349
239.345
224.658
211.302
199.272
188.546
179.093
170.876
163.854
157.987
153.233
149.553
146.905
145.244
144.524
144.688
145.669
147.386
149.738
152.601
155.831
159.269
162.746
166.1
169.195
171.937
174.281
176.226
177.801
179.035
179.941
180.496
180.636
180.266
179.278
177.581
175.125
171.918
168.032
163.582
158.705
153.53
148.157
142.641
136.988
131.155
125.067
118.629
111.75
104.363
96.4384
87.9828
79.0328
69.6379
59.843
49.673
39.122
28.1485
16.6746
4.59069
-8.23603
-21.9491
-36.6889
-52.579
-69.7182
-88.1788
-108.012
-129.26
-151.961
-176.162
-201.922
-229.305
-258.38
-289.206
-321.822
-356.226
-392.358
-430.085
-469.179
-509.32
-550.087
-590.984
-631.46
396.216
373.058
350
327.428
305.681
285.029
265.665
247.713
231.237
216.255
202.754
190.696
180.035
170.716
162.686
155.892
150.286
145.823
142.465
140.174
138.914
138.649
139.335
140.914
143.313
146.431
150.134
154.254
158.589
162.915
167.013
170.696
173.849
176.443
178.53
180.208
181.58
182.707
183.576
184.099
184.115
183.437
181.894
179.386
175.922
171.618
166.675
161.318
155.761
150.158
144.59
139.055
133.474
127.711
121.603
114.996
107.781
99.9198
91.446
82.4459
73.0278
63.2903
53.2983
43.0679
32.5599
21.6797
10.2846
-1.80404
-14.7814
-28.8356
-44.1235
-60.7562
-78.7971
-98.2763
-119.211
-141.625
-165.564
-191.102
-218.338
-247.388
-278.376
-311.409
-346.556
-383.817
-423.099
-464.185
-506.718
-550.198
-593.998
-637.403
397.949
372.526
347.258
322.664
299.175
277.107
256.662
237.94
220.967
205.713
192.117
180.101
169.582
160.477
152.71
146.214
140.932
136.818
133.834
131.951
131.147
131.401
132.689
134.974
138.199
142.275
147.062
152.363
157.916
163.41
168.517
172.956
176.562
179.331
181.415
183.051
184.475
185.836
187.152
188.283
188.96
188.838
187.591
185.02
181.127
176.123
170.356
164.218
158.053
152.105
146.489
141.185
136.051
130.848
125.293
119.114
112.127
104.281
95.6654
86.4597
76.8763
67.1031
57.2663
47.4135
37.507
27.4267
16.978
5.90901
-6.06158
-19.2033
-33.729
-49.763
-67.3406
-86.4401
-107.026
-129.087
-152.658
-177.83
-204.748
-233.598
-264.592
-297.942
-333.828
-372.353
-413.502
-457.09
-502.736
-549.83
-597.558
-644.948
400.236
371.755
343.532
316.296
290.61
266.838
245.167
225.64
208.21
192.772
179.196
167.344
157.086
148.305
140.898
134.782
129.892
126.179
123.611
122.17
121.852
122.661
124.601
127.674
131.857
137.091
143.247
150.103
157.323
164.455
170.977
176.411
180.473
183.2
184.939
186.195
187.453
189.028
190.987
193.117
194.951
195.853
195.19
192.552
187.929
181.721
174.569
167.15
160.028
153.571
147.936
143.068
138.721
134.491
129.877
124.393
117.706
109.751
100.732
91.0154
80.9972
71.0062
61.2569
51.8359
42.7044
33.7043
24.5654
14.9213
4.34613
-7.57634
-21.1604
-36.5439
-53.6891
-72.4595
-92.7126
-114.368
-137.439
-162.037
-188.368
-216.711
-247.404
-280.813
-317.286
-357.098
-400.374
-447.018
-496.647
-548.531
-601.583
-654.422
403.287
370.596
338.37
307.683
279.275
253.535
230.573
210.313
192.578
177.144
163.784
152.284
142.458
134.147
127.221
121.58
117.152
113.887
111.76
110.769
110.931
112.285
114.879
118.769
123.999
130.573
138.417
147.315
156.854
166.372
175
181.835
186.3
188.488
189.152
189.332
189.968
191.661
194.57
198.373
202.277
205.115
205.629
202.937
197.009
188.673
179.16
169.653
161.04
153.85
148.273
144.197
141.222
138.683
135.712
131.401
125.109
116.75
106.801
96.0038
85.0772
74.5602
64.774
55.8409
47.7124
40.1817
32.8805
25.2748
16.6951
6.44484
-5.99883
-20.7855
-37.6945
-56.3399
-76.3758
-97.6064
-120.014
-143.744
-169.082
-196.431
-226.297
-259.259
-295.925
-336.842
-382.381
-432.633
-487.292
-545.531
-605.892
-666.328
407.446
368.753
330.977
295.776
264.087
236.221
212.078
191.343
173.623
158.522
145.686
134.81
125.643
117.987
111.687
106.629
102.732
99.9513
98.2695
97.7013
98.292
100.118
103.287
107.932
114.201
122.225
132.062
143.6
156.408
169.568
181.597
190.668
195.402
195.963
194.056
191.808
190.955
192.537
196.86
203.48
211.131
217.721
220.677
217.975
209.553
197.315
183.738
170.863
159.998
151.802
146.448
143.736
143.089
143.496
143.471
141.261
135.484
126.038
114.089
101.176
88.5657
77.0606
67.0615
58.6868
51.8592
46.3285
41.6342
37.0313
31.4502
23.6256
12.5382
-1.9692
-19.1969
-38.2149
-58.3148
-79.1459
-100.679
-123.129
-146.892
-172.52
-200.721
-232.363
-268.433
-309.915
-357.589
-411.885
-472.765
-539.454
-610.073
-681.466
413.308
365.572
319.863
278.798
243.38
213.534
188.665
168.023
150.886
136.633
124.759
114.866
106.648
99.8704
94.3619
89.9995
86.7027
84.4289
83.1716
82.9616
83.8701
86.0143
89.565
94.753
101.871
111.26
123.255
138.053
155.448
174.389
192.447
205.739
210.505
206.989
199.443
192.27
188.43
189.459
195.838
207.095
221.507
235.554
243.867
241.245
227.585
207.881
187.301
169.174
155.111
145.655
140.816
140.296
143.437
148.926
154.376
156.25
151.142
138.928
122.762
105.911
90.4608
77.3906
67.0084
59.304
54.1375
51.2704
50.2562
50.1963
49.436
45.5054
36.0009
20.7656
1.88068
-18.5297
-39.1976
-59.6701
-80.0213
-100.62
-122.011
-144.895
-170.184
-199.082
-233.136
-274.061
-323.249
-381.642
-449.855
-527.697
-613.12
-701.17
421.984
359.456
302.047
253.675
214.641
183.673
159.159
139.65
123.991
111.313
100.975
92.5079
85.5725
79.9223
75.3824
71.8323
69.1967
67.4394
66.5625
66.6082
67.6655
69.8822
73.4821
78.7911
86.2687
96.5404
110.406
128.759
152.259
180.475
210.156
233.08
237.529
223.81
204.287
187.929
178.887
178.673
187.786
206.162
232.4
261.64
282.798
280.403
254.313
219.705
187.324
161.631
143.583
132.858
128.963
131.579
140.4
154.409
170.427
181.292
177.028
157.503
132.421
108.628
88.926
73.8489
63.0983
56.2659
53.1038
53.5437
57.5033
64.3693
71.9868
75.4112
67.7162
48.7562
25.156
1.52812
-20.3596
-40.3658
-59.0031
-76.9647
-94.9727
-113.803
-134.441
-158.37
-187.937
-226.296
-275.642
-337.243
-413.064
-505.005
-612.364
-727.817
435.742
345.952
271.204
215.098
174.276
144.509
122.439
105.725
92.7978
82.6188
74.4907
67.9404
62.6427
58.3724
54.9744
52.3454
50.423
49.1797
48.6225
48.7956
49.7892
51.7556
54.9356
59.7036
66.6394
76.6418
91.0933
112.05
142.275
184.446
237.588
287.019
290.709
248.981
204.569
173.046
156.626
154.449
166.39
193.903
238.967
299.356
355.638
353.672
293.301
228.318
177.711
143.076
121.505
110.222
107.73
113.926
129.886
156.997
193.893
228.116
224.884
184.078
140.218
105.452
80.7293
64.0752
53.5447
47.9416
46.8824
50.7477
60.5645
77.4592
100.575
121.328
115.652
83.4286
48.4715
19.0811
-4.22927
-23.0307
-38.955
-53.2393
-66.7463
-80.1043
-93.9532
-109.53
-130.07
-162.701
-210.378
-272.355
-353.045
-460.095
-599.93
-765.996
459.648
310.777
213.502
154.503
117.985
94.2552
78.0037
66.3401
57.6443
50.9679
45.7314
41.5663
38.231
35.5639
33.4568
31.8392
30.6693
29.9302
29.629
29.7995
30.5104
31.8795
34.1006
37.4926
42.5921
50.3339
62.4102
81.99
115.085
172.61
270.359
406.815
409.28
278.011
186.284
136.409
113.851
109.891
122.568
156.363
223.458
342.977
512.346
511.038
338.921
216.224
145.094
105.706
84.6116
74.9226
73.9819
82.2115
103.313
145.492
221.204
328.867
326.844
215.045
134.92
87.8089
60.9128
45.482
36.8948
33.0732
33.5688
39.3806
53.4325
81.5896
132.563
205.299
201.816
122.036
63.7702
27.8795
5.40915
-9.8372
-21.2664
-30.6305
-38.7316
-45.6946
-50.9726
-53.5405
-54.7864
-77.4307
-124.514
-180.511
-255.054
-367.957
-549.704
-825.485
505.434
201.289
100.674
61.5285
43.2717
33.2292
26.9581
22.6796
19.5802
17.2414
15.4275
13.9956
12.8554
11.9476
11.2332
10.6869
10.2942
10.0492
9.95493
10.0242
10.2827
10.7755
11.5783
12.8213
14.7385
17.7827
22.9199
32.4658
52.7107
102.848
247.383
719.544
720.414
250.092
107.727
60.4288
44.2938
41.3732
48.3325
70.8669
132.454
314.805
914.815
914.354
313.369
129.867
66.7638
41.991
31.2915
27.0242
27.0271
31.9599
46.3837
85.6948
202.5
587.561
586.871
200.397
82.077
41.055
24.5851
17.0331
13.3817
11.9874
12.5991
16.1473
25.9878
52.8632
133.21
399.019
397.845
129.659
46.8482
17.3521
4.64545
-2.13954
-6.55032
-9.83899
-12.354
-13.7091
-11.8919
0.548929
51.3152
43.0364
-25.8092
-61.9545
-101.815
-176.668
-364.049
-928.118
-658.451
-698.542
-736.591
-772.203
-805.07
-834.976
-861.793
-885.46
-905.978
-923.383
-937.735
-949.106
-957.563
-963.166
-965.957
-659.997
-700.56
-739.004
-774.921
-808.002
-838.038
-864.911
-888.58
-909.06
-926.403
-940.685
-951.986
-960.385
-965.945
-968.713
-663.143
-704.671
-743.918
-780.449
-813.952
-844.233
-871.205
-894.86
-915.247
-932.454
-946.583
-957.737
-966.011
-971.483
-974.204
-668.003
-711.039
-751.522
-788.978
-823.094
-853.709
-880.786
-904.375
-924.584
-941.552
-955.422
-966.335
-974.408
-979.736
-982.384
-674.769
-719.936
-762.128
-800.819
-835.708
-866.694
-893.823
-917.238
-937.131
-953.713
-967.188
-977.739
-985.516
-990.636
-993.177
-683.742
-731.782
-776.208
-816.432
-852.196
-883.506
-910.544
-933.589
-952.955
-968.948
-981.846
-991.883
-999.249
-1004.08
-1006.48
-695.381
-747.217
-794.463
-836.477
-873.109
-904.559
-931.227
-953.588
-972.118
-987.244
-999.329
-1008.67
-1015.48
-1019.94
-1022.14
-710.401
-767.216
-817.921
-861.874
-899.173
-930.364
-956.184
-977.385
-994.649
-1008.54
-1019.52
-1027.93
-1034.03
-1038.01
-1039.97
-729.942
-793.298
-848.105
-893.896
-931.313
-961.509
-985.727
-1005.09
-1020.52
-1032.73
-1042.25
-1049.48
-1054.68
-1058.06
-1059.72
-755.914
-827.901
-887.276
-934.263
-970.643
-998.596
-1020.09
-1036.69
-1049.57
-1059.56
-1067.24
-1073
-1077.13
-1079.79
-1081.09
-791.716
-875.088
-938.804
-985.201
-1018.37
-1042.1
-1059.31
-1071.99
-1081.48
-1088.66
-1094.09
-1098.13
-1101
-1102.84
-1103.74
-843.975
-941.903
-1007.62
-1049.34
-1075.49
-1092.11
-1103.01
-1110.43
-1115.67
-1119.49
-1122.31
-1124.38
-1125.85
-1126.79
-1127.26
-927.184
-1040.9
-1100.39
-1129
-1142.09
-1147.81
-1150.16
-1151.01
-1151.24
-1151.27
-1151.23
-1151.21
-1151.19
-1151.19
-1151.19
-1078.15
-1194.07
-1224.01
-1224.15
-1216.03
-1206.85
-1198.75
-1192.16
-1187
-1183.06
-1180.11
-1177.97
-1176.48
-1175.55
-1175.1
-1408.12
-1433.2
-1377.4
-1327.51
-1290.98
-1264.78
-1245.79
-1231.84
-1221.5
-1213.82
-1208.15
-1204.04
-1201.18
-1199.38
-1198.51
767.821
767.198
765.971
764.186
761.927
759.344
756.695
754.438
753.379
754.979
761.988
779.988
822.106
927.271
1246.17
785.066
784.504
783.397
781.782
779.729
777.367
774.928
772.831
771.848
773.416
780.261
797.616
835.471
910.931
1034.32
802.678
802.167
801.153
799.658
797.722
795.421
792.899
790.428
788.523
788.166
791.21
800.985
822.696
861.281
908.477
820.624
820.157
819.222
817.818
815.944
813.604
810.813
807.611
804.1
800.53
797.461
796.042
798.177
805.624
815.739
838.872
838.449
837.593
836.279
834.466
832.077
828.989
824.984
819.696
812.52
802.541
788.607
769.946
748.089
730.359
857.391
857.019
856.257
855.064
853.361
851.012
847.778
843.226
836.578
826.43
810.343
784.433
743.908
687.665
633.001
876.144
875.837
875.198
874.177
872.679
870.537
867.457
862.901
855.866
844.44
824.941
790.385
728.764
626.121
498.018
895.089
894.86
894.379
893.596
892.419
890.69
888.137
884.272
878.178
868.033
849.969
815.106
742.086
582.234
274.416
914.168
914.034
913.746
913.263
912.515
911.389
909.703
907.166
903.276
897.102
886.639
866.3
815.687
641.082
-162.605
933.318
933.29
933.222
933.088
932.848
932.45
931.838
930.976
929.931
929.124
930.14
938.491
975.371
1136.77
1931.52
952.462
952.549
952.717
952.958
953.262
953.634
954.121
954.888
956.39
959.854
968.523
990.843
1048.56
1192.59
1489.03
971.522
971.727
972.136
972.756
973.601
974.711
976.188
978.263
981.456
986.945
997.399
1018.59
1061.77
1142.56
1252.76
990.416
990.736
991.382
992.37
993.726
995.506
997.814
1000.84
1004.9
1010.56
1018.79
1031.03
1048.83
1072.06
1093.42
1009.06
1009.49
1010.37
1011.7
1013.53
1015.91
1018.92
1022.66
1027.19
1032.37
1037.39
1039.56
1032.1
1002.85
949.29
1027.38
1027.92
1029
1030.65
1032.91
1035.84
1039.49
1043.91
1049.01
1054.26
1057.92
1054.77
1030.46
950.484
768.36
1045.31
1045.94
1047.21
1049.15
1051.81
1055.24
1059.51
1064.67
1070.68
1077.22
1083.16
1084.64
1067.46
969.026
461.35
1062.77
1063.48
1064.93
1067.13
1070.14
1074.03
1078.88
1084.81
1091.96
1100.59
1111.46
1127.43
1160.85
1271.74
1785.58
1079.71
1080.5
1082.09
1084.52
1087.83
1092.12
1097.47
1104.07
1112.17
1122.36
1136.2
1158.07
1200.42
1294.59
1483.66
1096.08
1096.92
1098.64
1101.25
1104.82
1109.43
1115.18
1122.25
1130.89
1141.57
1155.32
1174.47
1203.97
1251.5
1313.46
1111.83
1112.72
1114.53
1117.3
1121.06
1125.91
1131.95
1139.32
1148.17
1158.63
1170.66
1183.63
1194.99
1198.35
1186.71
1126.93
1127.86
1129.74
1132.61
1136.52
1141.54
1147.77
1155.34
1164.3
1174.55
1185.34
1193.88
1191.51
1155.6
1052.29
1141.35
1142.31
1144.24
1147.17
1151.16
1156.29
1162.65
1170.35
1179.5
1190.06
1201.54
1211.68
1211.3
1159.63
846.545
1155.08
1156.05
1158
1160.96
1164.99
1170.15
1176.56
1184.34
1193.69
1204.91
1218.64
1236.74
1266.69
1345.16
1674.89
1168.12
1169.09
1171.03
1173.99
1178
1183.13
1189.48
1197.2
1206.54
1217.98
1232.67
1253.53
1288.37
1356.16
1481.57
1180.45
1181.41
1183.33
1186.25
1190.19
1195.22
1201.42
1208.91
1217.9
1228.78
1242.38
1260.58
1287.12
1327.11
1375.78
1192.09
1193.03
1194.91
1197.76
1201.6
1206.47
1212.43
1219.55
1227.92
1237.64
1248.88
1261.82
1276.5
1292.01
1304.23
1203.06
1203.97
1205.8
1208.55
1212.26
1216.93
1222.61
1229.3
1236.97
1245.42
1254.16
1261.81
1265.26
1259.17
1241.59
1213.36
1214.24
1216
1218.65
1222.2
1226.67
1232.06
1238.34
1245.43
1252.98
1260.16
1264.68
1260.62
1234.27
1167.19
1223.03
1223.87
1225.56
1228.09
1231.48
1235.74
1240.85
1246.8
1253.52
1260.77
1267.98
1273.46
1271.45
1237.62
1046.65
1232.08
1232.88
1234.49
1236.91
1240.13
1244.17
1249.03
1254.7
1261.21
1268.56
1276.97
1287.41
1304.33
1350.06
1547.34
1240.54
1241.3
1242.83
1245.13
1248.18
1252.01
1256.6
1262
1268.26
1275.57
1284.53
1296.83
1317.19
1357.22
1432.07
1248.44
1249.16
1250.61
1252.78
1255.67
1259.27
1263.6
1268.67
1274.56
1281.42
1289.73
1300.61
1316.35
1340.17
1369.23
1255.81
1256.49
1257.86
1259.91
1262.62
1266
1270.04
1274.75
1280.14
1286.22
1293.12
1300.97
1309.89
1319.44
1327.02
1262.67
1263.32
1264.61
1266.53
1269.08
1272.24
1275.99
1280.33
1285.19
1290.44
1295.81
1300.55
1302.96
1300.04
1290.52
1269.06
1269.67
1270.88
1272.69
1275.07
1278.02
1281.52
1285.52
1289.93
1294.55
1298.9
1301.71
1299.7
1285.19
1247.85
1275
1275.57
1276.71
1278.4
1280.64
1283.4
1286.66
1290.38
1294.49
1298.82
1303.04
1306.2
1305.08
1286.17
1179.71
1280.51
1281.04
1282.12
1283.71
1285.81
1288.4
1291.46
1294.95
1298.85
1303.13
1307.88
1313.61
1322.8
1347.9
1457.3
1285.61
1286.12
1287.13
1288.63
1290.61
1293.04
1295.91
1299.21
1302.91
1307.09
1312.01
1318.59
1329.43
1351.06
1392.11
1290.33
1290.81
1291.77
1293.19
1295.05
1297.35
1300.05
1303.15
1306.62
1310.49
1314.96
1320.57
1328.53
1340.71
1355.88
1294.69
1295.15
1296.05
1297.4
1299.17
1301.34
1303.89
1306.79
1310
1313.45
1317.1
1320.88
1324.68
1328.24
1330.65
1298.71
1299.14
1300
1301.28
1302.96
1305.03
1307.45
1310.19
1313.18
1316.25
1319.11
1321.13
1320.97
1316.53
1307.54
1302.39
1302.8
1303.62
1304.85
1306.46
1308.44
1310.76
1313.4
1316.26
1319.15
1321.69
1322.86
1320.19
1307.96
1278.64
1305.75
1306.15
1306.94
1308.11
1309.66
1311.57
1313.83
1316.42
1319.27
1322.28
1325.18
1327.24
1326.02
1311.23
1229.83
1308.81
1309.19
1309.95
1311.08
1312.57
1314.43
1316.64
1319.21
1322.15
1325.45
1329.22
1333.86
1341.23
1360.73
1444.24
1311.57
1311.94
1312.67
1313.75
1315.2
1317
1319.17
1321.73
1324.73
1328.26
1332.62
1338.55
1348
1365.73
1397.82
1314.05
1314.4
1315.1
1316.15
1317.54
1319.29
1321.4
1323.92
1326.9
1330.47
1334.9
1340.75
1348.98
1360.74
1374.14
1316.26
1316.59
1317.26
1318.27
1319.6
1321.28
1323.32
1325.75
1328.63
1332.05
1336.17
1341.26
1347.5
1354.56
1360.24
1318.2
1318.52
1319.16
1320.12
1321.39
1322.99
1324.93
1327.24
1329.95
1333.09
1336.75
1340.93
1345.41
1349.33
1350.74
1319.88
1320.19
1320.8
1321.71
1322.92
1324.44
1326.26
1328.42
1330.92
1333.76
1336.93
1340.36
1343.68
1345.8
1342.69
1321.33
1321.62
1322.19
1323.05
1324.2
1325.62
1327.33
1329.33
1331.61
1334.15
1336.91
1339.82
1342.75
1345.86
1351.63
1322.54
1322.81
1323.35
1324.17
1325.25
1326.58
1328.17
1330.01
1332.09
1334.36
1336.76
1339.23
1341.67
1344.05
1346.38
1323.52
1323.78
1324.3
1325.06
1326.07
1327.32
1328.8
1330.5
1332.4
1334.43
1336.54
1338.63
1340.59
1342.24
1343.24
1324.3
1324.54
1325.03
1325.75
1326.7
1327.87
1329.25
1330.83
1332.57
1334.41
1336.29
1338.1
1339.68
1340.85
1341.27
1324.87
1325.1
1325.56
1326.24
1327.13
1328.23
1329.53
1331
1332.63
1334.34
1336.06
1337.68
1339.04
1339.93
1340.09
1325.25
1325.46
1325.9
1326.54
1327.38
1328.42
1329.65
1331.05
1332.59
1334.22
1335.86
1337.42
1338.7
1339.48
1339.52
1325.44
1325.64
1326.05
1326.66
1327.46
1328.45
1329.61
1330.96
1332.45
1334.05
1335.7
1337.3
1338.66
1339.53
1339.47
1325.45
1325.65
1326.03
1326.61
1327.37
1328.31
1329.42
1330.72
1332.19
1333.81
1335.54
1337.31
1338.94
1340.19
1340.79
1325.3
1325.48
1325.85
1326.39
1327.11
1328
1329.08
1330.34
1331.8
1333.46
1335.33
1337.37
1339.45
1341.25
1342.14
1324.98
1325.16
1325.5
1326.02
1326.69
1327.54
1328.56
1329.78
1331.22
1332.92
1334.95
1337.37
1340.13
1342.89
1344.64
1324.51
1324.67
1325
1325.48
1326.12
1326.91
1327.87
1329.03
1330.42
1332.12
1334.27
1337.08
1340.77
1345.19
1348.9
1323.89
1324.04
1324.35
1324.8
1325.39
1326.13
1327.01
1328.08
1329.36
1330.96
1333.09
1336.16
1340.85
1347.96
1356.26
1323.12
1323.27
1323.56
1323.98
1324.53
1325.2
1326
1326.93
1328.04
1329.4
1331.23
1334.06
1339.22
1349.86
1369.93
1322.22
1322.35
1322.63
1323.03
1323.54
1324.15
1324.85
1325.64
1326.51
1327.48
1328.64
1330.3
1333.76
1345.18
1398.08
1321.18
1321.31
1321.58
1321.96
1322.44
1322.99
1323.6
1324.24
1324.86
1325.38
1325.65
1325.25
1322.73
1311.66
1258.2
1320.01
1320.14
1320.4
1320.78
1321.24
1321.75
1322.3
1322.82
1323.24
1323.41
1323.09
1321.64
1317.59
1307.53
1287.09
1318.7
1318.84
1319.11
1319.49
1319.95
1320.46
1320.97
1321.42
1321.74
1321.76
1321.26
1319.8
1316.58
1310.56
1302.37
1317.26
1317.41
1317.7
1318.11
1318.59
1319.12
1319.64
1320.09
1320.39
1320.42
1320.06
1319.13
1317.47
1315.07
1312.55
1315.68
1315.85
1316.17
1316.62
1317.16
1317.74
1318.32
1318.82
1319.18
1319.32
1319.21
1318.94
1318.83
1319.61
1321.56
1313.95
1314.14
1314.51
1315.02
1315.65
1316.33
1317
1317.61
1318.08
1318.35
1318.44
1318.58
1319.54
1323.29
1332.53
1312.04
1312.26
1312.7
1313.31
1314.05
1314.87
1315.7
1316.46
1317.08
1317.46
1317.58
1317.6
1318.27
1323.12
1350.52
1309.94
1310.2
1310.72
1311.45
1312.35
1313.36
1314.39
1315.37
1316.19
1316.7
1316.76
1316.13
1314.06
1307.25
1277.72
1307.61
1307.93
1308.55
1309.44
1310.54
1311.78
1313.09
1314.36
1315.46
1316.2
1316.38
1315.61
1313.09
1307.1
1295.46
1305.02
1305.4
1306.15
1307.23
1308.57
1310.12
1311.77
1313.42
1314.92
1316.06
1316.62
1316.26
1314.49
1310.81
1305.76
1302.12
1302.58
1303.48
1304.78
1306.42
1308.33
1310.42
1312.55
1314.57
1316.28
1317.45
1317.84
1317.18
1315.43
1313.19
1298.86
1299.41
1300.48
1302.04
1304.04
1306.38
1308.98
1311.71
1314.39
1316.82
1318.79
1320.09
1320.58
1320.34
1319.7
1295.19
1295.83
1297.1
1298.96
1301.36
1304.21
1307.42
1310.85
1314.33
1317.63
1320.54
1322.85
1324.44
1325.49
1326.41
1291.02
1291.77
1293.26
1295.46
1298.31
1301.74
1305.66
1309.92
1314.34
1318.68
1322.67
1326.05
1328.64
1330.68
1334.41
1286.29
1287.16
1288.89
1291.45
1294.81
1298.89
1303.61
1308.83
1314.36
1319.91
1325.18
1329.75
1333.17
1334.66
1331.69
1280.91
1281.9
1283.89
1286.85
1290.75
1295.55
1301.17
1307.49
1314.3
1321.3
1328.11
1334.21
1338.98
1341.67
1341.57
1274.8
1275.92
1278.17
1281.54
1286.02
1291.59
1298.2
1305.76
1314.05
1322.78
1331.48
1339.54
1346.18
1350.56
1352.06
1267.86
1269.11
1271.62
1275.4
1280.48
1286.86
1294.54
1303.46
1313.46
1324.22
1335.25
1345.81
1354.9
1361.38
1364.29
1260.02
1261.38
1264.14
1268.32
1273.98
1281.18
1289.98
1300.37
1312.27
1325.41
1339.3
1353.05
1365.36
1374.64
1379.24
1251.18
1252.65
1255.62
1260.16
1266.36
1274.35
1284.25
1296.18
1310.17
1326.05
1343.38
1361.22
1377.89
1391.07
1398.09
1241.28
1242.83
1245.97
1250.8
1257.46
1266.14
1277.08
1290.53
1306.69
1325.63
1347.08
1370.13
1392.8
1411.74
1422.5
1230.27
1231.86
1235.1
1240.11
1247.09
1256.31
1268.11
1282.94
1301.24
1323.41
1349.61
1379.25
1410.25
1438.02
1455.08
1218.1
1219.7
1222.95
1228.01
1235.13
1244.63
1257.01
1272.88
1293.04
1318.35
1349.69
1387.37
1429.9
1471.67
1500.22
1204.8
1206.34
1209.5
1214.44
1221.45
1230.92
1243.43
1259.82
1281.19
1309.05
1345.32
1392.06
1450.01
1514.44
1565.88
1190.38
1191.81
1194.76
1199.39
1206.01
1215.03
1227.13
1243.25
1264.79
1293.85
1333.65
1388.9
1465.57
1566.19
1667.95
1174.92
1176.19
1178.8
1182.92
1188.84
1196.98
1207.99
1222.86
1243.11
1271.15
1311.18
1370.82
1464.44
1617.07
1841.37
1158.55
1159.59
1161.74
1165.16
1170.08
1176.88
1186.13
1198.71
1215.95
1240.07
1275.05
1329.08
1422.29
1618.12
2171.25
-2327.13
-1726.51
-1512.52
-1409.98
-1350.18
-1311.23
-1284.25
-1264.86
-1250.64
-1240.13
-1232.37
-1226.74
-1222.82
-1220.34
-1219.14
-1968.62
-1724.61
-1557.95
-1455.23
-1389.48
-1345.12
-1313.9
-1291.26
-1274.55
-1262.11
-1252.89
-1246.16
-1241.46
-1238.48
-1237.03
-1780.01
-1668.95
-1558.92
-1474.78
-1413.9
-1369.86
-1337.56
-1313.52
-1295.45
-1281.83
-1271.63
-1264.14
-1258.87
-1255.52
-1253.89
-1668.98
-1612.55
-1541.87
-1478.15
-1426.59
-1386.42
-1355.45
-1331.59
-1313.23
-1299.15
-1288.47
-1280.54
-1274.93
-1271.34
-1269.59
-1597.59
-1566
-1519.96
-1473.02
-1431.34
-1396.55
-1368.35
-1345.83
-1328.02
-1314.08
-1303.35
-1295.3
-1289.55
-1285.86
-1284.05
-1548.58
-1529.46
-1498.63
-1464.22
-1431.26
-1402.07
-1377.28
-1356.76
-1340.08
-1326.76
-1316.33
-1308.42
-1302.72
-1299.04
-1297.23
-1513.31
-1501.02
-1479.75
-1454.36
-1428.55
-1404.49
-1383.21
-1364.99
-1349.79
-1337.4
-1327.54
-1319.96
-1314.47
-1310.89
-1309.12
-1487.03
-1478.77
-1463.7
-1444.77
-1424.58
-1404.96
-1386.96
-1371.09
-1357.53
-1346.24
-1337.13
-1330.04
-1324.84
-1321.44
-1319.76
-1466.95
-1461.22
-1450.29
-1436.01
-1420.19
-1404.27
-1389.21
-1375.57
-1363.65
-1353.55
-1345.27
-1338.76
-1333.94
-1330.77
-1329.2
-1451.3
-1447.25
-1439.17
-1428.28
-1415.84
-1402.95
-1390.43
-1378.82
-1368.47
-1359.56
-1352.15
-1346.26
-1341.88
-1338.97
-1337.52
-1438.93
-1436.03
-1429.98
-1421.6
-1411.77
-1401.33
-1390.97
-1381.17
-1372.27
-1364.49
-1357.95
-1352.69
-1348.75
-1346.12
-1344.8
-1429.04
-1426.95
-1422.38
-1415.88
-1408.09
-1399.64
-1391.09
-1382.85
-1375.26
-1368.54
-1362.82
-1358.18
-1354.67
-1352.32
-1351.14
-1421.05
-1419.56
-1416.09
-1411.02
-1404.83
-1397.99
-1390.94
-1384.06
-1377.62
-1371.86
-1366.9
-1362.84
-1359.76
-1357.68
-1356.64
-1414.56
-1413.52
-1410.88
-1406.92
-1401.98
-1396.44
-1390.66
-1384.92
-1379.49
-1374.58
-1370.31
-1366.8
-1364.11
-1362.29
-1361.38
-1409.25
-1408.55
-1406.55
-1403.45
-1399.52
-1395.04
-1390.29
-1385.53
-1380.98
-1376.82
-1373.17
-1370.15
-1367.83
-1366.25
-1365.45
-1404.89
-1404.45
-1402.95
-1400.54
-1397.41
-1393.79
-1389.91
-1385.97
-1382.17
-1378.66
-1375.57
-1372.99
-1370.99
-1369.63
-1368.94
-1401.29
-1401.06
-1399.95
-1398.08
-1395.6
-1392.69
-1389.52
-1386.28
-1383.12
-1380.18
-1377.57
-1375.38
-1373.68
-1372.52
-1371.93
-1398.31
-1398.24
-1397.45
-1396.02
-1394.06
-1391.73
-1389.16
-1386.5
-1383.88
-1381.43
-1379.25
-1377.4
-1375.96
-1374.98
-1374.47
-1395.84
-1395.9
-1395.36
-1394.28
-1392.75
-1390.89
-1388.82
-1386.65
-1384.5
-1382.48
-1380.65
-1379.11
-1377.9
-1377.07
-1376.64
-1393.78
-1393.95
-1393.61
-1392.82
-1391.64
-1390.18
-1388.52
-1386.76
-1385.01
-1383.34
-1381.83
-1380.55
-1379.54
-1378.84
-1378.48
-1392.06
-1392.31
-1392.14
-1391.59
-1390.7
-1389.56
-1388.25
-1386.84
-1385.42
-1384.06
-1382.82
-1381.76
-1380.93
-1380.35
-1380.05
-1390.62
-1390.94
-1390.91
-1390.55
-1389.9
-1389.04
-1388.02
-1386.9
-1385.76
-1384.66
-1383.66
-1382.79
-1382.1
-1381.62
-1381.38
-1389.41
-1389.79
-1389.87
-1389.67
-1389.23
-1388.59
-1387.81
-1386.94
-1386.04
-1385.16
-1384.36
-1383.66
-1383.1
-1382.71
-1382.51
-1388.39
-1388.83
-1389
-1388.93
-1388.65
-1388.2
-1387.63
-1386.97
-1386.27
-1385.59
-1384.95
-1384.39
-1383.95
-1383.63
-1383.47
-1387.53
-1388.01
-1388.26
-1388.3
-1388.16
-1387.88
-1387.47
-1386.99
-1386.47
-1385.94
-1385.45
-1385.02
-1384.67
-1384.42
-1384.29
-1386.8
-1387.31
-1387.63
-1387.77
-1387.74
-1387.59
-1387.34
-1387
-1386.63
-1386.25
-1385.88
-1385.55
-1385.28
-1385.09
-1384.99
-1386.18
-1386.71
-1387.09
-1387.31
-1387.39
-1387.35
-1387.22
-1387.02
-1386.77
-1386.5
-1386.24
-1386.01
-1385.81
-1385.67
-1385.59
-1385.64
-1386.2
-1386.62
-1386.91
-1387.08
-1387.14
-1387.12
-1387.03
-1386.89
-1386.73
-1386.56
-1386.4
-1386.26
-1386.16
-1386.11
-1385.17
-1385.75
-1386.22