/*--------------------------------*- C++ -*----------------------------------*\
| =========                 |                                                 |
| \\      /  F ield         | OpenFOAM: The Open Source CFD Toolbox           |
|  \\    /   O peration     | Version:  5.x                                   |
|   \\  /    A nd           | Web:      www.OpenFOAM.org                      |
|    \\/     M anipulation  |                                                 |
\*---------------------------------------------------------------------------*/
FoamFile
{
    version     2.0;
    format      ascii;
    class       volScalarField;
    location    "7";
    object      T;
}
// * * * * * * * * * * * * * * * * * * * * * * * * * * * * * * * * * * * * * //

dimensions      [0 0 0 1 0 0 0];

internalField   nonuniform List<scalar> 
6300
(
12.9382
18.806
24.6482
30.4477
36.1873
41.8497
47.4176
52.8737
58.2009
63.3823
68.4019
73.2445
77.8964
82.3457
86.5829
12.9466
18.8312
24.6903
30.5067
36.2634
41.9429
47.5278
53.0009
58.3446
63.5419
68.5764
73.4325
78.0961
82.5547
86.7985
12.9633
18.8815
24.7744
30.6247
36.4155
42.1292
47.7484
53.2555
58.6325
63.8621
68.9268
73.8105
78.4978
82.9755
87.2327
12.9884
18.9569
24.9003
30.8015
36.6434
42.4087
48.0797
53.6382
59.066
64.3447
69.4559
74.382
79.1062
83.6136
87.8919
13.0218
19.0571
25.0677
31.0366
36.9469
42.7813
48.5217
54.1498
59.6465
64.9924
70.1677
75.1527
79.9285
84.4777
88.7857
13.0633
19.1818
25.276
31.3294
37.3253
43.2463
49.0744
54.7908
60.3758
65.8085
71.0673
76.13
80.9744
85.5798
89.928
13.1127
19.3304
25.5244
31.6789
37.7774
43.8028
49.7372
55.5615
61.2552
66.7961
72.1604
77.3226
82.2564
86.9358
91.3375
13.1699
19.5021
25.8118
32.0835
38.3014
44.4489
50.5084
56.4608
62.2851
67.9579
73.453
78.7409
83.7896
88.5661
93.039
13.2344
19.6961
26.1364
32.5409
38.8946
45.1816
51.385
57.4863
63.4644
69.2951
74.95
80.3954
85.5921
90.4968
95.0655
13.3058
19.9109
26.4962
33.0483
39.5532
45.9964
52.3621
58.6329
64.7887
70.8056
76.6537
82.2955
87.6835
92.7599
97.461
13.3837
20.1452
26.8886
33.6018
40.2723
46.8871
53.4323
59.8925
66.2498
72.4822
78.561
84.4464
90.083
95.3949
100.286
13.4675
20.397
27.3105
34.1971
41.0459
47.8459
54.5857
61.2528
67.8334
74.31
80.6586
86.8429
92.804
98.4467
103.627
13.5564
20.6645
27.7585
34.8291
41.867
48.8635
55.8098
62.6976
69.5184
76.2629
82.9177
89.4594
95.84
101.957
107.606
13.6499
20.9457
28.2292
35.4926
42.7283
49.9295
57.0905
64.2071
71.2774
78.3026
85.2868
92.2338
99.1356
105.932
112.398
13.7474
21.2387
28.7194
36.1828
43.6228
51.0342
58.4136
65.7605
73.0789
80.3806
87.6898
95.05
102.533
110.234
118.172
90.2665
93.4609
96.5004
99.386
102.12
104.707
107.152
109.461
111.641
113.701
115.648
117.493
119.244
120.909
122.5
124.024
125.49
126.909
128.286
129.632
130.953
132.257
133.551
134.84
136.13
137.425
138.73
140.048
141.381
142.731
144.097
145.481
146.88
148.294
149.722
151.16
152.606
154.057
155.51
156.961
158.408
159.845
161.269
162.676
164.06
165.419
166.747
168.042
169.299
170.516
171.689
172.815
173.893
174.918
175.887
176.797
177.646
178.428
179.141
179.78
180.341
180.821
181.214
181.516
181.723
181.828
181.826
181.71
181.473
181.108
180.606
179.957
179.153
178.182
177.035
175.699
174.165
172.42
170.452
168.25
165.803
163.098
160.126
156.877
153.342
149.515
145.391
140.966
136.241
131.218
90.4853
93.6804
96.7183
99.6002
102.329
104.908
107.343
109.642
111.811
113.858
115.793
117.624
119.361
121.013
122.591
124.102
125.556
126.962
128.328
129.662
130.973
132.268
133.552
134.833
136.116
137.406
138.707
140.021
141.352
142.701
144.067
145.452
146.853
148.27
149.701
151.142
152.592
154.048
155.506
156.963
158.415
159.859
161.289
162.701
164.092
165.456
166.79
168.089
169.351
170.572
171.749
172.88
173.962
174.991
175.965
176.881
177.734
178.522
179.24
179.885
180.453
180.939
181.338
181.648
181.862
181.976
181.983
181.878
181.652
181.299
180.81
180.175
179.385
178.43
177.299
175.98
174.462
172.734
170.783
168.598
166.167
163.478
160.52
157.283
153.758
149.938
145.818
141.394
136.666
131.635
90.9261
94.1226
97.1573
100.031
102.748
105.312
107.728
110.005
112.15
114.173
116.081
117.886
119.596
121.221
122.772
124.257
125.685
127.067
128.409
129.722
131.012
132.287
133.553
134.819
136.088
137.366
138.658
139.966
141.292
142.639
144.006
145.393
146.798
148.221
149.658
151.107
152.565
154.03
155.498
156.966
158.429
159.885
161.327
162.752
164.155
165.531
166.875
168.185
169.456
170.685
171.871
173.01
174.1
175.138
176.121
177.047
177.911
178.71
179.439
180.096
180.675
181.174
181.587
181.91
182.14
182.27
182.296
182.211
182.009
181.68
181.217
180.611
179.85
178.926
177.827
176.541
175.057
173.363
171.446
169.295
166.896
164.239
161.309
158.098
154.594
150.789
146.677
142.255
137.52
132.476
91.5955
94.7941
97.8237
100.686
103.384
105.923
108.311
110.554
112.663
114.647
116.515
118.279
119.948
121.532
123.043
124.488
125.878
127.223
128.53
129.809
131.067
132.312
133.552
134.793
136.041
137.302
138.58
139.878
141.198
142.542
143.911
145.302
146.714
148.145
149.592
151.052
152.523
154.002
155.485
156.969
158.45
159.924
161.385
162.829
164.251
165.644
167.005
168.329
169.614
170.856
172.053
173.204
174.306
175.357
176.355
177.295
178.175
178.991
179.737
180.411
181.008
181.525
181.957
182.301
182.554
182.709
182.763
182.708
182.539
182.248
181.825
181.261
180.545
179.668
178.617
177.381
175.948
174.306
172.441
170.342
167.994
165.384
162.5
159.328
155.857
152.076
147.979
143.56
138.816
133.751
92.5039
95.7055
98.7277
101.573
104.244
106.749
109.096
111.293
113.351
115.282
117.096
118.804
120.417
121.946
123.402
124.794
126.133
127.427
128.687
129.92
131.135
132.34
133.544
134.752
135.972
137.208
138.467
139.752
141.064
142.406
143.777
145.175
146.597
148.04
149.501
150.977
152.465
153.961
155.464
156.969
158.474
159.974
161.462
162.934
164.381
165.799
167.182
168.525
169.827
171.084
172.296
173.461
174.579
175.647
176.664
177.624
178.526
179.364
180.133
180.83
181.451
181.991
182.448
182.819
183.1
183.288
183.378
183.364
183.241
182.999
182.629
182.122
181.467
180.653
179.667
178.498
177.134
175.562
173.769
171.741
169.463
166.92
164.099
160.983
157.56
153.815
149.74
145.327
140.572
135.477
93.6659
96.8714
99.8835
102.705
105.341
107.799
110.091
112.227
114.22
116.081
117.824
119.46
121.002
122.461
123.847
125.172
126.446
127.677
128.876
130.052
131.212
132.367
133.523
134.689
135.872
137.078
138.312
139.58
140.883
142.223
143.598
145.007
146.443
147.904
149.384
150.879
152.387
153.906
155.433
156.965
158.501
160.034
161.558
163.066
164.548
165.998
167.408
168.776
170.097
171.372
172.6
173.781
174.917
176.006
177.046
178.033
178.962
179.829
180.628
181.353
182.002
182.57
183.057
183.459
183.774
184.001
184.136
184.173
184.106
183.926
183.625
183.191
182.612
181.878
180.974
179.891
178.614
177.131
175.429
173.492
171.306
168.853
166.116
163.077
159.719
156.025
151.982
147.58
142.812
137.68
95.1016
98.3122
101.31
104.1
106.688
109.086
111.307
113.364
115.272
117.047
118.701
120.248
121.702
123.075
124.377
125.62
126.814
127.969
129.094
130.199
131.293
132.385
133.484
134.597
135.733
136.9
138.104
139.351
140.644
141.983
143.367
144.792
146.25
147.734
149.239
150.758
152.289
153.832
155.387
156.952
158.525
160.101
161.672
163.228
164.756
166.246
167.691
169.086
170.428
171.72
172.963
174.161
175.316
176.429
177.497
178.517
179.482
180.386
181.22
181.98
182.661
183.261
183.78
184.216
184.57
184.841
185.027
185.124
185.126
185.023
184.806
184.461
183.976
183.338
182.535
181.555
180.384
179.01
177.42
175.598
173.527
171.188
168.561
165.624
162.355
158.733
154.737
150.354
145.573
140.394
96.8381
100.055
103.034
105.781
108.306
110.624
112.753
114.71
116.514
118.18
119.726
121.167
122.516
123.785
124.987
126.133
127.234
128.298
129.337
130.358
131.373
132.389
133.417
134.466
135.545
136.664
137.83
139.051
140.332
141.673
143.072
144.523
146.013
147.531
149.066
150.613
152.169
153.737
155.32
156.92
158.538
160.169
161.803
163.423
165.012
166.555
168.04
169.464
170.826
172.131
173.386
174.597
175.77
176.909
178.012
179.074
180.085
181.035
181.914
182.714
183.431
184.064
184.615
185.085
185.478
185.797
186.04
186.206
186.289
186.279
186.163
185.926
185.554
185.031
184.346
183.486
182.44
181.195
179.739
178.056
176.127
173.932
171.447
168.644
165.495
161.971
158.045
153.694
148.903
143.668
98.9118
102.137
105.088
107.776
110.216
112.431
114.442
116.274
117.947
119.483
120.9
122.213
123.438
124.587
125.673
126.708
127.7
128.66
129.598
130.523
131.444
132.372
133.315
134.286
135.295
136.353
137.471
138.66
139.926
141.274
142.699
144.191
145.73
147.296
148.871
150.448
152.027
153.614
155.221
156.857
158.527
160.229
161.946
163.656
165.328
166.939
168.473
169.925
171.3
172.609
173.865
175.08
176.268
177.434
178.579
179.696
180.769
181.781
182.715
183.561
184.315
184.979
185.558
186.059
186.489
186.854
187.158
187.402
187.579
187.68
187.687
187.58
187.34
186.952
186.401
185.679
184.775
183.679
182.379
180.861
179.105
177.089
174.784
172.157
169.17
165.784
161.96
157.662
152.867
147.564
101.373
104.607
107.519
110.124
112.449
114.525
116.386
118.06
119.575
120.954
122.217
123.382
124.464
125.476
126.43
127.337
128.207
129.049
129.873
130.687
131.501
132.325
133.17
134.047
134.969
135.95
137.006
138.151
139.399
140.758
142.225
143.785
145.403
147.041
148.669
150.276
151.866
153.458
155.075
156.739
158.466
160.258
162.095
163.936
165.728
167.428
169.016
170.491
171.864
173.157
174.394
175.598
176.79
177.983
179.181
180.374
181.536
182.632
183.636
184.534
185.323
186.01
186.607
187.128
187.585
187.992
188.357
188.686
188.974
189.21
189.368
189.419
189.335
189.099
188.698
188.127
187.379
186.449
185.327
184.001
182.452
180.656
178.579
176.182
173.414
170.222
166.549
162.342
157.558
152.175
104.294
107.539
110.387
112.87
115.034
116.927
118.593
120.071
121.393
122.586
123.67
124.665
125.585
126.442
127.249
128.015
128.749
129.46
130.156
130.846
131.539
132.244
132.973
133.737
134.552
135.435
136.406
137.489
138.707
140.08
141.614
143.287
145.043
146.796
148.492
150.12
151.697
153.26
154.855
156.524
158.306
160.216
162.232
164.281
166.253
168.074
169.718
171.195
172.537
173.78
174.965
176.127
177.303
178.518
179.785
181.091
182.389
183.61
184.705
185.656
186.47
187.164
187.76
188.281
188.748
189.183
189.603
190.02
190.439
190.844
191.198
191.444
191.544
191.476
191.235
190.822
190.24
189.489
188.563
187.455
186.148
184.619
182.83
180.733
178.263
175.346
171.902
167.848
163.107
157.629
107.786
111.038
113.777
116.072
118.005
119.649
121.066
122.302
123.394
124.369
125.249
126.052
126.791
127.478
128.123
128.734
129.32
129.887
130.444
130.997
131.554
132.125
132.719
133.349
134.032
134.787
135.641
136.627
137.787
139.165
140.795
142.667
144.679
146.626
148.41
150.031
151.542
153.012
154.52
156.142
157.956
160.016
162.316
164.729
166.99
168.967
170.652
172.089
173.345
174.483
175.56
176.632
177.753
178.972
180.326
181.812
183.348
184.763
185.973
186.97
187.783
188.452
189.014
189.504
189.952
190.389
190.844
191.347
191.917
192.547
193.174
193.675
193.986
194.095
194.012
193.755
193.339
192.772
192.056
191.189
190.16
188.948
187.52
185.816
183.749
181.222
178.128
174.338
169.711
164.132
112.036
115.271
117.802
119.791
121.386
122.696
123.795
124.736
125.557
126.283
126.934
127.525
128.066
128.569
129.039
129.485
129.912
130.325
130.731
131.136
131.545
131.965
132.407
132.881
133.402
133.992
134.68
135.51
136.547
137.881
139.621
141.841
144.405
146.686
148.555
150.096
151.439
152.706
154.013
155.479
157.244
159.462
162.234
165.389
168.128
170.278
171.934
173.239
174.318
175.265
176.155
177.06
178.054
179.225
180.671
182.456
184.473
186.204
187.54
188.541
189.298
189.887
190.366
190.779
191.165
191.561
192.011
192.57
193.302
194.246
195.324
196.174
196.714
196.982
197.032
196.911
196.649
196.262
195.761
195.15
194.426
193.584
192.601
191.416
189.889
187.91
185.35
182.025
177.681
172.027
117.42
120.515
122.6
124.074
125.175
126.04
126.746
127.34
127.852
128.301
128.701
129.063
129.394
129.7
129.987
130.258
130.517
130.769
131.016
131.263
131.513
131.771
132.044
132.34
132.669
133.049
133.508
134.09
134.874
136.008
137.751
140.514
144.532
147.335
149.165
150.44
151.438
152.337
153.27
154.38
155.876
158.104
161.592
166.643
170.11
172.292
173.713
174.71
175.475
176.121
176.724
177.354
178.094
179.075
180.519
182.762
186
188.21
189.584
190.458
191.048
191.473
191.806
192.088
192.357
192.648
193.013
193.538
194.373
195.748
197.795
199.111
199.829
200.174
200.293
200.264
200.129
199.91
199.619
199.264
198.857
198.415
197.965
197.502
196.674
195.427
193.666
191.176
187.533
182.014
124.919
127.209
128.274
128.887
129.3
129.608
129.853
130.057
130.231
130.384
130.519
130.641
130.752
130.855
130.951
131.042
131.129
131.214
131.297
131.38
131.464
131.551
131.643
131.744
131.857
131.99
132.154
132.372
132.695
133.25
134.409
137.373
146.401
149.38
150.569
151.176
151.577
151.914
152.266
152.719
153.447
154.927
158.694
170.174
173.933
175.397
176.098
176.509
176.797
177.031
177.248
177.481
177.781
178.254
179.209
181.629
189.001
191.411
192.341
192.779
193.026
193.188
193.31
193.411
193.509
193.621
193.778
194.054
194.66
196.275
201.31
202.905
203.471
203.686
203.76
203.764
203.724
203.654
203.56
203.449
203.332
203.25
203.341
204.106
204.058
203.675
203.026
201.979
200.081
195.911
125.37
118.58
111.399
103.849
95.9551
87.7472
79.2556
70.5114
61.5464
52.3918
43.0787
33.6371
24.0966
14.4859
4.83326
125.776
118.968
111.765
104.188
96.2661
88.0281
79.5053
70.7298
61.7337
52.5486
43.2056
33.7349
24.1659
14.5272
4.84702
126.592
119.748
112.499
104.87
96.8897
88.5906
80.0051
71.1665
62.1079
52.8616
43.4588
33.9299
24.3041
14.6097
4.87442
127.83
120.929
113.609
105.898
97.8293
89.4365
80.7552
71.8207
62.6677
53.3291
43.8366
34.2206
24.5099
14.7325
4.91522
129.505
122.524
115.106
107.282
99.0895
90.5677
81.7556
72.6912
63.4108
53.9486
44.3366
34.6048
24.7818
14.8945
4.96905
131.64
124.554
117.004
109.03
100.676
91.9861
83.0054
73.7752
64.3336
54.7161
44.9547
35.0792
25.117
15.0942
5.03536
134.267
127.044
119.323
111.155
102.593
93.6924
84.5021
75.0678
65.4303
55.6255
45.6854
35.6389
25.5121
15.3293
5.11342
137.429
130.027
122.084
113.668
104.847
95.6849
86.2397
76.5612
66.692
56.6682
46.5211
36.2777
25.9624
15.597
5.20226
141.182
133.546
125.316
116.583
107.438
97.9572
88.2076
78.2427
68.1059
57.8324
47.4513
36.9874
26.4618
15.8937
5.30064
145.603
137.654
129.045
119.908
110.36
100.495
90.3879
80.0935
69.6541
59.102
48.4629
37.7573
27.0029
16.2148
5.40709
150.8
142.416
133.298
123.64
113.594
103.273
92.7522
82.0864
71.3125
60.4568
49.5392
38.5749
27.5766
16.555
5.51982
156.926
147.907
138.088
127.755
117.101
106.245
95.2587
84.1849
73.0501
61.8715
50.6604
39.4253
28.1727
16.9083
5.63685
164.204
154.194
143.386
132.186
120.806
109.344
97.8493
86.3413
74.8292
63.3164
51.8039
40.2918
28.7798
17.2679
5.75597
172.951
161.275
149.07
136.795
124.587
112.474
100.45
88.4989
76.6064
64.7589
52.9453
41.1567
29.3859
17.627
5.87493
183.483
168.879
154.819
141.331
128.269
115.511
102.973
90.5952
78.3361
66.1653
54.0598
42.0024
29.9791
17.9787
5.99148
13.8399
21.5165
29.1839
36.836
44.4676
52.0745
59.6544
67.2084
74.7432
82.276
89.8428
97.5157
105.443
113.958
123.988
13.926
21.7753
29.6161
37.4432
45.2517
53.0378
60.7991
68.5363
76.2557
83.9733
91.724
99.5785
107.676
116.288
125.895
14.014
22.0395
30.0574
38.0626
46.0505
54.017
61.959
69.875
77.7675
85.6455
93.5309
101.47
109.551
117.924
126.776
14.1037
22.3088
30.5068
38.6932
46.8632
55.0121
63.1353
71.2284
79.2875
87.3104
95.2981
103.26
111.219
119.223
127.331
14.1949
22.5826
30.9639
39.3344
47.6894
56.0237
64.331
72.6035
80.8307
88.9974
97.0811
105.048
112.853
120.447
127.815
14.2874
22.8604
31.4278
39.9855
48.5291
57.0528
65.5493
74.0083
82.4138
90.7399
98.9424
106.947
114.631
121.825
128.384
14.3811
23.1418
31.8978
40.6457
49.3814
58.0993
66.7921
75.4485
84.0501
92.5658
100.939
109.065
116.747
123.64
129.269
14.4757
23.4261
32.3729
41.3136
50.2448
59.162
68.0586
76.9248
85.7441
94.4883
103.105
111.488
119.407
126.329
131.052
14.571
23.7124
32.8517
41.9873
51.1169
60.2376
69.3447
78.4317
87.488
96.4972
105.43
114.23
122.756
130.544
135.578
14.6666
23.9997
33.3324
42.6642
51.9942
61.3211
70.6432
79.9579
89.2627
98.5565
107.845
117.159
126.615
136.667
149.35
14.7622
24.287
33.8132
43.3414
52.8723
62.4066
71.945
81.4891
91.0428
100.617
110.24
119.987
130.057
140.958
153.909
14.8574
24.5731
34.2919
44.0158
53.747
63.4878
73.2412
83.0116
92.8065
102.641
112.545
122.589
132.917
143.824
155.768
14.9517
24.8566
34.7664
44.6843
54.6138
64.5588
74.5239
84.5151
94.5406
104.613
114.752
124.989
135.372
145.966
156.814
15.0448
25.1365
35.2346
45.3438
55.4686
65.6143
75.7867
85.9927
96.24
106.537
116.887
127.284
137.679
147.926
157.736
15.1363
25.4114
35.6946
45.9914
56.3077
66.6497
77.0245
87.4396
97.9028
108.42
118.988
129.578
140.083
150.187
159.093
15.2258
25.6804
36.1445
46.6246
57.1276
67.6609
78.2324
88.851
99.5258
110.265
121.07
131.928
142.763
153.277
162.144
15.313
25.9424
36.5827
47.241
57.9253
68.6438
79.4058
90.2214
101.102
112.061
123.114
134.29
145.662
157.507
171.097
15.3976
26.1966
37.0075
47.8384
58.6978
69.5951
80.5402
91.5445
102.622
113.788
125.069
136.512
148.23
160.52
174.122
15.4793
26.4422
37.4178
48.415
59.4429
70.5114
81.6314
92.8151
104.077
115.433
126.908
138.539
150.397
162.619
175.427
15.558
26.6785
37.8125
48.9692
60.1584
71.3904
82.6766
94.0295
105.463
116.993
128.636
140.406
152.308
164.306
176.275
15.6335
26.9051
38.1906
49.4999
60.8428
72.2302
83.6736
95.1857
106.78
118.472
130.271
142.178
154.149
166.009
177.261
15.7056
27.1215
38.5517
50.0062
61.4951
73.0294
84.6209
96.2824
108.028
119.872
131.829
143.903
156.063
168.129
179.255
15.7742
27.3275
38.8952
50.4875
62.1145
73.7873
85.5176
97.3184
109.204
121.192
133.303
145.565
158.037
170.899
184.94
15.8394
27.523
39.2211
50.9436
62.7008
74.5036
86.3634
98.2931
110.307
122.424
134.667
147.077
159.738
172.845
186.861
15.9011
27.708
39.5292
51.3746
63.2542
75.1785
87.1586
99.2069
111.337
123.565
135.912
148.413
161.124
174.155
187.666
15.9593
27.8826
39.8199
51.7809
63.7752
75.8129
87.9046
100.062
112.296
124.62
137.049
149.598
162.285
175.127
188.125
16.0142
28.047
40.0935
52.1629
64.2646
76.4081
88.6033
100.86
113.189
125.6
138.098
150.683
163.334
175.988
188.517
16.0657
28.2015
40.3505
52.5215
64.7235
76.9656
89.257
101.607
114.024
126.515
139.083
151.718
164.377
176.931
189.062
16.1141
28.3464
40.5914
52.8576
65.1533
77.4872
89.868
102.304
114.804
127.375
140.019
152.734
165.489
178.163
190.241
16.1594
28.4821
40.817
53.1719
65.5551
77.9746
90.4385
102.955
115.533
128.179
140.904
153.719
166.652
179.805
193.653
16.2017
28.609
41.0278
53.4657
65.9303
78.4294
90.9705
103.561
116.211
128.927
141.722
154.617
167.658
180.961
194.803
16.2413
28.7275
41.2246
53.7398
66.2802
78.8531
91.4656
104.125
116.839
129.616
142.467
155.411
168.48
181.738
195.283
16.2782
28.838
41.4081
53.9952
66.6062
79.2476
91.9262
104.648
117.421
130.251
143.146
156.114
169.165
182.311
195.554
16.3126
28.9409
41.579
54.2331
66.9095
79.6146
92.3543
105.134
117.961
130.838
143.77
156.754
169.781
182.814
195.781
16.3445
29.0367
41.7379
54.4543
67.1916
79.9557
92.7521
105.586
118.462
131.385
144.353
157.363
170.388
183.357
196.092
16.3743
29.1257
41.8857
54.6598
67.4537
80.2727
93.1218
106.006
118.929
131.896
144.906
157.956
171.03
184.058
196.753
16.4019
29.2083
42.0228
54.8506
67.697
80.5668
93.465
106.396
119.364
132.373
145.427
158.531
171.699
184.986
198.657
16.4274
29.2848
42.1498
55.0274
67.9224
80.8396
93.7833
106.758
119.767
132.816
145.909
159.056
172.281
185.645
199.302
16.4511
29.3556
42.2674
55.191
68.1311
81.0921
94.0781
107.093
120.141
133.225
146.351
159.525
172.762
186.095
199.576
16.4729
29.421
42.3759
55.342
68.3238
81.3254
94.3506
107.403
120.486
133.603
146.755
159.945
173.173
186.439
199.738
16.493
29.4811
42.4758
55.4811
68.5014
81.5404
94.6019
107.689
120.806
133.953
147.131
160.335
173.553
186.755
199.884
16.5114
29.5363
42.5674
55.6088
68.6644
81.7379
94.8331
107.953
121.101
134.278
147.484
160.712
173.941
187.116
200.101
16.5283
29.5868
42.6512
55.7255
68.8134
81.9187
95.0448
108.195
121.373
134.581
147.819
161.084
174.363
187.605
200.588
16.5436
29.6326
42.7274
55.8316
68.9489
82.083
95.2375
108.416
121.622
134.859
148.131
161.443
174.808
188.268
202.022
16.5574
29.6741
42.7962
55.9274
69.0713
82.2314
95.4113
108.615
121.846
135.109
148.411
161.762
175.182
188.722
202.497
16.5698
29.7112
42.8579
56.0133
69.1809
82.3641
95.5666
108.792
122.045
135.33
148.654
162.028
175.469
189.008
202.684
16.5809
29.7443
42.9127
56.0896
69.2781
82.4817
95.7037
108.948
122.219
135.521
148.86
162.244
175.685
189.194
202.776
16.5906
29.7734
42.961
56.1565
69.3633
82.5844
95.8232
109.083
122.368
135.682
149.03
162.417
175.848
189.325
202.835
16.599
29.7986
43.0028
56.2146
69.437
82.673
95.9257
109.198
122.494
135.817
149.169
162.555
175.976
189.429
202.892
16.6063
29.8203
43.0386
56.2641
69.4997
82.7481
96.0122
109.295
122.599
135.927
149.282
162.665
176.078
189.52
202.996
16.6123
29.8384
43.0685
56.3055
69.5519
82.8104
96.0835
109.374
122.684
136.016
149.371
162.751
176.156
189.584
203.037
16.6173
29.8532
43.0929
56.3391
69.5941
82.8605
96.1406
109.437
122.751
136.085
149.439
162.815
176.212
189.627
203.057
16.6212
29.8647
43.112
56.3653
69.6269
82.8992
96.1843
109.484
122.801
136.136
149.489
162.861
176.251
189.655
203.068
16.624
29.8733
43.126
56.3844
69.6507
82.927
96.2154
109.518
122.835
136.17
149.522
162.891
176.276
189.672
203.074
16.626
29.879
43.1352
56.3969
69.666
82.9445
96.2344
109.537
122.855
136.189
149.54
162.907
176.288
189.68
203.078
16.6269
29.8818
43.1398
56.4029
69.673
82.9521
96.2419
109.544
122.861
136.193
149.542
162.907
176.288
189.681
203.079
16.627
29.882
43.14
56.4027
69.6722
82.9501
96.2383
109.539
122.853
136.183
149.529
162.893
176.275
189.672
203.079
16.6263
29.8797
43.1359
56.3967
69.6638
82.9389
96.2239
109.52
122.831
136.156
149.5
162.863
176.247
189.652
203.072
16.6247
29.875
43.1278
56.385
69.6481
82.9189
96.1989
109.49
122.794
136.114
149.453
162.813
176.2
189.616
203.058
16.6223
29.8678
43.1158
56.3678
69.6254
82.8902
96.1637
109.448
122.744
136.056
149.387
162.741
176.128
189.557
203.032
16.6192
29.8585
43.1001
56.3454
69.5961
82.8533
96.1187
109.394
122.68
135.981
149.299
162.643
176.023
189.46
202.982
16.6154
29.847
43.0807
56.3181
69.5603
82.8087
96.0644
109.329
122.603
135.89
149.191
162.514
175.872
189.299
202.87
16.6109
29.8334
43.058
56.286
69.5186
82.7568
96.0015
109.254
122.514
135.784
149.064
162.357
175.67
189.032
202.573
16.6057
29.8178
43.0319
56.2494
69.4711
82.6981
95.9309
109.17
122.416
135.667
148.923
162.18
175.428
188.635
201.662
16.5999
29.8003
43.0027
56.2083
69.4182
82.633
95.8533
109.079
122.31
135.544
148.778
162.005
175.211
188.357
201.361
16.5933
29.7807
42.9702
56.1629
69.36
82.562
95.7692
108.981
122.198
135.416
148.633
161.841
175.029
188.173
201.24
16.5861
29.7592
42.9344
56.1132
69.2965
82.485
95.6789
108.878
122.081
135.286
148.489
161.687
174.872
188.036
201.173
16.5782
29.7355
42.8952
56.0589
69.2276
82.402
95.5824
108.768
121.959
135.152
148.345
161.536
174.724
187.913
201.116
16.5695
29.7095
42.8523
55.9996
69.1527
82.3125
95.4793
108.653
121.832
135.014
148.199
161.383
174.57
187.774
201.036
16.5599
29.6809
42.8052
55.9348
69.0713
82.2158
95.3687
108.53
121.698
134.871
148.047
161.223
174.399
187.588
200.862
16.5493
29.6494
42.7534
55.8638
68.9825
82.1109
95.2497
108.399
121.557
134.723
147.891
161.058
174.214
187.339
200.359
16.5376
29.6145
42.6962
55.7855
68.8849
81.9963
95.1206
108.258
121.408
134.567
147.732
160.895
174.044
187.157
200.186
16.5246
29.5758
42.6326
55.6987
68.7771
81.8702
94.9795
108.106
121.248
134.404
147.569
160.736
173.894
187.026
200.111
16.51
29.5324
42.5616
55.6019
68.6572
81.7304
94.8238
107.939
121.075
134.23
147.4
160.579
173.757
186.923
200.066
16.4936
29.4836
42.4818
55.4932
68.5227
81.574
94.6503
107.754
120.884
134.041
147.221
160.417
173.623
186.829
200.029
16.4751
29.4286
42.3917
55.3706
68.3709
81.3977
94.4551
107.546
120.672
133.833
147.025
160.244
173.482
186.732
199.992
16.4541
29.3662
42.2896
55.2315
68.1987
81.1976
94.2336
107.311
120.432
133.598
146.806
160.051
173.327
186.624
199.94
16.4303
29.2954
42.1735
55.0732
68.0025
80.9693
93.9804
107.042
120.157
133.329
146.555
159.832
173.15
186.496
199.843
16.4033
29.2149
42.0414
54.8926
67.7783
80.7077
93.6893
106.731
119.839
133.017
146.265
159.579
172.949
186.359
199.783
16.3726
29.1234
41.891
54.6867
67.5217
80.4071
93.3535
106.371
119.469
132.652
145.924
159.282
172.715
186.205
199.726
16.3378
29.0195
41.72
54.4519
67.228
80.0615
92.9653
105.952
119.034
132.221
145.519
158.926
172.435
186.024
199.663
16.2984
28.902
41.5261
54.1847
66.8925
79.6644
92.5162
105.464
118.524
131.709
145.032
158.495
172.093
185.803
199.585
16.2541
28.7695
41.3071
53.882
66.5103
79.2093
91.9973
104.894
117.921
131.098
144.442
157.965
171.666
185.523
199.488
16.2045
28.6211
41.0611
53.5405
66.077
78.6897
91.3998
104.231
117.21
130.365
143.723
157.307
171.125
185.163
199.36
16.1494
28.456
40.7865
53.1579
65.5888
78.0998
90.7149
103.462
116.374
129.487
142.842
156.479
170.427
184.684
199.187
16.0886
28.2735
40.4825
52.7325
65.0427
77.435
89.9354
102.575
115.393
128.436
141.76
155.43
169.507
184.028
198.941
16.0221
28.0738
40.1488
52.2637
64.4376
76.6927
89.056
101.561
114.252
127.185
140.433
154.092
168.274
183.092
198.563
15.9501
27.8574
39.7863
51.7525
63.7741
75.8726
88.0748
100.415
112.94
125.711
138.817
152.384
166.595
181.695
197.919
15.873
27.6254
39.3968
51.2013
63.0552
74.978
86.9947
99.1379
111.452
124
136.875
150.224
164.291
179.513
196.633
15.7914
27.3795
38.9832
50.6143
62.2863
74.0158
85.8239
97.7384
109.798
122.058
134.599
147.559
161.181
176.004
193.543
194.09
175.344
159.56
145.094
131.36
118.09
105.136
92.4053
79.8384
67.3924
55.0358
42.7449
30.501
18.2886
6.09421
197.443
179.162
162.951
148.003
133.846
120.213
106.944
93.9351
81.1183
68.4441
55.8761
43.3864
30.9529
18.5573
6.18337
198.84
181.537
165.461
150.359
135.965
122.081
108.568
95.3295
82.2973
69.4205
56.6607
43.9879
31.3779
18.8104
6.26745
199.541
183.057
167.29
152.219
137.727
123.688
109.998
96.5787
83.3665
70.314
57.3835
44.5447
31.7727
19.0461
6.34581
199.951
184.074
168.631
153.675
139.17
125.048
111.239
97.6815
84.3229
71.1211
58.0412
45.0541
32.1353
19.263
6.41803
200.218
184.787
169.629
154.814
140.345
126.189
112.303
98.6435
85.1683
71.8418
58.633
45.5152
32.4647
19.4607
6.4839
200.406
185.305
170.385
155.71
141.298
127.139
113.208
99.475
85.9084
72.4791
59.1604
45.9283
32.7611
19.639
6.54341
200.543
185.693
170.968
156.419
142.072
127.928
113.973
100.188
86.5511
73.0379
59.6263
46.2953
33.0255
19.7985
6.5967
200.647
185.991
171.423
156.985
142.702
128.581
114.617
100.797
87.1056
73.5243
60.0347
46.6188
33.2595
19.9399
6.64403
200.728
186.223
171.783
157.44
143.217
129.123
115.158
101.315
87.5816
73.9452
60.3904
46.9021
33.4651
20.0646
6.68578
200.791
186.407
172.07
157.808
143.638
129.572
115.612
101.753
87.9884
74.3076
60.6985
47.1486
33.6447
20.1737
6.72236
200.841
186.555
172.302
158.107
143.985
129.945
115.992
102.124
88.335
74.6184
60.9642
47.362
33.8007
20.2686
6.75424
200.882
186.674
172.491
158.352
144.27
130.255
116.311
102.436
88.6295
74.884
61.1924
47.546
33.9355
20.3509
6.78188
200.915
186.771
172.645
158.553
144.506
130.513
116.578
102.7
88.8792
75.1103
61.3876
47.7041
34.0516
20.4218
6.80574
200.942
186.85
172.771
158.719
144.702
130.728
116.801
102.922
89.0906
75.3028
61.5543
47.8393
34.1513
20.4828
6.82626
200.964
186.915
172.875
158.856
144.865
130.908
116.989
103.11
89.2694
75.4662
61.6963
47.9549
34.2365
20.535
6.84386
200.983
186.969
172.961
158.969
145
131.058
117.146
103.267
89.4205
75.6047
61.8169
48.0533
34.3093
20.5797
6.8589
200.998
187.013
173.033
159.064
145.113
131.183
117.278
103.4
89.548
75.722
61.9194
48.137
34.3713
20.6178
6.87174
201.01
187.05
173.092
159.143
145.207
131.288
117.389
103.511
89.6557
75.8212
62.0062
48.2081
34.424
20.6502
6.88267
201.021
187.081
173.142
159.209
145.285
131.376
117.482
103.605
89.7466
75.9052
62.0798
48.2685
34.4688
20.6777
6.89197
201.029
187.106
173.183
159.264
145.351
131.45
117.56
103.685
89.8233
75.9761
62.1421
48.3197
34.5068
20.7011
6.89987
201.037
187.128
173.218
159.31
145.407
131.512
117.626
103.751
89.8881
76.0362
62.1949
48.3631
34.5391
20.721
6.90659
201.043
187.146
173.247
159.349
145.454
131.564
117.682
103.808
89.943
76.0871
62.2397
48.3999
34.5665
20.7379
6.91229
201.048
187.161
173.271
159.381
145.493
131.608
117.729
103.856
89.9894
76.1302
62.2777
48.4312
34.5898
20.7523
6.91715
201.052
187.174
173.292
159.409
145.526
131.646
117.769
103.896
90.0289
76.1669
62.31
48.4578
34.6096
20.7645
6.92128
201.056
187.185
173.31
159.432
145.554
131.678
117.803
103.931
90.0625
76.1982
62.3376
48.4806
34.6266
20.775
6.92482
201.059
187.194
173.325
159.453
145.579
131.705
117.832
103.96
90.0914
76.225
62.3613
48.5001
34.6412
20.784
6.92785
201.062
187.202
173.338
159.47
145.6
131.728
117.857
103.986
90.1162
76.2482
62.3817
48.517
34.6537
20.7917
6.93048
201.064
187.209
173.349
159.485
145.618
131.749
117.879
104.008
90.1379
76.2683
62.3995
48.5316
34.6647
20.7985
6.93276
201.066
187.216
173.359
159.498
145.634
131.767
117.898
104.028
90.1571
76.2861
62.4152
48.5446
34.6743
20.8044
6.93477
201.068
187.221
173.368
159.51
145.648
131.783
117.915
104.045
90.1742
76.3021
62.4293
48.5562
34.6829
20.8097
6.93657
201.07
187.226
173.377
159.522
145.662
131.798
117.931
104.062
90.1899
76.3166
62.442
48.5667
34.6908
20.8146
6.93819
201.072
187.231
173.385
159.532
145.675
131.812
117.946
104.077
90.2046
76.3301
62.4539
48.5764
34.698
20.819
6.9397
201.073
187.236
173.392
159.543
145.687
131.826
117.961
104.091
90.2186
76.3431
62.4653
48.5857
34.7049
20.8232
6.94113
201.075
187.241
173.4
159.553
145.699
131.84
117.975
104.106
90.2325
76.3558
62.4763
48.5947
34.7116
20.8273
6.94251
201.077
187.247
173.409
159.564
145.713
131.854
117.99
104.121
90.2465
76.3686
62.4874
48.6037
34.7182
20.8314
6.94388
201.079
187.253
173.418
159.576
145.727