/*--------------------------------*- C++ -*----------------------------------*\
| =========                 |                                                 |
| \\      /  F ield         | OpenFOAM: The Open Source CFD Toolbox           |
|  \\    /   O peration     | Version:  5.x                                   |
|   \\  /    A nd           | Web:      www.OpenFOAM.org                      |
|    \\/     M anipulation  |                                                 |
\*---------------------------------------------------------------------------*/
FoamFile
{
    version     2.0;
    format      ascii;
    class       volScalarField;
    location    "1.2";
    object      gradTx;
}
// * * * * * * * * * * * * * * * * * * * * * * * * * * * * * * * * * * * * * //

dimensions      [0 -1 0 1 0 0 0];

internalField   nonuniform List<scalar> 
3200
(
212.438
241.619
71.451
22.523
19.1847
8.1483
7.28386
3.4557
3.12266
1.20847
1.04151
0.0616195
-0.0579763
-1.21839
-1.52226
-6.36764
-6.52053
-4.64849
-4.52748
-3.99937
-3.93522
-3.30819
-3.22371
-2.00686
-2.01004
-3.33854
-3.67025
-9.27253
-9.40792
-6.74544
-6.62339
-6.19704
-6.09906
-3.85521
-4.17292
-13.1423
-13.3808
-9.51731
-9.26197
-8.55728
-8.60733
-9.57234
-9.60002
-8.53826
-8.39423
-7.2069
-7.0547
-4.63822
-4.85139
-12.2422
-12.4073
-8.92015
-8.66733
-5.49511
-5.72449
-13.9539
-14.0702
-7.49671
-7.57412
-13.4403
-14.6382
-35.0905
-35.8662
-31.1925
-31.3017
-34.8017
-35.3922
-41.3257
-42.0613
-47.8107
-48.2963
-48.7221
-48.6825
-44.8838
-44.2365
-9.28739
-7.01858
-2.70096
-0.77265
347.587
236.044
201.294
75.0661
27.5972
19.7139
9.47947
7.41159
3.88894
3.09287
1.36602
0.967555
0.0669583
-0.215784
-1.25564
-1.9513
-5.97699
-6.32895
-4.83351
-4.5568
-4.06443
-3.91303
-3.37119
-3.18474
-2.22865
-2.23398
-3.30917
-4.05362
-8.67345
-8.97286
-6.76489
-6.51254
-6.35961
-6.16464
-4.34992
-5.05944
-12.3806
-12.9108
-9.73725
-9.13353
-8.39374
-8.53746
-9.68332
-9.77244
-8.73112
-8.37747
-7.34108
-7.01648
-5.2299
-5.68749
-11.3951
-11.7477
-9.10161
-8.58929
-6.24858
-6.75281
-13.1475
-13.4397
-8.69212
-8.95885
-14.022
-16.6586
-32.9174
-34.6755
-31.6868
-32.07
-35.3588
-36.8001
-42.2735
-44.072
-49.4696
-50.7183
-51.699
-51.7118
-48.8955
-48.4515
-26.555
-21.1377
-8.00731
-2.2656
418.798
257.098
168.571
75.5309
31.088
20.3371
10.484
7.59751
4.21312
3.10032
1.47043
0.913684
0.047584
-0.343306
-1.30665
-2.24714
-5.73328
-6.21126
-4.96977
-4.59475
-4.11584
-3.90646
-3.41997
-3.17656
-2.41197
-2.41512
-3.29302
-4.28196
-8.24719
-8.63809
-6.70612
-6.39771
-6.52386
-6.29501
-4.74365
-5.6815
-11.8904
-12.589
-9.85438
-9.01053
-8.19486
-8.42751
-9.83657
-9.99007
-8.89648
-8.38803
-7.4468
-7.03673
-5.73181
-6.3136
-10.7622
-11.2079
-9.19771
-8.58438
-6.88826
-7.5455
-12.5853
-13.0108
-9.68698
-10.1517
-14.7007
-18.1342
-31.3243
-33.6746
-32.0463
-32.7221
-35.9898
-38.0468
-43.3684
-45.9387
-51.2945
-53.151
-54.7146
-54.8544
-52.8123
-53.5246
-43.1634
-35.5654
-13.0181
-3.60164
490.081
275.749
141.973
74.0519
33.2312
20.9245
11.2099
7.80336
4.44643
3.12845
1.53192
0.872189
0.00920297
-0.447928
-1.35857
-2.44115
-5.60989
-6.16235
-5.07137
-4.63684
-4.15646
-3.91097
-3.45902
-3.18921
-2.56458
-2.56127
-3.27243
-4.39125
-7.9639
-8.39623
-6.5824
-6.2655
-6.70231
-6.47828
-5.03781
-6.09271
-11.6207
-12.4046
-9.89588
-8.88639
-7.95404
-8.2705
-10.04
-10.2576
-9.03843
-8.41589
-7.53126
-7.09278
-6.15825
-6.78503
-10.2894
-10.7664
-9.23795
-8.6228
-7.43381
-8.16291
-12.2076
-12.7319
-10.5303
-11.1813
-15.4241
-19.2196
-30.1649
-32.833
-32.3136
-33.2706
-36.6693
-39.163
-44.5735
-47.6942
-53.2595
-55.5956
-57.7873
-58.0843
-56.619
-59.0408
-59.6614
-50.591
-17.5037
-4.67692
561.482
292.151
120.341
71.4888
34.2338
21.4081
11.6834
8.00723
4.5982
3.16773
1.55593
0.838826
-0.0454099
-0.534405
-1.40361
-2.55171
-5.59115
-6.17917
-5.1467
-4.68076
-4.18769
-3.92373
-3.49078
-3.21606
-2.69234
-2.67883
-3.23553
-4.40238
-7.80621
-8.24421
-6.3988
-6.10312
-6.90718
-6.71019
-5.23216
-6.32498
-11.5408
-12.3518
-9.87741
-8.75917
-7.66326
-8.05536
-10.3056
-10.5826
-9.15651
-8.45423
-7.59788
-7.16866
-6.52225
-7.14136
-9.93771
-10.4051
-9.24165
-8.68418
-7.90265
-8.64771
-11.9708
-12.562
-11.2596
-12.0672
-16.1655
-20.019
-29.3366
-32.1189
-32.5221
-33.7216
-37.3852
-40.1627
-45.8702
-49.3519
-55.3539
-58.0461
-60.9359
-61.3848
-60.2703
-64.6291
-76.5471
-66.5774
-21.1788
-5.39016
633.036
306.445
102.772
68.4619
34.2594
21.7678
11.9151
8.20043
4.67083
3.21426
1.54417
0.81215
-0.11583
-0.605671
-1.43749
-2.58661
-5.67046
-6.26079
-5.19935
-4.72575
-4.20973
-3.94324
-3.5162
-3.25285
-2.79968
-2.77357
-3.17421
-4.32403
-7.76715
-8.18352
-6.15321
-5.89676
-7.15209
-6.99334
-5.32366
-6.39233
-11.637
-12.4304
-9.80469
-8.63104
-7.31296
-7.76589
-10.6501
-10.9757
-9.24564
-8.49873
-7.64741
-7.25324
-6.83562
-7.41061
-9.67918
-10.1091
-9.22113
-8.75452
-8.31043
-9.02941
-11.8432
-12.4679
-11.9045
-12.8216
-16.9167
-20.6
-28.7699
-31.5001
-32.6988
-34.0742
-38.1367
-41.0454
-47.2562
-50.9091
-57.5807
-60.4888
-64.1823
-64.748
-63.7028
-69.9152
-94.3083
-83.981
-23.6695
-5.64673
704.765
318.742
88.5722
65.4307
33.4165
22.022
11.9012
8.38624
4.66054
3.26934
1.49488
0.793316
-0.203773
-0.663254
-1.45867
-2.54411
-5.8495
-6.40848
-5.22849
-4.77244
-4.22179
-3.96916
-3.53506
-3.29724
-2.88993
-2.85124
-3.08293
-4.15394
-7.84915
-8.22069
-5.83665
-5.62991
-7.45355
-7.33692
-5.30562
-6.29263
-11.9113
-12.6458
-9.67387
-8.50869
-6.89181
-7.37917
-11.0969
-11.451
-9.29544
-8.5474
-7.67865
-7.33875
-7.10929
-7.61211
-9.49421
-9.86575
-9.18376
-8.82398
-8.67171
-9.32733
-11.8033
-12.4214
-12.4902
-13.4488
-17.6844
-21.0015
-28.4208
-30.9427
-32.8685
-34.3195
-38.9344
-41.7961
-48.7447
-52.3457
-59.9583
-62.9003
-67.554
-68.1757
-66.8452
-74.4741
-113.459
-103.384
-24.4686
-5.36665
776.681
329.106
77.2311
62.7545
31.7488
22.2252
11.6231
8.58048
4.55688
3.33975
1.40268
0.786304
-0.313217
-0.707395
-1.46825
-2.4128
-6.13838
-6.62571
-5.22866
-4.82289
-4.22192
-4.00234
-3.54607
-3.3484
-2.96543
-2.9181
-2.95806
-3.87887
-8.06409
-8.36808
-5.43299
-5.28185
-7.83262
-7.75709
-5.16685
-6.00767
-12.3809
-13.0094
-9.47078
-8.40439
-6.38648
-6.86323
-11.6782
-12.0267
-9.28893
-8.6009
-7.68874
-7.41984
-7.35366
-7.75844
-9.36966
-9.66457
-9.13351
-8.88515
-9.00069
-9.55245
-11.8377
-12.3968
-13.0403
-13.9451
-18.489
-21.2391
-28.2677
-30.4092
-33.0574
-34.4383
-39.8025
-42.3834
-50.3672
-53.6219
-62.5229
-65.2435
-71.0871
-71.6817
-69.6292
-77.7789
-134.571
-125.541
-22.8751
-4.49876
848.774
337.54
68.3998
60.7395
29.2219
22.4716
11.0426
8.81398
4.34096
3.43896
1.25765
0.798619
-0.450873
-0.736867
-1.47047
-2.17025
-6.5568
-6.91832
-5.18917
-4.88115
-4.20679
-4.04498
-3.54673
-3.40696
-3.0275
-2.98145
-2.79795
-3.47322
-8.43428
-8.64502
-4.91797
-4.8257
-8.31673
-8.27784
-4.89082
-5.50139
-13.0804
-13.5397
-9.1688
-8.33815
-5.78137
-6.17375
-12.4382
-12.7258
-9.20044
-8.66337
-7.6731
-7.49282
-7.5792
-7.85652
-9.29776
-9.49644
-9.07196
-8.93177
-9.31222
-9.70825
-11.9411
-12.3689
-13.5801
-14.2958
-19.3653
-21.3056
-28.3102
-29.8556
-33.297
-34.3978
-40.7819
-42.7548
-52.179
-54.6724
-65.3348
-67.4618
-74.8302
-75.2937
-72.0053
-79.138
-158.317
-151.443
-17.91
-3.04463
921.017
343.96
61.8888
59.6787
25.7044
22.9051
10.0942
9.13725
3.98221
3.58934
1.04374
0.842554
-0.627068
-0.748433
-1.47404
-1.78023
-7.1362
-7.29455
-5.09282
-4.95406
-4.17115
-4.10107
-3.53305
-3.47511
-3.07624
-3.0503
-2.6035
-2.89613
-8.99447
-9.07947
-4.25755
-4.22621
-8.94204
-8.93251
-4.45489
-4.71638
-14.0646
-14.2632
-8.7252
-8.34096
-5.05828
-5.24938
-13.4373
-13.5775
-8.99241
-8.74396
-7.62505
-7.55513
-7.7971
-7.90805
-9.27557
-9.35323
-8.99904
-8.95756
-9.62314
-9.79058
-12.1168
-12.3097
-14.1396
-14.4723
-20.3669
-21.1695
-28.5711
-29.2262
-33.6303
-34.1461
-41.9379
-42.8282
-54.2681
-55.3963
-68.4882
-69.4706
-78.8496
-79.0558
-73.9645
-77.6154
-185.504
-182.411
-8.19816
-1.0973
993.363
563.556
14.9993
15.1951
4.52506
3.85374
0.681549
0.425139
-1.11106
-1.23312
-2.06113
-2.11946
-2.64214
-2.69023
-2.88247
-3.26963
-10.8248
-11.008
-7.07201
-6.83652
-5.69571
-5.59935
-5.02456
-4.9691
-4.87383
-4.89763
-5.61909
-5.70984
-5.92449
-5.87419
-3.85176
-3.94039
-8.84906
-8.8526
-4.48939
-4.70409
-13.0866
-13.2437
-7.79872
-7.44781
-4.80203
-4.98348
-12.3209
-12.4314
-7.92333
-7.68934
-6.60425
-6.50367
-4.98295
-5.29291
-14.0406
-14.2223
-9.62549
-9.38066
-7.20805
-7.67669
-20.5106
-20.7622
-12.366
-12.9995
-35.1947
-35.7851
-26.9992
-26.7166
-27.6953
-27.8553
-30.296
-30.5366
-33.2661
-33.5047
-36.2465
-36.2963
-35.4636
-35.0813
-29.7908
-28.27
-1.47128
-0.232547
-0.0509125
-0.0117401
294.058
572.82
13.3539
13.8117
5.24654
3.73256
0.900311
0.298902
-1.04652
-1.32791
-2.02686
-2.15248
-2.55078
-2.67029
-3.01653
-3.89908
-10.0366
-10.4559
-7.37041
-6.84816
-5.83733
-5.60918
-5.07798
-4.93397
-4.75823
-4.80647
-5.466
-5.70806
-6.09717
-6.01457
-4.39717
-4.5547
-8.22434
-8.21341
-4.89719
-5.39772
-12.1669
-12.5333
-8.25602
-7.49885
-5.4279
-5.79912
-11.4079
-11.6349
-8.17913
-7.68214
-6.7678
-6.56224
-5.50378
-6.16935
-12.9373
-13.3311
-9.87339
-9.3901
-7.89066
-8.90762
-18.8956
-19.4929
-13.5486
-14.948
-32.1582
-33.4402
-26.9566
-26.3986
-27.1657
-27.5216
-29.5355
-30.0698
-32.3076
-32.8237
-34.9624
-35.0395
-34.1696
-33.2371
-28.3027
-24.9022
-3.39145
-0.655358
-0.147038
-0.0340342
271.254
581.613
12.162
12.7892
5.68598
3.66412
1.02985
0.202431
-1.02454
-1.40599
-2.01552
-2.17459
-2.47056
-2.64127
-3.12914
-4.31834
-9.47704
-10.0441
-7.56627
-6.87934
-5.94765
-5.63113
-5.1159
-4.90011
-4.63367
-4.69086
-5.3296
-5.70039
-6.28873
-6.21634
-4.87158
-5.02852
-7.74683
-7.70644
-5.15232
-5.84059
-11.5034
-12.0087
-8.57253
-7.60244
-5.95609
-6.40525
-10.7102
-10.9858
-8.31657
-7.69164
-6.903
-6.65493
-5.95564
-6.80171
-12.0891
-12.5939
-10.0023
-9.44019
-8.47261
-9.77971
-17.6562
-18.4854
-14.4375
-16.264
-29.7589
-31.4059
-26.6769
-26.0276
-26.6525
-27.1217
-28.8341
-29.5348
-31.4179
-32.0777
-33.7609
-33.8206
-32.8781
-31.5529
-26.7532
-22.2589
-4.56062
-0.989058
-0.227348
-0.0529099
248.452
590.003
11.3484
12.0759
5.9222
3.62019
1.08712
0.12195
-1.03638
-1.47494
-2.0222
-2.19122
-2.39535
-2.59957
-3.21369
-4.57881
-9.10116
-9.75401
-7.69049
-6.92031
-6.03336
-5.66102
-5.14185
-4.86827
-4.49616
-4.55199
-5.20391
-5.68402
-6.50671
-6.469
-5.28592
-5.39989
-7.37967
-7.30001
-5.27776
-6.08448
-11.0462
-11.6417
-8.79039
-7.73309
-6.40047
-6.85716
-10.1736
-10.4544
-8.37224
-7.7077
-7.01658
-6.76567
-6.34569
-7.25642
-11.4322
-11.9806
-10.0501
-9.5065
-8.96359
-10.389
-16.6987
-17.6729
-15.0915
-17.1133
-27.8335
-29.6267
-26.2341
-25.6056
-26.1456
-26.672
-28.1733
-28.9525
-30.5773
-31.2909
-32.6243
-32.6418
-31.6018
-30.0077
-25.1915
-20.1436
-5.16474
-1.21036
-0.284161
-0.0665148
225.651
598.034
10.865
11.6379
6.00436
3.58552
1.08169
0.0492058
-1.077
-1.53954
-2.04401
-2.20645
-2.32013
-2.54147
-3.2682
-4.71299
-8.88006
-9.57258
-7.76298
-6.96594
-6.09848
-5.69679
-5.15798
-4.84037
-4.34153
-4.38927
-5.0851
-5.65394
-6.7591
-6.76747
-5.64838
-5.69662
-7.09489
-6.97129
-5.29003
-6.16217
-10.7637
-11.4126
-8.93649
-7.87475
-6.77327
-7.19468
-9.75844
-10.0176
-8.37122
-7.72482
-7.11255
-6.88318
-6.68253
-7.58053
-10.9203
-11.4665
-10.0424
-9.57281
-9.37584
-10.803
-15.9547
-17.0027
-15.5613
-17.6147
-26.2651
-28.055
-25.6808
-25.137
-25.6392
-26.1834
-27.5414
-28.3365
-29.7731
-30.4793
-31.5403
-31.5054
-30.3478
-28.5914
-23.639
-18.4257
-5.32787
-1.31054
-0.312624
-0.0735543
202.853
605.729
10.6861
11.4562
5.95797
3.55427
1.01743
-0.0197784
-1.14415
-1.60246
-2.07949
-2.22362
-2.2406
-2.46314
-3.29399
-4.73828
-8.79794
-9.49124
-7.79496
-7.01439
-6.14497
-5.73804
-5.16525
-4.81972
-4.16504
-4.20063
-4.97136
-5.60241
-7.05537
-7.11104
-5.96414
-5.93935
-6.87098
-6.70487
-5.20017
-6.09069
-10.6392
-11.3085
-9.02602
-8.018
-7.08516
-7.44651
-9.43548
-9.65694
-8.3302
-7.74058
-7.19322
-6.99955
-6.97542
-7.80698
-10.5202
-11.0312
-9.99653
-9.62821
-9.72315
-11.068
-15.3748
-16.4321
-15.8914
-17.8523
-24.9713
-26.6498
-25.0543
-24.6265
-25.1312
-25.6622
-26.9321
-27.6948
-28.9982
-29.6536
-30.5002
-30.4138
-29.1178
-27.303
-22.097
-17.0231
-5.12779
-1.28993
-0.310723
-0.0733936
180.057
613.096
10.8057
11.5253
5.78783
3.52838
0.893193
-0.0852645
-1.23795
-1.66462
-2.12828
-2.24587
-2.15285
-2.36048
-3.29523
-4.65895
-8.85047
-9.50548
-7.7903
-7.06638
-6.17295
-5.78591
-5.16342
-4.81143
-3.96093
-3.98257
-4.86321
-5.518
-7.40752
-7.50272
-6.23501
-6.14382
-6.69098
-6.492
-5.0145
-5.87289
-10.6699
-11.3224
-9.06457
-8.15824
-7.34528
-7.63324
-9.18322
-9.35825
-8.2597
-7.75466
-7.25974
-7.10914
-7.23409
-7.95817
-10.2083
-10.6578
-9.92401
-9.66511
-10.0205
-11.2146
-14.9249
-15.9254
-16.1214
-17.8835
-23.895
-25.3757
-24.3811
-24.0788
-24.6222
-25.1116
-26.343
-27.0315
-28.2492
-28.8202
-29.4975
-29.3707
-27.9086
-26.1502
-20.5498
-15.8934
-4.60541
-1.15498
-0.279135
-0.0660935
157.264
620.122
11.2368
11.8527
5.47858
3.51753
0.702703
-0.143772
-1.36077
-1.72529
-2.19091
-2.27654
-2.05307
-2.22874
-3.27931
-4.46649
-9.04445
-9.61452
-7.74599
-7.12516
-6.18067
-5.84321
-5.15077
-4.82307
-3.72193
-3.73016
-4.76409
-5.38419
-7.83144
-7.9489
-6.45882
-6.32276
-6.54082
-6.33026
-4.7354
-5.49754
-10.8665
-11.4528
-9.04907
-8.29475
-7.56137
-7.76949
-8.98597
-9.11051
-8.16546
-7.76834
-7.3125
-7.20772
-7.46881
-8.04833
-9.96831
-10.3317
-9.83251
-9.67744
-10.2843
-11.2605
-14.5834
-15.4509
-16.2889
-17.7448
-23.0001
-24.2005
-23.6802
-23.4973
-24.1154
-24.5313
-25.7758
-26.3471
-27.5262
-27.9826
-28.527
-28.3811
-26.7112
-25.1512
-18.9648
-15.0289
-3.76954
-0.917046
-0.221025
-0.0523882
134.474
626.779
12.0132
12.4597
4.99284
3.54084
0.43349
-0.18745
-1.51769
-1.78192
-2.26874
-2.31958
-1.93732
-2.06199
-3.25792
-4.13841
-9.39875
-9.82109
-7.65177
-7.19687
-6.16411
-5.91469
-5.12354
-4.86566
-3.43856
-3.43671
-4.68152
-5.1773
-8.34855
-8.45939
-6.62847
-6.48753
-6.40781
-6.2239
-4.36202
-4.93792
-11.2543
-11.7028
-8.96759
-8.43043
-7.73981
-7.86541
-8.83239
-8.90556
-8.04932
-7.78437
-7.35122
-7.29166
-7.69079
-8.08488
-9.79064
-10.0401
-9.72726
-9.6593
-10.5333
-11.2125
-14.3402
-14.9777
-16.4316
-17.4542
-22.2673
-23.0943
-22.9659
-22.8837
-23.6167
-23.9178
-25.2354
-25.6385
-26.8321
-27.1415
-27.5842
-27.4524
-25.5094
-24.3372
-17.2898
-14.4574
-2.59738
-0.592848
-0.141811
-0.0336121
111.685
633.014
13.1936
13.3832
4.26651
3.63038
0.0648268
-0.202751
-1.71725
-1.82964
-2.36401
-2.37994
-1.80129
-1.85239
-3.24915
-3.63513
-9.94656
-10.1313
-7.48897
-7.2917
-6.11621
-6.00785
-5.07496
-4.95501
-3.09817
-3.0934
-4.62891
-4.86339
-8.98808
-9.04754
-6.73052
-6.64986
-6.27897
-6.18465
-3.89112
-4.14868
-11.8768
-12.0802
-8.79819
-8.57224
-7.88559
-7.92768
-8.71457
-8.73779
-7.90952
-7.80713
-7.375
-7.35726
-7.91298
-8.06896
-9.67122
-9.77095
-9.61221
-9.6035
-10.7901
-11.0667
-14.1966
-14.4717
-16.5916
-17.0119
-21.694
-22.0262
-22.2497
-22.2376
-23.1353
-23.2638
-24.7317
-24.8982
-26.1733
-26.2952
-26.6643
-26.5962
-24.2768
-23.7582
-15.4462
-14.247
-1.03101
-0.206508
-0.0488758
-0.0115797
88.8969
627.952
14.5252
14.8088
5.95306
5.28212
1.51131
1.22571
-0.323814
-0.452633
-1.27681
-1.33234
-1.19163
-1.23974
-2.18915
-2.45811
-7.29405
-7.56816
-7.40707
-7.37913
-6.31235
-6.17402
-5.07011
-4.92842
-3.00717
-2.98733
-4.37724
-4.58622
-8.29824
-8.34122
-6.07636
-5.98848
-5.57844
-5.4923
-3.49252
-3.74594
-11.0266
-11.2419
-8.49026
-8.30582
-7.86812
-7.93964
-9.0528
-9.11126
-8.48373
-8.38706
-7.70428
-7.62387
-6.78445
-6.66205
-4.41815
-4.58081
-10.527
-10.5975
-5.81723
-5.93729
-13.0683
-13.1423
-7.01302
-7.02075
-11.5007
-12.3781
-27.4794
-27.9628
-23.1522
-23.0409
-23.8272
-24.0539
-27.0705
-27.4896
-31.4081
-31.8812
-34.1481
-33.9257
-19.9699
-18.2449
-1.74117
-0.395522
-0.0967404
-0.0230533
53.9043
620.671
13.6088
14.2854
6.89667
5.33524
1.97957
1.31273
-0.0199602
-0.321775
-1.08842
-1.23213
-1.19718
-1.31301
-2.12257
-2.71955
-6.6582
-7.31548
-7.55592
-7.51898
-6.48732
-6.1481
-5.16809
-4.85271
-3.3453
-3.30545
-4.41886
-4.85845
-7.70593
-7.78042
-5.97662
-5.81293
-5.66677
-5.49785
-3.88364
-4.45293
-10.4194
-10.9013
-8.63965
-8.19916
-7.70682
-7.90008
-9.16592
-9.32655
-8.67158
-8.42624
-7.80035
-7.61357
-6.90963
-6.65595
-5.00103
-5.35393
-9.94728
-10.1176
-6.61385
-6.88959
-12.3932
-12.5809
-8.09065
-8.18044
-12.0036
-13.9228
-25.8522
-26.9295
-23.4959
-23.3142
-24.0738
-24.62
-27.3218
-28.3352
-31.9926
-33.2023
-35.7912
-35.5738
-25.2715
-21.1767
-4.61719
-1.14469
-0.281218
-0.0669661
82.8269
612.915
13.1399
14.0845
7.60721
5.46015
2.34029
1.4264
0.242666
-0.172318
-0.924936
-1.13906
-1.19669
-1.35853
-2.06448
-2.84731
-6.1536
-7.07947
-7.71586
-7.69861
-6.6346
-6.1478
-5.23948
-4.82469
-3.62472
-3.57743
-4.48743
-5.03436
-7.22454
-7.29474
-5.81127
-5.63669
-5.75601
-5.56122
-4.18742
-4.94404
-10.0315
-10.6704
-8.71619
-8.09457
-7.5181
-7.81762
-9.32325
-9.57446
-8.84304
-8.48065
-7.87885
-7.62396
-7.01679
-6.70591
-5.50359
-5.95743
-9.54443
-9.78463
-7.25929
-7.63277
-11.9307
-12.2066
-8.98508
-9.1908
-12.5827
-15.067
-24.6591
-26.0767
-23.7096
-23.5499
-24.3289
-25.0999
-27.6406
-29.0751
-32.675
-34.4683
-37.5467
-37.6254
-30.3248
-24.6071
-6.96974
-1.7895
-0.439729
-0.1045
111.752
604.731
13.0625
14.1806
8.14457
5.62399
2.61279
1.55087
0.474555
-0.00934563
-0.782988
-1.05224
-1.19203
-1.38228
-2.00332
-2.87414
-5.74421
-6.85504
-7.90194
-7.92011
-6.75878
-6.16436
-5.29113
-4.82806
-3.85803
-3.81113
-4.57052
-5.14454
-6.82794
-6.87122
-5.59357
-5.44868
-5.85782
-5.67174
-4.40598
-5.26191
-9.82162
-10.5432
-8.73943
-7.98817
-7.29434
-7.68691
-9.53076
-9.86168
-8.99974
-8.54464
-7.94349
-7.64845
-7.1121
-6.79152
-5.93991
-6.4356
-9.27546
-9.56231
-7.78877
-8.21898
-11.6291
-11.9722
-9.74243
-10.0737
-13.1981
-15.927
-23.793
-25.3752
-23.8349
-23.748
-24.5844
-25.509
-28.0037
-29.7284
-33.4297
-35.6829
-39.4221
-39.9722
-35.3147
-28.5144
-8.82399
-2.28109
-0.557661
-0.132048
140.68
596.137
13.3493
14.5629
8.54134
5.80749
2.80734
1.67594
0.682763
0.16523
-0.661205
-0.970591
-1.18534
-1.38878
-1.93216
-2.82099
-5.40519
-6.63315
-8.12917
-8.18879
-6.86028
-6.19208
-5.32638
-4.85172
-4.05441
-4.01256
-4.66102
-5.21035
-6.49695
-6.50053
-5.33055
-5.23852
-5.98343
-5.82545
-4.53968
-5.43163
-9.76524
-10.517
-8.72058
-7.87947
-7.02713
-7.49815
-9.79878
-10.1966
-9.14017
-8.61446
-7.99587
-7.68259
-7.19878
-6.89838
-6.32233
-6.82
-9.10861
-9.42241
-8.23011
-8.686
-11.4502
-11.8407
-10.3973
-10.8449
-13.8293
-16.5814
-23.1782
-24.7986
-23.9022
-23.9092
-24.8364
-25.8554
-28.3976
-30.3027
-34.2424
-36.838
-41.4251
-42.5273
-40.3904
-32.9372
-10.1524
-2.57991
-0.623686
-0.146901
169.612
587.133
13.9981
15.2346
8.80663
6.00167
2.92717
1.7955
0.871963
0.352176
-0.560092
-0.892717
-1.17909
-1.38169
-1.84717
-2.70002
-5.12041
-6.40054
-8.41385
-8.51299
-6.93536
-6.22768
-5.34597
-4.88827
-4.22058
-4.18639
-4.75549
-5.24666
-6.21728
-6.17678
-5.02442
-4.99488
-6.14515
-6.02427
-4.58627
-5.46369
-9.85214
-10.5928
-8.66351
-7.77123
-6.70698
-7.23621
-10.1429
-10.5897
-9.25937
-8.68801
-8.03605
-7.72354
-7.27813
-7.01626
-6.66181
-7.13277
-9.02075
-9.34275
-8.60552
-9.06068
-11.3662
-11.7826
-10.9766
-11.5146
-14.4697
-17.0821
-22.7625
-24.3228
-23.9333
-24.0336
-25.0848
-26.1409
-28.817
-30.7956
-35.1088
-37.9135
-43.5676
-45.2119
-45.6788
-37.9733
-10.8722
-2.65408
-0.630539
-0.147505
198.549
577.696
15.0306
16.213
8.92705
6.20666
2.9693
1.90675
1.04503
0.554836
-0.482151
-0.816683
-1.17619
-1.36407
-1.74669
-2.51634
-4.88123
-6.1386
-8.77509
-8.90426
-6.97564
-6.27025
-5.34861
-4.93323
-4.3614
-4.33608
-4.85308
-5.26379
-5.97806
-5.89751
-4.67337
-4.70405
-6.35773
-6.27577
-4.54024
-5.3553
-10.0849
-10.7753
-8.56496
-7.66987
-6.32309
-6.87918
-10.5854
-11.0539
-9.34822
-8.76478
-8.06265
-7.76982
-7.35014
-7.13785
-6.96827
-7.38886
-8.99553
-9.30546
-8.93324
-9.36135
-11.3578
-11.7734
-11.5021
-12.0877
-15.124
-17.4601
-22.5116
-23.9249
-23.9449
-24.12
-25.333
-26.3615
-29.2643
-31.1951
-36.0356
-38.8751
-45.8705
-47.9437
-51.294
-43.7853
-10.8368
-2.48046
-0.57578
-0.133633
227.491
567.781
16.4942
17.5301
8.86487
6.43236
2.92447
2.00999
1.20325
0.779381
-0.432299
-0.739642
-1.18015
-1.33866
-1.63071
-2.26885
-4.68636
-5.82149
-9.23662
-9.37783
-6.96699
-6.32146
-5.33099
-4.98443
-4.48036
-4.46408
-4.95491
-5.26878
-5.77062
-5.66397
-4.27213
-4.34829
-6.63973
-6.59342
-4.39218
-5.09034
-10.4793
-11.0739
-8.4138
-7.58658
-5.86309
-6.39614
-11.1575
-11.6051
-9.39217
-8.8463
-8.07288
-7.82117
-7.41385
-7.25773
-7.25112
-7.59751
-9.02219
-9.29546
-9.22895
-9.59929
-11.4127
-11.7917
-11.9934
-12.5627
-15.8062
-17.7295
-22.4063
-23.5828
-23.9503
-24.165
-25.5885
-26.5072
-29.7506
-31.4783
-37.0425
-39.6705
-48.3702
-50.6244
-57.3437
-50.6148
-9.81763
-2.04879
-0.462525
-0.10647
256.436
557.316
18.4664
19.2353
8.55341
6.7011
2.77593
2.10894
1.34617
1.03545
-0.418611
-0.657266
-1.19537
-1.3079
-1.50089
-1.95018
-4.54277
-5.41318
-9.82911
-9.95348
-6.88772
-6.38647
-5.28761
-5.04194
-4.57981
-4.57179
-5.06382
-5.26625
-5.58752
-5.48185
-3.81217
-3.90392
-7.01524
-6.99727
-4.12816
-4.63774
-11.0655
-11.5027
-8.18933
-7.53914
-5.31283
-5.74396
-11.9021
-12.2627
-9.36945
-8.93692
-8.06224
-7.87875
-7.46751
-7.37163
-7.51985
-7.76303
-9.0949
-9.29905
-9.50719
-9.77951
-11.5249
-11.8171
-12.4699
-12.9308
-16.5412
-17.8888
-22.441
-23.2731
-23.9617
-24.1615
-25.8643
-26.56
-30.2975
-31.6081
-38.1669
-40.223
-51.1278
-53.1265
-63.9312
-58.8071
-7.47735
-1.36981
-0.300068
-0.0685689
285.386
546.196
21.063
21.3986
7.88878
7.05276
2.49706
2.21172
1.47102
1.33726
-0.453533
-0.562909
-1.22762
-1.27392
-1.36082
-1.54577
-4.46807
-4.86304
-10.5933
-10.6567
-6.70587
-6.47539
-5.21011
-5.10811
-4.66109
-4.6595
-5.18432
-5.25897
-5.4215
-5.36228
-3.28176
-3.33877
-7.51591
-7.51516
-3.72898
-3.94841
-11.8913
-12.0815
-7.85833
-7.55474
-4.65627
-4.86271
-12.8786
-13.0504
-9.2483
-9.04523
-8.02395
-7.94544
-7.50856
-7.47577
-7.78479
-7.885
-9.21272
-9.30248
-9.78285
-9.90081
-11.6952
-11.828
-12.9542
-13.1729
-17.3668
-17.9198
-22.6245
-22.9691
-23.9928
-24.098
-26.1804
-26.4911
-30.9414
-31.5279
-39.4713
-40.4216
-54.2417
-55.2763
-71.156
-68.8476
-3.32819
-0.489317
-0.104086
-0.0236676
314.337
508.727
16.1909
16.5869
8.62811
8.0515
2.76019
2.46513
2.27904
2.15776
-0.0482708
-0.195629
-1.06882
-1.13997
-1.41183
-1.62447
-4.82713
-5.22145
-10.6776
-10.6965
-6.1457
-5.86879
-4.15409
-4.00024
-2.49657
-2.62473
-6.04512
-6.43933
-11.6583
-11.5866
-5.02802
-4.99793
-11.5875
-11.7654
-9.43545
-9.42457
-9.41081
-9.33708
-7.41353
-7.19329
-5.20386
-5.72119
-18.6148
-18.9286
-12.2476
-11.8277
-9.47095
-9.25291
-6.7323
-7.18296
-21.2367
-21.8035
-18.755
-18.6411
-16.5885
-16.3849
-14.9663
-14.7969
-11.4411
-12.2731
-34.8144
-35.3576
-25.4429
-24.9904
-23.6722
-23.6095
-23.7615
-23.7879
-24.4139
-24.468
-25.4086
-25.4469
-26.446
-26.3479
-24.8113
-26.3803
-71.2896
-70.3023
-3.14944
-0.419983
452.069
517.698
13.9778
14.8958
8.9487
7.70273
3.17325
2.48357
2.22
1.94215
0.129295
-0.2014
-0.943244
-1.1166
-1.47769
-1.99363
-4.83697
-5.70512
-9.86722
-9.88927
-6.33776
-5.73551
-4.27334
-3.9282
-2.7409
-3.05896
-6.076
-6.9446
-10.8945
-10.7271
-5.68573
-5.59182
-10.4766
-10.8542
-9.30011
-9.36036
-9.63491
-9.4853
-7.71299
-7.19116
-5.63226
-6.78949
-17.2595
-17.9773
-12.7111
-11.7792
-9.74475
-9.26827
-7.39628
-8.32297
-19.0783
-20.3839
-18.9434
-18.7966
-16.9218
-16.4336
-15.2167
-14.8857
-12.6419
-14.4371
-31.9168
-33.0848
-25.6272
-24.6831
-23.5376
-23.3912
-23.4802
-23.5301
-24.0059
-24.1097
-24.7892
-24.8296
-25.3809
-25.1002
-23.8471
-26.9448
-60.4113
-58.2604
-6.87139
-1.1649
418.456
526.172
12.2263
13.4794
9.08125
7.48531
3.43274
2.48499
2.16155
1.78795
0.247585
-0.190717
-0.840403
-1.08571
-1.53735
-2.26968
-4.92581
-6.05702
-9.22244
-9.22497
-6.41185
-5.63661
-4.34791
-3.88986
-2.92501
-3.38524
-6.19282
-7.32662
-10.2954
-10.0626
-6.14554
-5.98656
-9.54607
-10.0203
-9.10019
-9.28758
-9.87597
-9.69844
-7.96242
-7.23052
-5.95201
-7.48527
-16.2943
-17.2655
-13.0011
-11.7749
-9.95622
-9.33946
-7.94831
-9.06984
-17.2978
-19.0742
-19.08
-19.0213
-17.1995
-16.5115
-15.4316
-15.051
-13.6812
-15.9736
-29.6716
-31.157
-25.5511
-24.3838
-23.3631
-23.1635
-23.2004
-23.2554
-23.6127
-23.7284
-24.1954
-24.1918
-24.3491
-23.8913
-22.7089
-26.2945
-50.9576
-48.188
-8.76606
-1.72048
384.882
534.234
10.8354
12.289
9.10174
7.36619
3.56806
2.46145
2.10513
1.68044
0.321809
-0.171563
-0.753725
-1.04656
-1.58577
-2.46877
-5.07563
-6.32754
-8.70416
-8.67328
-6.40441
-5.55825
-4.38924
-3.87177
-3.05212
-3.61761
-6.37658
-7.63522
-9.82439
-9.54548
-6.45503
-6.23255
-8.7389
-9.24216
-8.85596
-9.19875
-10.1477
-9.9739
-8.17169
-7.29174
-6.15929
-7.89001
-15.6426
-16.763
-13.1697
-11.7942
-10.1196
-9.44161
-8.39983
-9.53244
-15.7755
-17.8353
-19.2192
-19.3165
-17.432
-16.605
-15.6185
-15.2559
-14.574
-17.054
-27.915
-29.5129
-25.2973
-24.0787
-23.1557
-22.9262
-22.9199
-22.9685
-23.2292
-23.333
-23.6204
-23.5476
-23.3418
-22.7115
-21.38
-24.8011
-42.6014
-39.5816
-9.3657
-2.05136
351.364
541.95
9.7335
11.2843
9.06419
7.32959
3.59575
2.40793
2.05147
1.61032
0.361444
-0.148839
-0.678605
-0.997537
-1.62043
-2.5989
-5.27964
-6.55306
-8.28217
-8.2111
-6.34005
-5.49279
-4.4045
-3.86577
-3.1238
-3.76223
-6.62034
-7.9066
-9.45206
-9.1408
-6.64978
-6.36937
-8.01186
-8.49959
-8.58257
-9.08567
-10.4643
-10.3145
-8.34406
-7.36305
-6.25204
-8.05387
-15.2561
-16.4491
-13.2495
-11.8256
-10.2431
-9.5583
-8.76437
-9.79061
-14.4205
-16.6235
-19.4099
-19.6909
-17.6221
-16.7049
-15.7805
-15.4735
-15.3402
-17.799
-26.5289
-28.1012
-24.9237
-23.7617
-22.9206
-22.6801
-22.6372
-22.6731
-22.8519
-22.9303
-23.0598
-22.9087
-22.3516
-21.5597
-19.8609
-22.7326
-35.0779
-32.0632
-9.04932
-2.15732
317.913
549.364
8.8721
10.4304
9.00726
7.37299
3.52162
2.32118
2.00122
1.57253
0.37156
-0.125316
-0.611901
-0.936343
-1.64085
-2.66092
-5.53993
-6.76033
-7.93217
-7.8209
-6.23473
-5.43695
-4.39777
-3.86788
-3.14027
-3.81806
-6.92697
-8.1676
-9.15399
-8.8233
-6.7561
-6.42928
-7.331
-7.7732
-8.29237
-8.93756
-10.842
-10.7279
-8.47684
-7.43955
-6.22826
-8.00171
-15.1101
-16.3108
-13.2583
-11.8632
-10.3307
-9.67936
-9.05609
-9.90464
-13.1625
-15.3882
-19.7008
-20.1594
-17.7662
-16.8051
-15.9177
-15.6842
-16.0028
-18.2933
-25.429
-26.8796
-24.4695
-23.4319
-22.6614
-22.426
-22.3513
-22.3721
-22.4786
-22.5255
-22.5104
-22.286
-21.3707
-20.4442
-18.1591
-20.2851
-28.1688
-25.3447
-8.08812
-2.05829
284.531
556.505
8.22081
9.69583
8.9588
7.50511
3.34149
2.19924
1.95535
1.56566
0.353537
-0.102183
-0.551666
-0.859931
-1.64863
-2.64857
-5.86654
-6.96952
-7.63347
-7.48968
-6.09785
-5.39076
-4.37065
-3.8779
-3.10051
-3.77664
-7.30833
-8.43876
-8.90859
-8.57525
-6.79279
-6.44003
-6.66851
-7.04372
-7.99712
-8.73907
-11.3004
-11.2268
-8.56107
-7.52301
-6.08509
-7.73614
-15.2003
-16.3427
-13.2008
-11.9063
-10.3831
-9.79928
-9.28893
-9.92228
-11.9458
-14.0696
-20.1458
-20.7419
-17.8529
-16.9023
-16.0288
-15.8728
-16.5865
-18.5936
-24.5566
-25.8123
-23.9603
-23.0913
-22.3808
-22.1655
-22.0616
-22.0675
-22.1077
-22.1232
-21.9693
-21.691
-20.3903
-19.383
-16.2807
-17.6073
-21.688
-19.2035
-6.6779
-1.78516
251.215
563.391
7.76564
9.04977
8.93904
7.74565
3.04053
2.0414
1.91534
1.59171
0.30528
-0.0792815
-0.497064
-0.764287
-1.64795
-2.54748
-6.27774
-7.19627
-7.36707
-7.20836
-5.93357
-5.35708
-4.32243
-3.89929
-3.0026
-3.62098
-7.78572
-8.73633
-8.69531
-8.38515
-6.77229
-6.42753
-6.00014
-6.2911
-7.71032
-8.4678
-11.8643
-11.8294
-8.58019
-7.62245
-5.81835
-7.23805
-15.5434
-16.546
-13.0694
-11.9586
-10.3979
-9.91626
-9.47602
-9.88431
-10.7251
-12.5927
-20.8101
-21.4638
-17.8621
-16.9964
-16.1112
-16.0266
-17.1184
-18.7358
-23.8724
-24.8694
-23.4118
-22.7444
-22.0804
-21.9005
-21.7675
-21.7616
-21.7378
-21.7277
-21.4333
-21.1368
-19.3981
-18.4056
-14.2253
-14.8193
-15.4698
-13.464
-4.96243
-1.37424
217.956
570.028
7.50905
8.45953
8.9626
8.12668
2.59136
1.84865
1.88325
1.6563
0.220964
-0.0550365
-0.448471
-0.643976
-1.64663
-2.33315
-6.80139
-7.4529
-7.11383
-6.97168
-5.74134
-5.34172
-4.24974
-3.93962
-2.84408
-3.32346
-8.39167
-9.07357
-8.49279
-8.24716
-6.70106
-6.41833
-5.30303
-5.49336
-7.44998
-8.09097
-12.5654
-12.5605
-8.50764
-7.75575
-5.42266
-6.46452
-16.1786
-16.9284
-12.8433
-12.0288
-10.3695
-10.0316
-9.62916
-9.82904
-9.46329
-10.8619
-21.7768
-22.3559
-17.7619
-17.0912
-16.1616
-16.1334
-17.6293
-18.7372
-23.3538
-24.0247
-22.8316
-22.3974
-21.7606
-21.6336
-21.4682
-21.4564
-21.3673
-21.3436
-20.8973
-20.6403
-18.3761
-17.5556
-11.9788
-12.0291
-9.35788
-7.98439
-3.05045
-0.864241
184.741
576.407
7.47227
7.88721
9.03974
8.69571
1.95049
1.62483
1.86164
1.76923
0.090287
-0.0260851
-0.407789
-0.491372
-1.65794
-1.96755
-7.47771
-7.74916
-6.85271
-6.77852
-5.51588
-5.35405
-4.14578
-4.01136
-2.62256
-2.84239
-9.17307
-9.4613
-8.27686
-8.16118
-6.57929
-6.44242
-4.5537
-4.62495
-7.24227
-7.5608
-13.4456
-13.4536
-8.30304
-7.95229
-4.89197
-5.3441
-17.1723
-17.5042
-12.4865
-12.1329
-10.2882
-10.1495
-9.7582
-9.79639
-8.13091
-8.75049
-23.1571
-23.4549
-17.5047
-17.1964
-16.1759
-16.1791
-18.1557
-18.5982
-22.993
-23.2544
-22.2211
-22.0584
-21.4204
-21.3682
-21.1629
-21.1543
-20.9942
-20.9763
-20.3537
-20.2242
-17.2964
-16.896
-9.50731
-9.34776
-3.19405
-2.64717
-1.02861
-0.294692
151.553
)
;

boundaryField
{
    F1_1
    {
        type            calculated;
        value           nonuniform List<scalar> 
80
(
212.438
241.619
71.451
22.523
19.1847
8.1483
7.28386
3.4557
3.12266
1.20847
1.04151
0.0616195
-0.0579763
-1.21839
-1.52226
-6.36764
-6.52053
-4.64849
-4.52748
-3.99937
-3.93522
-3.30819
-3.22371
-2.00686
-2.01004
-3.33854
-3.67025
-9.27253
-9.40792
-6.74544
-6.62339
-6.19704
-6.09906
-3.85521
-4.17292
-13.1423
-13.3808
-9.51731
-9.26197
-8.55728
-8.60733
-9.57234
-9.60002
-8.53826
-8.39423
-7.2069
-7.0547
-4.63822
-4.85139
-12.2422
-12.4073
-8.92015
-8.66733
-5.49511
-5.72449
-13.9539
-14.0702
-7.49671
-7.57412
-13.4403
-14.6382
-35.0905
-35.8662
-31.1925
-31.3017
-34.8017
-35.3922
-41.3257
-42.0613
-47.8107
-48.2963
-48.7221
-48.6825
-44.8838
-44.2365
-9.28739
-7.01858
-2.70096
-0.77265
347.587
)
;
    }
    F1_2