/*--------------------------------*- C++ -*----------------------------------*\
| =========                 |                                                 |
| \\      /  F ield         | OpenFOAM: The Open Source CFD Toolbox           |
|  \\    /   O peration     | Version:  5.x                                   |
|   \\  /    A nd           | Web:      www.OpenFOAM.org                      |
|    \\/     M anipulation  |                                                 |
\*---------------------------------------------------------------------------*/
FoamFile
{
    version     2.0;
    format      ascii;
    class       volScalarField;
    location    "1.2";
    object      gradTy;
}
// * * * * * * * * * * * * * * * * * * * * * * * * * * * * * * * * * * * * * //

dimensions      [0 -1 0 1 0 0 0];

internalField   nonuniform List<scalar> 
3200
(
340.23
-90.8228
-110.394
-30.4237
-50.5341
-26.6714
-35.1879
-25.9869
-30.1565
-26.601
-28.2316
-27.5032
-28.0062
-29.2894
-28.2073
-34.4882
-23.3623
-32.1674
-25.5627
-32.3792
-26.306
-32.0448
-27.0445
-31.4286
-29.5064
-33.9331
-29.0133
-38.8208
-21.9292
-33.9107
-22.6318
-32.7413
-24.3232
-32.968
-29.7826
-43.5635
-20.4189
-38.0436
-23.3399
-36.6693
-21.8554
-36.1537
-22.7778
-37.66
-24.89
-37.2838
-26.4389
-36.4486
-32.8816
-46.2452
-22.9655
-38.9178
-25.4269
-37.5535
-33.6419
-49.4366
-23.9557
-41.7933
-37.24
-56.7983
-42.123
-80.8536
-16.4561
-67.8559
-22.3555
-76.2169
-27.3441
-91.3646
-35.7827
-112.474
-51.3189
-136.681
-80.9942
-166.223
-121.741
-201.512
-300.953
-342.294
-354.494
-357.485
277.752
-54.449
-87.488
-34.0494
-44.6627
-28.2873
-32.9842
-26.719
-29.1972
-26.8307
-27.8874
-27.4699
-27.9575
-28.8965
-28.3988
-32.521
-25.227
-30.9746
-26.8334
-31.311
-27.4158
-31.1672
-27.9746
-30.9314
-30.0002
-32.9568
-29.7726
-36.0153
-24.6459
-32.1662
-24.4493
-31.0378
-26.0834
-32.0176
-30.5257
-39.5605
-24.2663
-35.6016
-25.9516
-34.3444
-24.1395
-33.4454
-25.4607
-35.3956
-27.2518
-35.3646
-28.4513
-35.2747
-33.9193
-42.5858
-26.5193
-36.5886
-27.9071
-36.1739
-34.8728
-45.2789
-28.0298
-39.9817
-38.9811
-52.8698
-45.2832
-70.3499
-26.4521
-59.3917
-30.7208
-66.4938
-36.6612
-79.7669
-46.8748
-99.1539
-64.294
-123.428
-94.2565
-154.287
-133.899
-200.728
-303.279
-343.462
-354.865
-357.607
228.563
-30.0411
-68.0403
-35.1125
-39.8703
-29.0596
-31.2183
-27.1007
-28.4309
-26.9229
-27.6014
-27.3997
-27.8901
-28.5604
-28.4048
-31.0097
-26.5693
-30.1767
-27.7586
-30.5769
-28.2188
-30.5665
-28.658
-30.5889
-30.3377
-32.2253
-30.154
-33.9135
-26.6062
-31.0304
-25.6938
-29.7951
-27.4072
-31.3633
-30.8467
-36.5296
-27.0475
-33.9982
-27.8407
-32.7625
-25.6422
-31.4277
-27.4258
-33.8534
-28.9623
-34.0455
-29.9132
-34.427
-34.555
-39.9147
-29.0266
-35.0084
-29.7083
-35.176
-35.6345
-42.2265
-30.9349
-38.6873
-40.1258
-49.7995
-47.1366
-62.6043
-33.3741
-53.3918
-36.5083
-59.3951
-43.0612
-71.2097
-54.5609
-89.3207
-73.5106
-113.707
-103.952
-145.57
-142.57
-198.516
-308.102
-345.783
-355.584
-357.84
189.718
-14.4571
-51.4292
-34.6677
-35.7001
-29.3125
-29.7029
-27.2639
-27.7775
-26.9269
-27.35
-27.3012
-27.8149
-28.2567
-28.2997
-29.7795
-27.5891
-29.619
-28.4737
-30.0491
-28.833
-30.1354
-29.187
-30.3329
-30.5888
-31.6515
-30.3014
-32.2536
-28.0965
-30.2842
-26.5599
-28.8112
-28.4765
-30.8871
-30.919
-34.1046
-29.1707
-32.9182
-29.2858
-31.6614
-26.6278
-29.8007
-28.9729
-32.7631
-30.273
-33.0941
-31.0285
-33.7538
-34.9806
-37.8926
-30.8583
-33.8787
-31.078
-34.3777
-36.15
-39.8887
-33.0775
-37.6447
-40.9405
-47.2221
-48.2643
-56.6462
-38.326
-48.8677
-40.705
-53.8654
-47.6821
-64.445
-60.1913
-81.5111
-80.4881
-105.987
-111.595
-138.639
-148.885
-194.161
-315.803
-349.221
-356.606
-358.164
159.041
-5.5609
-36.9671
-33.5108
-31.8263
-29.294
-28.3003
-27.3086
-27.1783
-26.8796
-27.1171
-27.1798
-27.7422
-27.9685
-28.1368
-28.6958
-28.4396
-29.188
-29.0796
-29.6326
-29.3459
-29.7939
-29.6318
-30.1121
-30.8073
-31.1737
-30.3162
-30.8375
-29.3324
-29.774
-27.1865
-27.9303
-29.4353
-30.5056
-30.8646
-32.0038
-30.946
-32.1329
-30.49
-30.8562
-27.2846
-28.3331
-30.3347
-31.9235
-31.3707
-32.3377
-31.9515
-33.14
-35.3383
-36.2679
-32.2872
-32.9812
-32.2031
-33.6399
-36.5863
-37.9724
-34.7645
-36.6525
-41.6353
-44.8538
-49.0981
-51.7559
-42.1231
-45.0917
-44.0488
-49.1095
-51.3855
-58.5212
-64.7993
-74.596
-86.4054
-99.0622
-118.381
-132.381
-153.8
-186.753
-327.034
-353.702
-357.863
-358.552
134.947
-1.9924
-23.8994
-32.2829
-27.9862
-29.2138
-26.8974
-27.3188
-26.5857
-26.8107
-26.891
-27.0383
-27.6828
-27.6825
-27.9581
-27.6445
-29.2498
-28.791
-29.6588
-29.2494
-29.8293
-29.4766
-30.0507
-29.8825
-31.0387
-30.7446
-30.2757
-29.5024
-30.4904
-29.3848
-27.6796
-27.0187
-30.4114
-30.1524
-30.7788
-29.9906
-32.6313
-31.4606
-31.6136
-30.2082
-27.7564
-26.8272
-31.7128
-31.1693
-32.4074
-31.6351
-32.8113
-32.4856
-35.7464
-34.8393
-33.5289
-32.1425
-33.2395
-32.8415
-37.0848
-36.2396
-36.2474
-35.5364
-42.4005
-42.4444
-49.9953
-47.3571
-45.4162
-41.4761
-47.1484
-44.4651
-54.8945
-52.6319
-69.2668
-67.6005
-92.2892
-91.8717
-125.379
-125.826
-158.254
-175.051
-342.811
-359.084
-359.26
-358.967
116.331
-3.02527
-11.3726
-31.5622
-23.9253
-29.2754
-25.3851
-27.3752
-25.9549
-26.7477
-26.6623
-26.877
-27.6493
-27.3856
-27.803
-26.5166
-30.1427
-28.3412
-30.2892
-28.8269
-30.3501
-29.1224
-30.4995
-29.6001
-31.3283
-30.3227
-30.2475
-28.0969
-31.7322
-29.0197
-28.1311
-25.9451
-31.5338
-29.7638
-30.7497
-27.8405
-34.4693
-30.7355
-32.7998
-29.6022
-28.1674
-25.0889
-33.3082
-30.3439
-33.5246
-30.8548
-33.7313
-31.6878
-36.3215
-33.427
-34.7739
-31.2045
-34.3358
-31.8576
-37.787
-34.4728
-37.7593
-34.1174
-43.4386
-39.7349
-51.3001
-42.9305
-48.7893
-37.4761
-50.5823
-39.2963
-58.9113
-45.9867
-74.4662
-59.5508
-99.177
-83.324
-133.701
-117.993
-163.333
-157.311
-364.646
-365.11
-360.674
-359.37
102.489
-8.49872
1.62749
-31.955
-19.3452
-29.707
-23.638
-27.5683
-25.2359
-26.7202
-26.422
-26.6937
-27.6575
-27.0618
-27.7165
-25.1925
-31.253
-27.7417
-31.0564
-28.2853
-30.9814
-28.6643
-31.0397
-29.213
-31.7276
-29.864
-30.3027
-26.4604
-33.2284
-28.582
-28.635
-24.561
-32.9509
-29.2655
-30.8769
-25.3093
-36.7222
-29.7789
-34.1968
-28.9263
-28.6446
-22.8992
-35.3514
-29.2733
-34.8764
-29.8532
-34.8486
-30.6235
-37.1982
-31.8456
-36.216
-29.999
-35.657
-30.5379
-38.8595
-32.4425
-39.5487
-32.1803
-44.9982
-36.4149
-53.4026
-37.9351
-52.8495
-32.4995
-54.992
-32.8913
-64.2294
-37.685
-81.401
-49.3189
-108.283
-72.1265
-144.664
-107.716
-170.465
-131.036
-394.756
-371.33
-361.963
-359.72
93.0868
-18.8171
16.3755
-34.1959
-13.8468
-30.7964
-21.4914
-28.0126
-24.3648
-26.7646
-26.1595
-26.4833
-27.7288
-26.6885
-27.7578
-23.5256
-32.7469
-26.8698
-32.0677
-27.5256
-31.8138
-28.0193
-31.7487
-28.6529
-32.3027
-29.3139
-30.5299
-24.4002
-35.1818
-27.9572
-29.3046
-22.679
-34.8517
-28.5561
-31.292
-22.0997
-39.7102
-28.3687
-35.9823
-28.0515
-29.3413
-19.9823
-38.1367
-27.7363
-36.6541
-28.4516
-36.3356
-29.1281
-38.5528
-29.8761
-38.0824
-28.3194
-37.41
-28.6814
-40.5223
-29.8721
-41.9179
-29.4364
-47.4145
-32.0727
-56.8039
-31.7248
-58.3207
-25.8093
-61.1854
-24.3486
-71.8626
-26.5725
-91.3672
-35.4443
-121.194
-56.5799
-160.006
-93.4501
-181.683
-92.6328
-436.349
-376.986
-362.965
-359.978
88.1601
-35.0199
34.5536
-39.2742
-6.85706
-32.9366
-18.7125
-28.8642
-23.2525
-26.9298
-25.8605
-26.2368
-27.8921
-26.2316
-28.0118
-21.3214
-34.8453
-25.5557
-33.4693
-26.4136
-32.9704
-27.0741
-32.7315
-27.8237
-33.1443
-28.5964
-31.0518
-21.6644
-37.8564
-26.9903
-30.2941
-20.046
-37.4922
-27.4863
-32.1851
-17.8189
-43.8571
-26.2012
-38.3904
-26.8089
-30.4648
-15.9659
-42.0651
-25.4275
-39.1175
-26.4075
-38.4273
-26.9683
-40.6325
-27.2322
-40.6686
-25.8865
-39.8768
-26.0031
-43.0856
-26.3947
-45.2691
-25.475
-51.1643
-26.1283
-62.1982
-23.448
-66.1564
-16.4039
-70.2674
-12.4318
-83.2076
-11.056
-106.161
-15.9017
-140.117
-34.3103
-182.146
-72.9908
-199.99
-36.917
-494.064
-380.826
-363.523
-360.116
42.1223
53.3847
22.8466
37.3771
32.0611
35.6651
34.8319
34.1468
35.7601
33.0577
36.2567
32.6346
37.2653
32.8052
35.8857
25.0771
45.2427
31.4214
41.5186
31.4861
39.8934
31.4835
39.2554
31.8427
40.3876
32.6148
42.0447
32.6078
40.3708
31.5985
34.4945
24.4914
41.7228
31.7566
36.7292
23.1868
47.5706
31.411
41.9787
31.3596
35.1545
21.772
45.7302
30.6604
42.3175
30.9026
40.4851
30.6009
34.9107
20.1489
47.6561
30.0168
44.3066
30.3079
36.9523
15.5256
55.6189
29.9475
41.9864
6.15057
76.6725
31.475
75.3981
34.403
80.8582
37.2835
88.9035
41.4543
98.9868
47.7641
112.366
60.5086
125.216
79.933
139.344
118.667
115.03
114.227
114.04
113.998
41.672
48.6154
27.4859
36.5857
33.2905
35.6376
35.032
34.524
35.4646
33.6597
35.6926
33.384
36.5505
33.6288
35.3172
28.3853
42.0562
33.2048
39.5849
32.9907
38.3252
32.8318
37.8684
33.1768
39.0692
34.2106
40.5167
34.2579
38.6955
32.5471
33.5964
27.1065
39.1076
32.8373
35.7929
27.1548
43.7086
33.3298
39.8396
32.5567
34.0693
25.4478
42.1231
32.676
40.157
32.6644
38.6632
31.9081
33.7998
24.3641
43.5571
32.506
41.6729
32.2083
35.3501
21.6932
49.622
33.0771
39.2642
16.7547
66.4435
38.6506
68.0549
42.0958
73.2689
45.7639
80.5782
50.773
89.8188
57.9079
102.247
70.2864
115.175
87.9287
130.363
117.985
114.916
114.202
114.034
113.996
40.9442
44.9693
30.9164
36.2905
34.2947
35.7286
35.2288
34.8438
35.2795
34.1087
35.3028
33.9149
36.0799
34.2685
35.0941
30.8699
39.7712
34.3796
38.1707
34.0188
37.1906
33.7596
36.8712
34.0881
38.1816
35.3605
39.492
35.4807
37.4443
33.2085
33.0006
28.9826
37.2239
33.5496
35.321
30.1158
40.9246
34.5738
38.2528
33.4026
33.39
28.1124
39.5616
34.015
38.5961
33.8872
37.3522
32.8701
33.1426
27.4348
40.6685
34.187
39.7849
33.6049
34.4203
26.1978
45.4046
35.2979
37.6902
24.4711
59.3141
43.5386
62.9264
47.5034
68.0269
51.7515
74.8376
57.3377
83.489
65.0015
95.18
76.99
108.019
93.1369
123.575
116.93
114.708
114.155
114.023
113.992
40.0557
42.0467
33.5702
36.2904
35.1621
35.8974
35.4214
35.1313
35.1591
34.4635
35.0167
34.3043
35.7688
34.8033
35.0735
32.83
38.0584
35.1875
37.0748
34.7545
36.3207
34.4262
36.1103
34.7249
37.571
36.2328
38.7935
36.4651
36.4416
33.7094
32.5576
30.3689
35.8173
34.0446
35.1288
32.4367
38.8276
35.4171
37.0077
34.0556
32.9219
30.1084
37.6805
34.9495
37.4073
34.7836
36.3595
33.6423
32.725
29.7482
38.5689
35.3852
38.3686
34.7222
33.8524
29.6056
42.36
37.019
36.741
30.2654
54.2097
47.0202
59.1905
51.4733
64.2569
56.1648
70.7205
62.1563
78.9447
70.1484
90.0475
81.7247
102.699
96.5321
118.269
115.698
114.433
114.091
114.007
113.987
39.0876
39.543
35.7764
36.4446
35.9553
36.115
35.6068
35.4064
35.0679
34.7688
34.7815
34.6068
35.5552
35.2889
35.1538
34.4916
36.6699
35.8054
36.1475
35.335
35.5895
34.95
35.4725
35.1927
37.1282
36.9495
38.2909
37.3576
35.5476
34.1474
32.1565
31.45
34.7
34.4257
35.0879
34.3947
37.1229
36.0607
35.9448
34.6362
32.5213
31.6894
36.2118
35.6767
36.4221
35.5123
35.5388
34.3429
32.3902
31.5901
36.9498
36.3371
37.2177
35.7286
33.4199
32.3337
40.0395
38.5379
36.0399
34.8431
50.3509
49.7276
56.2502
54.6233
61.3219
59.6721
67.5282
65.9607
75.4237
74.1474
86.0438
85.2873
98.464
98.8109
113.936
114.414
114.121
114.016
113.988
113.981
38.1014
37.2082
37.8053
36.6451
36.7226
36.3594
35.7801
35.687
34.9753
35.0617
34.554
34.8645
35.3904
35.7694
35.2552
36.0397
35.4032
36.3752
35.2666
35.873
34.8942
35.4274
34.867
35.5721
36.77
37.6056
37.8795
38.2853
34.6374
34.6091
31.7042
32.3731
33.7238
34.7696
35.1014
36.216
35.57
36.6667
34.9296
35.2492
32.0695
33.0564
34.9456
36.3529
35.5032
36.2037
34.7672
35.0739
32.0094
33.1857
35.5697
37.2294
36.1617
36.7679
32.9385
34.7101
38.0874
40.0966
35.2868
38.7526
47.1373
52.1492
53.6359
57.4402
58.721
62.7992
64.7128
69.3239
72.3322
77.6194
82.5461
88.2926
94.7425
100.499
110.189
113.16
113.801
113.938
113.968
113.975
37.1509
34.8138
39.9044
36.7961
37.5074
36.6124
35.9338
35.9924
34.8507
35.3782
34.2936
35.1136
35.2313
36.2856
35.3047
37.6445
34.0721
37.0281
34.3169
36.4743
34.1384
35.9485
34.2108
35.9317
36.4263
38.284
37.4626
39.3751
33.5823
35.1858
31.1088
33.2688
32.7596
35.1418
35.0835
38.1076
33.9473
37.3858
33.8321
36.002
31.451
34.3871
33.6986
37.1193
34.5222
36.9805
33.9258
35.9396
31.4589
34.7329
34.2185
38.2307
35.0386
37.9846
32.2331
37.0223
36.1899
41.9281
34.2026
42.4653
44.0585
54.7117
50.9289
60.3581
56.0081
66.0129
61.7896
72.7512
69.1496
81.1059
79.0157
91.2697
91.0488
102.029
106.71
112
113.501
113.864
113.95
113.969
36.2939
32.1221
42.3312
36.7941
38.3563
36.8564
36.0578
36.3455
34.6591
35.759
33.9568
35.3904
35.0344
36.8829
35.221
39.4855
32.4796
37.9075
33.1722
37.255
33.2164
36.6111
33.4158
36.34
36.0277
39.0693
36.9361
40.7728
32.231
35.9894
30.2637
34.2709
31.6795
35.6114
34.9419
40.2862
32.0204
38.3843
32.5053
37.0234
30.5327
35.8625
32.2868
38.126
33.3387
37.9775
32.8814
37.0649
30.5979
36.4313
32.686
39.5199
33.6698
39.5489
31.1058
39.5591
34.0293
44.2979
32.4787
46.4447
40.6173
57.8516
47.6933
63.827
52.7209
69.7957
58.2589
76.761
65.3447
85.1543
74.9116
94.746
86.9073
103.811
103.207
110.991
113.247
113.802
113.934
113.964
35.6035
28.8549
45.3876
36.5077
39.3273
37.072
36.1379
36.7771
34.3555
36.2554
33.4901
35.7384
34.7489
37.6201
34.8997
41.7769
30.3892
39.1928
31.6743
38.3601
31.9966
37.5369
32.3757
36.8772
35.4945
40.061
36.1703
42.665
30.3871
37.1718
29.0286
35.5364
30.3379
36.2644
34.5593
43.0087
29.5077
39.8721
30.7621
38.4846
29.141
37.6937
30.498
39.5573
31.7777
39.3633
31.4652
38.6156
29.2443
38.5125
30.7298
41.3161
31.8313
41.6857
29.3022
42.6548
31.2365
47.5509
29.7231
51.2155
36.2533
62.087
43.4058
68.3854
48.3064
74.7229
53.5266
81.9676
60.2909
90.4049
69.6046
99.3293
81.7762
106.294
99.3693
110.204
113.062
113.757
113.923
113.961
35.1828
24.6561
49.4601
35.753
40.5008
37.2343
36.1546
37.3306
33.8786
36.9378
32.8223
36.2153
34.3085
38.5804
34.1941
44.7983
27.4906
41.1305
29.6076
39.9866
30.3
38.8901
30.9483
37.6493
34.7226
41.3905
34.9885
45.3076
27.7802
38.9508
27.2069
37.2695
28.5507
37.2221
33.7699
46.6086
26.0397
42.1381
28.3449
40.6278
27.0328
40.1541
28.0583
41.6615
29.6015
41.368
29.4466
40.8267
27.1447
41.2751
28.0384
43.9145
29.2188
44.7116
26.4687
46.7409
27.334
52.1692
25.3943
57.4441
30.2571
68.1027
37.3717
74.746
42.032
81.5546
46.8089
89.179
53.1655
97.6922
62.2768
105.804
74.9626
110.035
94.8212
109.736
112.963
113.733
113.917
113.959
-41.2567
-28.8003
-53.1197
-35.8627
-42.0467
-35.9515
-36.667
-35.3341
-33.3444
-34.1646
-31.3067
-33.1232
-31.4
-34.0361
-30.598
-37.5639
-23.3272
-34.95
-24.8423
-36.1408
-26.7777
-35.6884
-27.9499
-34.5754
-31.7115
-38.0385
-31.8915
-41.4614
-25.2345
-35.3918
-24.6725
-33.5719
-25.6206
-33.2447
-29.9824
-41.7201
-22.497
-37.7203
-24.5043
-36.603
-22.9931
-36.4157
-23.9134
-38.4314
-25.898
-38.706
-26.9792
-38.4513
-28.3743
-37.966
-34.6844
-46.8539
-27.7116
-41.0847
-36.6578
-52.0099
-28.4951
-45.1553
-40.4989
-57.6466
-44.8074
-75.938
-25.6118
-64.5461
-29.9889
-67.4585
-32.3432
-73.6777
-34.3365
-82.8339
-39.4924
-96.4038
-55.4263
-110.139
-110.888
-136.502
-142.68
-144.203
-144.57
-144.653
-41.7548
-33.4304
-48.6812
-37.0517
-40.4104
-36.1616
-36.2655
-35.1581
-33.4331
-33.7566
-31.6737
-32.7901
-31.699
-33.3841
-31.0757
-35.3301
-25.3734
-32.8866
-26.9174
-34.484
-28.5286
-34.3529
-29.3755
-33.8342
-32.4632
-36.7847
-33.0141
-39.0254
-27.6456
-33.7931
-26.3202
-32.0341
-27.208
-32.3787
-30.6825
-38.3692
-25.707
-35.5115
-26.8367
-34.4552
-25.0866
-33.8451
-26.4388
-36.1611
-28.2354
-36.629
-29.1083
-36.6295
-30.2699
-36.8488
-35.6971
-43.7319
-30.7841
-39.6677
-37.9943
-48.1451
-32.3063
-43.4667
-42.1666
-54.3169
-47.5765
-67.7615
-33.4749
-58.3306
-36.2618
-60.8754
-38.7708
-66.1055
-41.6212
-74.0331
-47.9558
-86.9686
-64.9489
-105.467
-116.723
-137.279
-142.866
-144.249
-144.581
-144.656
-42.5857
-37.1171
-45.3174
-37.6408
-39.078
-36.1971
-35.9119
-35.0064
-33.4393
-33.4443
-31.9122
-32.5448
-31.8864
-32.8911
-31.2902
-33.6641
-26.7202
-31.3619
-28.4504
-33.3676
-29.8076
-33.4489
-30.4229
-33.3256
-32.9865
-35.854
-33.7448
-37.2845
-29.3549
-32.7385
-27.4396
-30.9172
-28.3949
-31.7867
-31.0066
-35.8316
-28.0178
-34.0412
-28.5167
-32.9862
-26.4543
-31.9204
-28.2784
-34.596
-29.9193
-35.188
-30.635
-35.3624
-31.6473
-36.0402
-36.3417
-41.4486
-32.9826
-38.6723
-38.8573
-45.3193
-35.0368
-42.2759
-43.2957
-51.7423
-49.268
-61.7633
-38.9718
-53.9916
-40.6669
-56.1605
-43.2203
-60.6057
-46.6298
-67.5716
-53.8154
-79.9743
-71.9698
-101.966
-122.186
-138.654
-143.22
-144.336
-144.602
-144.662
-43.6352
-40.2569
-42.5885
-37.8651
-37.9179
-36.1284
-35.5827
-34.8807
-33.3822
-33.193
-32.0635
-32.3506
-32.0068
-32.5019
-31.3451
-32.3703
-27.6031
-30.1387
-29.6697
-32.5896
-30.7981
-32.811
-31.2325
-32.9461
-33.381
-35.1218
-34.249
-36.0017
-30.6111
-32.0306
-28.2075
-30.0398
-29.3446
-31.3609
-31.1059
-33.7989
-29.7744
-33.0322
-29.7964
-31.9568
-27.3415
-30.3594
-29.7191
-33.4702
-31.2048
-34.1393
-31.7899
-34.4324
-32.6999
-35.3947
-36.7936
-39.7076
-34.6144
-37.8965
-39.4686
-43.1626
-37.066
-41.3334
-44.1273
-49.6039
-50.3601
-57.176
-42.9557
-50.7859
-43.9188
-52.5826
-46.4563
-56.36
-50.2413
-62.4978
-58.0781
-74.3464
-77.4704
-98.8556
-127.799
-140.506
-143.712
-144.458
-144.632
-144.67
-44.8196
-43.1681
-40.1416
-37.898
-36.8313
-36.0097
-35.2594
-34.7865
-33.2724
-32.9789
-32.1579
-32.1813
-32.0932
-32.1784
-31.3125
-31.3078
-28.1935
-29.0353
-30.753
-31.9997
-31.6359
-32.3163
-31.9102
-32.6174
-33.7229
-34.4937
-34.6478
-35.0043
-31.5945
-31.5321
-28.7487
-29.2631
-30.1854
-31.0257
-31.0868
-32.0346
-31.2394
-32.2826
-30.8598
-31.1979
-27.923
-28.9444
-30.9838
-32.5846
-32.2819
-33.3015
-32.7448
-33.677
-33.5749
-34.8007
-37.1844
-38.2866
-35.9109
-37.1888
-39.9946
-41.3972
-38.6802
-40.4494
-44.8511
-47.654
-51.2096
-53.4299
-46.0573
-48.1678
-46.5492
-49.5959
-49.051
-52.7549
-53.1175
-58.0907
-61.513
-69.2441
-82.2404
-95.4428
-134.061
-142.738
-144.302
-144.602
-144.666
-144.68
-46.0701
-46.1343
-37.6633
-37.8838
-35.7348
-35.888
-34.925
-34.7339
-33.1136
-32.7859
-32.2184
-32.0163
-32.1726
-31.8928
-31.2453
-30.3695
-28.6255
-27.8968
-31.8551
-31.4741
-32.4319
-31.865
-32.5431
-32.2725
-34.078
-33.8901
-35.0383
-34.1574
-32.4438
-31.1422
-29.1579
-28.4699
-31.0294
-30.7215
-31.0322
-30.3398
-32.6307
-31.6315
-31.8527
-30.5835
-28.3325
-27.4886
-32.2658
-31.7751
-33.3061
-32.5267
-33.6399
-32.9628
-34.3967
-34.1602
-37.6264
-37.0045
-37.061
-36.4198
-40.5767
-39.7965
-40.1148
-39.46
-45.6388
-45.6739
-52.1123
-50.0673
-48.7795
-45.6987
-48.9929
-46.7528
-51.4755
-49.2834
-55.8093
-53.7457
-64.7756
-63.9312
-87.0022
-91.0133
-141.52
-145.254
-144.942
-144.756
-144.703
-144.69
-47.318
-49.4419
-34.8374
-37.9645
-34.5462
-35.811
-34.5597
-34.7385
-32.9033
-32.6025
-32.2643
-31.8371
-32.2696
-31.622
-31.1873
-29.4661
-29.017
-26.5709
-33.1309
-30.8951
-33.289
-31.364
-33.2141
-31.8448
-34.513
-33.2332
-35.5101
-33.3438
-33.2768
-30.7798
-29.5154
-27.5469
-31.9882
-30.3926
-31.0178
-28.5259
-34.1538
-30.9317
-32.9052
-30.0084
-28.6858
-25.808
-33.7587
-30.8848
-34.4227
-31.6762
-34.6068
-32.1643
-35.2854
-33.3717
-38.232
-35.6954
-38.2392
-35.4589
-41.3563
-38.152
-41.5885
-38.1973
-46.6723
-43.4377
-53.3545
-46.6746
-51.5735
-42.9747
-51.6581
-43.6313
-54.1768
-45.4633
-58.8447
-48.877
-68.5132
-57.6617
-92.5264
-84.724
-150.851
-147.931
-145.578
-144.905
-144.738
-144.7
-48.4811
-53.4187
-31.3024
-38.3071
-33.1706
-35.8349
-34.1375
-34.824
-32.6318
-32.4209
-32.3141
-31.6239
-32.41
-31.343
-31.181
-28.5122
-29.4887
-24.885
-34.7588
-30.1312
-34.3192
-30.7123
-34.0142
-31.2559
-35.1063
-32.4344
-36.16
-32.4467
-34.2073
-30.3684
-29.9013
-26.3678
-33.1889
-29.9753
-31.1285
-26.3875
-36.0311
-30.0243
-34.153
-29.3707
-29.1017
-23.6946
-35.6849
-29.7383
-35.7911
-30.599
-35.789
-31.1436
-36.3759
-32.3126
-39.1338
-34.1834
-39.6306
-34.1513
-42.5003
-36.2421
-43.3356
-36.4603
-48.1746
-40.6758
-55.2608
-42.819
-54.9076
-39.5597
-54.9919
-39.7672
-57.6486
-40.7596
-62.8143
-42.8243
-73.4705
-49.5637
-99.7574
-75.4776
-162.943
-150.587
-146.146
-145.033
-144.768
-144.708
-49.4467
-58.4779
-26.6028
-39.1357
-31.4833
-36.0337
-33.6203
-35.025
-32.2815
-32.2357
-32.3877
-31.352
-32.6251
-31.0283
-31.2756
-27.4129
-30.1841
-22.6206
-36.9673
-29.0152
-35.6617
-29.7848
-35.0573
-30.4032
-35.9609
-31.3803
-37.108
-31.3312
-35.3624
-29.8227
-30.4105
-24.7752
-34.7914
-29.3838
-31.4754
-23.6742
-38.5351
-28.7122
-35.7577
-28.553
-29.7236
-20.8858
-38.3291
-28.1124
-37.6098
-29.1071
-37.3651
-29.7284
-37.8387
-30.8186
-40.507
-32.256
-41.4597
-32.2911
-44.2292
-33.7987
-45.6419
-33.9803
-50.4458
-37.0311
-58.2487
-37.9827
-59.3397
-34.914
-59.5524
-34.5792
-62.5117
-34.4985
-68.466
-34.7464
-80.6101
-38.5019
-109.968
-61.7617
-179.029
-152.926
-146.582
-145.128
-144.79
-144.714
-50.0514
-65.1737
-20.1272
-40.7721
-29.3082
-36.5115
-32.9509
-35.3925
-31.8238
-32.043
-32.5093
-30.9884
-32.9555
-30.6404
-31.5351
-26.0489
-31.2936
-19.4804
-40.0683
-27.3159
-37.5058
-28.412
-36.4981
-29.1426
-37.2218
-29.9144
-38.5168
-29.824
-36.9009
-29.0326
-31.1692
-22.5571
-37.0116
-28.4931
-32.2187
-20.0551
-42.027
-26.7259
-37.9331
-27.4009
-30.7465
-17.0265
-42.0804
-25.6986
-40.1491
-26.9453
-39.5777
-27.6839
-39.9073
-28.6569
-42.5985
-29.6311
-44.0242
-29.5873
-46.8534
-30.465
-48.8891
-30.3758
-53.9129
-32.0017
-62.8966
-31.4821
-65.6037
-28.3063
-66.0979
-27.2755
-69.613
-25.7586
-76.8256
-23.4856
-91.2689
-22.8974
-124.965
-41.427
-200.85
-154.474
-146.822
-145.179
-144.801
-144.717
40.8811
51.9335
15.7292
33.3517
20.4114
28.9211
25.5414
29.1273
24.964
26.5543
27.1513
26.3514
28.5675
26.545
27.9207
22.2554
28.384
16.4063
37.5751
25.3926
34.7997
27.013
33.295
28.0033
30.5253
23.0025
30.8217
16.9848
39.5178
26.8767
31.6349
19.6138
44.0258
29.2272
44.9154
29.8699
42.6864
28.7576
39.3511
29.1326
34.5658
15.9744
50.6349
26.8858
44.7481
27.7576
41.5824
28.0645
34.3483
13.9437
58.6296
28.8624
56.1586
27.6946
52.4562
27.4505
49.7028
27.1996
36.857
1.21816
70.2327
26.0378
66.4965
29.2842
67.591
31.4244
70.4295
33.8817
74.6244
37.2871
80.9987
43.2682
91.8693
56.0331
100.89
41.7204
218.852
175.373
168.748
167.449
40.4392
46.7843
20.6163
31.2466
22.882
28.4157
26.2448
28.515
25.6573
26.666
27.1366
26.6905
28.2787
26.9618
27.6511
23.7358
27.1577
19.5579
34.4335
26.9156
33.1027
28.0765
32.1336
28.6284
29.9914
24.8259
29.2529
20.3894
36.0674
28.0092
30.4797
23.0661
40.6868
31.7915
42.3632
32.4765
40.0373
30.6697
37.2929
30.4835
33.5521
21.6632
45.1548
29.9788
41.3871
30.2427
38.9608
29.81
32.8807
20.3756
52.5748
34.022
50.9495
32.1208
47.8942
31.488
45.5679
30.2173
34.3675
11.7147
60.0812
32.7177
59.5402
35.7507
61.0857
37.981
63.8913
40.6434
67.8975
44.3414
73.9635
50.6168
84.4483
62.8996
94.9603
63.3287
196.62
173.901
168.537
167.398
39.7438
42.9359
24.0318
29.9017
24.797
28.219
26.7711
28.1083
26.1967
26.7998
27.1593
26.949
28.1068
27.2992
27.5664
24.9235
26.3731
21.8113
32.1884
27.8913
31.8552
28.7776
31.2757
29.0597
29.7196
26.2665
28.2167
22.8134
33.5674
28.7216
29.721
25.5179
38.4096
33.5782
40.6303
34.3863
38.0665
31.9433
35.773
31.4404
33.1379
25.9378
41.2226
32.0096
38.9295
31.9346
37.0552
31.0679
32.0374
25.0206
48.5513
37.7636
47.1719
35.1643
44.6208
34.3074
42.6116
32.4564
32.9515
19.3719
52.9604
37.2316
54.6099
40.2537
56.5195
42.5785
59.321
45.3866
63.2046
49.27
69.0487
55.6799
79.244
67.6233
91.5798
78.3417
180.629
171.735
168.158
167.303
38.9208
39.9716
26.4567
28.9961
26.3714
28.2174
27.1864
27.8321
26.636
26.944
27.2053
27.1534
28.0143
27.5942
27.5989
25.9481
25.8297
23.4679
30.531
28.5373
30.89
29.2564
30.6071
29.3769
29.6131
27.4919
27.4755
24.592
31.6923
29.201
29.1712
27.2869
36.8422
34.8905
39.4303
35.9001
36.4888
32.8198
34.5807
32.1571
33.0805
29.3141
38.2713
33.3961
37.0294
33.1428
35.5949
32.0485
31.5146
28.4447
45.9016
40.6985
44.2521
37.3503
42.1393
36.3832
40.3948
34.2706
32.0996
25.1435
47.8135
40.4224
50.9503
43.5331
53.1629
45.95
55.979
48.8611
59.7831
52.8516
65.4612
59.2671
75.4486
70.9254
89.6885
88.735
169.087
169.359
167.671
167.175
38.056
37.5902
28.2396
28.2973
27.7672
28.3313
27.535
27.63
27.0155
27.0904
27.2642
27.3216
27.9733
27.8727
27.698
26.912
25.3765
24.748
29.2365
29.0099
30.0849
29.6164
30.0423
29.6359
29.6015
28.6336
26.8495
25.9717
30.2015
29.5826
28.6961
28.599
35.7357
35.9438
38.5536
37.2497
35.0821
33.4797
33.5563
32.7406
33.2114
32.1821
35.874
34.4429
35.4309
34.0981
34.3752
32.9094
31.094
31.0484
44.159
43.2838
41.7511
39.0693
40.0803
38.0691
38.5842
35.9274
31.4399
29.7309
43.8698
42.8973
48.0092
46.1314
50.4808
48.6327
53.3239
51.6149
57.0766
55.6524
62.6267
61.9602
72.4823
73.2969
88.5869
95.8771
160.75
167.062
167.138
167.027
37.2098
35.5642
29.6463
27.6221
29.1194
28.4997
27.8481
27.4563
27.3675
27.233
27.328
27.4663
27.9627
28.1543
27.8216
27.906
24.8872
25.8236
28.1307
29.4307
29.3417
29.9409
29.5109
29.8802
29.6274
29.8082
26.1875
27.1474
28.9048
29.9751
28.1897
29.6219
34.9065
36.9012
37.8338
38.6342
33.6529
34.0726
32.5679
33.2728
33.4026
34.8615
33.6818
35.3932
33.9254
34.9893
33.2256
33.7845
30.6028
33.1261
42.9761
45.8957
39.2965
40.641
38.1424
39.6542
36.9007
37.6577
30.6694
33.6847
40.5309
45.1291
45.3481
48.481
48.047
51.0541
50.9251
54.0822
54.646
58.1176
60.0982
64.2061
69.9046
75.0898
87.8055
100.716
154.755
165.014
166.612
166.875
36.4295
33.7091
30.8972
26.806
30.5561
28.6693
28.1507
27.2704
27.7213
27.3663
27.3899
27.5965
27.9641
28.4568
27.9285
29.024
24.2395
26.8443
27.065
29.9069
28.5708
30.3063
28.9475
30.1493
29.6358
31.1347
25.3421
28.291
27.6355
30.4817
27.5545
30.4905
34.2088
37.9009
37.119
40.2497
32.0076
34.7424
31.4909
33.8279
33.5404
37.6462
31.3739
36.4704
32.3185
35.9935
31.9828
34.809
29.8832
34.9106
42.0702
48.8881
36.5238
42.3662
36.044
41.4097
35.0766
39.6977
29.4985
37.485
37.2817
47.5359
42.5702
50.9731
45.4753
53.6007
48.3946
56.653
52.0988
60.6422
57.4843
66.3881
67.3472
76.5811
87.0161
103.91
150.511
163.313
166.139
166.733
35.7579
31.8575
32.1991
25.6761
32.2181
28.7839
28.4675
27.031
28.107
27.4842
27.4441
27.7199
27.9601
28.7997
27.9701
30.3767
23.2958
27.9598
25.894
30.5498
27.6766
30.795
28.2811
30.4864
29.5632
32.7523
24.1465
29.5783
26.2255
31.2187
26.6842
31.3273
33.5115
39.0791
36.2472
42.3196
29.9226
35.651
30.1897
34.4873
33.5019
40.8454
28.6105
37.917
30.3978
37.3044
30.4659
36.1429
28.7648
36.6091
41.1773
52.6472
33.0223
44.5773
33.4774
43.6324
32.8137
42.3298
27.5995
41.6122
33.6135
50.5507
39.2568
54.0204
42.3579
56.6799
45.3247
59.7355
49.0268
63.634
54.3872
68.8871
64.458
78.0236
85.9676
105.915
147.618
162.01
165.755
166.615
35.2421
29.836
33.7753
24.0232
34.2788
28.7734
28.8286
26.6906
28.5601
27.5782
27.4852
27.8441
27.9315
29.2087
27.8816
32.1084
21.8817
29.3439
24.4535
31.4932
26.5419
31.5083
27.4252
30.948
29.3254
34.841
22.3886
31.2161
24.4809
32.336
25.4459
32.2616
32.6781
40.5923
35.0184
45.1273
27.1116
37.0064
28.4974
35.3572
33.1293
44.8269
24.9846
40.0357
27.8992
39.1642
28.4475
37.9981
27.0366
38.4378
40.0074
57.649
28.2725
47.6935
30.0595
46.6931
29.7363
45.9306
24.5497
46.6187
28.9467
54.6935
34.9
58.1235
38.1999
60.7848
41.2229
63.8215
44.941
67.5786
50.3388
72.1419
60.8477
79.6896
84.4375
107.048
145.816
161.132
165.485
166.53
34.9424
27.4403
35.8988
21.5695
36.9695
28.54
29.277
26.1893
29.1267
27.636
27.5075
27.9786
27.8547
29.7212
27.5702
34.4174
19.7593
31.2213
22.535
32.9153
25.0097
32.5827
26.2642
31.6145
28.8011
37.6474
19.7786
33.4755
22.1517
34.0421
23.6584
33.4508
31.5438
42.644
33.1612
49.059
23.1832
39.0968
26.1891
36.5894
32.1986
50.0689
19.9618
43.2408
24.4634
41.9021
25.6172
40.6726
24.4126
40.6584
38.1934
64.5304
21.5696
52.2907
25.2696
51.096
25.3315
51.0331
19.7605
53.2135
22.5418
60.6566
28.821
63.9511
32.3401
66.5742
35.4332
69.5651
39.1928
73.1168
44.7272
76.719
56.0303
81.9178
82.1914
107.533
144.951
160.69
165.346
166.485
)
;

boundaryField
{
    F1_1
    {
        type            calculated;
        value           nonuniform List<scalar> 
80
(
375.213
-112.466
-122.785
-27.8186
-53.8071
-25.606
-36.4266
-25.5142
-30.6962
-26.4445
-28.4219
-27.5093
-28.0244
-29.5037
-28.0542
-35.6108
-22.2707
-32.885
-24.8213
-33.0154
-25.6574
-32.5684
-26.5044
-31.7258
-29.2103
-34.4953
-28.5179
-40.4372
-20.3404
-34.9674
-21.5511
-33.7372
-23.3082
-33.5347
-29.2799
-45.8606
-18.17
-39.5203
-21.8126
-38.0561
-20.4791
-37.7235
-21.214
-39.0119
-23.5098
-38.427
-25.2657
-37.1391
-32.2343
-48.3712
-20.8731
-40.3133
-23.9813
-38.3651
-32.8767
-51.8481
-21.5679
-42.8669
-36.1823
-59.0296
-40.1316
-86.9358
-10.5294
-72.8481
-17.3852
-81.8872
-21.7918
-98.1034
-29.1907
-120.215
-43.674
-144.411
-73.2562
-173.2
-114.633
-201.629
-300.381
-342.001
-354.4
-357.454
)
;
    }
    F1_2
    {
        type            calculated;
        value           nonuniform List<scalar> 
80
(
35.0551
22.2731
51.8054
35.2313
41.15
37.2985
36.1442
37.6443
33.5878
37.3359
32.4278
36.4945
34.04
39.1287
33.7234
46.5317
25.7946
42.2984
28.4007
40.9589
29.3065
39.6975
30.1174
38.1093
34.2621
42.1585
34.2678
46.8537
26.2464
40.0216
26.1204
38.2823
27.5195
37.7951
33.2489
48.6756
24.0138
43.5081
26.9302
41.9056
25.7639
41.5809
26.6366
42.918
28.3249
42.5585
28.2529
42.1319
25.8711
42.8695
26.4642
45.4573
27.6746
46.4934
24.7425
49.0934
25.0368
54.8905
22.7572
61.0178
26.7501
71.6547
33.8175
78.4799
38.3239
85.5563
42.8405
93.4024
48.9664
101.965
57.9902
109.627
71.0361
112.299
92.3173
109.596
112.938
113.727
113.915
113.958
)
;
    }
    F1_3
    {
        type            calculated;
        value           nonuniform List<scalar> 
80
(
-41.1076
-26.1936
-55.6699
-35.0839
-42.9599
-35.7927
-36.8832
-35.4281
-33.2764
-34.3977
-31.0851
-33.317
-31.2161
-34.4102
-30.278
-38.8514
-22.0948
-36.1505
-23.6366
-37.1335
-25.7577
-36.488
-27.1224
-35.019
-31.2642
-38.7641
-31.208
-42.8876
-23.8173
-36.3564
-23.6906
-34.4721
-24.7035
-33.7622
-29.516
-43.643
-20.6174
-39.0499
-23.1382
-37.8819
-21.7289
-37.903
-22.4382
-39.7814
-24.529
-39.9388
-25.7306
-39.5323
-27.2692
-38.6227
-34.0606
-48.6673
-25.9126
-41.928
-35.8388
-54.2554
-26.2647
-46.1601
-39.4959
-59.5459
-43.0839
-80.682
-20.9647
-68.2313
-26.2817
-71.3233
-28.5241
-78.1004
-29.9978
-87.9564
-34.4646