/*--------------------------------*- C++ -*----------------------------------*\
| =========                 |                                                 |
| \\      /  F ield         | OpenFOAM: The Open Source CFD Toolbox           |
|  \\    /   O peration     | Version:  5.x                                   |
|   \\  /    A nd           | Web:      www.OpenFOAM.org                      |
|    \\/     M anipulation  |                                                 |
\*---------------------------------------------------------------------------*/
FoamFile
{
    version     2.0;
    format      ascii;
    class       volScalarField;
    location    "1.2";
    object      T;
}
// * * * * * * * * * * * * * * * * * * * * * * * * * * * * * * * * * * * * * //

dimensions      [0 0 0 1 0 0 0];

internalField   nonuniform List<scalar> 
3200
(
1.87607
19.3677
26.038
26.5128
28.2903
28.4313
29.1051
29.1597
29.4507
29.4719
29.5715
29.5761
29.5777
29.5703
29.4558
29.4181
28.8191
28.766
28.3542
28.3133
27.9543
27.9197
27.6235
27.5974
27.4228
27.3964
27.0889
27.0293
26.1617
26.0885
25.4871
25.4262
24.8674
24.8163
24.4819
24.399
23.1677
23.0609
22.2159
22.1347
21.3602
21.274
20.403
20.314
19.5492
19.4746
18.8285
18.7691
18.3646
18.284
17.1404
17.0432
16.2484
16.1765
15.6989
15.604
14.3035
14.197
13.5538
13.4396
12.2098
11.9758
8.70076
8.38917
5.58151
5.259
2.10134
1.71978
-2.03123
-2.48635
-6.8123
-7.31598
-11.6845
-12.1842
-16.1729
-16.6079
-17.1016
-17.3097
-17.3717
-17.387
4.92854
18.6759
25.0579
26.1825
27.8177
28.1539
28.7656
28.8951
29.1545
29.2044
29.2911
29.3011
29.2978
29.2795
29.1722
29.0844
28.5745
28.4515
28.0912
27.9958
27.6847
27.6045
27.3476
27.286
27.1248
27.0626
26.7938
26.6573
25.9265
25.76
25.25
25.1087
24.614
24.4923
24.1791
23.9863
22.941
22.6953
21.9673
21.7819
21.1279
20.9282
20.1596
19.9509
19.2865
19.1132
18.5523
18.4115
18.0294
17.8428
16.8898
16.668
15.9797
15.8091
15.3548
15.1338
14.0401
13.7898
13.1709
12.8939
11.7687
11.2281
8.47693
7.76053
5.30825
4.55353
1.77238
0.873523
-2.45498
-3.53367
-7.40193
-8.6055
-12.5718
-13.7767
-17.4614
-18.6218
-20.1169
-20.7356
-20.9176
-20.9622
7.43112
18.2787
24.2882
25.8318
27.397
27.8655
28.4454
28.6253
28.8667
28.9353
29.0138
29.0267
29.0185
28.9924
28.8879
28.7676
28.3145
28.1465
27.8176
27.687
27.406
27.2964
27.064
26.9787
26.8228
26.7372
26.4935
26.309
25.6688
25.4452
24.9981
24.8054
24.3458
24.1759
23.8714
23.6078
22.6823
22.3489
21.6969
21.4478
20.8774
20.6051
19.8938
19.6061
19.0041
18.7673
18.2594
18.0636
17.6863
17.4322
16.61
16.3115
15.6903
15.453
15.0014
14.6985
13.7429
13.3974
12.7742
12.3822
11.3041
10.5688
8.17172
7.20133
4.96709
3.92912
1.36811
0.124442
-2.96873
-4.46943
-8.09818
-9.78453
-13.5696
-15.27
-18.8509
-20.6224
-23.1672
-24.179
-24.469
-24.5391
9.4998
18.0751
23.6971
25.4803
27.0203
27.5727
28.1412
28.3531
28.5859
28.6659
28.7391
28.7531
28.74
28.7083
28.6041
28.4642
28.0431
27.848
27.536
27.3843
27.1204
26.9932
26.7745
26.6743
26.518
26.4181
26.1908
25.979
25.3944
25.1394
24.7361
24.5128
24.0659
23.865
23.5621
23.2557
22.4
22.0153
21.4105
21.1267
20.6151
20.2996
19.611
19.2738
18.7072
18.4323
17.9541
17.723
17.3383
17.0445
16.3093
15.9678
15.3855
15.1056
14.6421
14.2893
13.4214
13.0161
12.3683
11.8979
10.8259
9.97599
7.80945
6.69269
4.57809
3.36563
0.911152
-0.550672
-3.54619
-5.32009
-8.87215
-10.8796
-14.6509
-16.6881
-20.3128
-22.5922
-26.2789
-27.6513
-28.0293
-28.1189
11.2255
17.9896
23.2596
25.1385
26.683
27.2793
27.8514
28.08
28.3112
28.3968
28.4668
28.4807
28.4622
28.4272
28.3219
28.172
27.7628
27.5541
27.2481
27.0861
26.8293
26.6937
26.4802
26.3721
26.211
26.1042
25.8874
25.664
25.1068
24.8395
24.4669
24.2292
23.7762
23.5582
23.253
22.9257
22.0989
21.6905
21.1112
20.8146
20.3449
20.0091
19.3143
18.9508
18.3987
18.1054
17.6389
17.3885
16.9866
16.6744
15.9929
15.6339
15.0687
14.7655
14.2784
13.9007
13.0814
12.6445
11.9554
11.4378
10.3389
9.43587
7.4052
6.22398
4.15299
2.85181
0.414472
-1.16446
-4.17255
-6.09965
-9.70794
-11.9043
-15.8015
-18.0427
-21.8286
-24.5057
-29.4833
-31.1634
-31.6011
-31.7024
12.6806
17.9639
22.9578
24.8101
26.3837
26.9868
27.5752
27.8069
28.0423
28.1283
28.1967
28.2095
28.1852
28.149
28.0414
27.8903
27.4744
27.2642
26.9544
26.7916
26.5334
26.3973
26.1818
26.072
25.9019
25.7947
25.5844
25.3623
24.8077
24.5439
24.1924
23.9542
23.4772
23.2549
22.9448
22.6157
21.7811
21.3726
20.8007
20.5095
20.0694
19.7329
19.0044
18.6354
18.0798
17.7855
17.3151
17.0602
16.6315
16.3191
15.6636
15.3082
14.7415
14.4328
13.9104
13.5298
12.7261
12.283
11.5356
11.0009
9.84397
8.94087
6.96699
5.79086
3.69711
2.38344
-0.116557
-1.7211
-4.84218
-6.81201
-10.6003
-12.8609
-17.0185
-19.3357
-23.3888
-26.3272
-32.8196
-34.7253
-35.1866
-35.29
13.9244
17.9497
22.7816
24.4928
26.1233
26.695
27.3134
27.5336
27.7795
27.8606
27.929
27.9399
27.9086
27.8736
27.7627
27.6192
27.1778
26.9783
26.6549
26.5011
26.2327
26.1041
25.8792
25.7744
25.5902
25.4893
25.2819
25.0739
24.497
24.2518
23.9134
23.6888
23.168
22.9552
22.6374
22.3259
21.4463
21.0613
20.4789
20.2104
19.7897
19.4725
18.6801
18.3274
17.7505
17.4727
16.9826
16.7388
16.2717
15.9776
15.3223
14.991
14.4039
14.1086
13.5367
13.1759
12.3564
11.9338
11.1074
10.5889
9.33896
8.48873
6.49688
5.39446
3.21002
1.96251
-0.683418
-2.2171
-5.55789
-7.45166
-11.5537
-13.7417
-18.3091
-20.5593
-24.9936
-28.0067
-36.3395
-38.3451
-38.7863
-38.8817
15.0072
17.9034
22.7303
24.1788
25.9052
26.4013
27.0675
27.2594
27.5232
27.5933
27.6635
27.672
27.6322
27.6012
27.4853
27.36
26.8715
26.6974
26.3486
26.2151
25.9264
25.8149
25.5718
25.48
25.2753
25.1882
24.9795
24.8003
24.1731
23.9635
23.6298
23.4353
22.8465
22.6596
22.3298
22.0589
21.0917
20.7579
20.1447
19.9175
19.506
19.2312
18.3382
18.0285
17.4093
17.1684
16.6404
16.4264
15.9051
15.6506
14.9681
14.6841
14.0547
13.7956
13.1547
12.8404
11.9709
11.6007
10.6669
10.2062
8.81797
8.08226
5.9912
5.04134
2.68546
1.59751
-1.29478
-2.64083
-6.3315
-8.00302
-12.5838
-14.5274
-19.6925
-21.6955
-26.6554
-29.4734
-40.1125
-42.0275
-42.4
-42.4774
15.9742
17.7798
22.8142
23.8537
25.7364
26.1009
26.8406
26.9823
27.2747
27.3262
27.4005
27.406
27.3554
27.3323
27.2084
27.1153
26.5527
26.4235
26.0338
25.9354
25.6131
25.5309
25.2584
25.1902
24.9557
24.892
24.6759
24.5447
23.8325
23.6802
23.3407
23.1976
22.509
22.3698
22.0199
21.8197
20.7119
20.4657
19.795
19.6319
19.2168
19.0145
17.973
17.742
17.053
16.8756
16.2857
16.1263
15.5278
15.3407
14.598
14.3911
13.6908
13.4979
12.7596
12.527
11.5654
11.2902
10.2074
9.86058
8.2709
7.73003
5.43988
4.74447
2.11018
1.30469
-1.96801
-2.9708
-7.18591
-8.43804
-13.7194
-15.1842
-21.2024
-22.7136
-28.4029
-30.6274
-44.2346
-45.7717
-46.0256
-46.0761
16.869
17.527
23.0579
23.4949
25.6283
25.7854
26.6377
26.6991
27.0359
27.0581
27.1403
27.1423
27.0776
27.0675
26.9302
26.8894
26.2166
26.16
25.7073
25.6646
25.2902
25.2545
24.9369
24.907
24.6292
24.6019
24.3689
24.3123
23.4694
23.4044
23.0437
22.9818
22.1495
22.0885
21.704
21.6169
20.2975
20.1905
19.425
19.3565
18.9192
18.8315
17.5755
17.4738
16.6762
16.5994
15.9137
15.8439
15.134
15.0531
14.2064
14.1177
13.3065
13.222
12.3442
12.2429
11.1325
11.012
9.71858
9.56472
7.68189
7.44777
4.82479
4.52515
1.46176
1.11054
-2.73203
-3.17228
-8.15885
-8.71191
-15.0077
-15.659
-22.8926
-23.5645
-30.2891
-31.3261
-48.8395
-49.5672
-49.6593
-49.6769
28.1432
28.2124
29.6431
29.7319
30.0956
30.1173
30.1638
30.1598
30.0527
30.0365
29.8465
29.8245
29.5823
29.5555
29.2941
29.2286
28.2116
28.1278
27.5044
27.4441
26.9348
26.8842
26.4324
26.3873
25.945
25.8975
25.3831
25.3265
24.7906
24.7391
24.4054
24.3451
23.5205
23.4598
23.0716
22.9894
21.7629
21.665
20.9831
20.9202
20.5029
20.4219
19.2708
19.1788
18.4784
18.4098
17.818
17.7595
17.3197
17.2302
15.9157
15.8079
14.9531
14.8699
14.2323
14.1022
12.1813
12.026
10.9447
10.726
7.42519
7.14752
4.72527
4.47586
1.95574
1.69033
-1.07386
-1.36333
-4.40047
-4.7138
-8.02512
-8.34343
-11.5715
-11.8516
-14.5506
-14.6786
-14.6977
-14.7018
-14.7028
-14.703
28.563
28.719
29.8984
30.1002
30.4231
30.4734
30.5131
30.5033
30.4084
30.3705
30.2057
30.1553
29.9507
29.8883
29.649
29.4984
28.6454
28.4528
27.9083
27.768
27.3246
27.207
26.8168
26.7136
26.341
26.233
25.7944
25.6622
25.1846
25.0607
24.7449
24.6053
23.9225
23.7839
23.4328
23.2441
22.2161
21.9908
21.3905
21.2409
20.8477
20.661
19.7069
19.4975
18.889
18.7293
18.2122
18.0731
17.6618
17.4562
16.3681
16.123
15.3808
15.184
14.5917
14.2933
12.7021
12.344
11.3473
10.8492
8.13145
7.50516
5.43579
4.8653
2.71922
2.11314
-0.234323
-0.893837
-3.46508
-4.1762
-6.96132
-7.68015
-10.3783
-11.0039
-13.2085
-13.4941
-13.5477
-13.5596
-13.5624
-13.563
28.9766
29.1847
30.1928
30.4636
30.7614
30.83
30.8644
30.8503
30.7619
30.7097
30.5604
30.4922
30.3133
30.2281
30.0004
29.7963
29.0527
28.7919
28.2961
28.1039
27.7013
27.5408
27.1897
27.0508
26.7264
26.5817
26.1934
26.0117
25.5645
25.39
25.0774
24.8872
24.3027
24.1165
23.7875
23.5325
22.6371
22.3316
21.7799
21.5714
21.1843
20.9309
20.1132
19.8323
19.2816
19.0631
18.5913
18.3976
17.9957
17.7174
16.7868
16.4581
15.7866
15.514
14.9393
14.5361
13.1737
12.6875
11.7299
11.0611
8.75406
7.92053
6.08636
5.31777
3.42111
2.6056
0.5377
-0.347872
-2.6041
-3.55565
-5.98018
-6.93771
-9.26799
-10.093
-11.9433
-12.3189
-12.3994
-12.4178
-12.4221
-12.4231
29.3819
29.6184
30.5167
30.826
31.1089
31.188
31.2177
31.2002
31.114
31.0527
30.9118
30.8336
30.6723
30.5736
30.3509
30.1158
29.4408
29.1404
28.6717
28.4483
28.0684
27.8822
27.5542
27.3954
27.1046
26.9402
26.5842
26.3718
25.9335
25.7249
25.4049
25.1849
24.667
24.4549
24.1392
23.8465
23.0346
22.6823
22.1555
21.909
21.5155
21.2233
20.4981
20.1778
19.6609
19.4071
18.9593
18.7305
18.3247
18.0048
17.1815
16.8068
16.1765
15.8561
15.2801
14.8172
13.6102
13.0499
12.1011
11.3386
9.31773
8.37593
6.69432
5.81537
4.07976
3.14817
1.26243
0.252917
-1.7953
-2.87617
-5.05773
-6.14035
-8.21791
-9.14112
-10.7371
-11.1555
-11.2535
-11.2765
-11.2819
-11.2832
29.7777
30.0256
30.8642
31.1894
31.4647
31.548
31.5728
31.5529
31.4651
31.399
31.2607
31.1783
31.0287
30.9242
30.7019
30.4529
29.8139
29.4956
29.0376
28.799
28.4277
28.2293
27.9119
27.7453
27.4778
27.3064
26.9693
26.741
26.2934
26.0642
25.7285
25.4946
25.019
24.7974
24.49
24.1812
23.4137
23.04
22.52
22.2525
21.8427
21.533
20.8669
20.5313
20.0297
19.7588
19.3185
19.0705
18.6502
18.3124
17.5582
17.1658
16.5539
16.2085
15.6164
15.1282
14.0209
13.4279
12.4648
11.6664
9.83825
8.86094
7.27017
6.34724
4.70625
3.7289
1.95211
0.895253
-1.0252
-2.15268
-4.17923
-5.30321
-7.21402
-8.16235
-9.57792
-10.0049
-10.1107
-10.136
-10.142
-10.1433
30.1636
30.4093
31.2323
31.5549
31.8281
31.9103
31.9298
31.9083
31.8154
31.7481
31.6074
31.5257
31.3834
31.2794
31.054
30.8056
30.1742
29.8565
29.3947
29.155
28.7802
28.5812
28.2637
28.0993
27.8472
27.6792
27.35
27.1189
26.6445
26.4078
26.0481
25.8139
25.361
25.1434
24.841
24.5344
23.777
23.4035
22.8744
22.6017
22.1659
21.8571
21.2224
20.8914
20.3893
20.1173
19.67
19.4173
18.9725
18.6367
17.9205
17.5335
16.9208
16.5707
15.9485
15.4639
14.411
13.8207
12.8219
12.0355
10.3247
9.37049
7.81932
6.90783
5.3062
4.34161
2.61299
1.57213
-0.286825
-1.39322
-3.33685
-4.43461
-6.24863
-7.16491
-8.45833
-8.86721
-8.97111
-8.99621
-9.00219
-9.00355
30.5398
30.7698
31.6203
31.9223
32.1991
32.2752
32.2884
32.2667
32.1646
32.1002
31.9518
31.8756
31.7365
31.6396
31.407
31.1737
30.5219
30.2231
29.7429
29.5165
29.1256
28.9379
28.6093
28.4567
28.2132
28.0585
27.7269
27.5067
26.9861
26.7564
26.3626
26.142
25.6935
25.4928
25.1921
24.9055
24.1251
23.7733
23.2186
22.9575
22.4841
22.1941
21.5658
21.2583
20.7398
20.4829
20.0138
19.7719
19.2904
18.9761
18.2696
17.9103
17.2772
16.9438
16.2751
15.8224
14.7826
14.2298
13.1705
12.4415
10.781
9.90392
8.34289
7.49604
5.88067
4.98488
3.24637
2.28173
0.421444
-0.600288
-2.52831
-3.53736
-5.31917
-6.15238
-7.37415
-7.74172
-7.83469
-7.85722
-7.8626
-7.86383
30.9067
31.1055
32.0303
32.2908
32.5782
32.6426
32.6485
32.6282
32.5124
32.4557
32.2933
32.228
32.088
32.0051
31.7601
31.5585
30.8556
30.597
30.081
29.8845
29.463
29.3002
28.9479
28.8179
28.5757
28.4449
28.0993
27.9065
27.3161
27.1116
26.6702
26.4793
26.0162
25.8463
25.5426
25.2965
24.456
24.1512
23.5511
23.3217
22.7949
22.5448
21.8963
21.6337
21.0798
20.8569
20.3485
20.1361
19.6017
19.3313
18.6048
18.2981
17.6216
17.3304
16.5932
16.2043
15.1348
14.6593
13.5059
12.8848
11.2059
10.4647
8.8379
8.115
6.42636
5.66187
3.84879
3.02715
1.09617
0.228894
-1.75654
-2.60921
-4.42765
-5.12433
-6.32413
-6.62722
-6.70109
-6.71892
-6.72319
-6.72416
31.2656
31.4123
32.4669
32.6582
32.9662
33.0123
33.0096
32.9936
32.8578
32.8154
32.6309
32.5834
32.4372
32.3772
32.1114
31.9634
31.1715
30.9813
30.4064
30.2616
29.79
29.6701
29.2776
29.1835
28.9337
28.8399
28.4656
28.3221
27.6307
27.4762
26.9679
26.8274
26.3271
26.2051
25.8909
25.7113
24.7655
24.541
23.8687
23.6979
23.0947
22.9114
22.2115
22.0208
21.4066
21.2424
20.6714
20.5132
19.9024
19.7048
18.9233
18.7007
17.9506
17.7348
16.8973
16.6136
15.4632
15.1158
13.8201
13.3704
11.5933
11.061
9.29676
8.77258
6.93509
6.3808
4.41154
3.81695
1.72834
1.1028
-1.03008
-1.64244
-3.58102
-4.07616
-5.31
-5.5219
-5.56974
-5.58118
-5.58392
-5.58454
31.6187
31.6826
32.9381
33.021
33.3647
33.384
33.3712
33.3637
33.1995
33.1808
32.9631
32.9428
32.783
32.7575
32.4581
32.394
31.4634
31.3809
30.7145
30.6517
30.1029
30.0509
29.5954
29.5554
29.2856
29.2461
28.8227
28.7598
27.9239
27.855
27.2508
27.19
26.6229
26.5715
26.2338
26.1567
25.0461
24.9487
24.1663
24.0914
23.3778
23.2987
22.5063
22.4249
21.7153
21.6442
20.9778
20.9085
20.1865
20.1016
19.2194
19.1245
18.2582
18.1641
17.1792
17.0574
15.7595
15.6103
14.1004
13.9091
11.931
11.7065
9.70602
9.4827
7.39249
7.15633
4.91932
4.66651
2.30198
2.03699
-0.364444
-0.622627
-2.79213
-2.99844
-4.33675
-4.42314
-4.43985
-4.44379
-4.44474
-4.44495
31.3603
31.4349
32.8129
32.9158
33.4082
33.444
33.5593
33.5666
33.5269
33.5213
33.3992
33.3881
33.2801
33.2641
33.0612
33.0183
32.3317
32.2615
31.591
31.5236
30.9598
30.9062
30.4528
30.4133
30.1521
30.1146
29.7144
29.656
28.8845
28.8218
28.2769
28.223
27.719
27.6738
27.3698
27.2992
26.2671
26.175
25.4181
25.3444
24.6313
24.5504
23.726
23.6393
22.8776
22.8006
22.1072
22.0382
21.4288
21.372
20.987
20.9139
19.9343
19.8542
19.3525
19.2604
18.0457
17.9462
17.3444
17.2441
16.1943
16.0063
13.4464
13.21
11.1312
10.906
8.74845
8.50057
6.0414
5.7516
2.90059
2.56348
-0.51422
-0.829083
-2.51121
-2.65357
-2.68533
-2.69312
-2.695
-2.69543
30.9463
31.1208
32.3072
32.5494
32.9968
33.0829
33.1948
33.2142
33.1928
33.182
33.0839
33.0588
32.9642
32.9275
32.752
32.6555
32.0862
31.924
31.3306
31.1721
30.6818
30.5573
30.165
30.072
29.8305
29.7414
29.3886
29.2556
28.618
28.4776
28.0203
27.8963
27.4537
27.3465
27.0653
26.9012
26.0234
25.8111
25.1594
24.9911
24.3887
24.2011
23.4721
23.2685
22.605
22.4259
21.8249
21.6645
21.134
20.9989
20.6339
20.4635
19.6391
19.4518
18.9778
18.7628
17.7384
17.5047
16.9294
16.6867
15.729
15.2944
13.1438
12.6014
10.7942
10.27
8.38682
7.80802
5.65465
4.97449
2.45539
1.65426
-1.12374
-1.90313
-3.65089
-4.0208
-4.11261
-4.13526
-4.14073
-4.14196
30.5252
30.7663
31.8392
32.1747
32.6
32.7208
32.834
32.8634
32.8582
32.8462
32.7658
32.7323
32.6461
32.5964
32.4396
32.3117
31.8243
31.6037
31.0527
30.8339
30.3892
30.2191
29.8653
29.7366
29.5028
29.3789
29.0541
28.8754
28.3316
28.146
27.7505
27.5823
27.1749
27.0262
26.7561
26.5318
25.753
25.4647
24.8814
24.6553
24.1296
23.8735
23.1972
22.9161
22.3129
22.068
21.5251
21.3056
20.8234
20.635
20.273
20.0393
19.3186
19.0608
18.5926
18.2975
17.3996
17.0769
16.5011
16.1578
15.2428
14.6511
12.7769
12.0434
10.4059
9.68845
7.97303
7.17846
5.20897
4.27094
1.94147
0.824113
-1.8132
-2.93843
-4.84567
-5.39914
-5.54265
-5.57809
-5.58662
-5.58854
30.0946
30.3785
31.4008
31.7966
32.2153
32.359
32.4765
32.514
32.524
32.5131
32.4457
32.4079
32.3265
32.2697
32.1262
31.9822
31.5517
31.2967
30.7616
30.5047
30.0857
29.8883
29.5566
29.4055
29.1708
29.0244
28.7137
28.5099
28.0309
27.8228
27.4716
27.2779
26.8858
26.7108
26.4452
26.1846
25.463
25.1302
24.5891
24.3314
23.8596
23.5627
22.9066
22.5766
22.0066
21.7221
21.2122
20.9573
20.501
20.2781
19.907
19.6345
18.9795
18.6783
18.2006
17.8564
17.0377
16.6592
16.0635
15.6518
14.7437
14.0591
12.3644
11.5216
9.98086
9.14681
7.52242
6.5959
4.72205
3.62306
1.37908
0.0547724
-2.56313
-3.94245
-6.09461
-6.79388
-6.97701
-7.02199
-7.03277
-7.0352
29.6525
29.9612
30.9875
31.4174
31.8416
31.9982
32.1223
32.1658
32.1906
32.1823
32.1245
32.0853
32.006
31.9464
31.8127
31.6643
31.2722
31.001
30.4593
30.1821
29.7733
29.5629
29.2406
29.0777
28.8352
28.6764
28.3691
28.1554
27.7194
27.5054
27.1863
26.9815
26.588
26.399
26.134
25.8558
25.1575
24.8041
24.2854
24.0162
23.5827
23.2663
22.6029
22.2467
21.6888
21.3852
20.8893
20.617
20.1694
19.9271
19.5371
19.2451
18.6263
18.3029
17.8033
17.4343
16.6582
16.2502
15.6185
15.1657
14.2356
13.5076
11.9178
11.0277
9.52755
8.6368
7.04391
6.05126
4.20415
3.02099
0.779909
-0.662815
-3.36261
-4.91554
-7.40165
-8.20926
-8.41688
-8.46725
-8.47925
-8.48194
29.1982
29.5151
30.598
31.0386
31.4786
31.6388
31.7714
31.8183
31.8586
31.8535
31.8025
31.7643
31.6846
31.6261
31.4999
31.3561
30.9879
30.716
30.1465
29.8647
29.453
29.242
28.9184
28.7531
28.4963
28.3345
28.0208
27.8098
27.399
27.1922
26.8966
26.6927
26.2821
26.0902
25.8234
25.5439
24.8382
24.4846
23.9719
23.7075
23.3012
22.9838
22.2869
21.9249
21.3609
21.0561
20.5573
20.2837
19.8295
19.5821
19.1633
18.8688
18.2613
17.9345
17.4007
17.0285
16.2641
15.8502
15.1664
14.6987
13.7195
12.9905
11.4432
10.5583
9.04988
8.15489
6.5414
5.5408
3.6597
2.46124
0.148817
-1.33011
-4.20794
-5.8513
-8.77582
-9.64863
-9.86304
-9.91404
-9.9261
-9.92879
28.7311
29.0385
30.2342
30.6598
31.1269
31.2804
31.4238
31.4711
31.5283
31.5266
31.4801
31.4449
31.3625
31.3085
31.1878
31.0569
30.6997
30.443
29.8222
29.5526
29.1246
28.9256
28.5898
28.4323
28.1536
27.9986
27.6683
27.4723
27.0705
26.8825
26.6032
26.4121
25.9674
25.7845
25.5134
25.249
24.5049
24.1715
23.6484
23.4045
23.0161
22.7166
21.9575
21.6112
21.0227
20.7347
20.2165
19.9577
19.4814
19.2439
18.7846
18.505
17.8851
17.5745
16.9917
16.6384
15.856
15.461
14.7057
14.2522
13.1933
12.5062
10.9422
10.1137
8.54769
7.70174
6.01439
5.06559
3.08796
1.94607
-0.515603
-1.94144
-5.10265
-6.73581
-10.2321
-11.1143
-11.3157
-11.3624
-11.3733
-11.3757
28.2518
28.5263
29.9012
30.2793
30.7877
30.9225
31.0802
31.1235
31.2005
31.2015
31.1573
31.1275
31.0392
30.9936
30.8762
30.7668
30.4075
30.1846
29.4839
29.2468
28.7872
28.6147
28.2541
28.1162
27.806
27.6698
27.3105
27.143
26.7335
26.5766
26.3063
26.1417
25.6423
25.4824
25.2031
24.9733
24.1552
23.866
23.3138
23.1073
22.7275
22.4677
21.6117
21.3072
20.6725
20.4225
19.8652
19.6404
19.1238
18.9147
18.3987
18.1549
17.4965
17.2254
16.5736
16.2654
15.4323
15.0863
14.233
13.83
12.6524
12.057
10.4117
9.69876
8.01672
7.28226
5.45786
4.63154
2.48281
1.4837
-1.22145
-2.48334
-6.05847
-7.54578
-11.7928
-12.6073
-12.7746
-12.8121
-12.8209
-12.8228
27.7615
27.9701
29.6081
29.8936
30.4635
30.5637
30.7411
30.7746
30.8757
30.8782
30.8338
30.8125
30.7143
30.6817
30.5642
30.4866
30.1099
29.9453
29.127
28.95
28.4382
28.3113
27.9095
27.8071
27.4515
27.35
26.9451
26.8233
26.3864
26.2751
26.0052
25.8848
25.3036
25.185
24.8908
24.7213
23.7843
23.571
22.9653
22.8171
22.4341
22.2427
21.2438
21.0164
20.3069
20.1227
19.5007
19.3348
18.7539
18.5977
18.0019
17.8214
17.0924
16.8915
16.1417
15.9135
14.9892
14.7318
13.7422
13.4387
12.0881
11.6499
9.84403
9.32255
7.44785
6.90639
4.86142
4.25039
1.83167
1.08959
-1.98501
-2.93271
-7.0978
-8.24536
-13.4909
-14.1261
-14.2387
-14.263
-14.2687
-14.2699
27.2629
27.3567
29.3692
29.4966
30.1581
30.2019
30.4078
30.423
30.5549
30.5568
30.5095
30.5005
30.3867
30.3731
30.2507
30.2185
29.8039
29.7322
28.7445
28.6665
28.0739
28.019
27.5529
27.5082
27.0868
27.0422
26.5684
26.5163
26.0262
25.9801
25.6981
25.6462
24.9465
24.8947
24.5736
24.4999
23.3844
23.2917
22.5986
22.5362
22.133
22.05
20.8451
20.7449
19.9203
19.8404
19.1179
19.0459
18.367
18.2983
17.5886
17.5098
16.6673
16.5795
15.689
15.5895
14.5195
14.4067
13.2241
13.0894
11.4874
11.2974
9.22495
9.00048
6.82567
6.59068
4.20763
3.94157
1.11349
0.788775
-2.83365
-3.25338
-8.25782
-8.78101
-15.3734
-15.6658
-15.7062
-15.7147
-15.7166
-15.7171
25.4017
25.471
27.0208
27.1297
27.8836
27.9349
28.1596
28.1814
28.3875
28.3972
28.3827
28.3776
28.2758
28.2636
28.1346
28.1012
27.6519
27.579
26.5841
26.5094
25.9696
25.9225
25.5541
25.5225
25.3045
25.26
24.7
24.616
23.5341
23.4574
23.0313
22.9576
21.8726
21.7811
20.929
20.8386
19.988
19.9049
19.2466
19.1856
18.7262
18.6134
16.8647
16.7206
15.64
15.5378
14.6929
14.6125
14.0197
13.8942
11.896
11.7139
10.0205
9.84977
8.36165
8.21128
6.86501
6.73159
5.7209
5.50428
2.23946
1.96852
-0.304825
-0.530521
-2.67205
-2.89147
-5.0482
-5.27026
-7.48959
-7.71706
-10.0305
-10.2617
-12.6751
-12.8965
-15.1562
-15.5346
-22.2851
-22.5648
-22.6001
-22.6068
25.8091
25.9608
27.2069
27.4503
28.1017
28.2206
28.4191
28.469
28.6411
28.6632
28.654
28.643
28.5597
28.5314
28.4119
28.332
27.9282
27.7615
26.9415
26.7726
26.3077
26.199
25.8804
25.8062
25.6063
25.5003
24.9987
24.8059
23.9092
23.7331
23.3406
23.174
22.293
22.0885
21.363
21.1525
20.3995
20.204
19.6282
19.4849
19.065
18.8059
17.339
17.0082
16.0679
15.8303
15.0934
14.9034
14.3538
14.0711
12.446
12.0327
10.5516
10.1531
8.85945
8.50971
7.33779
7.02114
6.07359
5.57743
2.88191
2.26895
0.319191
-0.199359
-2.03457
-2.53848
-4.3826
-4.89149
-6.78318
-7.30246
-9.2621
-9.78542
-11.8002
-12.2954
-14.1849
-14.9899
-20.226
-20.816
-20.9132
-20.9324
26.2104
26.4067
27.4331
27.7547
28.3412
28.5032
28.6845
28.7517
28.9006
28.9305
28.9254
28.9114
28.8413
28.8028
28.6876
28.5759
28.195
27.9702
27.2728
27.0477
26.6316
26.484
26.1968
26.095
25.9043
25.7565
25.285
25.0238
24.2555
24.0176
23.6409
23.4189
22.6863
22.4169
21.7763
21.4881
20.7887
20.5183
19.9925
19.7952
19.3973
19.0467
17.7678
17.3202
16.4677
16.1427
15.4721
15.2087
14.6773
14.3017
12.9475
12.3943
11.0395
10.4922
9.31953
8.84104
7.77637
7.33594
6.40825
5.73858
3.44109
2.62288
0.88598
0.184493
-1.45033
-2.13185
-3.77038
-4.45739
-6.13164
-6.83023
-8.55118
-9.24941
-10.9861
-11.6385
-13.257
-14.268
-18.3527
-19.0868
-19.2294
-19.2588
26.604
26.8195
27.6875
28.0484
28.5977
28.785
28.9545
29.0311
29.165
29.1992
29.1972
29.182
29.1218
29.0774
28.9632
28.8305
28.4557
28.1977
27.5852
27.3304
26.9448
26.7746
26.5059
26.3874
26.2007
26.0256
25.563
25.2621
24.5806
24.3076
23.9351
23.6843
23.0612
22.7601
22.1756
21.8402
21.1608
20.8428
20.3436
20.1137
19.7277
19.3247
18.1635
17.6484
16.8465
16.4689
15.8345
15.5248
14.9945
14.5715
13.417
12.788
11.4951
10.8564
9.75187
9.19586
8.19002
7.67027
6.73262
5.96487
3.94112
3.01358
1.41139
0.605715
-0.904184
-1.68691
-3.19618
-3.98376
-5.51909
-6.31706
-7.88113
-8.67182
-10.2153
-10.943
-12.3533
-13.4231
-16.6134
-17.3812
-17.55
-17.5864
26.9889
27.2061
27.9622
28.3346
28.8686
29.0675
29.2282
29.3083
29.4334
29.4694
29.4695
29.4545
29.4016
29.3547
29.2396
29.0948
28.7116
28.4395
27.8834
27.6184
27.2494
27.0691
26.809
26.6826
26.4966
26.3063
25.8345
25.5157
24.8893
24.6016
24.2244
23.9647
23.4232
23.1147
22.5649
22.2061
21.5185
21.1747
20.6841
20.4384
20.0589
19.633
18.5333
17.9881
17.2083
16.8055
16.184
15.8497
15.3076
14.8706
13.8655
13.2083
11.9245
11.2392
10.1623
9.56871
8.58427
8.02135
7.05024
6.24145
4.39736
3.43132
1.90498
1.05515
-0.387074
-1.21285
-2.65079
-3.48017
-4.93598
-5.7732
-7.24196
-8.06407
-9.47712
-10.22
-11.4632
-12.4933
-14.971
-15.6996
-15.8759
-15.9153
27.3651
27.5713
28.2523
28.6143
29.153
29.3516
29.5052
29.5837
29.7053
29.741
29.7425
29.7285
29.6813
29.6348
29.5172
29.3687
28.9632
28.6927
28.17
27.9106
27.5465
27.3669
27.1067
26.9801
26.7927
26.5983
26.1
25.7816
25.1846
24.8992
24.509
24.2563
23.7759
23.479
22.9467
22.5852
21.8625
21.5124
21.0148
20.7685
20.3919
19.9683
18.8809
18.3372
17.5551
17.1509
16.522
16.183
15.6164
15.1925
14.3002
13.6537
12.3301
11.6377
10.5535
9.95724
8.9617
8.38881
7.36142
6.55949
4.81852
3.87153
2.37157
1.52834
0.105433
-0.714256
-2.1297
-2.95146
-4.37756
-5.20402
-6.6286
-7.43262
-8.76567
-9.47703
-10.5816
-11.5055
-13.3985
-14.04
-14.2073
-14.2458
27.7331
27.9174
28.5551
28.887
29.451
29.6375
29.7852
29.8575
29.9807
30.014
30.0161
30.0038
29.9609
29.9178
29.796
29.6529
29.2094
28.956
28.446
28.207
27.8362
27.668
27.3992
27.2802
27.0891
26.9025
26.3583
26.0586
25.4674
25.2011
24.7882
24.5571
24.1213
23.8527
23.3216
22.9788
22.1915
21.8561
21.3354
21.1038
20.7269
20.3302
19.2069
18.6959
17.8868
17.5053
16.8485
16.5254
15.9196
15.5332
14.725
14.1262
12.7105
12.052
10.9252
10.3618
9.32228
8.77451
7.66363
6.91514
5.20798
4.33391
2.81195
2.02478
0.573866
-0.191771
-1.63229
-2.39852
-3.84306
-4.61085
-6.04
-6.77995
-8.07903
-8.71824
-9.7071
-10.479
-11.8759
-12.3993
-12.5437
-12.5778
28.0937
28.2455
28.8702
29.1504
29.7641
29.925
30.0682
30.1291
30.2597
30.2883
30.2903
30.2804
30.2405
30.204
30.0757
29.9492
29.448
29.2296
28.7113
28.5087
28.1179
27.973
27.6857
27.5831
27.3854
27.221
26.6068
26.3474
25.7373
25.5089
25.0601
24.8661
24.4601
24.237
23.689
23.3902
22.5026
22.2073
21.6446
21.445
21.0628
20.7212
19.5084
19.0666
18.2015
17.8708
17.1617
16.8791
16.2141
15.8907
15.1416
14.6314
13.0606
12.4851
11.2744
10.7854
9.66323
9.18277
7.95139
7.30919
5.56415
4.82225
3.22298
2.54781
1.01494
0.357759
-1.16181
-1.8184
-3.33558
-3.99117
-5.47891
-6.10485
-7.41872
-7.94541
-8.84125
-9.42734
-10.3882
-10.7737
-10.8845
-10.9112
28.4482
28.5546
29.1991
29.4005
30.0954
30.2132
30.3545
30.3981
30.5428
30.5637
30.5649
30.5582
30.5201
30.4938
30.3554
30.2605
29.6753
29.5152
28.9639
28.818
28.3898
28.2839
27.9648
27.8899
27.6804
27.5575
26.8412
26.6502
25.9919
25.8255
25.3218
25.1836
24.7915
24.6343
24.0465
23.8252
22.79
22.5692
21.9392
21.7936
21.397
21.1471
19.7791
19.4543
18.4948
18.2514
17.4578
17.2482
16.4949
16.2653
15.5486
15.1791
13.3709
12.9436
11.5947
11.2344
9.97855
9.6211
8.21562
7.74739
5.88025
5.34492
3.59708
3.10518
1.42102
0.941826
-0.725799
-1.20381
-2.86253
-3.33817
-4.95225
-5.4022
-6.78987
-7.15777
-7.98775
-8.36068
-8.92354
-9.15912
-9.22858
-9.24554
28.7985
28.8422
29.5457
29.6309
30.4497
30.5005
30.6448
30.663
30.8309
30.8399
30.84
30.8373
30.7992
30.7881
30.6334
30.5914
29.8856
29.8165
29.2003
29.1386
28.6488
28.6032
28.2342
28.2021
27.9719
27.9178
27.0546
26.9717
26.2269
26.1556
25.569
25.5113
25.1136
25.0488
24.3894
24.2928
23.0448
22.9474
22.2145
22.1522
21.7253
21.6178
20.0081
19.8673
18.7595
18.6541
17.7306
17.6391
16.7548
16.6595
15.9417
15.7844
13.626
13.4389
11.8755
11.7193
10.258
10.1014
8.44239
8.24156
6.14309
5.91612
3.92098
3.71028
1.77894
1.57346
-0.337349
-0.541972
-2.43676
-2.6396
-4.47213
-4.66202
-6.20177
-6.35162
-7.1525
-7.28639
-7.47191
-7.55111
-7.57477
-7.58058
)
;

boundaryField
{
    F1_1
    {
        type            fixedValue;
        value           nonuniform List<scalar> 
80
(
0
19.93
26.6519
26.6519
28.5593
28.5593
29.2872
29.2872
29.6042
29.6042
29.7136
29.7136
29.7178
29.7178
29.5961
29.5961
28.9304
28.9304
28.4783
28.4783
28.0826
28.0826
27.756
27.756
27.5688
27.5688
27.2315
27.2315
26.2634
26.2634
25.5949
25.5949
24.984
24.984
24.6283
24.6283
23.2585
23.2585
22.325
22.325
21.4626
21.4626
20.5091
20.5091
19.6667
19.6667
18.9548
18.9548
18.5258
18.5258
17.2448
17.2448
16.3683
16.3683
15.8633
15.8633
14.4114
14.4114
13.7348
13.7348
12.4105
12.4105
8.75341
8.75341
5.66844
5.66844
2.2103
2.2103
-1.88528
-1.88528
-6.59393
-6.59393
-11.3182
-11.3182
-15.5997
-15.5997
-15.5997
-15.5997
-15.5997
-15.5997
)
;
    }
    F1_2
    {
        type            fixedValue;
        value           nonuniform List<scalar> 
80
(
31.794
31.794
33.1971
33.1971
33.5705
33.5705
33.552
33.552
33.3674
33.3674
33.1252
33.1252
32.9532
32.9532
32.6267
32.6267
31.5924
31.5924
30.8565
30.8565
30.2494
30.2494
29.746
29.746
29.4569
29.4569
28.994
28.994
28.0551
28.0551
27.3814
27.3814
26.7605
26.7605
26.4001
26.4001
25.1662
25.1662
24.301
24.301
23.5066
23.5066
22.6395
22.6395
21.857
21.857
21.1191
21.1191
20.3159
20.3159
19.3517
19.3517
18.3966
18.3966
17.3029
17.3029
15.8847
15.8847
14.2142
14.2142
12.0647
12.0647
9.8751
9.8751
7.58411
7.58411
5.13352
5.13352
2.54682
2.54682
-0.0744935
-0.0744935
-2.43695
-2.43695
-3.87516
-3.87516
-3.87516
-3.87516
-3.87516
-3.87516
)
;
    }
    F1_3
    {
        type            fixedValue;
        value           nonuniform List<scalar> 
80
(
31.5659
31.5659
33.0912
33.0912
33.623
33.623
33.7437
33.7437
33.6933
33.6933
33.5547
33.5547
33.4361
33.4361
33.2125
33.2125
32.4422
32.4422
31.7092
31.7092
31.0886
31.0886
30.5884
30.5884
30.3084
30.3084
29.8704
29.8704
29.0036
29.0036
28.3953
28.3953
27.8426
27.8426
27.5174
27.5174
26.3702
26.3702
25.5338
25.5338
24.7399
24.7399
23.8382
23.8382
23.0003
23.0003
22.2359
22.2359
21.5651
21.5651
21.1573
21.1573
20.0638
20.0638
19.5317
19.5317
18.177
18.177
17.5419
17.5419
16.4097
16.4097
13.5512
13.5512
11.2626
11.2626
8.89107
8.89107
6.19139
6.19139
3.07291
3.07291
-0.264717
-0.264717
-1.97217
-1.97217
-1.97217
-1.97217
-1.97217
-1.97217
)
;
    }
    F1_4
    {
        type            fixedValue;
        value           nonuniform List<scalar> 
80
(
28.9728
28.9728
29.7314
29.7314
30.6422
30.6422
30.7924
30.7924
30.9782
30.9782
30.9775
30.9775
30.9382
30.9382
30.7701
30.7701
29.978
29.978
29.3075
29.3075
28.7694
28.7694
28.3621
28.3621
28.1142
28.1142
27.1457
27.1457
26.331
26.331
25.682
25.682
25.268
25.268
24.5496
24.5496
23.1493
23.1493
22.3388
22.3388
21.8831
21.8831
20.0932
20.0932
18.8718
18.8718
17.8504
17.8504
16.869
16.869
16.1271
16.1271
13.7142
13.7142
11.9878
11.9878
10.3716
10.3716
8.52661
8.52661
6.23709
6.23709
4.04724
4.04724
1.92338
1.92338
-0.177242
-0.177242
-2.25772
-2.25772
-4.26492
-4.26492
-5.93551
-5.93551
-6.74821
-6.74821
-6.74821
-6.74821
-6.74821
-6.74821
)
;
    }
    F2_1
    {
        type            fixedValue;
        value           nonuniform List<scalar> 
80
(
17.3032
17.3032
23.2816
23.2816
25.6138
25.6138
26.5521
26.5521
26.9228
26.9228
27.0118
27.0118
26.9376
26.9376
26.7892
26.7892
26.0362
26.0362
25.5358
25.5358
25.1219
25.1219
24.7703
24.7703
24.461
24.461
24.2119
24.2119
23.2724
23.2724
22.8892