/*--------------------------------*- C++ -*----------------------------------*\
| =========                 |                                                 |
| \\      /  F ield         | OpenFOAM: The Open Source CFD Toolbox           |
|  \\    /   O peration     | Version:  5.x                                   |
|   \\  /    A nd           | Web:      www.OpenFOAM.org                      |
|    \\/     M anipulation  |                                                 |
\*---------------------------------------------------------------------------*/
FoamFile
{
    version     2.0;
    format      ascii;
    class       volScalarField;
    location    "0.8";
    object      gradTy;
}
// * * * * * * * * * * * * * * * * * * * * * * * * * * * * * * * * * * * * * //

dimensions      [0 -1 0 1 0 0 0];

internalField   nonuniform List<scalar> 
3200
(
233.031
-124.698
-106.474
-58.5607
-55.6963
-45.946
-39.9323
-39.8932
-33.9375
-37.2264
-31.3715
-35.4496
-32.9904
-38.6286
-29.6564
-43.7895
-15.7699
-33.9225
-19.2738
-33.3314
-20.2201
-31.7855
-20.8199
-29.4564
-24.6781
-32.7046
-21.3917
-36.1382
-8.2203
-25.461
-8.37618
-22.0998
-8.50386
-19.3259
-13.1778
-27.0478
-1.33371
-17.9158
-3.37612
-15.4943
-1.95116
-12.6468
-0.871697
-10.7372
-1.23999
-9.02547
-1.28951
-6.83651
-3.12243
-8.72269
1.42505
-4.2113
1.26375
-2.29125
0.0761202
-3.24853
2.49241
-0.625363
1.08869
-1.58712
1.00982
-3.57082
3.96886
-2.16843
3.39981
-3.70181
2.86968
-6.69347
1.93433
-11.1176
-0.880019
-18.3465
-7.11413
-28.8591
-17.1778
-41.5864
-74.1761
-87.8015
-91.8285
-92.8169
183.207
-90.483
-92.7856
-59.1845
-53.5461
-45.561
-39.9266
-39.147
-34.5469
-36.3493
-32.2126
-34.8432
-33.5297
-37.1107
-30.8293
-39.4384
-19.9545
-31.3736
-21.9806
-31.1108
-22.5348
-29.9737
-22.7434
-28.4295
-25.7242
-30.8581
-22.9641
-31.9013
-12.3521
-22.8717
-11.1008
-19.7765
-10.9382
-18.0341
-14.3428
-23.0586
-5.20972
-15.5505
-5.91566
-13.4835
-4.01508
-10.6767
-2.87154
-9.17978
-2.87748
-7.81441
-2.58742
-6.14003
-3.81445
-7.26497
-0.0292071
-3.40624
0.377167
-1.86255
-0.360306
-2.4164
1.65327
-0.28698
0.733687
-1.05184
0.551586
-2.35512
2.81606
-1.11199
2.3823
-2.35011
1.61649
-4.84293
0.223011
-8.72499
-3.09695
-15.3455
-9.94553
-25.4372
-20.4954
-41.2605
-74.9361
-88.1869
-91.9514
-92.8577
144.329
-67.1251
-80.5337
-58.69
-51.4894
-45.081
-39.7253
-38.5519
-34.8983
-35.7077
-32.7809
-34.3922
-33.8709
-35.9849
-31.404
-36.2083
-22.9002
-29.6545
-23.9438
-29.5957
-24.2062
-28.7461
-24.1477
-27.7357
-26.4542
-29.5302
-23.8607
-28.8013
-15.2785
-21.1716
-13.005
-18.1513
-12.7326
-17.1713
-15.0091
-20.1297
-7.95592
-13.9821
-7.76506
-12.1521
-5.43199
-9.28359
-4.30522
-8.12528
-4.06397
-7.00857
-3.5329
-5.67752
-4.27435
-6.23369
-1.05801
-2.88672
-0.267687
-1.58279
-0.653714
-1.82867
1.05511
-0.0665051
0.491414
-0.65168
0.274143
-1.46221
2.02749
-0.352259
1.69399
-1.34634
0.780317
-3.45353
-0.927986
-6.91573
-4.59934
-13.0512
-11.9422
-22.8338
-22.7859
-40.4195
-76.5144
-88.953
-92.19
-92.9358
113.909
-51.6902
-69.6926
-57.6098
-49.4006
-44.5581
-39.3554
-38.0545
-35.0695
-35.2137
-33.1657
-34.0245
-34.1045
-35.1246
-31.601
-33.7004
-25.0411
-28.4315
-25.45
-28.5198
-25.4781
-27.8817
-25.2223
-27.2344
-27.0077
-28.5499
-24.3307
-26.4377
-17.4261
-20.0316
-14.3746
-16.9465
-14.1307
-16.5706
-15.3821
-17.8906
-9.9722
-12.9016
-9.18857
-11.2634
-6.4245
-8.24218
-5.38557
-7.38471
-4.969
-6.4584
-4.25251
-5.35594
-4.59883
-5.48697
-1.80585
-2.54438
-0.754495
-1.39216
-0.862379
-1.40275
0.617648
0.0872378
0.317588
-0.333914
0.103508
-0.778072
1.47391
0.230594
1.20924
-0.549206
0.198517
-2.33463
-1.73867
-5.43897
-5.67146
-11.1399
-13.4596
-20.669
-24.3703
-38.8412
-79.0402
-90.0884
-92.5293
-93.0445
90.1113
-42.1599
-60.0553
-56.3748
-47.1767
-44.0489
-38.8286
-37.6234
-35.1144
-34.8062
-33.433
-33.6867
-34.2992
-34.4447
-31.5717
-31.6213
-26.6983
-27.4617
-26.7126
-27.687
-26.5306
-27.2184
-26.1086
-26.8213
-27.489
-27.7986
-24.5462
-24.5172
-19.1075
-19.2207
-15.4136
-15.9558
-15.3172
-16.1136
-15.606
-16.0672
-11.5533
-12.0856
-10.3794
-10.6502
-7.14973
-7.38678
-6.27078
-6.8199
-5.71702
-6.0553
-4.83906
-5.10814
-4.8569
-4.92245
-2.37639
-2.30269
-1.14376
-1.24782
-1.02786
-1.07892
0.28254
0.210841
0.1793
-0.0594679
-0.0141615
-0.219103
1.06028
0.724665
0.83403
0.147688
-0.252085
-1.34098
-2.37766
-4.10116
-6.53448
-9.35503
-14.7819
-18.6451
-25.5246
-36.2346
-82.7327
-91.5689
-92.9464
-93.1743
71.6044
-37.2049
-51.2812
-55.3603
-44.7099
-43.6231
-38.1409
-37.2441
-35.0709
-34.4409
-33.6347
-33.3341
-34.512
-33.8849
-31.4248
-29.7405
-28.1275
-26.5519
-27.9057
-26.9387
-27.5089
-26.6265
-26.9215
-26.4094
-27.9841
-27.1893
-24.6322
-22.8115
-20.5674
-18.566
-16.278
-15.0119
-16.4458
-15.7083
-15.7905
-14.4424
-12.9321
-11.3587
-11.4908
-10.1875
-7.7251
-6.58516
-7.08907
-6.32085
-6.40712
-5.71413
-5.36595
-4.88093
-5.10208
-4.46221
-2.84785
-2.10425
-1.48235
-1.1163
-1.18237
-0.811467
0.00487011
0.33294
0.0493939
0.203697
-0.121751
0.28055
0.711295
1.20096
0.490658
0.833113
-0.675146
-0.349476
-2.98926
-2.73506
-7.38216
-7.46608
-16.1671
-16.5008
-26.526
-32.1967
-87.932
-93.348
-93.4098
-93.3133
57.4499
-36.0389
-42.9066
-54.9349
-41.8604
-43.3733
-37.2699
-36.9161
-34.9659
-34.0829
-33.8165
-32.9226
-34.7974
-33.3989
-31.2473
-27.8573
-29.5557
-25.5254
-29.192
-26.1294
-28.5457
-25.9878
-27.767
-25.9145
-28.5744
-26.6509
-24.6892
-21.1231
-22.0181
-17.9232
-17.102
-13.9604
-17.6616
-15.2706
-16.0327
-12.8245
-14.3139
-10.564
-12.66
-9.77145
-8.24788
-5.71807
-7.95851
-5.78789
-7.12864
-5.35939
-5.89854
-4.62567
-5.3819
-4.04112
-3.28464
-1.90109
-1.81084
-0.967628
-1.35447
-0.561941
-0.25337
0.479411
-0.0981119
0.485973
-0.258521
0.779002
0.359898
1.72522
0.105143
1.59255
-1.17157
0.760653
-3.71659
-1.17288
-8.4123
-5.23237
-17.8868
-13.9687
-27.7013
-26.156
-95.1439
-95.341
-93.8792
-93.4482
47.0356
-38.3369
-34.3251
-55.5134
-38.4276
-43.4285
-36.1696
-36.6528
-34.8191
-33.7013
-34.0246
-32.4016
-35.215
-32.9443
-31.1206
-25.7719
-31.2144
-24.1925
-30.749
-25.1024
-29.7829
-25.1771
-28.7592
-25.2404
-29.3493
-26.1153
-24.8116
-19.2576
-23.6697
-17.1508
-18.0202
-12.6364
-19.1224
-14.7079
-16.4349
-11.0198
-15.9063
-9.53647
-14.0296
-9.30181
-8.81184
-4.66107
-9.00525
-5.11527
-7.9753
-4.91301
-6.50425
-4.28984
-5.74615
-3.59718
-3.747
-1.64665
-2.16987
-0.770138
-1.57411
-0.293385
-0.528882
0.678017
-0.292334
0.821164
-0.466773
1.33555
-0.0630182
2.36878
-0.404742
2.52201
-1.85585
2.12722
-4.72466
0.780807
-9.85897
-2.36495
-20.2689
-10.73
-29.4872
-17.2933
-105.107
-97.3997
-94.3068
-93.5652
40.0372
-44.2092
-24.7349
-57.6227
-34.1117
-43.9748
-34.7607
-36.4836
-34.6453
-33.2637
-34.3123
-31.7049
-35.8379
-32.4738
-31.1371
-23.2571
-33.3739
-22.3187
-32.7964
-23.6646
-31.3937
-24.0409
-30.0375
-24.2633
-30.42
-25.5045
-25.1062
-16.9955
-25.7606
-16.085
-19.1905
-10.8397
-21.0212
-13.9016
-17.1247
-8.80499
-17.9508
-8.07622
-15.7696
-8.66421
-9.52371
-3.26566
-10.3827
-4.17391
-9.06003
-4.28158
-7.2632
-3.80813
-6.2555
-3.0621
-4.30012
-1.28797
-2.60647
-0.485103
-1.87769
0.0353045
-0.862562
0.96328
-0.570304
1.25206
-0.798948
2.01986
-0.639364
3.2204
-1.14274
3.74361
-2.87453
3.92728
-6.22683
3.38059
-12.0306
1.51896
-23.7481
-6.35864
-32.5101
-4.42924
-118.889
-99.2727
-94.6391
-93.6517
36.4098
-54.229
-13.0493
-61.9877
-28.4612
-45.2853
-32.9158
-36.4584
-34.4552
-32.731
-34.7484
-30.7409
-36.7629
-31.9246
-31.4178
-20.0251
-36.3831
-19.5863
-35.6309
-21.555
-33.6104
-22.3734
-31.7891
-22.8114
-31.936
-24.7156
-25.7118
-14.061
-28.5917
-14.5104
-20.8215
-8.30406
-23.6144
-12.684
-18.2786
-5.89377
-20.7584
-5.91532
-18.1036
-7.70986
-10.522
-1.33692
-12.2947
-2.79024
-10.5327
-3.34104
-8.28082
-3.09145
-6.99152
-2.35075
-5.02416
-0.756903
-3.18144
-0.0602281
-2.31416
0.475819
-1.30575
1.38241
-0.982976
1.83747
-1.32628
2.92298
-1.47672
4.40075
-2.25083
5.42536
-4.42997
6.40572
-8.51921
6.98149
-15.3601
6.95624
-28.9326
-0.24455
-37.7011
14.1378
-138.034
-100.545
-94.8244
-93.6977
133.01
161.705
36.5152
70.5655
52.4214
57.3024
55.9059
53.6632
54.8032
50.8023
53.4224
48.2816
55.2282
49.6036
49.9965
37.8342
57.2902
40.0735
55.3958
41.3965
52.8619
41.3498
51.4819
41.6862
52.0229
42.2838
52.4926
40.4352
50.3188
38.9928
41.6205
29.9696
47.4525
36.2307
41.3222
27.5214
47.4545
30.4133
43.962
32.1367
34.5034
22.3633
39.7514
26.3842
36.4468
26.008
33.4387
25.3918
26.4486
17.0831
30.212
19.3375
27.7364
19.4406
20.6199
10.2021
26.4664
14.3715
18.384
2.30681
29.8801
8.52309
30.7443
8.99834
33.2288
8.57421
38.3678
9.79544
44.8353
12.4068
53.5812
17.8556
67.0093
32.1962
83.1441
66.2858
63.3667
62.7263
62.5777
62.544
131.859
146.287
51.7105
68.9601
55.1909
57.5038
55.9903
54.1632
54.3756
51.4834
52.7892
49.4035
54.1282
50.2737
49.5909
41.3783
53.9517
42.7286
52.6155
43.4606
50.7018
43.1435
49.6229
43.3473
50.3628
44.1472
50.7254
42.5997
48.1285
40.0926
40.5371
32.757
44.6515
37.4171
40.2427
31.1198
43.9896
32.815
41.3555
33.2081
33.4483
25.2732
36.8944
28.2372
34.4802
27.4843
31.8701
26.1645
25.7319
19.3483
28.0103
20.9075
26.0663
20.2482
19.9
12.9091
23.829
15.7381
17.1791
6.72318
25.6771
12.266
27.0187
13.1383
29.2064
13.5464
33.5531
15.5446
39.2407
18.9747
47.1451
25.2178
59.6101
38.9555
75.6658
65.7278
63.2751
62.7061
62.5726
62.5423
130.127
135.226
62.4297
68.5936
57.3166
57.8585
56.088
54.5826
54.0732
51.9977
52.3449
50.2022
53.3726
50.8183
49.4879
44.0925
51.5668
44.541
50.5987
44.8705
49.1354
44.3773
48.2758
44.4785
49.2336
45.5004
49.548
44.2196
46.4826
40.8549
39.7845
34.7592
42.6174
38.2029
39.6431
33.8403
41.4884
34.4299
39.4184
33.9458
32.7316
27.393
34.8502
29.496
33.0449
28.5071
30.7067
26.7279
25.2547
21.0133
26.4407
21.9886
24.8366
20.8385
19.447
14.9009
21.9534
16.7246
16.4512
9.96422
22.7696
14.8831
24.4392
16.081
26.4537
17.0923
30.2594
19.6259
35.4047
23.6052
42.7128
30.327
54.4125
43.4199
70.053
64.8699
63.1078
62.6682
62.5631
62.539
128.188
127.277
69.988
68.9236
58.9692
58.3059
56.1757
54.963
53.8343
52.4161
52.0012
50.7894
52.8472
51.3152
49.5488
46.2934
49.7633
45.8316
49.0548
45.8822
47.9313
45.2662
47.2379
45.2689
48.4454
46.5438
48.7471
45.5373
45.1537
41.4363
39.1916
36.2476
41.0759
38.7561
39.3347
36.0245
39.5771
35.5646
37.9013
34.5148
32.1814
29.0025
33.32
30.4002
31.9346
29.2618
29.7918
27.1925
24.8896
22.2929
25.2675
22.7789
23.882
21.3256
19.1214
16.4298
20.5701
17.5138
15.9729
12.4345
20.6907
16.8034
22.577
18.275
24.4908
19.7374
27.9179
22.6507
32.6719
26.9995
39.5401
33.9772
50.6177
46.3789
65.7126
63.8749
62.8872
62.6165
62.55
62.5345
126.282
121.58
75.2958
69.6085
60.2501
58.8124
56.2271
55.3406
53.6077
52.795
51.69
51.2465
52.4661
51.8222
49.6701
48.2262
48.2568
46.8369
47.7676
46.6859
46.9167
45.9706
46.3586
45.8544
47.8612
47.4239
48.1637
46.743
43.959
41.9599
38.6276
37.4261
39.8212
39.1945
39.183
37.9352
37.9695
36.4464
36.6142
35.0426
31.6661
30.3132
32.0804
31.1271
30.9935
29.8893
29.003
27.6461
24.5372
23.3504
24.3138
23.4263
23.0745
21.7994
18.816
17.6862
19.4753
18.2431
15.575
14.4335
19.098
18.3376
21.1182
20.0487
22.9669
21.8653
26.1145
25.0642
30.5669
29.6651
37.0915
36.7391
47.6579
48.3948
62.2187
62.8456
62.6377
62.5565
62.5346
62.5293
124.564
117.546
78.9794
70.4401
61.2142
59.3648
56.2109
55.7523
53.3445
53.1859
51.3527
51.6374
52.1598
52.3899
49.7635
50.1003
46.8087
47.7486
46.5614
47.4375
45.9495
46.622
45.5153
46.3399
47.3752
48.2574
47.667
48.0035
42.7334
42.5371
37.9787
38.4611
38.6878
39.6086
39.0811
39.7951
36.4246
37.261
35.3971
35.643
31.0702
31.4994
30.9499
31.8217
30.0915
30.5084
28.2334
28.1701
24.1082
24.3223
23.4344
24.0527
22.3043
22.3418
18.4368
18.8261
18.5016
19.0301
15.1163
16.2006
17.7225
19.7305
19.8135
21.6629
21.6039
23.7793
24.5232
27.2155
28.7181
31.9977
34.9539
39.0501
45.1054
49.8871
59.2527
61.8497
62.383
62.494
62.5185
62.5238
123.127
114.775
81.4626
71.2997
61.8835
59.9696
56.0867
56.2418
52.9912
53.6436
50.9304
52.0186
51.865
53.0717
49.7381
52.1194
45.1911
48.7452
45.2723
48.2834
44.8957
47.3442
44.5946
46.8167
46.895
49.1494
47.133
49.488
41.3046
43.2885
37.128
39.506
37.5264
40.0803
38.9293
41.8181
34.7111
38.1832
34.0952
36.4359
30.274
32.7245
29.7623
32.62
29.1035
31.2349
27.375
28.8537
23.5079
25.338
22.4945
24.7734
21.4625
23.0417
17.8855
19.9944
17.4935
19.9946
14.4575
17.9499
16.3274
21.2001
18.438
23.3533
20.1514
25.7505
22.8538
29.4144
26.7982
34.3431
32.7708
41.2827
42.6038
51.1961
56.5574
60.9363
62.1453
62.435
62.5032
62.5186
122.025
113.005
83.0216
72.1304
62.2531
60.653
55.8007
56.867
52.4813
54.2353
50.3555
52.4489
51.5152
53.9344
49.4833
54.51
43.1533
50.0219
43.723
49.3843
43.6075
48.2736
43.4741
47.3783
46.3269
50.2115
46.4233
51.3932
39.4681
44.3649
35.9348
40.7243
36.1827
40.6993
38.615
44.2399
32.5734
39.4069
32.5352
37.568
29.1323
34.1652
28.341
33.6724
27.8886
32.2002
26.3023
29.8096
22.6198
26.5399
21.3489
25.717
20.4242
24.0103
17.043
21.3464
16.2848
21.28
13.437
19.9033
14.672
22.9747
16.755
25.3681
18.3466
28.0613
20.806
31.9803
24.4718
37.0532
30.1844
43.803
39.8114
52.6346
53.9017
60.15
61.9446
62.385
62.4902
62.5143
121.288
112.076
83.8194
72.922
62.292
61.4662
55.2774
57.7096
51.7248
55.0514
49.5407
52.9992
51.0302
55.0707
48.8483
57.5547
40.3852
51.8239
41.6938
50.9414
41.9003
49.5802
42.0041
48.1369
45.5601
51.5791
45.362
53.9728
36.9575
45.9729
34.2115
42.3145
34.4753
41.5809
37.9907
47.3518
29.6942
41.1772
30.4976
39.2373
27.4504
36.0387
26.472
35.168
26.2684
33.5725
24.8521
31.192
21.286
28.1049
19.8198
27.0458
19.0297
25.3999
15.7485
23.0719
14.6728
23.078
11.8431
22.3237
12.4744
25.3294
14.4781
28.0078
15.872
31.0505
18.0207
35.2933
21.3416
40.5413
26.7785
47.028
36.3468
54.5355
51.047
59.5422
61.7983
62.3489
62.4808
62.5111
120.922
111.914
83.9258
73.7044
61.9391
62.4937
54.4085
58.8879
50.5949
56.22
48.3659
53.7654
50.3036
56.6162
47.6145
61.6328
36.471
54.4869
38.8879
53.2284
39.5226
51.4955
39.9841
49.2423
44.4478
53.4345
43.7059
57.5758
33.404
48.4103
31.6918
44.5407
32.1683
42.8885
36.8466
51.5426
25.6475
43.8323
27.6814
41.7259
24.9518
38.6366
23.8708
37.3657
23.9985
35.5842
22.7978
33.2227
19.2817
30.2726
17.6687
28.9829
17.0583
27.429
13.7738
25.4251
12.3874
25.6604
9.37959
25.5563
9.36769
28.6315
11.2252
31.6735
12.3042
35.1676
14.0231
39.8551
16.8854
45.3479
22.0123
51.4904
31.7276
57.304
47.7134
59.1843
61.7207
62.3299
62.4758
62.5095
-125.507
-115.689
-86.0725
-73.3582
-62.0057
-59.5507
-52.3279
-54.4988
-47.6114
-51.4091
-44.808
-48.5912
-45.0766
-49.3589
-42.7547
-52.1214
-31.0697
-45.3195
-30.9066
-44.8512
-32.7508
-44.5614
-33.9291
-42.8519
-38.393
-46.8694
-37.6391
-50.6876
-27.7117
-41.7745
-26.2351
-38.0832
-26.0325
-35.9362
-30.4223
-44.778
-18.3094
-36.9041
-20.2725
-35.4012
-17.8069
-33.0878
-16.3292
-32.2611
-17.3064
-31.5972
-17.3683
-29.838
-17.5588
-27.5391
-22.2413
-34.0234
-13.8152
-26.2799
-20.2103
-33.6722
-11.7043
-25.8133
-20.0505
-33.6305
-21.5752
-44.5559
-7.08633
-34.6989
-10.7178
-35.6343
-13.3856
-38.1898
-15.8638
-41.7708
-18.9508
-47.3734
-28.97
-55.2334
-46.5678
-58.3564
-60.9916
-61.6275
-61.7795
-61.8117
-125.903
-115.944
-85.9406
-72.9884
-61.9669
-58.8524
-52.8391
-53.6168
-48.4249
-50.5026
-45.7113
-47.9879
-45.656
-48.2866
-43.6193
-49.0811
-33.9101
-42.7255
-33.5078
-42.6704
-35.012
-42.7389
-35.8622
-41.814
-39.444
-45.12
-39.2008
-47.2802
-31.0736
-39.5107
-28.5825
-35.9994
-28.189
-34.7084
-31.4668
-40.5545
-22.358
-34.0913
-23.2187
-32.7236
-20.4731
-30.118
-19.2677
-29.6383
-19.9898
-29.2192
-19.8143
-27.7989
-19.6928
-26.2906
-23.4134
-30.9313
-16.8759
-24.8653
-21.581
-30.239
-15.108
-24.3003
-21.5812
-30.9398
-23.8867
-38.5906
-12.8635
-30.414
-15.1081
-31.4936
-17.5289
-33.9484
-20.0597
-37.2978
-23.3224
-42.8687
-33.5607
-52.4706
-49.9084
-58.7213
-61.0699
-61.6449
-61.7823
-61.8111
-126.7
-117.005
-85.1293
-72.5426
-61.6119
-58.2692
-53.0774
-52.972
-48.9458
-49.8691
-46.33
-47.5669
-46.035
-47.5043
-44.0768
-46.8639
-35.7887
-40.8504
-35.3713
-41.1599
-36.6553
-41.4982
-37.2797
-41.1065
-40.1707
-43.8321
-40.2002
-44.8419
-33.4474
-38.0192
-30.1937
-34.5223
-29.7699
-33.8686
-32.0155
-37.4198
-25.2068
-32.18
-25.3471
-30.9136
-22.261
-27.9654
-21.3549
-27.8138
-21.9155
-27.5842
-21.5623
-26.4012
-21.2366
-25.4189
-24.1676
-28.7001
-19.0527
-23.8997
-22.4722
-27.7555
-17.5369
-23.262
-22.6271
-28.904
-25.3263
-34.241
-16.9083
-27.4421
-18.2296
-28.5658
-20.456
-30.9186
-23.0101
-34.073
-26.3528
-39.5179
-37.0225
-50.5662
-52.7931
-59.3435
-61.2175
-61.678
-61.7875
-61.8101
-127.889
-118.956
-83.5486
-72.0314
-60.9532
-57.7592
-53.1111
-52.4827
-49.2672
-49.4124
-46.756
-47.2551
-46.2923
-46.916
-44.2838
-45.1993
-37.0199
-39.3949
-36.7821
-40.0591
-37.9225
-40.6178
-38.3734
-40.5875
-40.7116
-42.8338
-40.8666
-43.043
-35.1805
-37.0215
-31.3167
-33.4063
-30.9945
-33.2647
-32.2718
-34.9876
-27.2858
-30.8188
-26.9774
-29.6703
-23.4725
-26.3033
-22.9172
-26.4814
-23.3765
-26.4148
-22.874
-25.4017
-22.4046
-24.7626
-24.6887
-27.0343
-20.648
-23.1834
-23.0933
-25.8904
-19.3265
-22.4767
-23.3952
-27.261
-26.265
-30.9401
-19.8373
-25.2591
-20.5682
-26.3751
-22.6396
-28.623
-25.2011
-31.5991
-28.5476
-36.7934
-39.8425
-49.1141
-55.504
-60.1515
-61.4201
-61.7235
-61.7945
-61.8088
-129.437
-121.969
-81.0135
-71.5031
-59.9789
-57.3068
-52.9831
-52.0958
-49.4532
-49.0668
-47.0547
-47.0006
-46.485
-46.4569
-44.3477
-43.8972
-37.8275
-38.1375
-37.9558
-39.1733
-38.9952
-39.9336
-39.2874
-40.1508
-41.1713
-41.9978
-41.3659
-41.6444
-36.5241
-36.3243
-32.1265
-32.469
-32.0305
-32.7899
-32.3782
-32.9705
-28.914
-29.7511
-28.3448
-28.7811
-24.3213
-24.8884
-24.2
-25.4144
-24.5904
-25.5072
-23.9416
-24.6219
-23.3571
-24.2025
-25.1118
-25.7166
-21.8853
-22.571
-23.5978
-24.3988
-20.7266
-21.7796
-24.0444
-25.8116
-26.976
-28.2695
-22.1045
-23.4799
-22.4863
-24.5656
-24.4339
-26.7032
-26.999
-29.503
-30.2904
-34.2767
-42.4134
-47.7768
-58.2841
-61.0938
-61.6604
-61.7773
-61.8027
-61.8074
-131.284
-126.321
-77.2209
-71.0554
-58.6504
-56.9201
-52.7173
-51.7788
-49.5485
-48.7858
-47.2746
-46.7641
-46.6577
-46.0806
-44.3447
-42.8194
-38.3794
-36.8992
-39.073
-38.3429
-40.0226
-39.3124
-40.1406
-39.7073
-41.6382
-41.2196
-41.8284
-40.4612
-37.6704
-35.7865
-32.7542
-31.5625
-33.0181
-32.3614
-32.444
-31.1389
-30.3459
-28.7725
-29.638
-28.0872
-24.9686
-23.5232
-25.4062
-24.4283
-25.7342
-24.6984
-24.9189
-23.9194
-24.2248
-23.6394
-25.5467
-24.576
-22.9416
-21.9446
-24.1109
-23.0857
-21.9373
-21.0337
-24.7132
-24.3859
-27.6815
-25.897
-24.0698
-21.7952
-24.2813
-22.8443
-26.132
-24.8623
-28.7085
-27.4756
-31.9052
-31.5939
-45.0953
-46.2336
-61.3718
-62.1255
-61.9183
-61.8342
-61.8114
-61.8061
-133.33
-132.438
-71.7102
-70.8568
-56.8947
-56.6324
-52.321
-51.5137
-49.5854
-48.535
-47.4549
-46.5118
-46.8496
-45.7509
-44.3337
-41.8585
-38.8133
-35.5152
-40.3068
-37.4165
-41.146
-38.63
-41.0445
-39.1696
-42.1994
-40.4007
-42.3702
-39.3353
-38.7808
-35.295
-33.3087
-30.5504
-34.0905
-31.9037
-32.5657
-29.2872
-31.8094
-27.6968
-31.0283
-27.4564
-25.5493
-22.0253
-26.7272
-23.3514
-26.972
-23.8398
-25.9454
-23.1652
-25.1284
-22.9769
-26.097
-23.4622
-23.9727
-21.1919
-24.7521
-21.7779
-23.1385
-20.1048
-25.5426
-22.8157
-28.5905
-23.5265
-26.0533
-19.9203
-26.2335
-20.9342
-28.0126
-22.8169
-30.6212
-25.2217
-33.7096
-28.3586
-48.2716
-44.1305
-65.0349
-63.1957
-62.1715
-61.889
-61.8197
-61.8049
-135.41
-140.947
-63.803
-71.1817
-54.5909
-56.507
-51.7853
-51.2943
-49.5881
-48.2863
-47.6306
-46.2093
-47.1
-45.435
-44.3661
-40.9215
-39.2586
-33.8087
-41.8491
-36.2266
-42.5206
-37.7516
-42.1213
-38.4369
-42.955
-39.4323
-43.1134
-38.1114
-40.0096
-34.7447
-33.8953
-29.2876
-35.3933
-31.3333
-32.8463
-27.2048
-33.5397
-26.3247
-32.696
-26.7604
-26.196
-20.1997
-28.3726
-21.9959
-28.4812
-22.7728
-27.1686
-22.2223
-26.1978
-22.1046
-26.8786
-22.2236
-25.1364
-20.1867
-25.6556
-20.2976
-24.5164
-18.838
-26.6993
-20.9062
-29.9338
-20.853
-28.3839
-17.5482
-28.6507
-18.5295
-30.3846
-20.2518
-33.0624
-22.4126
-36.0678
-24.1129
-52.4102
-41.0257
-69.6082
-64.234
-62.3958
-61.9363
-61.8268
-61.804
-137.267
-152.759
-52.5126
-72.4645
-51.5469
-56.6477
-51.0815
-51.1247
-49.576
-48.0133
-47.8385
-45.8158
-47.4542
-45.0968
-44.4952
-39.9151
-39.8571
-31.5647
-43.94
-34.562
-44.3396
-36.5097
-43.5222
-37.3781
-44.0342
-38.1777
-44.2059
-36.6134
-41.527
-34.0198
-34.6342
-27.5982
-37.1047
-30.5421
-33.4151
-24.6454
-35.8141
-24.4113
-34.8582
-25.8516
-27.0621
-17.8093
-30.6021
-20.1279
-30.4801
-21.3037
-28.7673
-20.9244
-27.5917
-20.8795
-28.0391
-20.6841
-26.6163
-18.7663
-26.9937
-18.4357
-26.2917
-17.0309
-28.4037
-18.4051
-32.0027
-17.5163
-31.4503
-14.2996
-31.9178
-15.2465
-33.6368
-16.7696
-36.4426
-18.6315
-39.4507
-18.2572
-58.1362
-36.3227
-75.5404
-65.132
-62.5664
-61.971
-61.8321
-61.8036
-138.499
-169.197
-36.4119
-75.3809
-47.4621
-57.2161
-50.1545
-51.0205
-49.5663
-47.6865
-48.1221
-45.2778
-47.9701
-44.6905
-44.7855
-38.7299
-40.7873
-28.4963
-46.9033
-32.1337
-46.8653
-34.6763
-45.4517
-35.8095
-45.6161
-36.45
-45.8455
-34.6175
-43.5434
-32.9723
-35.6814
-25.2496
-39.4613
-29.3759
-34.4521
-21.2911
-38.9939
-21.6264
-37.8009
-24.5366
-28.3491
-14.5396
-33.7647
-17.4293
-33.2626
-19.1713
-30.9805
-19.0483
-29.523
-19.1015
-29.7822
-18.615
-28.6494
-16.7046
-29.0051
-15.9191
-28.7533
-14.4002
-30.9644
-14.9617
-35.1964
-13.0441
-35.7613
-9.66138
-36.5575
-10.562
-38.3001
-11.8265
-41.3226
-13.3057
-44.5142
-9.95885
-66.3302
-29.1789
-83.4586
-65.7175
-62.6597
-61.9894
-61.8348
-61.8034
55.2516
58.2031
40.59
40.2479
43.908
37.8879
39.1266
27.9733
45.0667
30.6817
43.5149
33.3628
43.7428
35.9304
38.7144
27.2223
34.2211
14.9532
43.1015
23.8246
40.4907
27.2397
37.2846
28.7123
31.9435
22.353
27.9349
12.5153
33.7161
19.5328
26.0526
14.6376
31.0273
18.7799
30.2506
17.8338
25.0729
13.8661
21.1417
13.6556
15.1926
5.46223
18.6382
6.3217
15.3
5.499
13.464
5.60202
8.01234
-2.83191
18.938
2.14721
19.4417
1.32009
18.7226
0.088023
21.8955
3.51175
12.0054
-17.0394
39.518
0.946606
43.6198
7.95124
48.4602
12.8155
55.0735
18.5075
62.5396
25.5055
71.5212
34.1035
86.1525
51.5578
94.4359
44.1126
188.9
153.217
147.773
146.705
55.1339
56.3295
42.5966
41.392
42.9935
38.5992
38.624
31.099
42.0742
32.7491
41.2825
34.9209
42.0953
36.925
37.8713
29.5443
32.215
19.4076
38.6526
26.5272
37.552
28.9839
35.3579
29.5932
31.1077
24.2202
26.3053
15.9569
30.2296
20.973
24.506
17.1428
28.5595
20.8476
28.1936
19.703
23.1589
15.3224
19.5397
14.3256
14.6152
7.98294
16.2237
8.01545
13.5079
6.97744
11.9099
6.48791
7.24737
0.417576
15.9279
5.37115
16.2723
4.39779
15.6663
3.71195
18.2621
5.99353
9.95067
-8.42534
31.2859
7.6664
36.7847
14.4822
41.9289
19.601
48.3254
25.5011
55.5651
32.6318
64.4106
41.6952
78.4481
57.9181
88.7053
61.7498
170.679
152.009
147.6
146.663
54.9686
55.0537
44.103
42.4249
42.3201
39.1353
38.4252
33.4867
39.8958
34.1042
39.648
35.9397
40.9436
37.677
37.4014
31.4287
30.8303
22.5823
35.461
28.3062
35.3994
30.1327
33.9188
30.185
30.6101
25.7306
25.1753
18.4158
27.6864
21.9037
23.3973
18.8989
26.8588
22.3149
26.7719
21.0961
21.6982
16.2982
18.3165
14.7769
14.3162
9.91006
14.4683
9.16232
12.1979
7.99831
10.7708
7.12734
6.78672
2.77419
13.9611
7.73741
14.0144
6.55023
13.5393
6.27599
15.7018
7.82655
8.78961
-2.13441
25.5874
12.2771
32.0068
19.0235
37.389
24.3446
43.6395
30.3794
50.7108
37.5697
59.48
46.9082
73.0352
62.2259
85.2847
73.9523
157.563
150.231
147.289
146.586
54.8004
54.2199
45.2392
43.3959
41.7712
39.5738
38.397
35.4222
38.2072
35.0076
38.3853
36.6117
40.1245
38.3111
37.1612
33.1001
29.7537
24.9142
33.0729
29.5175
33.7431
30.9212
32.7823
30.6123
30.3266
27.0699
24.2954
20.2354
25.7473
22.5453
22.5302
20.1584
25.66
23.4238
25.7571
22.2396
20.4791
16.9786
17.3169
15.1063
14.1761
11.4797
13.1086
9.97653
11.1781
8.74109
9.88906
7.63534
6.47361
4.52345
12.6913
9.60417
12.3066
8.12493
11.9827
8.17273
13.8337
9.30629
8.10431
2.61103
21.5306
15.5665
28.5378
22.3112
34.1056
27.7949
40.2561
33.9142
47.1956
41.1058
55.9287
50.5733
69.0998
65.1791
83.2402
82.3578
148.085
148.279
146.889
146.481
54.6556
53.7225
46.0905
44.3588
41.2459
39.9724
38.4419
37.1283
36.7591
35.6491
37.3299
37.0734
39.5197
38.9199
37.0388
34.7443
28.7382
26.7275
31.1548
30.4189
32.3701
31.5237
31.8083
30.9654
30.163
28.3911
23.4681
21.6734
24.158
23.0605
21.7584
21.1041
24.7718
24.351
24.9774
23.3138
19.3305
17.5063
16.4201
15.3852
14.1075
12.8772
11.94
10.618
10.3044
9.341
9.14389
8.10011
6.19246
5.86839
11.8721
11.2397
10.8745
9.37829
10.733
9.69078
12.3734
10.6532
7.59088
6.38019
18.4693
18.0988
25.8369
24.8781
31.5467
30.4945
37.6249
36.6642
44.4553
43.8054
53.1846
53.2831
66.0624
67.2531
81.9537
88.0993
141.229
146.391
146.451
146.36
54.5482
53.4932
46.706
45.3772
40.6475
40.3817
38.4784
38.7972
35.3412
36.1795
36.3524
37.4274
39.0371
39.5805
36.9333
36.5374
27.5635
28.2838
29.4438
31.2132
31.1095
32.0815
30.8799
31.3173
30.0388
29.8388
22.5161
22.9406
22.7124
23.5844
20.9612
21.8773
24.0475
25.2368
24.2896
24.4811
18.0959
18.0048
15.5216
15.6742
14.0372
14.2631
10.7871
11.2194
9.45697
9.91043
8.43276
8.59959
5.84812
6.96038
11.3186
12.8646
9.48773
10.5177
9.5793
11.0599
11.0892
12.0538
7.00345
9.61745
15.9065
20.3068
23.484
27.1401
29.2966
32.8668
35.3174
39.0642
42.0528
46.1039
50.8118
55.4858
63.4885
68.7869
81.0095
91.9616
136.292
144.708
146.02
146.236
54.4831
53.4931
47.103
46.5315
39.8703
40.8563
38.4258
40.6167
33.7511
36.7361
35.3384
37.7597
38.5968
40.3683
36.7375
38.6733
26.0006
29.8222
27.708
32.0821
29.8054
32.7257
29.8855
31.7375
29.871
31.5711
21.254
24.2336
21.2224
24.2478
20.0221
22.6001
23.3621
26.2076
23.556
25.9112
16.6092
18.5987
14.5174
16.0345
13.8923
15.7969
9.47762
11.9084
8.52069
10.5569
7.65569
9.21566
5.34911
7.9224
10.8773
14.6864
7.92458
11.7357
8.32873
12.487
9.7675
13.695
6.10942
12.7077
13.4192
22.5636
21.1118
29.4619
26.9899
35.2838
32.958
41.4944
39.6076
48.376
48.4403
57.5553
61.0228
70.0436
80.1161
94.4888
132.791
143.309
145.632
146.12
54.4574
53.7088
47.2669
47.9289
38.7865
41.4667
38.1875
42.7976
31.7659
37.467
34.1707
38.1543
38.1181
41.3711
36.3179
41.3924
23.7767
31.5967
25.7113
33.2158
28.2922
33.5993
28.7024
32.3054
29.5595
33.783
19.4588
25.7651
19.4898
25.2001
18.8097
23.3944
22.5924
27.3974
22.6211
27.8066
14.67
19.4346
13.2884
16.5405
13.5847
17.659
7.81748
12.8295
7.36689
11.4005
6.69973
10.0484
4.5921
8.86877
10.4016
16.9306
5.93821
13.2423
6.77535
14.1891
8.17982
15.7966
4.64786
16.0331
10.5944
25.2441
18.3473
32.2165
24.2525
38.1255
30.164
44.3415
36.7362
50.9963
45.7067
59.8507
58.335
71.2583
79.0505
96.0584
130.401
142.236
145.316
146.023
54.4614
54.1517
47.146
49.7176
37.2288
42.3142
37.6322
45.6025
29.1098
38.5561
32.71
38.7081
37.5062
42.7046
35.4914
45.0172
20.5334
33.9174
23.177
34.8446
26.3679
34.8791
27.1775
33.1255
28.9675
36.735
16.8366
27.7981
17.276
26.6347
17.1566
24.4025
21.5968
28.9688
21.2863
30.4335
12.0134
20.7056
11.6823
17.2936
12.9947
20.0766
5.56217
14.1686
5.83239
12.5926
5.42109
11.2327
3.44516
9.9243
9.7254
19.8752
3.21954
15.2992
4.66643
16.4278
6.04687
18.6486
2.28468
20.0312
6.96566
28.7861
14.7519
35.8442
20.6413
41.8404
26.4842
48.0597
32.99
54.3984
42.1956
62.7723
55.0695
72.678
77.616
96.9342
128.911
141.513
145.094
145.953
54.4773
54.8618
46.6411
52.1076
34.9667
43.5509
36.569
49.384
25.4142
40.2548
30.7736
39.5478
36.6363
44.5324
33.9932
50.0002
15.773
37.2007
19.744
37.2768
23.7618
36.8053
25.1044
34.3478
27.8964
40.7915
12.9779
30.6883
14.2649
28.8206
14.8326
25.8107
20.1922
31.1405
19.2765
34.1614
8.27072
22.6838
9.48939
18.4417
11.9482
23.3568
2.38081
16.1843
3.69301
14.341
3.62229
12.9601
1.72681
11.2462
8.63462
23.8914
-0.649074
18.2643
1.66139
19.5519
2.99436
22.6589
-1.44325
25.2615
1.94109
33.7619
9.75112
40.9233
15.5737
47.0172
21.3269
53.2435
27.7844
59.1447
37.3732
66.8251
50.7914
74.6044
75.6059
97.3029
128.195
141.15
144.98
145.917
)
;

boundaryField
{
    F1_1
    {
        type            calculated;
        value           nonuniform List<scalar> 
80
(
261.037
-144.952
-113.668
-57.8949
-56.8129
-46.1083
-39.8819
-40.3124
-33.5567
-37.7368
-30.8697
-35.8023
-32.6582
-39.5045
-28.8875
-46.3032
-13.3048
-35.4531
-17.6927
-34.6568
-18.8665
-32.8696
-19.7009
-30.0737
-24.0558
-33.7828
-20.3995
-38.5992
-5.79102
-27.0265
-6.76675
-23.4763
-7.09171
-20.1038
-12.4402
-29.3612
0.944846
-19.343
-1.89525
-16.7046
-0.7246
-13.8089
0.300658
-11.6692
-0.283781
-9.75418
-0.534012
-7.25692
-2.70414
-9.57891
2.2797
-4.70122
1.77972
-2.55164
0.338681
-3.73776
2.98394
-0.831576
1.30082
-1.89622
1.29496
-4.27597
4.65513
-2.78829
4.00908
-4.48507
3.62401
-7.7615
2.96172
-12.4958
0.447793
-20.0696
-5.4393
-30.8288
-15.2179
-41.6452
-73.9895
-87.7049
-91.7973
-92.8065
)
;
    }
    F1_2
    {
        type            calculated;
        value           nonuniform List<scalar> 
80
(
120.832
112.019
83.8094
74.0994
61.655
63.074
53.8716
59.5786
49.9178
56.9112
47.671
54.2165
49.8644
57.5115
46.8156
63.9851
34.1673
56.0828
37.2475
54.5943
38.1295
52.639
38.8076
49.9034
43.7841
54.5107
42.6935
59.6841
31.3126
49.8806
30.1937
45.8509
30.8311
43.6731
36.1134
53.9639
23.2706
45.4305
26.0347
43.2167
23.4574
40.159
22.346
38.6779
22.6654
36.7839
21.5865
34.433
18.0787
31.5419
16.4031
30.1361
15.8962
28.6358
12.5827
26.7955
11.0373
27.1879
7.88678
27.4253
7.53434
30.5727
9.29938
33.8209
10.1858
37.5732
11.6525
42.5206
14.2503
48.1587
19.2114
54.107
29.0608
58.9619
45.8881
59.0784
61.7006
62.325
62.4745
62.5091
)
;
    }
    F1_3
    {
        type            calculated;
        value           nonuniform List<scalar> 
80
(
-125.409
-115.757
-85.9745
-73.5249
-61.9429
-59.9357
-51.9937
-55.0114
-47.1177
-51.9449
-44.2718
-48.9494
-44.7252
-49.9818
-42.1971
-53.8873
-29.3629
-46.8398
-29.3804
-46.1471
-31.4308
-45.6502
-32.806
-43.4742
-37.7664
-47.8845
-36.6841
-52.6817
-25.733
-43.1408
-24.8407
-39.3124
-24.7788
-36.6696
-29.746
-47.2179
-15.9228
-38.5874
-18.5485
-37.0013
-16.2097
-34.8245
-14.5999
-33.8166
-15.7329
-33.0124
-15.9327
-31.0534
-16.3131
-28.2812
-21.5237
-35.8276
-12.0201
-27.1288
-19.3743
-35.6744
-9.71029
-26.7209
-19.1341
-35.1775
-20.1474
-48.025
-3.67496
-37.246
-8.13495
-38.077
-10.9414