/*--------------------------------*- C++ -*----------------------------------*\
| =========                 |                                                 |
| \\      /  F ield         | OpenFOAM: The Open Source CFD Toolbox           |
|  \\    /   O peration     | Version:  5.x                                   |
|   \\  /    A nd           | Web:      www.OpenFOAM.org                      |
|    \\/     M anipulation  |                                                 |
\*---------------------------------------------------------------------------*/
FoamFile
{
    version     2.0;
    format      ascii;
    class       volScalarField;
    location    "0.8";
    object      gradTx;
}
// * * * * * * * * * * * * * * * * * * * * * * * * * * * * * * * * * * * * * //

dimensions      [0 -1 0 1 0 0 0];

internalField   nonuniform List<scalar> 
3200
(
166.134
178.789
41.5468
8.90612
6.65269
0.260007
-0.296748
-2.1367
-2.32418
-2.96743
-3.00505
-2.25345
-2.34914
-5.06092
-5.58938
-14.3069
-14.5435
-9.86438
-9.60517
-8.32002
-8.17198
-6.81744
-6.63592
-4.11998
-4.08769
-6.36077
-6.7844
-14.1215
-14.2733
-9.94774
-9.72144
-8.55007
-8.3652
-5.1878
-5.38325
-13.2562
-13.4245
-9.1619
-8.88798
-7.52985
-7.4436
-7.11664
-7.06091
-5.85497
-5.73
-4.58882
-4.45144
-2.7728
-2.78039
-4.96728
-4.97259
-3.14655
-3.01407
-1.73411
-1.72136
-2.85298
-2.83993
-1.41191
-1.38099
-1.86463
-1.98333
-4.08241
-4.17603
-3.8434
-3.89594
-4.76563
-4.9102
-6.47884
-6.68245
-8.43718
-8.69018
-10.6684
-10.912
-12.3888
-12.4407
-2.93858
-2.30299
-0.890392
-0.255076
39.5721
176.192
148.358
46.0685
13.3762
7.99698
1.71972
0.33421
-1.57025
-2.04837
-2.72293
-2.84316
-2.39839
-2.61471
-4.77117
-5.94168
-13.0878
-13.6551
-10.1264
-9.56659
-8.39191
-8.04152
-6.85396
-6.4497
-4.45613
-4.3664
-6.06912
-6.9895
-12.9481
-13.2952
-9.88134
-9.40423
-8.54311
-8.14765
-5.58774
-6.00189
-12.2259
-12.6
-9.28637
-8.66752
-7.36193
-7.16367
-7.00327
-6.89295
-5.87019
-5.57916
-4.5737
-4.26338
-2.92237
-2.92543
-4.55617
-4.55808
-3.12881
-2.84502
-1.82753
-1.7942
-2.63424
-2.60591
-1.52434
-1.46687
-1.87982
-2.14209
-3.82661
-4.04432
-3.89261
-4.03294
-4.83315
-5.18089
-6.59968
-7.09385
-8.74866
-9.37856
-11.3265
-11.9386
-13.4237
-13.9045
-8.46109
-6.94004
-2.64008
-0.747994
58.0408
184.679
123.59
47.8065
16.754
9.37739
2.98392
0.986048
-1.06077
-1.76464
-2.50057
-2.70383
-2.51687
-2.80265
-4.52084
-6.05492
-12.1319
-12.9305
-10.2696
-9.5526
-8.43085
-7.94457
-6.85917
-6.32707
-4.71613
-4.57341
-5.80875
-6.99306
-11.9991
-12.4674
-9.69749
-9.1024
-8.51753
-8.01671
-5.86873
-6.38815
-11.4296
-11.9229
-9.30309
-8.47456
-7.14974
-6.88226
-6.88793
-6.76152
-5.85616
-5.45692
-4.5308
-4.11657
-3.0182
-3.00538
-4.21024
-4.20085
-3.06527
-2.70533
-1.8816
-1.83213
-2.45026
-2.41405
-1.59583
-1.53396
-1.90105
-2.24399
-3.62951
-3.92741
-3.93015
-4.14356
-4.91879
-5.40876
-6.75754
-7.45886
-9.10117
-10.0143
-12.0381
-12.9303
-14.4988
-15.6054
-13.8267
-11.6883
-4.29346
-1.18923
76.5339
191.633
103.385
47.7556
19.1851
10.7188
4.07256
1.64004
-0.604864
-1.47953
-2.29945
-2.58006
-2.61639
-2.93324
-4.2778
-5.98638
-11.3871
-12.3443
-10.3351
-9.55483
-8.44439
-7.87161
-6.84228
-6.24762
-4.91742
-4.7253
-5.55043
-6.84373
-11.2317
-11.7692
-9.42665
-8.80017
-8.48862
-7.95167
-6.04304
-6.59356
-10.8152
-11.3704
-9.2482
-8.30152
-6.89531
-6.58997
-6.77792
-6.66129
-5.82194
-5.35582
-4.46748
-3.99717
-3.07066
-3.03666
-3.91291
-3.88869
-2.97074
-2.58423
-1.90473
-1.84338
-2.29248
-2.25348
-1.63708
-1.58391
-1.92328
-2.3042
-3.47595
-3.82233
-3.95931
-4.23175
-5.01588
-5.60233
-6.94134
-7.78629
-9.48293
-10.6057
-12.7951
-13.8951
-15.5924
-17.4217
-19.2068
-16.6467
-5.7752
-1.54454
95.0659
197.123
86.8698
46.6226
20.8124
11.9877
4.99296
2.28676
-0.203592
-1.19648
-2.11981
-2.46599
-2.70463
-3.02266
-4.02014
-5.77008
-10.8199
-11.8767
-10.3514
-9.57028
-8.43647
-7.81695
-6.80802
-6.19761
-5.0732
-4.8365
-5.27336
-6.57061
-10.6182
-11.1862
-9.08719
-8.48538
-8.46876
-7.94152
-6.11901
-6.65215
-10.3476
-10.9251
-9.14636
-8.14692
-6.59692
-6.27801
-6.68014
-6.59003
-5.77285
-5.27166
-4.38751
-3.89607
-3.08747
-3.03158
-3.65164
-3.61233
-2.855
-2.47489
-1.90318
-1.83425
-2.15426
-2.11605
-1.65584
-1.61819
-1.94387
-2.33282
-3.35543
-3.72567
-3.98309
-4.29952
-5.12094
-5.76584
-7.14498
-8.07973
-9.88773
-11.1545
-13.5957
-14.8361
-16.6809
-19.2398
-24.7607
-21.9377
-6.99129
-1.78045
113.649
201.223
73.3521
44.9126
21.7608
13.1839
5.74217
2.92513
0.137977
-0.916084
-1.96316
-2.35616
-2.78963
-3.08483
-3.7323
-5.42171
-10.4124
-11.5124
-10.3379
-9.59987
-8.408
-7.7779
-6.75787
-6.16819
-5.1935
-4.92076
-4.96187
-6.18745
-10.1439
-10.7099
-8.68786
-8.14721
-8.46935
-7.98321
-6.10079
-6.58429
-10.0047
-10.5741
-9.01342
-8.01444
-6.24937
-5.93728
-6.60213
-6.54791
-5.71118
-5.2029
-4.29189
-3.80774
-3.07422
-2.99952
-3.4168
-3.36474
-2.72422
-2.37326
-1.88155
-1.8096
-2.0304
-1.99553
-1.65773
-1.63797
-1.96197
-2.33613
-3.26106
-3.63358
-4.00456
-4.34715
-5.23311
-5.90006
-7.36646
-8.33832
-10.3143
-11.6564
-14.4445
-15.7531
-17.741
-20.9396
-30.6484
-27.7136
-7.81794
-1.86562
132.29
204.002
62.2927
42.9915
22.1267
14.3352
6.30675
3.56257
0.410414
-0.635829
-1.83257
-2.24463
-2.8801
-3.13284
-3.40269
-4.9412
-10.1604
-11.239
-10.307
-9.64763
-8.35711
-7.7545
-6.69054
-6.1542
-5.28573
-4.99248
-4.60299
-5.69505
-9.80525
-10.3371
-8.22931
-7.77456
-8.50231
-8.08079
-5.98797
-6.39898
-9.77591
-10.3084
-8.8581
-7.91268
-5.84378
-5.55754
-6.55294
-6.53717
-5.63646
-5.15032
-4.17927
-3.72944
-3.03469
-2.94784
-3.20079
-3.14074
-2.5819
-2.2773
-1.84318
-1.77328
-1.91681
-1.88717
-1.64694
-1.64404
-1.9781
-2.31745
-3.18882
-3.54159
-4.02721
-4.37309
-5.3541
-6.00236
-7.6078
-8.55684
-10.7663
-12.1007
-15.3527
-16.6431
-18.7527
-22.379
-37.0419
-34.168
-8.08684
-1.77351
150.993
205.505
53.2808
41.1334
21.97
15.4963
6.66027
4.21656
0.598786
-0.349434
-1.73329
-2.1241
-2.98581
-3.1801
-3.02226
-4.31339
-10.0741
-11.046
-10.2652
-9.72067
-8.27874
-7.74958
-6.60213
-6.15352
-5.35496
-5.06804
-4.18484
-5.0819
-9.60971
-10.0699
-7.70465
-7.35463
-8.58127
-8.24525
-5.77502
-6.09507
-9.66093
-10.122
-8.68264
-7.85594
-5.36695
-5.1266
-6.54425
-6.56188
-5.54521
-5.1172
-4.04587
-3.66099
-2.9709
-2.88261
-2.99735
-2.93673
-2.42946
-2.18656
-1.79028
-1.72846
-1.81018
-1.78726
-1.62668
-1.63666
-1.99405
-2.27752
-3.13737
-3.44433
-4.05551
-4.37368
-5.48845
-6.06644
-7.87546
-8.72503
-11.2534
-12.4683
-16.3394
-17.5004
-19.7039
-23.377
-44.1369
-41.5506
-7.56501
-1.48705
169.756
205.742
46.0206
39.5562
21.3062
16.7522
6.75835
4.9177
0.68051
-0.0455207
-1.67367
-1.98469
-3.11817
-3.24138
-2.58381
-3.50673
-10.1792
-10.9231
-10.2139
-9.82962
-8.16388
-7.76943
-6.4858
-6.16686
-5.40374
-5.16745
-3.69547
-4.32351
-9.57686
-9.91576
-7.0994
-6.87167
-8.72275
-8.4951
-5.45048
-5.66136
-9.67018
-10.0117
-8.48274
-7.86575
-4.80024
-4.62939
-6.59162
-6.62801
-5.43047
-5.10986
-3.88506
-3.6048
-2.88307
-2.8093
-2.80096
-2.75063
-2.26647
-2.102
-1.72403
-1.67793
-1.70776
-1.69289
-1.59963
-1.61541
-2.01299
-2.21457
-3.10807
-3.33494
-4.09556
-4.34245
-5.64432
-6.08132
-8.18156
-8.82612
-11.7932
-12.7298
-17.4347
-18.3161
-20.5964
-23.6916
-52.1658
-50.1892
-5.92684
-1.00661
188.568
204.671
40.3264
38.4507
20.0947
18.2258
6.53045
5.71481
0.621869
0.294535
-1.66669
-1.81234
-3.29092
-3.33387
-2.0821
-2.47006
-10.5214
-10.8583
-10.1497
-9.98985
-7.9982
-7.82486
-6.33089
-6.19799
-5.43146
-5.31629
-3.12209
-3.38011
-9.74059
-9.88781
-6.39062
-6.30557
-8.94741
-8.85765
-4.99574
-5.07574
-9.82615
-9.97626
-8.2464
-7.97354
-4.11777
-4.04689
-6.71605
-6.74353
-5.28068
-5.13873
-3.68651
-3.5663
-2.76936
-2.73341
-2.60628
-2.58191
-2.09073
-2.02599
-1.64453
-1.62438
-1.60715
-1.60166
-1.56823
-1.5789
-2.03978
-2.12396
-3.10546
-3.20423
-4.15618
-4.26904
-5.83481
-6.02971
-8.54592
-8.83437
-12.4142
-12.8407
-18.6829
-19.0759
-21.4563
-22.9911
-61.4128
-60.5193
-2.71498
-0.362855
207.414
336.682
48.6321
48.9748
10.3903
8.50247
0.375702
-0.068441
-1.6266
-1.73482
-2.4249
-2.50131
-3.90624
-3.93022
-2.55278
-2.94432
-11.5701
-11.884
-9.99882
-9.80344
-7.84705
-7.69639
-6.72209
-6.62365
-6.13968
-6.13691
-6.6218
-6.74951
-7.69953
-7.64322
-4.60621
-4.64036
-9.53673
-9.51887
-4.94643
-5.09563
-11.9909
-12.1886
-9.259
-8.93222
-4.60947
-4.63423
-9.90852
-9.99264
-7.16266
-6.9782
-5.63588
-5.4832
-3.21122
-3.29654
-7.67758
-7.77697
-5.98857
-5.82036
-3.34499
-3.47969
-9.08499
-9.1857
-5.46787
-5.71513
-14.7415
-15.0751
-13.6835
-13.6998
-14.8123
-14.9913
-17.5935
-17.8361
-20.3871
-20.6275
-23.3181
-23.5322
-26.1956
-26.1624
-24.6724
-23.5584
-1.20228
-0.18667
-0.0406004
-0.00934989
198.764
365.218
39.9111
40.6394
11.2471
7.301
0.570535
-0.41006
-1.76585
-2.00927
-2.57525
-2.7268
-3.75328
-3.82605
-3.04056
-3.95657
-11.007
-11.704
-10.1545
-9.70636
-8.06431
-7.71753
-6.84258
-6.59773
-6.07595
-6.06739
-6.58197
-6.91792
-7.93703
-7.84708
-5.41461
-5.44543
-9.05181
-8.98386
-5.46503
-5.83164
-11.5116
-11.962
-9.5562
-8.83981
-5.46838
-5.50657
-9.48752
-9.64883
-7.44021
-7.03899
-5.91289
-5.5872
-3.86309
-4.04149
-7.38688
-7.58928
-6.20372
-5.8562
-4.00444
-4.29414
-8.61044
-8.84513
-6.19681
-6.74602
-13.7657
-14.488
-13.5689
-13.6304
-14.5825
-14.9853
-17.1268
-17.6678
-19.7866
-20.3174
-22.493
-22.9383
-24.9067
-24.7574
-23.0514
-20.5743
-2.7532
-0.52523
-0.117208
-0.0271027
186.252
392.311
32.6024
33.5093
11.0864
6.21122
0.53558
-0.736554
-1.94955
-2.27078
-2.74217
-2.91729
-3.63845
-3.75618
-3.46024
-4.72341
-10.6979
-11.6139
-10.2661
-9.65704
-8.22978
-7.75981
-6.93787
-6.58289
-5.9917
-5.97694
-6.54928
-7.059
-8.2189
-8.14464
-6.12448
-6.10747
-8.71386
-8.58687
-5.82819
-6.3551
-11.2415
-11.8496
-9.78582
-8.8536
-6.19092
-6.22121
-9.21931
-9.39983
-7.64548
-7.12879
-6.15791
-5.74715
-4.43887
-4.65978
-7.2219
-7.46512
-6.37737
-5.95222
-4.57825
-4.94753
-8.29917
-8.61989
-6.79786
-7.51811
-13.0419
-13.9666
-13.4152
-13.5254
-14.3748
-14.9097
-16.7242
-17.4364
-19.2496
-19.9415
-21.7372
-22.2836
-23.7026
-23.4148
-21.4612
-18.204
-3.68041
-0.790991
-0.181097
-0.0421274
173.741
418.288
26.3717
27.313
10.2244
5.15396
0.324805
-1.06523
-2.16881
-2.52624
-2.92091
-3.08591
-3.54773
-3.70282
-3.81751
-5.30173
-10.5912
-11.6143
-10.3481
-9.64046
-8.35697
-7.81618
-7.0145
-6.57749
-5.88439
-5.86301
-6.51909
-7.17407
-8.55012
-8.52003
-6.75422
-6.66456
-8.48523
-8.29512
-6.0599
-6.70415
-11.1426
-11.8441
-9.97019
-8.93663
-6.80575
-6.81714
-9.0638
-9.22822
-7.80127
-7.23678
-6.38054
-5.94303
-4.95349
-5.18442
-7.14968
-7.39423
-6.52454
-6.08622
-5.08235
-5.48166
-8.10917
-8.48039
-7.29724
-8.09809
-12.502
-13.5042
-13.235
-13.3908
-14.1796
-14.783
-16.3657
-17.1611
-18.7575
-19.5215
-21.0314
-21.594
-22.5668
-22.1389
-19.9233
-16.2843
-4.14225
-0.965571
-0.226145
-0.052947
161.231
443.404
20.9625
21.8387
8.88263
4.08768
-0.0231343
-1.40515
-2.41781
-2.78015
-3.1088
-3.24263
-3.46925
-3.65102
-4.11993
-5.72777
-10.655
-11.7063
-10.4078
-9.64692
-8.45447
-7.883
-7.07654
-6.58235
-5.75021
-5.72196
-6.48894
-7.26029
-8.93759
-8.96484
-7.3169
-7.14522
-8.337
-8.08516
-6.17641
-6.90142
-11.1931
-11.9416
-10.121
-9.06357
-7.3349
-7.32367
-8.99158
-9.12029
-7.92258
-7.35647
-6.58646
-6.161
-5.4193
-5.63971
-7.14632
-7.36792
-6.65448
-6.24288
-5.53036
-5.92668
-8.00944
-8.40309
-7.7173
-8.53399
-12.0983
-13.0928
-13.0379
-13.231
-13.992
-14.6172
-16.0388
-16.8538
-18.2988
-19.0718
-20.3635
-20.888
-21.4871
-20.9345
-18.4423
-14.7048
-4.24548
-1.04266
-0.248539
-0.0585332
148.724
467.861
16.1744
16.9186
7.2153
2.99473
-0.479789
-1.75959
-2.69269
-3.03535
-3.30444
-3.39561
-3.39252
-3.58768
-4.37671
-6.02095
-10.8739
-11.8921
-10.4459
-9.67067
-8.52716
-7.95924
-7.12611
-6.60073
-5.58387
-5.54911
-6.4586
-7.31027
-9.39105
-9.47665
-7.82051
-7.57132
-8.2465
-7.94145
-6.18754
-6.956
-11.3853
-12.1418
-10.2412
-9.21739
-7.79537
-7.76303
-8.98094
-9.06543
-8.01865
-7.48435
-6.77863
-6.39166
-5.84665
-6.04356
-7.19437
-7.37904
-6.77239
-6.41161
-5.93406
-6.30429
-7.97732
-8.369
-8.07729
-8.86002
-11.7974
-12.7234
-12.831
-13.0486
-13.8099
-14.4197
-15.7362
-16.5213
-17.8671
-18.6013
-19.7265
-20.1792
-20.4535
-19.8077
-17.0111
-13.3941
-4.05846
-1.0234
-0.246762
-0.0583868
136.219
491.826
11.8456
12.4175
5.3296
1.87263
-1.02381
-2.12766
-2.99107
-3.29342
-3.50717
-3.55232
-3.30782
-3.50052
-4.5992
-6.18569
-11.246
-12.1766
-10.4572
-9.70915
-8.57684
-8.04611
-7.16338
-6.63876
-5.37824
-5.33847
-6.43057
-7.31107
-9.92431
-10.0581
-8.26783
-7.96042
-8.19519
-7.85566
-6.09775
-6.86411
-11.7244
-12.4484
-10.3265
-9.38716
-8.20027
-8.1524
-9.01564
-9.05583
-8.09425
-7.61913
-6.95809
-6.62866
-6.24434
-6.40926
-7.28108
-7.42185
-6.88049
-6.58505
-6.30387
-6.62981
-7.99648
-8.36229
-8.39434
-9.0999
-11.5771
-12.3868
-12.6197
-12.8445
-13.6339
-14.194
-15.4549
-16.1665
-17.4598
-18.1154
-19.1164
-19.4775
-19.4568
-18.7671
-15.6128
-12.3123
-3.61942
-0.913802
-0.221448
-0.0525635
123.715
515.441
7.8415
8.22357
3.29949
0.728706
-1.63915
-2.50515
-3.31179
-3.55499
-3.71661
-3.7206
-3.20559
-3.37707
-4.8021
-6.2114
-11.7832
-12.567
-10.4297
-9.76303
-8.60248
-8.14707
-7.18634
-6.70624
-5.12378
-5.08255
-6.411
-7.24256
-10.5567
-10.7165
-8.65583
-8.32782
-8.16682
-7.82658
-5.90696
-6.60845
-12.2289
-12.8688
-10.3644
-9.56685
-8.55962
-8.50532
-9.08326
-9.08632
-8.15043
-7.76138
-7.12431
-6.86789
-6.62007
-6.7467
-7.39705
-7.49196
-6.9788
-6.75796
-6.64944
-6.91374
-8.05571
-8.36896
-8.68449
-9.26896
-11.4235
-12.0734
-12.4089
-12.618
-13.4672
-13.9403
-15.1957
-15.7885
-17.0782
-17.6156
-18.5319
-18.7913
-18.4869
-17.825
-14.2204
-11.4461
-2.94089
-0.723671
-0.175187
-0.0416536
111.214
538.832
4.04482
4.24262
1.1759
-0.422865
-2.31428
-2.88485
-3.65496
-3.81977
-3.93233
-3.90961
-3.07587
-3.20342
-5.00557
-6.07056
-12.512
-13.0742
-10.3433
-9.83666
-8.59992
-8.26825
-7.19008
-6.81781
-4.80766
-4.77184
-6.41129
-7.07473
-11.3154
-11.4638
-8.9745
-8.68852
-8.1456
-7.86066
-5.6113
-6.15601
-12.9327
-13.415
-10.3341
-9.75494
-8.88086
-8.83295
-9.17389
-9.15438
-8.18475
-7.91358
-7.27534
-7.10678
-6.98084
-7.0632
-7.53525
-7.58642
-7.06544
-6.9264
-6.98012
-7.16259
-8.14812
-8.37557
-8.9639
-9.37525
-11.3301
-11.7725
-12.2031
-12.3659
-13.3156
-13.6553
-14.963
-15.3827
-16.7267
-17.1008
-17.9739
-18.1276
-17.5314
-17.0008
-12.7947
-10.8092
-2.01084
-0.466791
-0.112321
-0.0267207
98.7145
562.114
0.347879
0.392722
-1.006
-1.56245
-3.04207
-3.25647
-4.0223
-4.08662
-4.15345
-4.13105
-2.90768
-2.96276
-5.23849
-5.71461
-13.4759
-13.7132
-10.1679
-9.93951
-8.56118
-8.41931
-7.16559
-6.9949
-4.41257
-4.39411
-6.45062
-6.76382
-12.2376
-12.3165
-9.20503
-9.05949
-8.11406
-7.9733
-5.20387
-5.45428
-13.8882
-14.1037
-10.2037
-9.95484
-9.16906
-9.14504
-9.27894
-9.26046
-8.19114
-8.08048
-7.40759
-7.34399
-7.33328
-7.36412
-7.6903
-7.70379
-7.13682
-7.08715
-7.30567
-7.37933
-8.27087
-8.36775
-9.25042
-9.41981
-11.2972
-11.4722
-12.0081
-12.0823
-13.1884
-13.3317
-14.7659
-14.94
-16.414
-16.566
-17.4446
-17.4939
-16.5733
-16.3235
-11.2803
-10.4448
-0.790626
-0.162326
-0.0386965
-0.00920545
86.2158
554.209
0.619075
0.758949
0.409313
-0.112804
-1.72328
-1.97453
-2.86289
-2.95336
-3.15911
-3.15164
-2.256
-2.28494
-3.63774
-3.95942
-9.99531
-10.2846
-9.346
-9.31049
-8.15278
-8.02542
-6.86304
-6.68547
-4.17507
-4.14756
-6.08405
-6.37803
-11.5672
-11.6377
-8.56888
-8.42207
-7.58996
-7.46092
-4.85306
-5.13211
-13.9433
-14.203
-10.6793
-10.4688
-9.84275
-9.85084
-10.5415
-10.5716
-9.69586
-9.599
-8.8008
-8.69285
-7.58585
-7.42822
-4.90424
-5.02103
-10.4488
-10.4891
-5.75263
-5.81219
-11.6382
-11.6737
-6.23652
-6.18815
-9.33686
-9.92857
-20.1311
-20.4158
-16.0913
-15.9099
-15.2062
-15.1962
-15.4369
-15.5002
-16.2026
-16.3339
-16.4424
-16.2889
-11.3199
-10.467
-0.811329
-0.168702
-0.0403731
-0.00944344
88.0644
530.087
4.56242
5.00189
2.81952
1.28977
-0.782649
-1.45657
-2.40718
-2.64208
-2.88304
-2.88761
-2.26436
-2.33523
-3.42617
-4.12139
-8.94174
-9.629
-9.31162
-9.28611
-8.3166
-8.01713
-6.96117
-6.56119
-4.5718
-4.51004
-6.04152
-6.66194
-10.6768
-10.8092
-8.36277
-8.06664
-7.55563
-7.29579
-5.2343
-5.84565
-12.9031
-13.4912
-10.8094
-10.3268
-9.5835
-9.60586
-10.4069
-10.507
-9.77802
-9.54664
-8.79318
-8.53691
-7.58591
-7.24566
-5.31968
-5.56324
-9.71399
-9.81027
-6.29621
-6.4361
-10.9034
-10.9972
-6.96336
-6.90593
-9.54048
-10.8289
-18.8806
-19.5222
-16.3716
-16.0139
-15.4591
-15.4467
-15.6883
-15.8455
-16.5227
-16.8946
-17.4495
-17.1712
-12.9974
-10.9554
-2.07342
-0.485502
-0.117205
-0.0274039
100.424
505.84
8.61148
9.35011
5.20405
2.71439
0.102269
-0.927416
-1.98003
-2.33052
-2.6164
-2.64868
-2.24494
-2.34469
-3.2304
-4.11832
-8.05346
-9.01351
-9.26553
-9.29948
-8.45362
-8.03912
-7.03308
-6.50048
-4.89142
-4.80878
-6.03543
-6.81007
-9.94175
-10.0838
-8.07065
-7.7198
-7.51125
-7.20272
-5.50861
-6.30133
-12.1216
-12.9103
-10.8515
-10.1952
-9.29364
-9.32973
-10.3004
-10.4756
-9.84027
-9.51518
-8.76569
-8.40879
-7.56156
-7.12655
-5.64835
-5.94917
-9.14133
-9.27588
-6.69366
-6.88693
-10.3435
-10.4859
-7.53116
-7.51605
-9.79796
-11.4587
-17.9265
-18.7804
-16.5403
-16.1258
-15.6904
-15.6871
-15.9431
-16.1701
-16.8551
-17.448
-18.49
-18.2093
-14.5895
-11.7172
-3.04362
-0.753424
-0.182849
-0.0426862
112.783
481.346
12.8766
13.8944
7.523
4.14445
0.92424
-0.397136
-1.58086
-2.02149
-2.35987
-2.42718
-2.20537
-2.3227
-3.03451
-3.99332
-7.28413
-8.4263
-9.22814
-9.34802
-8.57338
-8.08478
-7.08607
-6.48285
-5.15
-5.05515
-6.04741
-6.86391
-9.32626
-9.44463
-7.71204
-7.36726
-7.47086
-7.16505
-5.68343
-6.55589
-11.5413
-12.4433
-10.8375
-10.0735
-8.96628
-9.01622
-10.2257
-10.4767
-9.89014
-9.50073
-8.72254
-8.3003
-7.52076
-7.0492
-5.90589
-6.21948
-8.691
-8.85019
-6.98011
-7.20725
-9.91631
-10.0986
-7.9814
-8.03433
-10.0803
-11.8963
-17.1969
-18.1625
-16.6359
-16.2386
-15.9044
-15.9172
-16.1991
-16.4764
-17.1913
-17.9836
-19.5834
-19.3808
-16.1515
-12.7108
-3.7583
-0.952417
-0.231203
-0.053825
125.143
456.471
17.4795
18.7351
9.72313
5.56884
1.6707
0.127894
-1.21127
-1.71647
-2.11415
-2.21721
-2.15221
-2.27689
-2.8287
-3.77497
-6.60068
-7.85262
-9.21797
-9.43232
-8.68171
-8.15086
-7.12326
-6.49443
-5.35907
-5.25804
-6.06642
-6.85191
-8.80453
-8.8795
-7.29789
-6.99676
-7.44682
-7.17439
-5.76407
-6.6459
-11.1244
-12.0766
-10.7898
-9.96551
-8.59265
-8.65634
-10.1893
-10.5113
-9.93214
-9.50186
-8.66519
-8.20616
-7.46767
-6.99875
-6.10518
-6.4035
-8.33319
-8.50571
-7.18271
-7.42833
-9.59019
-9.80319
-8.34489
-8.47292
-10.3719
-12.1945
-16.6409
-17.6442
-16.6864
-16.349
-16.1046
-16.1367
-16.4554
-16.7653
-17.5244
-18.4869
-20.749
-20.6734
-17.7218
-13.9246
-4.22685
-1.06784
-0.25772
-0.0597451
137.504
431.065
22.5612
23.9875
11.7299
6.98372
2.32341
0.645056
-0.874881
-1.41568
-1.88017
-2.01394
-2.09144
-2.21397
-2.60705
-3.48138
-5.9801
-7.27434
-9.25379
-9.55519
-8.78126
-8.23684
-7.14452
-6.52628
-5.52677
-5.42455
-6.08634
-6.79323
-8.3579
-8.38062
-6.83252
-6.59621
-7.45165
-7.22922
-5.75298
-6.59202
-10.8485
-11.7994
-10.7236
-9.87949
-8.16158
-8.23769
-10.2014
-10.5819
-9.96822
-9.5193
-8.59278
-8.12324
-7.40385
-6.96533
-6.25684
-6.5223
-8.0457
-8.22107
-7.3226
-7.57281
-9.34208
-9.57472
-8.64496
-8.84072
-10.6666
-12.3879
-16.2226
-17.2045
-16.7123
-16.4558
-16.2939
-16.3448
-16.7121
-17.0364
-17.8495
-18.9383
-22.0081
-22.0809
-19.3256
-15.3742
-4.43356
-1.08912
-0.259662
-0.059855
149.865
404.95
28.2922
29.7882
13.4372
8.39589
2.85732
1.15615
-0.577516
-1.11786
-1.65937
-1.81289
-2.02883
-2.14018
-2.3661
-3.12274
-5.40762
-6.66858
-9.35668
-9.72106
-8.87163
-8.34476
-7.14685
-6.57341
-5.65859
-5.56051
-6.10446
-6.70022
-7.97294
-7.94456
-6.31466
-6.15196
-7.49958
-7.33418
-5.64925
-6.4014
-10.7048
-11.6033
-10.6482
-9.82844
-7.65877
-7.74354
-10.2769
-10.6923
-9.99774
-9.55588
-8.50214
-8.05036
-7.32884
-6.94274
-6.36957
-6.59081
-7.81216
-7.97943
-7.41658
-7.65656
-9.15547
-9.3928
-8.90007
-9.14336
-10.9656
-12.4968
-15.9186
-16.8239
-16.7287
-16.5588
-16.4748
-16.5403
-16.9706
-17.288
-18.1638
-19.3105
-23.387
-23.6013
-20.9771
-17.103
-4.33616
-1.0096
-0.236338
-0.0541078
162.227
377.911
34.8852
36.3037
14.693
9.8286
3.23815
1.66879
-0.327755
-0.819923
-1.45406
-1.60931
-1.97039
-2.06177
-2.10387
-2.7029
-4.87603
-6.00567
-9.55248
-9.93547
-8.94911
-8.47953
-7.12422
-6.63421
-5.75775
-5.67078
-6.12049
-6.58014
-7.64002
-7.57256
-5.73811
-5.64728
-7.60801
-7.49989
-5.44801
-6.06872
-10.6972
-11.4813
-10.5674
-9.83141
-7.06578
-7.15146
-10.437
-10.8471
-10.0172
-9.61698
-8.38747
-7.98831
-7.24045
-6.92768
-6.45056
-6.61936
-7.62082
-7.76703
-7.47849
-7.68999
-9.01936
-9.24012
-9.12577
-9.38289
-11.2762
-12.53
-15.7152
-16.4833
-16.7483
-16.6585
-16.6497
-16.7213
-17.2338
-17.5173
-18.4672
-19.5657
-24.9205
-25.2352
-22.6783
-19.1872
-3.86089
-0.82778
-0.189306
-0.0430223
174.59
349.678
42.6137
43.7412
15.2796
11.3308
3.41844
2.19869
-0.138071
-0.516258
-1.26787
-1.39749
-1.92271
-1.98531
-1.81933
-2.22005
-4.38611
-5.24602
-9.8748
-10.2046
-9.00592
-8.64976
-7.067
-6.71047
-5.82533
-5.75958
-6.13613
-6.43604
-7.35219
-7.27123
-5.0918
-5.06053
-7.79918
-7.74333
-5.13984
-5.57569
-10.8435
-11.4273
-10.4795
-9.91558
-6.35876
-6.43139
-10.7122
-11.0515
-10.0194
-9.71128
-8.23962
-7.94025
-7.13469
-6.91921
-6.50573
-6.61462
-7.46372
-7.57204
-7.52042
-7.67874
-8.92763
-9.10087
-9.33665
-9.557
-11.6125
-12.4861
-15.6086
-16.1629
-16.7821
-16.7551
-16.8215
-16.8848
-17.5062
-17.7201
-18.7648
-19.6506
-26.6555
-26.9839
-24.4167
-21.7447
-2.89369
-0.550046
-0.122542
-0.0276571
186.953
319.906
51.836
52.3627
14.8862
12.9919
3.33123
2.77339
-0.0266728
-0.197626
-1.10654
-1.16983
-1.89352
-1.91797
-1.51208
-1.66655
-3.94841
-4.33559
-10.3691
-10.5349
-9.02903
-8.86906
-6.96074
-6.80789
-5.86014
-5.8307
-6.15483
-6.26728
-7.10424
-7.05383
-4.35955
-4.36297
-8.10211
-8.08866
-4.71009
-4.88938
-11.177
-11.4345
-10.3762
-10.1195
-5.50657
-5.54299
-11.145
-11.3108
-9.99278
-9.85214
-8.04491
-7.91246
-7.00534
-6.91868
-6.54003
-6.58028
-7.33626
-7.38346
-7.55397
-7.62389
-8.87895
-8.95915
-9.54817
-9.65773
-11.996
-12.3523
-15.6047
-15.84
-16.8418
-16.8479
-16.9935
-17.0259
-17.795
-17.8897
-19.0689
-19.4908
-28.6576
-28.8483
-26.1591
-24.9491
-1.26608
-0.195589
-0.0424511
-0.00952943
199.317
376.134
5.94928
5.75824
-3.00772
-3.36594
-2.74857
-3.06476
-10.2672
-10.4718
-7.98483
-7.73543
-5.94819
-5.79654
-3.81397
-4.01243
-7.83955
-8.32716
-15.3571
-15.3788
-10.5199
-10.1448
-6.87439
-6.58444
-3.67371
-3.72093
-6.35729
-6.71984
-11.9185
-11.8526
-6.10433
-5.93994
-8.76194
-8.81833
-7.58712
-7.5767
-6.89884
-6.82179
-5.69065
-5.47194
-2.8982
-3.03523
-8.36497
-8.5246
-6.54599
-6.39518
-5.56905
-5.44714
-3.53355
-3.73
-10.7702
-11.1337
-11.4391
-11.5052
-11.284
-11.3227
-12.9282
-12.8976
-9.42738
-10.0968
-28.5403
-29.1451
-24.7597
-24.566
-23.7108
-23.7081
-24.4161
-24.4749
-25.1633
-25.1976
-25.6668
-25.7046
-27.1776
-27.017
-23.2814
-24.3509
-58.5285
-57.6065
-2.58418
-0.345119
568.109
387.365
4.60191
4.13424
-2.84406
-3.62145
-3.20803
-3.91848
-9.81312
-10.2548
-8.09525
-7.49808
-5.89269
-5.5764
-4.27319
-4.81066
-8.35566
-9.42322
-14.6092
-14.5893
-10.6913
-9.86124
-7.13539
-6.4896
-4.14866
-4.30507
-6.80363
-7.60689
-11.4457
-11.2645
-6.75901
-6.36974
-8.31978
-8.42986
-7.64037
-7.68466
-7.4046
-7.23965
-6.06552
-5.5401
-3.43891
-3.75072
-8.12381
-8.48142
-6.84326
-6.49096
-5.73857
-5.47267
-4.03651
-4.43652
-9.81114
-10.6369
-11.3936
-11.5937
-11.3507
-11.4146
-12.6436
-12.624
-10.3336
-11.7964
-26.1458
-27.4463
-24.2657
-23.8788
-23.2097
-23.2075
-23.7677
-23.8931
-24.4298
-24.4891
-24.7772
-24.8161
-25.7471
-25.3431
-22.357
-24.4332
-49.7841
-47.778
-5.64118
-0.957379
538.667
398.427
3.44183
2.77073
-2.92836
-3.9245
-3.62246
-4.56479
-9.57713
-10.1418
-8.14317
-7.30106
-5.78564
-5.39573
-4.65876
-5.48856
-8.97083
-10.3545
-14.0695
-13.9549
-10.74
-9.6535
-7.31322
-6.46259
-4.52373
-4.79553
-7.31776
-8.3725
-11.1337
-10.8493
-7.24905
-6.70598
-7.95124
-8.07738
-7.66029
-7.80562
-7.90579
-7.69791
-6.41448
-5.67131
-3.8831
-4.30376
-8.04328
-8.5181
-7.08913
-6.60278
-5.88867
-5.54505
-4.46605
-4.94407
-9.03407
-10.143
-11.3703
-11.6999
-11.4052
-11.4599
-12.409
-12.4413
-11.0897
-12.9805
-24.2733
-25.9268
-23.6599
-23.2028
-22.6819
-22.6844
-23.1368
-23.2949
-23.7154
-23.7715
-23.8977
-23.8919
-24.3701
-23.7724
-21.23
-23.5845
-42.1338
-39.5547
-7.19998
-1.41422
509.257
409.369
2.42879
1.60847
-3.20064
-4.27937
-3.98702
-5.0482
-9.51898
-10.1313
-8.14482
-7.13098
-5.63357
-5.22893
-4.98162
-6.06031
-9.66988
-11.1925
-13.683
-13.4445
-10.7037
-9.49596
-7.43151
-6.47914
-4.81039
-5.19596
-7.89059
-9.06984
-10.9435
-10.5669
-7.61683
-6.97071
-7.62749
-7.74665
-7.65774
-7.92842
-8.41934
-8.19924
-6.74186
-5.84435
-4.23898
-4.72408
-8.09338
-8.63097
-7.29735
-6.72376
-6.02399
-5.64687
-4.83333
-5.30715
-8.37627
-9.64429
-11.3829
-11.8311
-11.4457
-11.4694
-12.2111
-12.3139
-11.716
-13.7886
-22.7863
-24.564
-22.9818
-22.5295
-22.1332
-22.1433
-22.5176
-22.6862
-23.0156
-23.0511
-23.0234
-22.9484
-23.0361
-22.2795
-19.9071
-22.0879
-35.3285
-32.5222
-7.69592
-1.6865
479.892
420.231
1.52961
0.605918
-3.62197
-4.68892
-4.29729
-5.39512
-9.61509
-10.2247
-8.10755
-6.98025
-5.4378
-5.05583
-5.25141
-6.53076
-10.4523
-11.9917
-13.4057
-13.0342
-10.606
-9.37275
-7.50539
-6.52438
-5.01489
-5.50401
-8.524
-9.73939
-10.8433
-10.3874
-7.89248
-7.18336
-7.32528
-7.42429
-7.64086
-8.04246
-8.96139
-8.75012
-7.04691
-6.04576
-4.51127
-5.02907
-8.25679
-8.81874
-7.47524
-6.84987
-6.14647
-5.7662
-5.14914
-5.56645
-7.79053
-9.12683
-11.4472
-11.9957
-11.47
-11.4503
-12.0388
-12.2146
-12.2356
-14.3196
-21.588
-23.3357
-22.2585
-21.8539
-21.5683
-21.5876
-21.9067
-22.071
-22.3275
-22.3332
-22.151
-21.9984
-21.7358
-20.8513
-18.4019
-20.1488
-29.1649
-26.3704
-7.43906
-1.77392
450.583
431.045
0.715769
-0.264279
-4.16955
-5.15664
-4.54783
-5.61702
-9.85553
-10.4271
-8.03067
-6.84613
-5.19562
-4.85962
-5.4778
-6.89544
-11.33
-12.7959
-13.1997
-12.7062
-10.4606
-9.27498
-7.54387
-6.59081
-5.13945
-5.71082
-9.22958
-10.4134
-10.8055
-10.2894
-8.09674
-7.362
-7.02483
-7.09726
-7.61662
-8.13587
-9.54871
-9.36074
-7.32394
-6.26856
-4.70151
-5.2257
-8.52687
-9.0828
-7.62447
-6.97917
-6.2561
-5.89505
-5.42361
-5.7535
-7.24033
-8.57003
-11.5824
-12.2034
-11.474
-11.4069
-11.8831
-12.1215
-12.6725
-14.6432
-20.6106
-22.2203
-21.5083
-21.1736
-20.9913
-21.02
-21.3019
-21.4522
-21.6495
-21.6228
-21.2775
-21.0529
-20.4605
-19.4855
-16.7288
-17.9187
-23.4735
-20.8638
-6.6514
-1.69276
421.33
441.839
-0.038849
-1.01728
-4.83367
-5.68802
-4.73111
-5.71202
-10.2425
-10.7483
-7.9053
-6.73067
-4.90086
-4.62522
-5.67216
-7.13937
-12.3263
-13.6424
-13.0296
-12.4483
-10.2729
-9.1991
-7.5513
-6.67721
-5.18311
-5.79971
-10.0285
-11.119
-10.8041
-10.2586
-8.24271
-7.52478
-6.70802
-6.7524
-7.59244
-8.1936
-10.2001
-10.0454
-7.56177
-6.51187
-4.80814
-5.31129
-8.90681
-9.42749
-7.74126
-7.11166
-6.35132
-6.02837
-5.66607
-5.89429
-6.69644
-7.94598
-11.8134
-12.4651
-11.4517
-11.3419
-11.7369
-12.0158
-13.0527
-14.8069
-19.8074
-21.1978
-20.743
-20.4873
-20.4058
-20.4423
-20.7025
-20.8316
-20.9804
-20.9252
-20.3992
-20.122
-19.2005
-18.191
-14.8977
-15.5139
-18.1085
-15.8211
-5.49345
-1.46833
392.132
452.64
-0.760249
-1.6566
-5.6161
-6.29169
-4.83672
-5.66492
-10.7905
-11.2033
-7.7132
-6.64141
-4.54394
-4.3379
-5.84967
-7.23444
-13.4774
-14.5661
-12.8583
-12.2542
-10.0411
-9.14626
-7.52785
-6.78845
-5.14235
-5.7441
-10.953
-11.8809
-10.8118
-10.2866
-8.3368
-7.69155
-6.35681
-6.37575
-7.57785
-8.19516
-10.9381
-10.8232
-7.74231
-6.78138
-4.82653
-5.27322
-9.4098
-9.86051
-7.81586
-7.24945
-6.4291
-6.1633
-5.88493
-6.01215
-6.13469
-7.21724
-12.173
-12.7935
-11.3932
-11.2567
-11.5953
-11.8798
-13.4041
-14.8407
-19.1486
-20.2491
-19.9697
-19.794
-19.8157
-19.8556
-20.1083
-20.2101
-20.3195
-20.2465
-19.511
-19.217
-17.944
-16.9879
-12.9102
-13.0297
-12.9385
-11.0998
-4.08328
-1.13046
362.98
463.473
-1.47695
-2.17326
-6.52975
-6.98047
-4.85091
-5.44585
-11.5269
-11.8144
-7.42435
-6.5932
-4.11137
-3.98186
-6.03221
-7.13512
-14.8345
-15.6016
-12.6427
-12.1245
-9.75669
-9.12241
-7.46927
-6.93599
-5.01169
-5.5042
-12.0487
-12.7226
-10.7979
-10.3716
-8.37874
-7.88592
-5.95148
-5.9518
-7.5867
-8.11175
-11.7904
-11.7198
-7.83809
-7.09069
-4.74889
-5.08759
-10.0603
-10.3934
-7.83138
-7.39746
-6.48475
-6.29878
-6.08759
-6.13021
-5.53455
-6.3336
-12.706
-13.2028
-11.2842
-11.1525
-11.456
-11.6943
-13.7591
-14.7596
-18.6181
-19.3556
-19.1924
-19.0928
-19.2248
-19.2605
-19.5202
-19.5884
-19.666
-19.5943
-18.6051
-18.3511
-16.6748
-15.9095
-10.7546
-10.5538
-7.83832
-6.58546
-2.51048
-0.710976
333.864
474.363
-2.22333
-2.54342
-7.59955
-7.77237
-4.75605
-5.00728
-12.4949
-12.6125
-6.99315
-6.61101
-3.58471
-3.53861
-6.25263
-6.7719
-16.469
-16.7861
-12.3295
-12.0688
-9.40294
-9.13935
-7.36594
-7.13918
-4.78435
-5.02221
-13.3792
-13.6683
-10.724
-10.5193
-8.36068
-8.13798
-5.46877
-5.46249
-7.63996
-7.90222
-12.7926
-12.7688
-7.80853
-7.46379
-4.56405
-4.71661
-10.8963
-11.0421
-7.76182
-7.56465
-6.51136
-6.43529
-6.28011
-6.27382
-4.87864
-5.22706
-13.4741
-13.7087
-11.1038
-11.031
-11.3192
-11.4357
-14.1566
-14.5641
-18.2124
-18.4981
-18.4125
-18.3824
-18.6378
-18.6564
-18.9398
-18.9662
-19.0184
-18.9788
-17.6699
-17.5422
-15.3692
-15.0067
-8.40086
-8.17846
-2.6795
-2.18394
-0.846608
-0.242438
304.77
)
;

boundaryField
{
    F1_1
    {
        type            calculated;
        value           nonuniform List<scalar> 
80
(
166.134
178.789
41.5468
8.90612
6.65269
0.260007
-0.296748
-2.1367
-2.32418
-2.96743
-3.00505
-2.25345
-2.34914
-5.06092
-5.58938
-14.3069
-14.5435
-9.86438
-9.60517
-8.32002
-8.17198
-6.81744
-6.63592
-4.11998
-4.08769
-6.36077
-6.7844
-14.1215
-14.2733
-9.94774
-9.72144
-8.55007
-8.3652
-5.1878
-5.38325
-13.2562
-13.4245
-9.1619
-8.88798
-7.52985
-7.4436
-7.11664
-7.06091
-5.85497
-5.73
-4.58882
-4.45144
-2.7728
-2.78039
-4.96728
-4.97259
-3.14655
-3.01407
-1.73411
-1.72136
-2.85298
-2.83993
-1.41191
-1.38099
-1.86463
-1.98333
-4.08241
-4.17603
-3.8434
-3.89594
-4.76563
-4.9102
-6.47884
-6.68245
-8.43718
-8.69018
-10.6684
-10.912
-12.3888
-12.4407
-2.93858
-2.30299
-0.890392