/*--------------------------------*- C++ -*----------------------------------*\
| =========                 |                                                 |
| \\      /  F ield         | OpenFOAM: The Open Source CFD Toolbox           |
|  \\    /   O peration     | Version:  5.x                                   |
|   \\  /    A nd           | Web:      www.OpenFOAM.org                      |
|    \\/     M anipulation  |                                                 |
\*---------------------------------------------------------------------------*/
FoamFile
{
    version     2.0;
    format      ascii;
    class       volScalarField;
    location    "0.8";
    object      T;
}
// * * * * * * * * * * * * * * * * * * * * * * * * * * * * * * * * * * * * * //

dimensions      [0 0 0 1 0 0 0];

internalField   nonuniform List<scalar> 
3200
(
1.30519
15.3082
19.184
19.4629
20.0747
20.1282
20.1007
20.0985
19.887
19.8661
19.5902
19.5656
19.3649
19.3307
18.8588
18.7717
17.4281
17.3174
16.4417
16.3569
15.6097
15.5397
14.9279
14.8761
14.5159
14.4673
13.8799
13.7889
12.4677
12.3615
11.4729
11.3894
10.6179
10.5529
10.0991
10.0145
8.77352
8.67209
7.85733
7.78329
7.10435
7.03893
6.39269
6.33284
5.80719
5.75984
5.34831
5.31469
5.07103
5.03665
4.5743
4.53939
4.25964
4.23799
4.08623
4.06585
3.80094
3.78186
3.65974
3.64376
3.47328
3.44543
3.06504
3.02782
2.6807
2.63823
2.20414
2.14721
1.55625
1.47897
0.712535
0.609948
-0.354303
-0.481251
-1.59319
-1.72532
-1.88704
-1.95562
-1.97608
-1.98113
3.35543
14.2638
18.1912
18.8706
19.5289
19.6703
19.7008
19.7038
19.5438
19.4989
19.2715
19.2146
19.0317
18.9531
18.5546
18.359
17.2458
16.9935
16.2331
16.0368
15.3939
15.2326
14.7085
14.5877
14.2629
14.151
13.656
13.4521
12.3612
12.1226
11.3731
11.1821
10.5188
10.3674
9.95999
9.76719
8.7374
8.5072
7.80876
7.64045
7.07257
6.92408
6.37224
6.23478
5.78523
5.67687
5.32786
5.25053
5.03562
4.95799
4.58
4.50218
4.26712
4.21768
4.08437
4.03826
3.82094
3.77767
3.66851
3.63098
3.48053
3.41677
3.09787
3.01234
2.70861
2.60904
2.22529
2.09096
1.56532
1.38157
0.690457
0.443714
-0.442193
-0.750144
-1.78456
-2.1406
-2.63067
-2.8346
-2.89468
-2.9094
4.96932
13.4986
17.3283
18.2792
19.0037
19.217
19.3021
19.3156
19.196
19.1391
18.946
18.8687
18.6943
18.5884
18.2422
17.983
17.029
16.6899
16.0021
15.7346
15.159
14.9402
14.4731
14.3075
14.0015
13.8501
13.4206
13.1508
12.2207
11.9041
11.2509
10.9939
10.3992
10.1922
9.81229
9.55337
8.66933
8.36107
7.73902
7.51362
7.02405
6.82539
6.33525
6.14924
5.74964
5.60355
5.29656
5.19189
4.99474
4.89135
4.57371
4.47127
4.26719
4.20074
4.07903
4.01752
3.834
3.77612
3.67442
3.62272
3.48431
3.39832
3.12136
3.00558
2.72835
2.59123
2.23647
2.05035
1.56071
1.30447
0.650596
0.303037
-0.553214
-0.989995
-2.00309
-2.55053
-3.38576
-3.71936
-3.81511
-3.83828
6.24201
12.9213
16.5806
17.6968
18.4991
18.7687
18.9063
18.9327
18.8458
18.7848
18.6159
18.5268
18.3543
18.2334
17.9265
17.6348
16.7878
16.4004
15.7543
15.4449
14.9098
14.6577
14.2256
14.033
13.7338
13.5604
13.1788
12.8761
12.0556
11.6991
11.113
10.8191
10.2641
10.024
9.65981
9.3646
8.57828
8.22756
7.65346
7.3974
6.96393
6.73841
6.28614
6.07228
5.70395
5.5367
5.2572
5.13698
4.95013
4.83331
4.55884
4.44445
4.26177
4.18602
4.07129
4.00168
3.84205
3.77634
3.67834
3.61795
3.48601
3.38753
3.13842
3.00529
2.74249
2.58212
2.2409
2.02188
1.54676
1.24326
0.59847
0.182691
-0.681036
-1.20682
-2.24028
-2.94899
-4.16096
-4.61366
-4.73848
-4.76812
7.24749
12.4648
15.9345
17.127
18.0157
18.3258
18.515
18.5545
18.4947
18.4348
18.2827
18.1882
18.0122
17.886
17.6102
17.3089
16.5282
16.1213
15.4931
15.1642
14.6494
14.3826
13.9686
13.7628
13.4613
13.2791
12.934
12.6221
11.8721
11.5035
10.9634
10.6549
10.1165
9.86077
9.50464
9.19556
8.46989
8.10304
7.55525
7.28835
6.89556
6.66055
6.22754
6.00155
5.65026
5.47438
5.21151
5.08477
4.90276
4.78161
4.5376
4.42038
4.2521
4.17289
4.06178
3.98947
3.84635
3.77786
3.68077
3.61604
3.48638
3.38276
3.15084
3.0102
2.75253
2.58024
2.24044
2.00366
1.52594
1.19569
0.537167
0.0802392
-0.822405
-1.40337
-2.4905
-3.32736
-4.96657
-5.52113
-5.6657
-5.69917
8.04424
12.0781
15.3795
16.5693
17.5555
17.8877
18.1297
18.1803
18.1435
18.0886
17.9472
17.853
17.6683
17.5445
17.295
17.0024
16.2538
15.8511
15.22
14.8911
14.3792
14.1134
13.7034
13.4965
13.1841
13.0045
12.6879
12.3857
11.6735
11.3147
10.8047
10.5
9.95777
9.70169
9.34769
9.04326
8.34722
7.98584
7.44587
7.1844
6.82094
6.59067
6.16072
5.93588
5.58961
5.41559
5.16042
5.03482
4.85299
4.73487
4.51131
4.39839
4.23889
4.16107
4.05074
3.98011
3.8477
3.78055
3.68192
3.61676
3.48573
3.38314
3.15962
3.01979
2.75917
2.58507
2.23586
1.99507
1.49921
1.16123
0.46778
-0.00440981
-0.976674
-1.57972
-2.75077
-3.67368
-5.81561
-6.44504
-6.59741
-6.6316
8.67958
11.7207
14.9089
16.0198
17.1215
17.4533
17.7522
17.8096
17.7932
17.746
17.61
17.5215
17.322
17.2083
16.9817
16.7141
15.9657
15.5902
14.935
14.6255
14.0992
13.85
13.4302
13.2346
12.9016
12.7354
12.4413
12.1659
11.4608
11.1321
10.6379
10.3547
9.78763
9.5466
9.18883
8.90671
8.21124
7.87587
7.32543
7.0846
6.74106
6.52885
6.08576
5.87513
5.52212
5.3601
5.10419
4.98715
4.80072
4.69237
4.48064
4.3783
4.22245
4.15057
4.03813
3.97324
3.84645
3.78452
3.68176
3.62012
3.48395
3.38837
3.16507
3.03421
2.76234
2.59691
2.22693
1.99667
1.46615
1.14099
0.389524
-0.0690825
-1.14575
-1.73339
-3.02102
-3.97129
-6.72521
-7.38809
-7.53389
-7.56544
9.19324
11.3573
14.5213
15.4706
16.7183
17.0203
17.3843
17.4419
17.4442
17.407
17.2709
17.1946
16.9723
16.8766
16.6701
16.4452
15.6627
15.3406
14.6362
14.3686
13.8083
13.5936
13.1481
12.9782
12.6126
12.4714
12.1941
11.9633
11.2331
10.9563
10.4627
10.2208
9.60454
9.39627
9.02703
8.78677
8.06094
7.77457
7.19268
6.98897
6.65598
6.47631
6.00155
5.82012
5.44703
5.3084
5.04245
4.9423
4.74536
4.65404
4.44562
4.36037
4.20268
4.14171
4.02365
3.96887
3.84263
3.79014
3.67996
3.62648
3.48056
3.39872
3.16682
3.05429
2.76127
2.61692
2.21242
2.01028
1.42488
1.13778
0.299534
-0.109057
-1.33441
-1.8591
-3.3048
-4.1968
-7.71849
-8.35186
-8.47499
-8.50056
9.62029
10.9539
14.2224
14.9095
16.353
16.5848
17.0288
17.0765
17.0969
17.072
16.9295
16.8735
16.6177
16.5494
16.3593
16.1987
15.3414
15.1064
14.32
14.1234
13.5036
13.3465
12.855
12.7298
12.3146
12.2131
11.9451
11.7807
10.9874
10.7891
10.2775
10.102
9.40518
9.25245
8.86014
8.68631
7.89312
7.68514
7.04484
6.89856
6.56482
6.43562
5.90566
5.77282
5.36261
5.26184
4.9741
4.90136
4.6858
4.62043
4.4057
4.34536
4.17905
4.13516
4.00665
3.96737
3.83587
3.79808
3.67591
3.63654
3.47461
3.41508
3.16381
3.08159
2.75425
2.64735
2.18982
2.03921
1.37166
1.1566
0.192344
-0.116381
-1.55113
-1.94799
-3.61076
-4.31716
-8.82734
-9.33608
-9.42003
-9.43674
9.99398
10.4731
14.0266
14.3182
16.0361
16.1408
16.6891
16.7123
16.7513
16.7417
16.5847
16.5605
16.2556
16.2271
16.0474
15.9801
14.9952
14.8943
13.9802
13.8953
13.1804
13.1128
12.5473
12.493
12.0042
11.9614
11.692
11.6233
10.7179
10.6346
10.0789
10.004
9.18411
9.11824
8.68454
8.61067
7.70192
7.61304
6.87728
6.81569
6.46551
6.411
5.7939
5.73665
5.26583
5.22277
4.89718
4.86614
4.62025
4.5928
4.35962
4.33461
4.15055
4.13201
3.98609
3.96957
3.82538
3.80941
3.66856
3.65152
3.46458
3.43912
3.15403
3.1187
2.73841
2.69179
2.15493
2.08882
1.30034
1.20539
0.0589227
-0.0786781
-1.80937
-1.98627
-3.955
-4.28538
-10.0963
-10.3373
-10.3678
-10.3736
16.7408
16.9273
21.604
21.8248
22.6431
22.6751
22.6806
22.6682
22.518
22.4947
22.2755
22.2446
21.8849
21.8516
21.6296
21.5572
20.4726
20.3688
19.4727
19.3884
18.688
18.6188
18.0158
17.9564
17.4018
17.3427
16.7396
16.6678
15.9697
15.9035
15.5091
15.4394
14.5554
14.4875
14.0607
13.978
12.8617
12.7591
11.9358
11.8659
11.4748
11.4025
10.484
10.4032
9.76769
9.70538
9.2041
9.15706
8.88298
8.8274
8.11522
8.04971
7.51637
7.46767
7.18187
7.1197
6.27337
6.20113
5.72658
5.62962
4.25244
4.1221
2.88408
2.75212
1.40285
1.25299
-0.3565
-0.530619
-2.39521
-2.59337
-4.72702
-4.94659
-7.34658
-7.56283
-9.81381
-9.91867
-9.93404
-9.93734
-9.9381
-9.93827
18.0672
18.4546
22.0583
22.5185
23.183
23.2486
23.2401
23.2076
23.0635
23.0067
22.806
22.734
22.4306
22.3514
22.1266
21.9558
21.0259
20.7854
20.0104
19.8147
19.204
19.043
18.5197
18.3832
17.9121
17.7765
17.2539
17.0847
16.4602
16.3
15.9188
15.7554
15.0136
14.857
14.4671
14.2739
13.3159
13.0777
12.3603
12.1937
11.8135
11.643
10.8647
10.6781
10.1207
9.97424
9.52941
9.41552
9.1431
9.01137
8.40441
8.25244
7.78404
7.66682
7.3836
7.23741
6.52255
6.35289
5.90287
5.67829
4.5263
4.22949
3.16941
2.86645
1.71115
1.36793
-0.00152848
-0.398855
-1.98019
-2.4306
-4.22949
-4.72443
-6.72016
-7.20017
-9.0253
-9.25761
-9.30062
-9.31013
-9.31234
-9.31284
19.378
19.8531
22.6383
23.204
23.7469
23.8251
23.8004
23.7515
23.6055
23.5244
23.3313
23.2327
22.9674
22.8571
22.6214
22.3847
21.5516
21.2233
20.525
20.2576
19.702
19.4817
19.0082
18.8234
18.4091
18.2257
17.7541
17.5198
16.9323
16.7053
16.3198
16.0946
15.4484
15.2359
14.8656
14.6004
13.7414
13.4154
12.7629
12.53
12.1438
11.9079
11.2218
10.9679
10.4573
10.2551
9.8415
9.68035
9.39762
9.21437
8.67543
8.46786
8.03769
7.87263
7.57987
7.37788
6.74995
6.51589
6.07016
5.76408
4.76598
4.36742
3.42446
3.01489
1.98698
1.52392
0.314563
-0.219727
-1.6104
-2.21388
-3.78412
-4.44224
-6.15438
-6.78372
-8.3005
-8.60412
-8.66854
-8.68322
-8.68665
-8.68743
20.6697
21.1591
23.3069
23.8904
24.3293
24.4058
24.3618
24.2993
24.1449
24.0466
23.8529
23.7381
23.4981
23.3678
23.1163
22.8376
22.0572
21.6762
21.0224
20.7121
20.1867
19.9305
19.4853
19.2728
18.8968
18.6865
18.2449
17.9691
17.3899
17.117
16.7145
16.4506
15.8659
15.6211
15.26
14.9507
14.1457
13.7663
13.1487
12.8726
12.4681
12.1909
11.5617
11.2681
10.7816
10.5444
10.1435
9.95008
9.6482
9.43163
8.93323
8.69221
8.28077
8.08359
7.77254
7.53542
6.96162
6.68739
6.2319
5.87758
4.98169
4.52715
3.65819
3.18807
2.24023
1.70977
0.603659
-0.006338
-1.27209
-1.95849
-3.37523
-4.11789
-5.63191
-6.33178
-7.62424
-7.96021
-8.03846
-8.05676
-8.06108
-8.06206
21.9418
22.3986
24.038
24.5825
24.9263
24.9913
24.924
24.8508
24.6822
24.5727
24.3713
24.2485
24.0244
23.8834
23.6124
23.3106
22.5469
22.14
21.5061
21.1753
20.6607
20.387
19.953
19.7287
19.378
19.1565
18.7291
18.4305
17.8353
17.534
17.1036
16.8195
16.2699
16.011
15.6523
15.3209
14.533
14.1267
13.5209
13.2203
12.7874
12.488
11.8882
11.5759
11.096
10.8403
10.4373
10.2242
9.89541
9.66023
9.18078
8.92343
8.51533
8.29915
7.96229
7.70648
7.16135
6.86617
6.38962
6.01277
5.17979
4.70349
3.876
3.38039
2.4768
1.91866
0.872921
0.233288
-0.95696
-1.67389
-2.99331
-3.76269
-5.14202
-5.85614
-6.98625
-7.32662
-7.4108
-7.43089
-7.43565
-7.43674
23.1954
23.5907
24.8128
25.2826
25.5343
25.582
25.4864
25.4061
25.2171
25.1025
24.8867
24.763
24.5474
24.4042
24.1097
23.8021
23.0223
22.6129
21.9778
21.6458
21.125
20.8499
20.4124
20.1898
19.854
19.6349
19.2082
18.9039
18.2691
17.9562
17.487
17.1991
16.6624
16.405
16.0436
15.7094
14.9051
14.4952
13.881
13.5734
13.1014
12.7971
12.2033
11.8906
11.4015
11.1422
10.7236
10.503
10.1389
9.89864
9.4195
9.16074
8.74226
8.51958
8.14886
7.88915
7.35113
7.05225
6.5434
6.16625
5.36365
4.89391
4.08056
3.58905
2.69957
2.14708
1.12595
0.494946
-0.660755
-1.36519
-2.6334
-3.38311
-4.67875
-5.36388
-6.37986
-6.70329
-6.78571
-6.80563
-6.81038
-6.81147
24.433
24.7496
25.6176
25.9913
26.1506
26.1786
26.0482
25.9658
25.7491
25.6365
25.3984
25.2812
25.0676
24.9312
24.6077
24.3126
23.4831
23.0949
22.4373
22.124
21.5796
21.3194
20.8633
20.6555
20.3255
20.1217
19.6824
19.3906
18.69
18.3848
17.8632
17.5887
17.0437
16.8032
16.4339
16.1168
15.2615
14.8719
14.2288
13.9332
13.4088
13.118
12.5072
12.2124
11.6978
11.4505
11.002
10.7876
10.3776
10.1467
9.64947
9.40449
8.96142
8.74598
8.33103
8.083
7.53138
7.24677
6.69195
6.33678
5.53424
5.0981
4.27227
3.81365
2.90887
2.39425
1.36338
0.777599
-0.382598
-1.03394
-2.29424
-2.98169
-4.23991
-4.8584
-5.80119
-6.08963
-6.16314
-6.18101
-6.18528
-6.18626
25.6579
25.8862
26.4421
26.7086
26.772
26.7814
26.6081
26.5309
26.2769
26.1754
25.9053
25.8034
25.5847
25.4657
25.1045
24.8445
23.9262
23.5878
22.8832
22.6115
22.023
21.7968
21.3043
21.1262
20.7919
20.6179
20.1508
19.8937
19.0952
18.822
18.2296
17.9892
17.4129
17.2066
16.8222
16.5457
15.5993
15.2588
14.5629
14.3022
13.7069
13.4516
12.7986
12.543
11.9835
11.7669
11.2711
11.0801
10.6091
10.4054
9.86939
9.65621
9.17151
8.98041
8.50657
8.28904
7.701
7.45214
6.83255
6.52525
5.6902
5.31791
4.44931
4.05611
3.10259
2.66209
1.58303
1.08323
-0.124791
-0.678327
-1.97799
-2.55745
-3.82668
-4.33996
-5.24871
-5.48457
-5.5428
-5.55694
-5.56032
-5.5611
26.8735
27.0096
27.278
27.4339
27.3956
27.3916
27.1642
27.1031
26.7987
26.7212
26.4055
26.3302
26.0979
26.0099
25.5973
25.4028
24.3461
24.0954
23.3118
23.1117
22.4518
22.2849
21.7328
21.6031
21.252
21.1259
20.6109
20.4185
19.4794
19.2721
18.5819
18.4032
17.7674
17.6172
17.2062
17.0016
15.9129
15.6601
14.8795
14.6846
13.9915
13.8013
13.0741
12.8858
12.2556
12.0945
11.5281
11.3838
10.83
10.6775
10.0764
9.91883
9.3699
9.22619
8.67189
8.50993
7.85708
7.67237
6.96069
6.73485
5.82768
5.55759
4.60737
4.32101
3.27581
2.95548
1.7795
1.4172
0.106837
-0.292873
-1.69055
-2.10563
-3.44369
-3.80571
-4.72316
-4.88663
-4.92424
-4.93331
-4.93548
-4.93598
28.0837
28.1277
28.1185
28.167
28.0179
28.0108
27.7136
27.6851
27.3114
27.2764
26.8961
26.8633
26.6053
26.5671
26.0815
25.9956
24.7339
24.6243
23.7171
23.6303
22.861
22.7884
22.1444
22.0889
21.7031
21.6495
21.0581
20.9731
19.8343
19.7415
18.9138
18.8355
18.1024
18.0382
17.582
17.4928
16.1932
16.0824
15.1728
15.0869
14.2559
14.1724
13.328
13.2464
12.5089
12.4383
11.7681
11.7039
11.0348
10.9675
10.2658
10.1971
9.55211
9.48841
8.82154
8.75048
7.99445
7.9137
7.06941
6.97172
5.93969
5.8245
4.73888
4.61627
3.42003
3.2831
1.94344
1.7891
0.302041
0.132499
-1.44242
-1.61689
-3.09974
-3.24925
-4.22777
-4.29373
-4.30684
-4.30996
-4.31071
-4.31088
27.6863
27.7346
27.7482
27.8105
27.7892
27.7992
27.6168
27.6018
27.3306
27.3064
27.0146
26.9913
26.789
26.7628
26.4253
26.3668
25.4257
25.3384
24.4911
24.4073
23.6759
23.6048
22.9896
22.9362
22.572
22.5215
21.9636
21.8837
20.8069
20.7199
19.95
19.8777
19.191
19.1316
18.7057
18.6184
17.3114
17.1981
16.2435
16.1512
15.2592
15.1661
14.205
14.109
13.2355
13.1491
12.3554
12.2798
11.5968
11.537
11.1064
11.0349
10.0615
9.98594
9.48623
9.40473
8.32241
8.23736
7.69876
7.61854
6.76507
6.62568
4.75196
4.58411
3.14283
2.99312
1.62221
1.4735
0.078521
-0.0765153
-1.54174
-1.7099
-3.18597
-3.33879
-4.31797
-4.38549
-4.3991
-4.40236
-4.40314
-4.4033
26.4303
26.5784
26.8865
27.0786
27.1685
27.2075
27.0902
27.0619
26.8495
26.7977
26.5612
26.5089
26.3348
26.2754
25.9921
25.8633
25.098
24.9004
24.1668
23.9718
23.3352
23.17
22.639
22.5139
22.1819
22.0629
21.5777
21.3967
20.51
20.3158
19.6737
19.5091
18.9182
18.7796
18.3947
18.195
17.1044
16.8459
16.0235
15.8132
15.0652
14.8526
14.0245
13.8019
13.0467
12.8472
12.1673
11.9936
11.4088
11.269
10.8768
10.7127
9.90538
9.73163
9.27576
9.08802
8.18543
7.9883
7.48909
7.29771
6.53504
6.21482
4.64699
4.26259
3.00982
2.6612
1.46391
1.11653
-0.104914
-0.468018
-1.75719
-2.15748
-3.50214
-3.87459
-4.80188
-4.97013
-5.00922
-5.01868
-5.02094
-5.02142
25.1683
25.4157
26.0294
26.3507
26.5498
26.6222
26.5601
26.5294
26.3621
26.2964
26.1004
26.0315
25.8759
25.797
25.5529
25.3852
24.7475
24.4838
23.821
23.5539
22.9756
22.75
22.2723
22.0999
21.7832
21.6191
21.1796
20.9381
20.1855
19.9297
19.3784
19.1577
18.6273
18.4374
18.0764
17.8073
16.8642
16.5163
15.7791
15.4967
14.8497
14.5638
13.8197
13.5162
12.8357
12.5647
11.9591
11.7238
11.2029
11.0111
10.6381
10.4162
9.72397
9.48864
9.0546
8.79995
8.02025
7.75135
7.26713
6.99975
6.28734
5.85387
4.49469
3.97583
2.84067
2.36325
1.27163
0.794536
-0.322674
-0.822472
-2.00819
-2.56727
-3.85719
-4.3882
-5.31614
-5.55992
-5.6205
-5.63526
-5.63878
-5.63953
23.8963
24.2383
25.1839
25.6277
25.9362
26.0422
26.0287
26.0025
25.8706
25.8003
25.6346
25.5576
25.4141
25.3253
25.1106
24.926
24.3822
24.0834
23.4594
23.1486
22.602
22.3401
21.8934
21.6918
21.3784
21.1863
20.7737
20.4999
19.8411
19.5554
19.0699
18.8187
18.3228
18.1022
17.7544
17.4466
16.6003
16.2023
15.5166
15.1949
14.6199
14.2933
13.5974
13.2456
12.6083
12.2956
11.7361
11.4655
10.984
10.7606
10.3934
10.1387
9.52433
9.25364
8.82632
8.53291
7.83469
7.52306
7.03655
6.71963
6.02852
5.53
4.30882
3.71375
2.64523
2.08989
1.05479
0.498162
-0.565116
-1.14948
-2.28424
-2.94783
-4.24259
-4.88592
-5.85774
-6.157
-6.23357
-6.25224
-6.25669
-6.25762
22.6105
23.0366
24.3585
24.9101
25.3308
25.467
25.4978
25.4798
25.3767
25.3081
25.1653
25.0864
24.9501
24.8587
24.6672
24.4812
24.0071
23.6959
23.0853
22.7527
22.2172
21.9376
21.5048
21.2882
20.9689
20.7624
20.3623
20.0772
19.4818
19.1892
18.7521
18.4896
18.0074
17.7721
17.431
17.1075
16.3185
15.8999
15.2395
14.9033
14.3803
14.0377
13.3613
12.9866
12.3681
12.0364
11.5016
11.2158
10.7548
10.5159
10.1443
9.87554
9.31101
9.02497
8.59274
8.28214
7.63372
7.30182
6.79923
6.45453
5.76204
5.23507
4.09795
3.47065
2.4293
1.83575
0.81884
0.222077
-0.826695
-1.45445
-2.57914
-3.30314
-4.65404
-5.37048
-6.42622
-6.76294
-6.8489
-6.86973
-6.87467
-6.8757
21.3076
21.7989
23.5637
24.1977
24.7367
24.896
24.969
24.9605
24.8815
24.819
24.6935
24.6176
24.4844
24.3962
24.2237
24.048
23.6256
23.3206
22.7003
22.3651
21.8221
21.5414
21.1077
20.8888
20.555
20.3463
19.9464
19.667
19.1106
18.8289
18.4273
18.1693
17.6822
17.4464
17.1069
16.7872
16.022
15.6072
14.9497
14.6193
14.1335
13.7955
13.1134
12.7373
12.1165
11.7854
11.2573
10.9731
10.5169
10.2766
9.89119
9.62433
9.08662
8.80222
8.35436
8.04494
7.42016
7.08747
6.55566
6.20339
5.489
4.96461
3.86673
3.24415
2.1955
1.59858
0.566114
-0.0359023
-1.1051
-1.73954
-2.89005
-3.63337
-5.09086
-5.84145
-7.02342
-7.37887
-7.46678
-7.48778
-7.49274
-7.49377
19.9848
20.5102
22.814
23.489
24.1578
24.3286
24.4435
24.4442
24.3857
24.3324
24.2198
24.1511
24.0169
23.9371
23.7803
23.6248
23.2395
22.958
22.3039
21.9859
21.4167
21.1514
20.702
20.494
20.1362
19.938
19.5257
19.268
18.7284
18.4735
18.097
17.8583
17.347
17.1249
16.7821
16.4848
15.7116
15.3244
14.6468
14.3416
13.8809
13.5672
12.8532
12.498
11.8535
11.5424
11.0032
10.7374
10.2704
10.0431
9.6334
9.38402
8.85218
8.58608
8.11052
7.82042
7.19497
6.88114
6.30497
5.96681
5.20841
4.71713
3.61655
3.03474
1.94368
1.37886
0.2962
-0.275169
-1.40086
-2.00397
-3.21724
-3.93502
-5.55594
-6.29515
-7.65365
-8.00545
-8.08727
-8.10641
-8.1109
-8.11182
18.6409
19.1501
22.1295
22.7805
23.5988
23.7634
23.9226
23.9303
23.8898
23.8483
23.7444
23.6873
23.5474
23.4812
23.337
23.2109
22.8494
22.6103
21.8941
21.6168
20.9992
20.7688
20.2868
20.1054
19.711
19.5383
19.099
18.8803
18.335
18.123
17.7612
17.5583
17.0004
16.8083
16.4556
16.2014
15.3858
15.0533
14.3291
14.0702
13.6225
13.355
12.5788
12.2703
11.5771
11.3086
10.7384
10.5098
10.0143
9.81702
9.36925
9.15508
8.60717
8.37838
7.85932
7.60938
6.95739
6.68537
6.04481
5.74708
4.91719
4.49408
3.34566
2.84575
1.67084
1.17989
0.00586239
-0.492239
-1.71752
-2.24397
-3.56424
-4.20054
-6.05629
-6.72406
-8.32412
-8.64279
-8.71021
-8.72557
-8.72914
-8.72987
17.2766
17.6912
21.538
22.0653
23.0659
23.1984
23.4078
23.4183
23.394
23.3667
23.2672
23.2269
23.0749
23.0284
22.893
22.8064
22.4544
22.2818
21.4669
21.2613
20.5663
20.3963
19.8596
19.7253
19.2771
19.1493
18.6635
18.5057
17.9282
17.7786
17.4191
17.2726
16.6391
16.4982
16.1252
15.9407
15.0408
14.7979
13.9929
13.8064
13.357
13.1632
12.2858
12.0581
11.2838
11.087
10.4599
10.2929
9.7464
9.60101
9.09582
8.93955
8.34945
8.18234
7.59741
7.41447
6.70465
6.50438
5.77098
5.54868
4.60973
4.30007
3.04887
2.68378
1.37066
1.00827
-0.311491
-0.680205
-2.06211
-2.45222
-3.9386
-4.41728
-6.60415
-7.11567
-9.04581
-9.29013
-9.33518
-9.34514
-9.34744
-9.3479
15.8956
16.095
21.0792
21.3312
22.5678
22.6304
22.901
22.9078
22.8983
22.888
22.7876
22.771
22.5983
22.5792
22.4471
22.4126
22.0522
21.979
21.0153
20.9255
20.1124
20.0386
19.4164
19.3578
18.8303
18.7747
18.2149
18.148
17.5044
17.4426
17.0685
17.0063
16.2583
16.1975
15.7873
15.7085
14.6696
14.5651
13.6319
13.5531
13.0813
12.9988
11.9668
11.8678
10.9675
10.8825
10.163
10.0913
9.46247
9.39943
8.80847
8.7414
8.07484
8.00306
7.31945
7.24067
6.43155
6.34475
5.47674
5.37898
4.27713
4.14375
2.71666
2.55975
1.03248
0.874962
-0.666873
-0.827631
-2.44637
-2.6166
-4.35326
-4.56568
-7.21901
-7.45052
-9.83493
-9.94543
-9.96153
-9.96499
-9.96578
-9.96594
18.7967
18.8168
19.3916
19.3926
19.0908
19.056
18.816
18.7495
17.7892
17.7023
16.9908
16.9288
16.3959
16.3491
16.0145
15.9479
15.2306
15.1152
13.6949
13.5773
12.6429
12.5628
11.9555
11.9044
11.5881
11.5323
10.9524
10.8603
9.7605
9.67505
9.15007
9.08105
8.27387
8.19922
7.51516
7.44155
6.82528
6.75937
6.25621
6.21218
5.96639
5.90865
5.1299
5.05619
4.4753
4.41667
3.91839
3.87196
3.56504
3.49896
2.48802
2.38559
1.34411
1.23507
0.215708
0.1028
-1.07711
-1.18696
-2.01985
-2.19664
-4.87388
-5.11115
-7.34985
-7.56775
-9.72092
-9.93856
-12.1625
-12.3861
-14.6789
-14.9058
-17.2455
-17.4763
-19.9633
-20.178
-22.2914
-22.6131
-28.1443
-28.3737
-28.4027
-28.4082
19.3488
19.3877
19.809
19.8011
19.5246
19.439
19.2038
19.0471
18.2225
18.0217
17.4129
17.2719
16.8237
16.7142
16.3963
16.2331
15.5608
15.2908
14.0999
13.8319
13.0307
12.8458
12.3172
12.1968
11.9023
11.7663
11.222
11.0056
10.0774
9.87917
9.40148
9.2422
8.5695
8.39921
7.80547
7.63074
7.06501
6.90678
6.45845
6.35277
6.11456
5.9777
5.30218
5.12956
4.61786
4.48046
4.044
3.93319
3.64035
3.48954
2.65923
2.42585
1.51988
1.26648
0.384805
0.125021
-0.879558
-1.13738
-1.91292
-2.31702
-4.5275
-5.06166
-6.95407
-7.44953
-9.27503
-9.77028
-11.6518
-12.1596
-14.0948
-14.6085
-16.5725
-17.0901
-19.1472
-19.6244
-21.3829
-22.0677
-26.3613
-26.8455
-26.9254
-26.9413
19.8993
19.9434
20.2435
20.2204
19.9507
19.828
19.5884
19.3715
18.6307
18.3573
17.8164
17.6272
17.2379
17.0876
16.772
16.5388
15.8749
15.5033
14.4679
14.1079
13.3939
13.1425
12.6626
12.4962
12.2102
12.0167
11.4785
11.1794
10.3651
10.0945
9.64019
9.42391
8.84506
8.61617
8.07904
7.83561
7.28846
7.06582
6.64701
6.49869
6.2587
6.06831
5.45437
5.2165
4.74546
4.55622
4.15659
4.00172
3.70999
3.50731
2.80658
2.49301
1.66955
1.32303
0.529034
0.177039
-0.711869
-1.06709
-1.82084
-2.36515
-4.24816
-4.95782
-6.61415
-7.27811
-8.88234
-9.54654
-11.196
-11.876
-13.5676
-14.2532
-15.9573
-16.6424
-18.3943
-19.0196
-20.5173
-21.3781
-24.7307
-25.3335
-25.4507
-25.475
20.4482
20.4888
20.691
20.6496
20.371
20.2217
19.9723
19.7169
19.0204
18.7037
18.2059
17.9906
17.6425
17.4678
17.1444
16.8617
16.1774
15.7425
14.8091
14.398
13.7387
13.4484
12.9956
12.8005
12.5145
12.2809
11.7255
11.3739
10.6311
10.3172
9.86943
9.62017
9.10668
8.84551
8.3409
8.05267
7.49897
7.23274
6.82478
6.64831
6.40089
6.1759
5.59155
5.3128
4.86181
4.64043
4.25941
4.07574
3.77608
3.54502
2.93845
2.58059
1.80016
1.39748
0.655592
0.250541
-0.565522
-0.980852
-1.73712
-2.35971
-4.01575
-4.81611
-6.31393
-7.06906
-8.52725
-9.28339
-10.779
-11.552
-13.0806
-13.8571
-15.3829
-16.152
-17.6865
-18.3799
-19.6772
-20.5887
-23.2101
-23.8409
-23.9797
-24.0096
20.9954
21.0278
21.1483
21.0884
20.7861
20.6195
20.3564
20.0799
19.3949
19.0575
18.5841
18.3595
18.0403
17.8539
17.5152
17.2008
16.47
16.0016
15.1294
14.6982
14.0688
13.7609
13.3183
13.1085
12.8168
12.5581
11.9644
11.5841
10.88
10.5454
10.0908
9.82708
9.35826
9.08465
8.59418
8.2804
7.69804
7.40539
6.99335
6.80081
6.54222
6.29791
5.71654
5.41603
4.96902
4.73104
4.35437
4.15443
3.83946
3.59778
3.0604
2.6851
1.91568
1.48553
0.768688
0.340494
-0.435195
-0.880966
-1.65875
-2.31293
-3.81755
-4.64649
-6.0434
-6.83188
-8.20023
-8.99065
-10.3909
-11.1977
-12.6236
-13.4311
-14.8388
-15.6309
-17.0123
-17.716
-18.8525
-19.7309
-21.769
-22.368
-22.5129
-22.5453
21.5413
21.5632
21.6128
21.5368
21.1959
21.0211
20.7411
20.4594
19.7556
19.4167
18.9525
18.7321
18.4329
18.2462
17.8851
17.5566
16.7521
16.277
15.4322
15.0064
14.3861
14.0789
13.6317
13.4198
13.1178
12.8487
12.1948
11.8074
11.1143
10.7785
10.3046
10.0423
9.60211
9.33253
8.84045
8.51894
7.88558
7.58287
7.15319
6.95601
6.68304
6.43344
5.83035
5.52516
5.0679
4.82725
4.44229
4.23774
3.89993
3.66239
3.1759
2.80539
2.01765
1.58505
0.870253
0.444357
-0.318054
-0.767788
-1.58531
-2.23211
-3.64636
-4.45414
-5.79719
-6.5715
-7.89632
-8.6735
-10.0265
-10.8187
-12.1915
-12.981
-14.3192
-15.0863
-16.3653
-17.0348
-18.0381
-18.8267
-20.3855
-20.9131
-21.0506
-21.0824
22.0863
22.0976
22.0824
21.9959
21.5991
21.4271
21.126
20.8559
20.1017
19.7811
19.3112
19.108
18.8211
18.6455
18.2539
17.9315
17.0212
16.5673
15.7183
15.3225
14.691
14.4026
13.9359
13.7348
13.4175
13.1549
12.4147
12.043
11.3343
11.0171
10.51
10.2646
9.83921
9.58938
9.07997
8.77002
8.05996
7.76548
7.30378
7.1143
6.82297
6.58317
5.93228
5.64042
5.15816
4.92925
4.52303
4.32642
3.95642
3.73699
3.28678
2.94239
2.10544
1.69588
0.960274
0.561692
-0.213411
-0.639889
-1.51868
-2.12058
-3.49942
-4.24036
-5.57372
-6.28908
-7.6143
-8.33331
-9.68455
-10.4165
-11.7826
-12.509
-13.8225
-14.5212
-15.7426
-16.3403
-17.2323
-17.8917
-19.0432
-19.4738
-19.5925
-19.6206
22.6309
22.6331
22.5549
22.4674
21.9933
21.8383
21.5096
21.2718
20.4306
20.1514
19.6593
19.4873
19.2049
19.0535
18.6199
18.3301
17.2722
16.8735
15.9863
15.648
14.9822
14.7334
14.2294
14.0546
13.7152
13.4802
12.6199
12.2921
11.5387
11.2634
10.705
10.4943
10.0694
9.85668
9.31157
9.03717
8.21776
7.95484
7.44353
7.2767
6.96088
6.74938
6.0199
5.76333
5.23832
5.03838
4.59541
4.42205
4.00691
3.82084
3.39344
3.09912
2.17615
1.81976
1.03683
0.694097
-0.122704
-0.493888
-1.46312
-1.97795
-3.37798
-4.00287
-5.37495
-5.98226
-7.35652
-7.96782
-9.36735
-9.98883
-11.3993
-12.0135
-13.3504
-13.9352
-15.1448
-15.634
-16.4358
-16.9369
-17.7297
-18.0469
-18.138
-18.16
23.1755
23.1718
23.0278
22.9545
22.3748
22.2564
21.8897
21.7118
20.737
20.5304
19.9946
19.8711
19.5834
19.4729
18.9802
18.7594
17.4968
17.1992
16.2325
15.9868
15.2568
15.0745
14.5099
14.3809
14.0087
13.8305
12.8039
12.5583
11.7241
11.5211
10.8862
10.7325
10.2911
10.1373
9.53239
9.32616
8.35336
8.15418
7.56955
7.44511
7.09466
6.93635
6.08863
5.89701
5.3055
5.15726
4.65702
4.52738
4.04826
3.91436
3.49481
3.281
2.2242
1.96072
1.09578
0.845473
-0.049815
-0.323957
-1.42572
-1.79991
-3.28753
-3.73547
-5.20677
-5.64475
-7.12925
-7.5708
-9.08127
-9.52964
-11.0479
-11.4891
-12.9084
-13.3242
-14.5759
-14.9151
-15.6513
-15.9705
-16.4352
-16.6291
-16.6862
-16.7002
23.7202
23.7161
23.4978
23.4618
22.7379
22.6846
22.2623
22.1838
21.0128
20.9226
20.3135
20.2615
19.955
19.9076
19.3297
19.2304
17.6828
17.5518
16.4499
16.3449
15.5096
15.431
14.773
14.7171
14.2945
14.2149
12.9566
12.848
11.8842
11.7961
11.0482
10.9823
10.5013
10.4361
9.7373
9.64584
8.45803
8.36895
7.67718
7.62258
7.22078
7.15091
6.13114
6.0467
5.35496
5.29024
4.70383
4.64671
4.07582
4.01933
3.58795
3.49662
2.24054
2.12575
1.13016
1.02265
-0.00176697
-0.120916
-1.41743
-1.57733
-3.23867
-3.42714
-5.07992
-5.26538
-6.94369
-7.13102
-8.83767
-9.02764
-10.7395
-10.9255
-12.5065
-12.6797
-14.0434
-14.1804
-14.8835
-14.9983
-15.1515
-15.2167
-15.2361
-15.2409
)
;

boundaryField
{
    F1_1
    {
        type            fixedValue;
        value           nonuniform List<scalar> 
80
(
0
16.033
19.7524
19.7524
20.3587
20.3587
20.3001
20.3001
20.0548
20.0548
19.7446
19.7446
19.5282
19.5282
19.0032
19.0032
17.4946
17.4946
16.5301
16.5301
15.704
15.704
15.0264
15.0264
14.6362
14.6362
13.9819
13.9819
12.4967
12.4967
11.5068
11.5068
10.6534
10.6534
10.1613
10.1613
8.7688
8.7688
7.86681
7.86681
7.10797
7.10797
6.39118
6.39118
5.80861
5.80861
5.35098
5.35098
5.08455
5.08455
4.5629
4.5629
4.25075
4.25075
4.08454
4.08454
3.78602
3.78602
3.65324
3.65324
3.46681
3.46681
3.04177
3.04177
2.66066
2.66066
2.18602
2.18602
1.54144
1.54144
0.710296
0.710296
-0.327107
-0.327107
-1.5171
-1.5171
-1.5171
-1.5171
-1.5171
-1.5171
)
;
    }
    F1_2
    {
        type            fixedValue;
        value           nonuniform List<scalar> 
80
(
28.6878
28.6878
28.5375
28.5375
28.3261
28.3261
27.983
27.983
27.561
27.561
27.1344
27.1344
26.8546
26.8546
26.3155
26.3155
24.9047
24.9047
23.9033
23.9033
23.0516
23.0516
22.3384
22.3384
21.9221
21.9221
21.2715
21.2715
19.9909
19.9909
19.0648
19.0648
18.2566
18.2566
17.7626
17.7626
16.3095
16.3095
15.303
15.303
14.3732
14.3732
13.4397
13.4397
12.6222
12.6222
11.8761
11.8761
11.1252
11.1252
10.3478
10.3478
9.63159
9.63159
8.88445
8.88445
8.04964
8.04964
7.10885
7.10885
5.97736
5.97736
4.78537
4.78537
3.47096
3.47096
2.0017
2.0017
0.373293
0.373293
-1.34636
-1.34636
-2.95444
-2.95444
-3.99833
-3.99833
-3.99833
-3.99833
-3.99833
-3.99833
)
;
    }
    F1_3
    {
        type            fixedValue;
        value           nonuniform List<scalar> 
80
(
28.3134
28.3134
28.1781
28.1781
28.0989
28.0989
27.8768
27.8768
27.5661
27.5661
27.236
27.236
27.0127
27.0127
26.6363
26.6363
25.5726
25.5726
24.638
24.638
23.833
23.833
23.1536
23.1536
22.7609
22.7609
22.1471
22.1471
20.9356
20.9356
20.0742
20.0742
19.3149
19.3149
18.8545
18.8545
17.391
17.391
16.3362
16.3362
15.3402
15.3402
14.278
14.278
13.3141
13.3141
12.435
12.435
11.6784
11.6784
11.214
11.214
10.1216
10.1216
9.5831
9.5831
8.37096
8.37096
7.79443
7.79443
6.86581
6.86581
4.77034
4.77034
3.1835
3.1835
1.67692
1.67692
0.145441
0.145441
-1.45995
-1.45995
-3.05436
-3.05436
-4.09424
-4.09424
-4.09424
-4.09424
-4.09424
-4.09424
)
;
    }
    F1_4
    {
        type            fixedValue;
        value           nonuniform List<scalar> 
80
(
23.9926
23.9926
23.7292
23.7292
22.906
22.906
22.4417
22.4417
21.129
21.129
20.4618
20.4618
20.1356
20.1356
19.4949
19.4949
17.7475
17.7475
16.5386
16.5386
15.6208
15.6208
14.8925
14.8925
14.4306
14.4306
13.01
13.01
11.9468
11.9468
11.1155
11.1155
10.5981
10.5981
9.82761
9.82761
8.4884
8.4884
7.71826
7.71826
7.2772
7.2772
6.1337
6.1337
5.36716
5.36716
4.71665
4.71665
4.07931
4.07931
3.62773
3.62773
2.22588
2.22588
1.12958
1.12958
0.00415258
0.00415258
-1.43601
-1.43601
-3.24369
-3.24369
-5.04583
-5.04583
-6.88074
-6.88074
-8.7462
-8.7462
-10.6158
-10.6158
-12.3337
-12.3337
-13.8017
-13.8017
-14.5114
-14.5114
-14.5114
-14.5114
-14.5114
-14.5114
)
;
    }
    F2_1
    {
        type            fixedValue;
        value           nonuniform List<scalar> 
80
(
10.1712
10.1712
13.994
13.994
15.9099
15.9099
16.5298
16.5298