/*--------------------------------*- C++ -*----------------------------------*\
| =========                 |                                                 |
| \\      /  F ield         | OpenFOAM: The Open Source CFD Toolbox           |
|  \\    /   O peration     | Version:  5.x                                   |
|   \\  /    A nd           | Web:      www.OpenFOAM.org                      |
|    \\/     M anipulation  |                                                 |
\*---------------------------------------------------------------------------*/
FoamFile
{
    version     2.0;
    format      ascii;
    class       volScalarField;
    location    "5";
    object      gradTx;
}
// * * * * * * * * * * * * * * * * * * * * * * * * * * * * * * * * * * * * * //

dimensions      [0 -1 0 1 0 0 0];

internalField   nonuniform List<scalar> 
6300
(
1784.58
1779.46
1769.19
1753.75
1733.11
1707.22
1676.06
1639.64
1598.02
1551.32
1499.78
1443.74
1383.67
1320.22
1254.14
1789.6
1784.49
1774.26
1758.86
1738.25
1712.38
1681.22
1644.75
1603
1556.08
1504.19
1447.67
1386.98
1322.76
1255.81
1799.62
1794.55
1784.38
1769.06
1748.54
1722.74
1691.59
1655.03
1613.05
1565.71
1513.15
1455.68
1393.73
1327.97
1259.22
1814.61
1809.59
1799.54
1784.37
1764.01
1738.35
1707.26
1670.64
1628.38
1580.46
1526.95
1468.06
1404.22
1336.08
1264.53
1834.5
1829.57
1819.69
1804.77
1784.68
1759.28
1728.38
1691.77
1649.26
1600.7
1546.02
1485.32
1418.93
1347.5
1272.04
1859.2
1854.41
1844.78
1830.22
1810.56
1785.61
1755.09
1718.7
1676.11
1626.97
1571.03
1508.18
1438.6
1362.89
1282.16
1888.57
1883.97
1874.7
1860.65
1841.64
1817.39
1787.57
1751.74
1709.39
1659.94
1602.85
1537.67
1464.31
1383.2
1295.58
1922.44
1918.08
1909.29
1895.94
1877.83
1854.64
1825.94
1791.19
1749.66
1700.47
1642.65
1575.26
1497.67
1409.95
1313.35
1960.56
1956.5
1948.32
1935.89
1918.98
1897.27
1870.27
1837.32
1797.48
1749.52
1691.92
1622.97
1541.07
1445.48
1337.2
2002.62
1998.93
1991.49
1980.19
1964.83
1945.07
1920.45
1890.22
1853.3
1808.11
1752.46
1683.51
1598.09
1493.62
1370.04
2048.24
2044.98
2038.41
2028.44
2014.94
1997.63
1976.11
1949.7
1917.28
1877.05
1826.18
1760.42
1674.05
1560.79
1417.16
2097.02
2094.21
2088.59
2080.12
2068.73
2054.29
2036.55
2015.07
1988.95
1956.53
1914.68
1857.85
1776.79
1658.24
1489.09
2148.47
2146.14
2141.51
2134.59
2125.44
2114.1
2100.62
2084.95
2066.82
2045.31
2018.05
1979.39
1916.91
1806.18
1609.24
2202.12
2200.25
2196.57
2191.17
2184.2
2175.94
2166.75
2157.18
2147.93
2139.71
2132.69
2124.63
2105.16
2040.25
1837.87
2257.5
2256.05
2253.23
2249.17
2244.14
2238.56
2233.13
2228.97
2227.89
2232.78
2248.26
2281.13
2338.74
2411.65
2358.51
1192.07
1134.96
1077.81
1021.2
965.656
911.682
859.71
810.112
763.187
719.168
678.219
640.448
605.911
574.62
546.548
521.638
499.81
480.959
464.962
451.679
440.949
432.598
426.43
422.229
419.763
418.779
419.014
420.19
422.032
424.269
426.647
428.936
430.936
432.481
433.434
433.684
433.139
431.717
429.34
425.934
421.431
415.775
408.926
400.87
391.62
381.217
369.722
357.209
343.75
329.408
314.226
298.219
281.382
263.682
245.071
225.493
204.887
183.195
160.362
136.333
111.051
84.4497
56.4459
26.9357
-4.20947
-37.1427
-72.0398
-109.094
-148.508
-190.49
-235.241
-282.954
-333.806
-387.955
-445.539
-506.672
-571.442
-639.906
-712.083
-787.942
-867.395
-950.28
-1036.35
-1125.27
-1216.59
-1309.77
-1404.16
-1499.03
-1593.59
-1687.01
1192.87
1134.93
1076.98
1019.59
963.342
908.743
856.242
806.215
758.96
714.703
673.602
635.754
601.203
569.95
541.96
517.171
495.493
476.82
461.028
447.973
437.5
429.43
423.571
419.707
417.603
417.003
417.633
419.208
421.439
424.043
426.752
429.328
431.569
433.309
434.421
434.805
434.379
433.068
430.797
427.49
423.07
417.47
410.642
402.567
393.259
382.768
371.169
358.552
345.004
330.602
315.395
299.402
282.61
264.979
246.452
226.962
206.441
184.829
162.074
138.129
112.944
86.4626
58.6094
29.2849
-1.63859
-34.3179
-68.9356
-105.694
-144.809
-186.496
-230.968
-278.424
-329.045
-382.992
-440.407
-501.41
-566.094
-634.527
-706.742
-782.724
-862.404
-945.638
-1032.19
-1121.75
-1213.85
-1307.95
-1403.39
-1499.4
-1595.14
-1689.75
1194.49
1134.87
1075.25
1016.29
958.597
902.731
849.162
798.277
750.37
705.653
664.263
626.275
591.71
560.547
532.734
508.191
486.82
468.507
453.123
440.527
430.562
423.055
417.815
414.628
413.254
413.43
414.867
417.258
420.287
423.64
427.024
430.179
432.897
435.018
436.434
437.069
436.869
435.777
433.724
430.625
426.385
420.911
414.133
406.017
396.582
385.896
374.064
361.214
347.471
332.938
317.681
301.72
285.031
267.554
249.208
229.902
209.555
188.1
165.492
141.7
116.696
90.4439
62.8855
33.9317
3.45636
-28.7048
-62.75
-98.9031
-137.403
-178.489
-222.392
-269.326
-319.479
-373.019
-430.091
-490.821
-555.318
-623.671
-695.938
-772.141
-852.249
-936.157
-1023.67
-1114.48
-1208.16
-1304.14
-1401.71
-1500.06
-1598.25
-1695.31
1197.01
1134.75
1072.53
1011.1
951.166
893.353
838.168
786.002
737.141
691.768
649.986
611.83
577.282
546.288
518.766
494.613
473.715
455.947
441.178
429.265
420.058
413.391
409.08
406.913
406.65
408.018
410.704
414.367
418.645
423.17
427.6
431.638
435.06
437.719
439.545
440.513
440.62
439.845
438.132
435.381
431.454
426.209
419.526
411.345
401.687
390.652
378.405
365.144
351.058
336.301
320.964
305.071
288.572
271.371
253.335
234.333
214.254
193.023
170.609
147.01
122.24
96.3006
69.1662
40.7658
10.9757
-20.3814
-53.531
-88.7343
-126.271
-166.422
-209.448
-255.583
-305.026
-357.945
-414.488
-474.786
-538.967
-607.147
-679.43
-755.896
-836.577
-921.435
-1010.34
-1103.03
-1199.09
-1297.95
-1398.85
-1500.85
-1602.9
-1703.82
1200.54
1134.52
1068.59
1003.68
940.626
880.14
822.773
768.922
718.843
672.67
630.448
592.151
557.703
526.999
499.916
476.32
456.075
439.044
425.092
414.082
405.873
400.313
397.232
396.432
397.677
400.683
405.111
410.569
416.621
422.814
428.715
433.961
438.296
441.598
443.865
445.173
445.615
445.24
444.014
441.804
438.399
433.553
427.053
418.779
408.752
397.132
384.189
370.242
355.594
340.481
325.036
309.278
293.116
276.377
258.845
240.308
220.603
199.644
177.425
154.003
129.462
103.873
77.2655
49.5972
20.7486
-9.47968
-41.3578
-75.2081
-111.379
-150.216
-192.028
-237.074
-285.56
-337.644
-393.461
-453.144
-516.834
-584.687
-656.87
-733.546
-814.845
-900.84
-991.499
-1086.65
-1185.93
-1288.76
-1394.31
-1501.5
-1609.05
-1715.52
1205.25
1134.1
1063.13
993.524
926.332
862.381
802.266
746.366
694.874
647.843
605.221
566.891
532.697
502.465
476.014
453.173
433.779
417.682
404.745
394.842
387.849
383.641
382.076
382.984
386.146
391.277
398.012
405.891
414.371
422.854
430.752
437.57
442.995
446.942
449.542
451.057
451.761
451.835
451.286
449.925
447.395
443.257
437.109
428.716
418.088
405.497
391.4
376.331
360.783
345.124
329.547
314.057
298.481
282.517
265.794
247.959
228.755
208.076
185.971
162.604
138.187
112.91
86.8857
60.122
32.503
3.79315
-26.3491
-58.3451
-92.6556
-129.729
-169.952
-213.615
-260.909
-311.959
-366.857
-425.715
-488.684
-555.966
-627.813
-704.503
-786.315
-873.483
-966.14
-1064.26
-1167.6
-1275.59
-1387.33
-1501.56
-1616.65
-1730.76
1211.44
1133.36
1055.63
979.835
907.316
839.046
775.642
717.417
664.442
616.627
573.776
535.642
501.956
472.453
446.887
425.037
406.71
391.744
380.006
371.387
365.793
363.141
363.339
366.268
371.755
379.541
389.243
400.327
412.093
423.712
434.318
443.162
449.797
454.202
456.758
458.081
458.791
459.304
459.705
459.704
458.681
455.829
450.378
441.847
430.23
416.009
399.993
383.094
366.117
349.636
333.924
318.95
304.4
289.745
274.342
257.581
239.031
218.559
196.331
172.715
148.149
123.015
97.5634
71.8682
45.8172
19.1187
-8.68031
-38.159
-69.9627
-104.717
-142.931
-184.929
-230.854
-280.727
-334.545
-392.355
-454.303
-520.647
-591.75
-668.052
-750.037
-838.176
-932.861
-1034.31
-1142.49
-1256.93
-1376.7
-1500.28
-1625.57
-1750.07
1219.5
1132.06
1045.27
961.377
882.128
808.652
741.517
680.865
626.543
578.226
535.506
497.955
465.16
436.745
412.384
391.801
374.776
361.136
350.756
343.553
339.481
338.517
340.648
345.847
354.034
365.024
378.464
393.756
410.002
426.007
440.399
451.911
459.786
464.098
465.724
465.966
466.078
466.907
468.678
470.93
472.577
472.121
468.058
459.399
446.102
429.085
409.842
389.951
370.725
353.029
337.233
323.229
310.469
298.049
284.851
269.78
252.079
231.576
208.689
184.193
158.925
133.575
108.585
84.1139
60.0476
36.0117
11.39
-14.6418
-43.0384
-74.7394
-110.474
-150.602
-195.12
-243.819
-296.482
-353.028
-413.577
-478.455
-548.172
-623.386
-704.86
-793.403
-889.788
-994.639
-1108.28
-1230.53
-1360.52
-1496.44
-1635.54
-1774.25
1230.13
1129.76
1030.67
936.176
848.577
769.074
698.012
635.157
579.959
531.73
489.762
453.391
422.028
395.173
372.413
353.421
337.946
325.812
316.909
311.192
308.673
309.415
313.52
321.105
332.255
346.959
364.996
385.789
408.236
430.602
450.601
465.871
474.881
477.837
476.658
474.01
472.309
473.128
476.932
483.003
489.475
493.584
492.331
483.607
467.308
445.349
420.605
395.838
373.118
353.676
337.959
325.715
316.052
307.482
298.065
285.778
269.174
248.036
223.374
196.788
169.82
143.618
118.855
95.7678
74.2184
53.7272
33.4667
12.2545
-11.3832
-38.9819
-71.7158
-109.977
-153.383
-201.212
-252.832
-307.94
-366.615
-429.284
-496.657
-569.677
-649.471
-737.297
-834.476
-942.255
-1061.61
-1192.94
-1335.69
-1487.93
-1645.98
-1804.53
1244.38
1125.54
1009.38
900.996
803.314
717.297
642.642
578.382
523.302
476.185
435.928
401.586
372.379
347.68
326.996
309.954
296.286
285.815
278.457
274.207
273.15
275.453
281.365
291.209
305.34
324.074
347.539
375.417
406.566
438.582
467.589
488.821
498.667
497.502
489.682
480.663
474.887
475.024
481.896
494.472
509.748
522.743
527.336
518.7
496.64
465.603
431.386
398.763
370.781
348.957
333.684
324.49
320.071
318.155
315.436
308.016
292.826
269.596
240.854
209.947
179.618
151.591
126.71
105.198
86.8499
71.0875
56.8838
42.6066
25.9338
4.12573
-25.0433
-61.9856
-105.315
-153.171
-204.176
-257.723
-313.905
-373.334
-437
-506.198
-582.488
-667.692
-763.861
-873.158
-997.629
-1138.82
-1297.14
-1470.98
-1655.63
-1842.83
1264.13
1117.43
976.803
850.358
741.204
649.117
572.271
508.357
455.15
410.735
373.55
342.363
316.218
294.384
276.315
261.612
250.002
241.322
235.51
232.61
232.773
236.276
243.534
255.123
271.778
294.359
323.708
360.316
403.623
450.872
495.745
528.142
538.281
526.725
504.405
482.62
468.925
467.198
478.619
502.029
533.278
563.975
581.362
573.098
538.874
490.417
439.856
394.995
359.57
334.805
320.663
316.406
320.511
330.019
339.621
341.495
328.104
299.138
261.491
222.302
186.113
155.036
129.704
110.053
95.7283
86.1657
80.36
76.3506
70.5782
57.7598
32.75
-4.86404
-50.7839
-100.639
-151.885
-203.727
-256.521
-311.271
-369.364
-432.485
-502.643
-582.271
-674.305
-782.17
-909.532
-1059.95
-1236.17
-1438.39
-1661.49
-1892.43
1292.84
1100.48
923.756
774.774
654.473
558.95
483.241
422.879
374.309
334.848
302.514
275.86
253.828
235.649
220.77
208.801
199.486
192.683
188.358
186.588
187.575
191.677
199.454
211.727
229.669
254.879
289.409
335.547
394.98
466.561
541.839
599.485
609.106
571.42
518.328
472.903
445.705
440.411
458.053
498.272
557.576
624.341
672.299
664.848
601.582
518.237
440.101
377.632
333.003
305.359
293.419
296.308
313.213
341.804
375.014
397.042
385.898
341.253
284.405
230.373
185.269
150.221
124.523
107.226
97.7215
95.7888
101.185
112.548
125.263
128.832
108.579
64.1193
9.33362
-46.1607
-98.7741
-148.391
-196.34
-244.404
-294.487
-348.625
-409.147
-478.963
-561.927
-663.068
-788.181
-943.891
-1137.71
-1375.63
-1655.95
-1959.17
1337.5
1060.97
830.708
657.839
532.019
440.216
372.082
320.397
280.331
248.676
223.281
202.684
185.874
172.149
161.021
152.155
145.34
140.465
137.517
136.584
137.879
141.777
148.886
160.158
177.08
201.965
238.376
291.617
368.824
476.899
613.292
739.95
748.023
638.268
521.184
436.912
390.919
380.573
404.95
467.007
571.099
711.757
842.987
836.942
693.172
538.536
417.77
334.569
281.976
253.306
244.842
256.066
289.151
347.032
426.633
500.505
492.082
401.06
303.36
225.653
169.98
131.952
107.244
93.1615
88.7758
94.8011
113.332
146.677
192.96
234.019
219.078
147.82
70.3496
4.07952
-50.0315
-95.4873
-136.013
-174.634
-213.773
-255.568
-302.257
-356.71
-423.352
-509.424
-622.734
-772.899
-975.697
-1251.72
-1617.36
-2054.64
1413.65
954.771
654.957
473.118
360.55
287.374
237.214
201.163
174.225
153.476
137.128
124.041
113.466
104.901
98.0041
92.5479
88.3914
85.4646
83.7654
83.3652
84.4279
87.2467
92.3128
100.442
113.016
132.442
163.094
213.162
298.196
446.433
698.733
1051.14
1056.57
715.634
476.762
345.776
284.783
270.712
297.564
375.189
531.938
812.713
1211.31
1207.32
800.373
510.037
341.332
247.424
196.497
172.169
167.941
184.39
229.465
321.116
486.7
722.737
717.472
470.685
293.658
189.277
129.328
94.5259
74.665
65.1172
64.801
75.7402
104.04
162.01
267.942
419.529
410.358
240.219
115.075
36.7116
-13.8165
-49.723
-78.4486
-104.129
-129.237
-155.464
-184.182
-216.899
-256.792
-316.543
-404.192
-526.08
-708.18
-998.701
-1475.51
-2203.93
1557.11
619.458
309.286
188.617
132.336
101.369
82.016
68.7946
59.1959
51.93
46.2689
41.7719
38.1585
35.2443
32.9064
31.0638
29.6668
28.6914
28.1382
28.0346
28.4427
29.4748
31.3237
34.3229
39.0751
46.7494
59.8426
84.3458
136.537
266.094
639.982
1861.91
1863.83
645.989
276.959
153.833
111.063
101.905
117.052
169.41
314.152
743.964
2159.29
2157.89
739.615
306.365
157.172
98.3789
72.7181
62.0973
61.2869
71.5389
102.797
188.896
445.615
1292.95
1291.16
440.154
179.511
89.0025
52.5068
35.6037
27.2377
23.7671
24.5873
31.6214
51.9176
108.085
276.826
835.94
832.848
267.472
92.2384
29.1571
1.28543
-14.3323
-25.2884
-34.4556
-43.0961
-51.7734
-60.3521
-66.7627
-61.6463
-83.4962
-136.338
-192.533
-284.502
-477.38
-971.238
-2463.81
-1787.33
-1892.96
-1993.24
-2087.14
-2173.83
-2252.76
-2323.55
-2386.06
-2440.27
-2486.27
-2524.22
-2554.29
-2576.66
-2591.48
-2598.86
-1791.33
-1898.19
-1999.51
-2094.22
-2181.48
-2260.75
-2331.7
-2394.22
-2448.33
-2494.18
-2531.95
-2561.84
-2584.05
-2598.77
-2606.09
-1799.46
-1908.86
-2012.29
-2108.61
-2196.99
-2276.92
-2348.14
-2410.63
-2464.52
-2510.02
-2547.39
-2576.91
-2598.8
-2613.28
-2620.49
-1812.02
-1925.37
-2032.06
-2130.82
-2220.83
-2301.65
-2373.17
-2435.51
-2488.95
-2533.84
-2570.55
-2599.43
-2620.81
-2634.92
-2641.93
-1829.5
-1948.44
-2059.62
-2161.65
-2253.72
-2335.55
-2407.24
-2469.15
-2521.78
-2565.68
-2601.37
-2629.32
-2649.93
-2663.5
-2670.23
-1852.67
-1979.15
-2096.22
-2202.31
-2296.72
-2379.44
-2450.94
-2511.92
-2563.19
-2605.57
-2639.76
-2666.38
-2685.93
-2698.75
-2705.1
-1882.7
-2019.15
-2143.67
-2254.52
-2351.27
-2434.43
-2505
-2564.23
-2613.35
-2653.48
-2685.56
-2710.37
-2728.48
-2740.32
-2746.17
-1921.41
-2070.98
-2204.66
-2320.69
-2419.29
-2501.84
-2570.27
-2626.51
-2672.35
-2709.28
-2738.48
-2760.88
-2777.13
-2787.71
-2792.93
-1971.74
-2138.58
-2283.16
-2404.17
-2503.2
-2583.24
-2647.55
-2699.03
-2740.1
-2772.64
-2798.05
-2817.36
-2831.28
-2840.3
-2844.74
-2038.58
-2228.29
-2385.11
-2509.46
-2605.95
-2680.23
-2737.48
-2781.79
-2816.23
-2842.97
-2863.56
-2879.05
-2890.14
-2897.31
-2900.83
-2130.74
-2350.77
-2519.37
-2642.48
-2730.74
-2794.1
-2840.18
-2874.27
-2899.87
-2919.28
-2933.99
-2944.96
-2952.76
-2957.79
-2960.25
-2265.48
-2524.53
-2698.97
-2810.18
-2880.25
-2925.09
-2954.71
-2975.04
-2989.51
-3000.12
-3008.01
-3013.84
-3017.98
-3020.65
-3021.96
-2480.87
-2782.76
-2941.65
-3018.83
-3054.82
-3071.14
-3078.35
-3081.48
-3082.84
-3083.5
-3083.91
-3084.23
-3084.49
-3084.69
-3084.79
-2873.99
-3183.83
-3265.85
-3268.51
-3248.88
-3226.1
-3205.9
-3189.49
-3176.69
-3166.95
-3159.71
-3154.48
-3150.88
-3148.63
-3147.54
-3738.93
-3812.5
-3669.23
-3540.27
-3445.87
-3378.29
-3329.45
-3293.7
-3267.28
-3247.71
-3233.31
-3222.92
-3215.73
-3211.21
-3209.02
2309.46
2308.34
2306.17
2303.11
2299.46
2295.71
2292.7
2291.83
2295.57
2308.28
2338.14
2401.78
2538.71
2867.5
3850.49
2357.39
2356.51
2354.82
2352.47
2349.73
2347.06
2345.26
2345.69
2350.78
2364.91
2396.28
2460.46
2587.17
2827.46
3211.28
2405.82
2405.14
2403.83
2402
2399.84
2397.71
2396.17
2396.21
2399.6
2409.47
2431.52
2475.62
2556.65
2687.64
2840.03
2454.64
2454.12
2453.1
2451.64
2449.84
2447.84
2445.88
2444.32
2443.81
2445.48
2451.37
2465.02
2491.33
2532.85
2576.02
2503.71
2503.33
2502.57
2501.43
2499.88
2497.85
2495.2
2491.61
2486.41
2478.44
2465.73
2445.52
2415.33
2376.83
2343.41
2552.94
2552.71
2552.21
2551.4
2550.14
2548.19
2545.09
2539.89
2530.84
2514.59
2485.19
2432.85
2344.99
2217.17
2089.05
2602.23
2602.16
2601.96
2601.56
2600.77
2599.24
2596.32
2590.75
2580.14
2559.78
2520.48
2444.75
2302.31
2057.63
1747.18
2651.47
2651.58
2651.75
2651.89
2651.8
2651.14
2649.27
2645.01
2636.1
2618
2580.98
2502.86
2330.55
1943.67
1191.19
2700.52
2700.84
2701.45
2702.26
2703.12
2703.77
2703.77
2702.39
2698.34
2689.24
2669.92
2626.27
2507.69
2083.52
114.147
2749.23
2749.8
2750.9
2752.49
2754.47
2756.73
2759.12
2761.51
2763.98
2767.47
2775.63
2801.62
2896.94
3296.35
5247.13
2797.44
2798.26
2799.9
2802.32
2805.52
2809.49
2814.35
2820.43
2828.79
2842.34
2868.84
2928.72
3074.91
3431.71
4160.34
2844.96
2846.05
2848.22
2851.5
2855.9
2861.53
2868.61
2877.66
2889.87
2908.09
2938.73
2995.76
3106.52
3308.73
3581.22
2891.61
2892.96
2895.67
2899.76
2905.31
2912.44
2921.39
2932.54
2946.65
2965.1
2990.18
3025.36
3074.49
3136.85
3193.05
2937.2
2938.8
2942.02
2946.89
2953.5
2961.98
2972.49
2985.23
3000.3
3017.36
3034.46
3045.15
3033.16
2969.15
2845.68
2981.57
2983.4
2987.09
2992.68
3000.27
3009.97
3021.91
3036.15
3052.42
3069.46
3083.02
3080.55
3027.83
2842.66
2414.39
3024.53
3026.58
3030.7
3036.95
3045.43
3056.27
3069.61
3085.52
3103.85
3123.8
3142.53
3150.68
3114.31
2884.92
1687.67
3065.95
3068.19
3072.7
3079.54
3088.83
3100.71
3115.37
3133.04
3154
3178.82
3209.17
3251.52
3334.59
3599.15
4811.88
3105.69
3108.09
3112.94
3120.3
3130.28
3143.07
3158.9
3178.11
3201.28
3229.8
3267.23
3323.78
3428.44
3654.31
4101.24
3143.62
3146.17
3151.3
3159.09
3169.65
3183.18
3199.93
3220.24
3244.68
3274.38
3311.75
3362.29
3437.64
3555.24
3704.29
3179.66
3182.32
3187.67
3195.8
3206.82
3220.92
3238.33
3259.32
3284.23
3313.4
3346.84
3383.21
3417.01
3433.59
3414.32
3213.71
3216.45
3221.98
3230.36
3241.72
3256.22
3274.08
3295.51
3320.64
3349.23
3379.61
3405.56
3407.83
3336.13
3114.41
3245.71
3248.52
3254.17
3262.72
3274.29
3289.04
3307.19
3328.94
3354.44
3383.6
3415.19
3444.01
3449.56
3342.15
2663.92
3275.64
3278.48
3284.18
3292.82
3304.5
3319.37
3337.65
3359.58
3385.53
3416.08
3452.44
3498.31
3569.32
3743.98
4461.1
3303.45
3306.3
3312.02
3320.67
3332.35
3347.2
3365.41
3387.26
3413.23
3444.33
3482.87
3534.91
3616.85
3768.9
4043.24
3329.14
3331.98
3337.68
3346.28
3357.86
3372.54
3390.48
3411.91
3437.21
3467.23
3503.72
3550.55
3615.51
3708.78
3818.1
3352.72
3355.53
3361.17
3369.67
3381.07
3395.48
3412.98
3433.7
3457.76
3485.48
3517.21
3553.45
3594.35
3637.41
3671
3374.21
3376.98
3382.53
3390.88
3402.06
3416.12
3433.1
3452.98
3475.64
3500.78
3527.41
3552.96
3571.55
3572.5
3549.28
3393.63
3396.35
3401.8
3409.98
3420.91
3434.6
3451.05
3470.16
3491.64
3514.89
3538.19
3557.15
3560.87
3524.25
3413.49
3411.02
3413.69
3419.03
3427.03
3437.7
3451.03
3467.01
3485.51
3506.28
3528.82
3551.81
3571.81
3578.05
3527.38
3202.82
3426.41
3429.02
3434.25
3442.07
3452.49
3465.49
3481.06
3499.13
3519.56
3542.29
3567.36
3595.87
3634.62
3720.56
4062.8
3439.84
3442.4
3447.51
3455.16
3465.34
3478.03
3493.24
3510.93
3531.1
3553.98
3580.35
3612.68
3658.28
3735.62
3868.53
3451.36
3453.86
3458.86
3466.34
3476.29
3488.69
3503.54
3520.84
3540.61
3563.11
3589.05
3620.12
3659.73
3711.92
3768.66
3460.99
3463.44
3468.34
3475.65
3485.38
3497.51
3512.01
3528.87
3548.06
3569.71
3594.03
3621.47
3652.31
3684.89
3710.3
3468.78
3471.18
3475.97
3483.14
3492.67
3504.53
3518.7
3535.11
3553.68
3574.29
3596.7
3620.31
3643.54
3662.7
3671.69
3474.75
3477.11
3481.81
3488.84
3498.18
3509.8
3523.68
3539.7
3557.72
3577.47
3598.39
3619.26
3637.43
3647.42
3641.43
3478.95
3481.26
3485.87
3492.78
3501.95
3513.37
3527.01
3542.75
3560.41
3579.68
3599.95
3619.93
3636.84
3643.1
3609.13
3481.4
3483.67
3488.2
3494.98
3504.01
3515.27
3528.72
3544.29
3561.82
3581.06
3601.55
3622.57
3643.5
3666.58
3714.67
3482.12
3484.35
3488.8
3495.48
3504.37
3515.49
3528.82
3544.32
3561.89
3581.41
3602.62
3625.13
3648.49
3672.51
3696.46
3481.15
3483.34
3487.71
3494.28
3503.04
3514.03
3527.27
3542.74
3560.46
3580.43
3602.64
3626.95
3652.85
3678.34
3697.06
3478.51
3480.65
3484.94
3491.39
3500.02
3510.87
3524
3539.45
3557.3
3577.74
3601.02
3627.51
3657.34
3688.68
3712.85
3474.23
3476.33
3480.52
3486.84
3495.31
3505.99
3518.96
3534.32
3552.2
3572.91
3597.01
3625.58
3660.62
3703.85
3747.61
3468.36
3470.39
3474.48
3480.63
3488.9
3499.36
3512.11
3527.26
3544.98
3565.58
3589.72
3619.01
3658.05
3718.47
3814.96
3460.92
3462.89
3466.84
3472.8
3480.83
3491.01
3503.45
3518.26
3535.59
3555.64
3578.68
3605.52
3640.45
3707.88
3951.51
3451.96
3453.86
3457.65
3463.39
3471.12
3480.94
3492.98
3507.35
3524.17
3543.47
3564.83
3586.25
3600.11
3574.75
3354.68
3441.55
3443.35
3446.96
3452.43
3459.8
3469.19
3480.73
3494.56
3510.86
3529.72
3550.78
3572.07
3586.83
3576.66
3512.01
3429.74
3431.44
3434.84
3439.99
3446.94
3455.81
3466.73
3479.91
3495.61
3514.27
3536.39
3562.24
3590.7
3616.22
3626.67
3416.61
3418.19
3421.35
3426.14
3432.6
3440.85
3451.02
3463.33
3478.16
3496.27
3519.24
3550.44
3596.43
3666.05
3750.81
3402.25
3403.69
3406.59
3410.97
3416.88
3424.41
3433.67
3444.85
3458.26
3474.72
3496.22
3528.2
3585.58
3705.17
3936.03
3386.73
3388.04
3390.65
3394.59
3399.89
3406.62
3414.85
3424.65
3436.1
3449.52
3465.75
3488.15
3531.36
3666.83
4283.76
3370.18
3371.33
3373.63
3377.11
3381.77
3387.66
3394.79
3403.12
3412.44
3422.21
3430.84
3433.48
3412.91
3293.94
2683.26
3352.69
3353.68
3355.66
3358.65
3362.65
3367.69
3373.76
3380.75
3388.31
3395.54
3399.93
3394.77
3362.61
3262.37
3039.61
3334.37
3335.2
3336.85
3339.34
3342.68
3346.88
3351.95
3357.82
3364.26
3370.68
3375.49
3374.66
3359.45
3315.72
3243.34
3315.34
3316
3317.32
3319.3
3321.96
3325.33
3329.44
3334.33
3340.07
3346.81
3354.8
3364.38
3375.92
3388.8
3398.86
3295.72
3296.21
3297.19
3298.65
3300.62
3303.13
3306.25
3310.11
3315.05
3321.93
3332.84
3352.6
3391.31
3463.68
3563.38
3275.63
3275.95
3276.58
3277.52
3278.77
3280.38
3282.41
3284.99
3288.53
3294.11
3304.57
3327.52
3383.14
3519.4
3799.16
3255.19
3255.34
3255.62
3256.02
3256.55
3257.21
3258.04
3259.07
3260.47
3262.76
3267.47
3279.61
3318.82
3475.3
4231.2
3234.53
3234.5
3234.44
3234.31
3234.11
3233.81
3233.39
3232.74
3231.65
3229.61
3225.05
3212.77
3172.91
3014.74
2255.42
3213.77
3213.57
3213.17
3212.52
3211.61
3210.39
3208.77
3206.58
3203.37
3198.09
3187.86
3164.96
3109.02
2971.55
2688.78
3193.02
3192.67
3191.93
3190.79
3189.2
3187.11
3184.44
3180.99
3176.41
3169.87
3159.32
3139.96
3101.64
3029.15
2927.5
3172.41
3171.9
3170.86
3169.25
3167.03
3164.13
3160.51
3156.06
3150.69
3144.3
3136.79
3128
3117.87
3106.87
3097.32
3152.04
3151.39
3150.06
3148.02
3145.2
3141.56
3137.04
3131.65
3125.55
3119.41
3115.02
3116.84
3134.58
3183.46
3262.18
3132.01
3131.23
3129.65
3127.21
3123.84
3119.48
3114.06
3107.6
3100.33
3093.18
3088.81
3094.52
3129.54
3239.19
3483.34
3112.41
3111.52
3109.72
3106.93
3103.06
3098.03
3091.7
3084
3074.93
3064.92
3055.49
3051.73
3072.55
3201.36
3875.65
3093.32
3092.35
3090.36
3087.28
3083
3077.37
3070.2
3061.22
3050.07
3036.15
3018.12
2991.78
2940.43
2784.6
2092.26
3074.81
3073.78
3071.66
3068.37
3063.77
3057.69
3049.85
3039.85
3027.03
3010.14
2986.43
2949.1
2880.78
2740.34
2474.92
3056.93
3055.86
3053.67
3050.26
3045.48
3039.13
3030.9
3020.34
3006.72
2988.78
2964.1
2927.84
2871.15
2782.83
2674.55
3039.69
3038.62
3036.42
3033
3028.19
3021.79
3013.48
3002.86
2989.31
2972.01
2949.71
2920.7
2883.4
2839.12
2800.23
3023.1
3022.07
3019.94
3016.61
3011.92
3005.67
2997.58
2987.3
2974.43
2958.63
2939.89
2919.25
2900.41
2891.59
2900.12
3007.15
3006.18
3004.19
3001.07
2996.66
2990.76
2983.12
2973.45
2961.49
2947.22
2931.32
2916.45
2910.4
2931.91
3007.14
2991.79
2990.93
2989.14
2986.33
2982.34
2976.97
2969.99
2961.11
2950.08
2936.86
2921.95
2907.46
2901.16
2934.84
3167.57
2976.95
2976.22
2974.72
2972.33
2968.9
2964.24
2958.09
2950.16
2940.12
2927.61
2912.2
2892.72
2864.08
2799.45
2546.67
2962.53
2961.98
2960.82
2958.96
2956.24
2952.46
2947.36
2940.61
2931.79
2920.32
2905.21
2884.27
2851.94
2794.68
2695.3
2948.42
2948.08
2947.34
2946.11
2944.24
2941.52
2937.7
2932.42
2925.22
2915.48
2902.21
2883.69
2857.05
2819.15
2775.85
2934.47
2934.37
2934.12
2933.63
2932.75
2931.29
2928.98
2925.49
2920.36
2913.04
2902.79
2888.68
2869.94
2847.32
2827.25
2920.52
2920.69
2921
2921.34
2921.59
2921.57
2921.02
2919.62
2916.95
2912.57
2905.98
2896.84
2885.46
2873.69
2865.61
2906.38
2906.86
2907.77
2909.05
2910.56
2912.15
2913.59
2914.56
2914.68
2913.58
2910.87
2906.51
2901.22
2897.43
2899.26
2891.84
2892.65
2894.23
2896.51
2899.42
2902.78
2906.41
2910.01
2913.21
2915.63
2916.87
2916.76
2915.87
2917.22
2935.06
2876.68
2877.83
2880.12
2883.49
2887.88
2893.17
2899.19
2905.67
2912.23
2918.44
2923.74
2927.52
2928.92
2925.5
2904.55
2860.65
2862.16
2865.18
2869.69
2875.65
2883
2891.59
2901.19
2911.45
2921.83
2931.62
2939.86
2945.26
2945.92
2939.86
2843.51
2845.39
2849.15
2854.82
2862.4
2871.9
2883.22
2896.21
2910.51
2925.57
2940.52
2954.14
2964.85
2970.97
2971.77
2825
2827.23
2831.73
2838.55
2847.77
2859.46
2873.65
2890.25
2908.99
2929.33
2950.3
2970.38
2987.57
2999.65
3005.04
2804.88
2807.45
2812.64
2820.56
2831.37
2845.24
2862.34
2882.74
2906.31
2932.61
2960.63
2988.58
3013.8
3032.95
3042.84
2782.93
2785.78
2791.58
2800.5
2812.77
2828.72
2848.68
2872.96
2901.68
2934.64
2970.95
3008.62
3044.18
3072.63
3088.29
2758.93
2762.02
2768.31
2778.04
2791.57
2809.36
2831.98
2860.03
2894.06
2934.3
2980.27
3030.07
3079.46
3121.13
3145.39
2732.73
2735.97
2742.59
2752.9
2767.35
2786.59
2811.44
2842.9
2882.06
2929.91
2986.87
3051.75
3120.06
3181.67
3220.13
2704.22
2707.51
2714.26
2724.82
2739.75
2759.87
2786.27
2820.37
2863.97
2919.16
2987.91
3071
3165.24
3258.23
3322.35
2673.37
2676.59
2683.22
2693.64
2708.5
2728.74
2755.68
2791.18
2837.78
2898.92
2978.95
3082.46
3211.23
3354.78
3469.87
2640.24
2643.26
2649.48
2659.33
2673.46
2692.89
2719.1
2754.23
2801.45
2865.52
2953.62
3076.31
3246.9
3471.04
3698.09
2604.96
2607.64
2613.18
2621.98
2634.69
2652.3
2676.28
2708.83
2753.36
2815.37
2904.21
3036.84
3245.31
3585.22
4084.74
2567.77
2569.98
2574.57
2581.87
2592.47
2607.23
2627.44
2655.05
2693.09
2746.54
2824.33
2944.66
3152.37
3588.51
4819.04
-6169.04
-4587.33
-4025.68
-3757.51
-3601.65
-3500.44
-3430.54
-3380.47
-3343.85
-3316.82
-3296.93
-3282.54
-3272.55
-3266.24
-3263.19
-5224.76
-4583.16
-4145.75
-3876.84
-3705.15
-3589.62
-3508.51
-3449.87
-3406.66
-3374.57
-3350.82
-3333.55
-3321.51
-3313.88
-3310.18
-4728.16
-4437
-4148.63
-3928.48
-3769.5
-3654.74
-3570.75
-3508.38
-3461.6
-3426.39
-3400.07
-3380.78
-3367.25
-3358.64
-3354.46
-4435.91
-4288.71
-4103.95
-3937.48
-3802.98
-3698.33
-3617.81
-3555.92
-3508.35
-3471.9
-3444.3
-3423.86
-3409.42
-3400.2
-3395.7
-4248.05
-4166.31
-4046.41
-3924.11
-3815.55
-3725.03
-3651.78
-3593.36
-3547.22
-3511.15
-3483.4
-3462.63
-3447.83
-3438.32
-3433.67
-4119.14
-4070.22
-3990.38
-3901.02
-3815.42
-3739.6
-3675.28
-3622.12
-3578.94
-3544.47
-3517.52
-3497.09
-3482.42
-3472.93
-3468.27
-4026.39
-3995.44
-3940.77
-3875.16
-3808.33
-3746.02
-3690.9
-3643.77
-3604.47
-3572.42
-3546.96
-3527.42
-3513.25
-3504.03
-3499.48
-3957.3
-3936.97
-3898.6
-3849.98
-3797.95
-3747.29
-3700.8
-3659.83
-3624.8
-3595.66
-3572.13
-3553.86
-3540.49
-3531.73
-3527.4
-3904.53
-3890.86
-3863.39
-3826.99
-3786.44
-3745.5
-3706.72
-3671.61
-3640.88
-3614.85
-3593.52
-3576.75
-3564.37
-3556.22
-3552.17
-3863.44
-3854.17
-3834.22
-3806.73
-3775.05
-3742.06
-3709.95
-3680.16
-3653.56
-3630.63
-3611.58
-3596.44
-3585.17
-3577.69
-3573.97
-3830.98
-3824.73
-3810.11
-3789.21
-3764.39
-3737.86
-3711.4
-3686.34
-3663.54
-3643.57
-3626.77
-3613.28
-3603.16
-3596.42
-3593.04
-3805.05
-3800.96
-3790.21
-3774.25
-3754.77
-3733.44
-3711.73
-3690.77
-3671.39
-3654.17
-3639.52
-3627.64
-3618.66
-3612.64
-3609.62
-3784.16
-3781.64
-3773.76
-3761.56
-3746.26
-3729.14
-3711.38
-3693.94
-3677.58
-3662.85
-3650.18
-3639.82
-3631.94
-3626.63
-3623.96
-3767.22
-3765.87
-3760.17
-3750.86
-3738.86
-3725.14
-3710.65
-3696.21
-3682.46
-3669.96
-3659.09
-3650.13
-3643.27
-3638.63
-3636.29
-3753.42
-3752.96
-3748.93
-3741.87
-3732.48
-3721.52
-3709.74
-3697.82
-3686.34
-3675.77
-3666.51
-3658.82
-3652.9
-3648.88
-3646.84
-3742.14
-3742.36
-3739.63
-3734.35
-3727.04
-3718.3
-3708.76
-3698.97
-3689.42
-3680.54
-3672.69
-3666.13
-3661.05
-3657.59
-3655.83
-3732.9
-3733.66
-3731.94
-3728.06
-3722.42
-3715.5
-3707.8
-3699.78
-3691.87
-3684.44
-3677.82
-3672.26
-3667.93
-3664.96
-3663.45
-3725.34
-3726.52
-3725.6
-3722.84
-3718.54
-3713.09
-3706.9
-3700.36
-3693.82
-3687.63
-3682.07
-3677.37
-3673.69
-3671.16
-3669.87
-3719.17
-3720.67
-3720.39
-3718.51
-3715.29
-3711.03
-3706.08
-3700.77
-3695.38
-3690.23
-3685.58
-3681.61
-3678.49
-3676.34
-3675.24
-3714.14
-3715.91
-3716.13
-3714.96
-3712.6
-3709.31
-3705.37
-3701.05
-3696.63
-3692.34
-3688.44
-3685.1
-3682.46
-3680.64
-3679.7
-3710.09
-3712.07
-3712.69
-3712.07
-3710.4
-3707.88
-3704.75
-3701.26
-3697.61
-3694.04
-3690.77
-3687.95
-3685.71
-3684.16
-3683.36
-3706.87
-3709.01
-3709.94
-3709.76
-3708.63
-3706.72
-3704.24
-3701.39
-3698.38
-3695.39
-3692.63
-3690.23
-3688.32
-3686.99
-3686.31
-3704.37
-3706.63
-3707.79
-3707.96
-3707.24
-3705.8
-3703.82
-3701.49
-3698.96
-3696.43
-3694.08
-3692.02
-3690.37
-3689.22
-3688.62
-3702.51
-3704.85
-3706.19
-3706.6
-3706.19
-3705.1
-3703.5
-3701.54
-3699.39
-3697.21
-3695.16
-3693.36
-3691.92
-3690.9
-3690.38
-3701.21
-3703.62
-3705.07
-3705.65
-3705.45
-3704.6
-3703.26
-3701.57
-3699.68
-3697.75
-3695.92
-3694.31
-3693.01
-3692.09
-3691.61
-3700.45
-3702.89
-3704.41
-3705.08
-3705.01
-3704.3
-3703.11
-3701.58
-3699.85
-3698.06
-3696.37
-3694.87
-3693.66
-3692.81
-3692.37
-3700.19
-3702.64
-3704.18
-3704.88
-3704.84
-3704.17
-3703.03
-3701.56
-3699.89
-3698.16
-3696.53
-3695.08
-3693.91
-3693.09
-3692.66
-3700.43
-3702.86
-3704.37
-3705.03
-3704.94
-3704.22
-3703.03
-3701.52
-3699.81
-3698.06
-3696.4
-3694.94
-3693.76