/*--------------------------------*- C++ -*----------------------------------*\
| =========                 |                                                 |
| \\      /  F ield         | OpenFOAM: The Open Source CFD Toolbox           |
|  \\    /   O peration     | Version:  5.x                                   |
|   \\  /    A nd           | Web:      www.OpenFOAM.org                      |
|    \\/     M anipulation  |                                                 |
\*---------------------------------------------------------------------------*/
FoamFile
{
    version     2.0;
    format      ascii;
    class       volScalarField;
    location    "5";
    object      gradTy;
}
// * * * * * * * * * * * * * * * * * * * * * * * * * * * * * * * * * * * * * //

dimensions      [0 -1 0 1 0 0 0];

internalField   nonuniform List<scalar> 
6300
(
1894.18
3680
5458.13
7223.45
8970.74
10694.8
12390.3
14052.1
15674.7
17253.1
18782.1
20257.1
21673.5
23027.7
24316.5
3.75614
11.2819
18.8464
26.4685
34.1568
41.904
49.6816
57.4337
65.0709
72.4667
79.4562
85.8405
91.3976
95.9015
99.1473
6.24504
18.7598
31.3458
44.0396
56.8612
69.8049
82.8298
95.8487
108.718
121.227
133.096
143.982
153.493
161.226
166.809
8.70882
26.1656
43.7355
61.4806
79.4403
97.6206
115.979
134.408
152.718
170.618
187.711
203.488
217.357
228.689
236.894
11.133
33.4565
55.9478
78.7033
101.795
125.253
149.051
173.079
197.117
220.808
243.629
264.889
283.743
299.264
310.552
13.4993
40.5779
67.8926
95.5862
123.776
152.538
181.884
211.728
241.852
271.852
301.093
328.676
353.443
374.051
389.14
15.7846
47.4608
79.4549
111.967
145.178
179.231
214.206
250.086
286.696
323.638
360.196
395.26
427.281
454.332
474.342
17.9621
54.0233
90.4942
127.644
165.73
204.99
245.612
287.697
331.192
375.786
420.769
464.861
506.063
541.628
568.344
20.0017
60.1731
100.85
142.375
185.1
229.375
275.539
323.88
374.567
427.522
482.207
537.326
590.451
637.742
674.124
21.8725
65.8139
110.351
155.9
202.907
251.857
303.271
357.697
415.653
477.5
543.183
611.755
680.638
744.727
795.946
23.5454
70.8555
118.833
167.957
218.761
271.858
327.972
387.962
452.822
523.615
601.239
685.838
775.578
864.539
940.195
24.9978
75.2254
126.162
178.325
232.307
288.825
348.777
413.333
484.031
562.87
652.285
754.738
871.252
997.601
1116.65
26.2169
78.8822
132.256
186.861
243.305
302.34
364.958
432.538
507.071
591.516
690.256
809.531
957.035
1137.91
1339.04
27.2028
81.8257
137.112
193.548
251.696
312.253
376.156
444.762
520.171
605.831
707.651
836.046
1009.39
1257.88
1614.85
27.9698
84.1005
140.811
198.512
257.661
318.8
382.63
450.158
522.991
603.95
698.425
817.562
986.543
1269.29
1855.23
25435.9
26405.7
27327.5
28201.4
29028.1
29808.9
30545.2
31238.8
31892.1
32507.3
33087
33633.8
34150.5
34639.7
35104.3
35546.8
35970
36376.3
36768.1
37147.9
37517.8
37880
38236.2
38588.3
38937.8
39286.1
39634.3
39983.3
40333.8
40686.2
41040.7
41397.4
41755.9
42116.1
42477.4
42839.3
43201.2
43562.3
43921.8
44279
44633
44982.8
45327.4
45665.8
45996.9
46319.8
46633.6
46937.2
47230
47511.2
47780
48035.9
48278.1
48505.9
48718.6
48915.5
49095.7
49258.3
49402.3
49526.9
49631.1
49713.6
49773.5
49809.5
49820.3
49804.6
49760.8
49687.1
49581.8
49442.7
49267.6
49054.2
48799.8
48501.8
48157.4
47763.5
47317.3
46815.6
46255.3
45633.2
44946.4
44191.7
43366.5
42467.9
41493.9
40442.6
39312.5
38103
36813.8
35445.7
100.825
101.314
100.757
99.1856
96.6685
93.3037
89.2093
84.5137
79.3466
73.8322
68.0841
62.2024
56.273
50.3677
44.5458
38.8562
33.3397
28.0312
22.9629
18.1653
13.6696
9.5087
5.71698
2.33003
-0.6173
-3.09369
-5.07513
-6.54904
-7.5182
-8.00318
-8.04249
-7.68956
-7.00648
-6.05583
-4.89219
-3.55598
-2.0712
-0.447784
1.31212
3.20576
5.22164
7.33404
9.50192
11.6729
13.7914
15.8083
17.6905
19.4265
21.0281
22.5272
23.9696
25.4065
26.8863
28.4474
30.1138
31.8949
33.7881
35.7844
37.8754
40.0599
42.3482
44.7641
47.3434
50.1305
53.1735
56.5187
60.2051
64.2602
68.6973
73.5148
78.6981
84.2222
90.0553
96.1616
102.502
109.035
115.711
122.471
129.241
135.925
142.408
148.546
154.176
159.114
163.166
166.14
167.859
168.179
167.003
164.295
169.693
170.522
169.544
166.816
162.465
156.669
149.64
141.607
132.797
123.425
113.684
103.744
93.7474
83.8105
74.0295
64.4819
55.2317
46.3336
37.8374
29.7917
22.247
15.2573
8.88125
3.18101
-1.7808
-5.94606
-9.26811
-11.7199
-13.3021
-14.049
-14.0294
-13.3423
-12.1044
-10.433
-8.42909
-6.16354
-3.6726
-0.962932
1.97516
5.14992
8.55085
12.1368
15.833
19.5397
23.1482
26.5623
29.7175
32.5922
35.2109
37.6368
39.9595
42.2778
44.6834
47.2468
50.0096
52.9827
56.1526
59.4933
62.9807
66.6055
70.3822
74.3521
78.5806
83.1495
88.148
93.6614
99.7617
106.499
113.895
121.946
130.624
139.88
149.658
159.895
170.53
181.495
192.716
204.101
215.533
226.861
237.89
248.384
258.059
266.597
273.657
278.894
281.989
282.676
280.776
276.216
241.124
242.317
240.832
236.765
230.323
221.789
211.497
199.798
187.035
173.526
159.55
145.347
131.113
117.007
103.156
89.6592
76.5971
64.0382
52.0448
40.679
30.0075
20.105
11.0556
2.95221
-4.10754
-10.0287
-14.7301
-18.1588
-20.3048
-21.2141
-20.9935
-19.8044
-17.8424
-15.3054
-12.3593
-9.11243
-5.60602
-1.82432
2.27977
6.75044
11.5954
16.7618
22.1301
27.5284
32.765
37.6695
42.1284
46.1071
49.6516
52.8759
55.9371
59.0056
62.2361
65.7434
69.5879
73.7737
78.2593
82.9809
87.8794
92.9249
98.1318
103.563
109.323
115.546
122.378
129.956
138.398
147.783
158.144
169.469
181.705
194.773
208.581
223.039
238.06
253.563
269.458
285.634
301.945
318.19
334.108
349.36
363.539
376.169
386.732
394.693
399.545
400.86
398.34
391.861
316.361
317.952
315.819
310.12
301.176
289.425
275.365
259.507
242.335
224.284
205.73
186.98
168.282
149.826
131.762
114.2
97.2286
80.9199
65.3406
50.5595
36.6546
23.7187
11.8627
1.21599
-8.078
-15.8714
-22.0283
-26.4479
-29.0916
-30.0093
-29.3551
-27.3826
-24.4117
-20.77
-16.7261
-12.4386
-7.93965
-3.15391
2.05233
7.80767
14.1723
21.0912
28.3787
35.7443
42.8544
49.4122
55.2254
60.2414
64.5484
68.3459
71.9012
75.4984
79.3898
83.7557
88.6784
94.1382
100.034
106.223
112.578
119.024
125.572
132.314
139.413
147.08
155.543
165.019
175.689
187.671
201.013
215.684
231.591
248.598
266.565
285.362
304.887
325.054
345.779
366.956
388.43
409.971
431.257
451.856
471.218
488.688
503.522
514.935
522.161
524.532
521.572
513.068
396.887
398.928
395.919
388.123
376.049
360.365
341.804
321.09
298.883
275.756
252.18
228.529
205.089
182.073
159.634
137.883
116.898
96.7451
77.4819
59.1739
41.9026
25.7743
10.9264
-2.46963
-14.2103
-24.0712
-31.8285
-37.2943
-40.3637
-41.0678
-39.6149
-36.3985
-31.947
-26.8141
-21.4439
-16.0701
-10.687
-5.09007
1.03291
7.98609
15.9495
24.8878
34.5129
44.3257
53.7364
62.2247
69.4675
75.395
80.1774
84.1645
87.8066
91.5712
95.8664
100.974
107.006
113.889
121.4
129.246
137.163
145
152.756
160.573
168.707
177.488
187.266
198.378
211.098
225.609
241.973
260.123
279.888
301.037
323.343
346.626
370.773
395.722
421.431
447.831
474.797
502.098
529.374
556.105
581.594
604.97
625.207
641.176
651.735
655.852
652.756
642.082
484.593
487.15
482.891
472.266
456.102
435.43
411.327
384.806
356.744
327.864
298.73
269.768
241.283
213.486
186.516
160.46
135.373
111.291
88.2513
66.3002
45.5108
25.9932
7.90698
-8.53039
-23.0403
-35.2903
-44.9182
-51.5808
-55.0312
-55.2213
-52.4033
-47.1821
-40.4528
-33.1895
-26.1563
-19.7048
-13.7322
-7.77392
-1.17255
6.71903
16.332
27.7043
40.3859
53.4945
65.9552
76.8394
85.6125
92.2075
96.9625
100.492
103.55
106.897
111.193
116.887
124.136
132.767
142.32
152.203
161.903
171.135
179.894
188.417
197.116
206.5
217.109
229.453
243.958
260.903
280.377
302.25
326.202
351.816
378.712
406.64
435.496
465.286
496.068
527.875
560.661
594.242
628.258
662.122
694.991
725.749
753.011
775.18
790.557
797.529
794.824
781.787
582.007
585.16
579.003
564.359
542.62
515.409
484.311
450.717
415.761
380.314
345.014
310.303
276.471
243.696
212.071
181.634
152.391
124.331
97.4475
71.7501
47.2848
24.1494
2.51288
-17.3661
-35.1233
-50.2832
-62.2754
-70.4895
-74.3902
-73.7031
-68.6487
-60.1341
-49.7245
-39.231
-30.0288
-22.6476
-16.7552
-11.3821
-5.2348
2.97375
14.181
28.635
45.6432
63.5956
80.4432
94.4932
104.893
111.67
115.513
117.504
118.88
120.866
124.518
130.576
139.299
150.345
162.797
175.464
187.36
198
207.421
216.06
224.591
233.803
244.507
257.471
273.348
292.593
315.359
341.41
370.138
400.755
432.598
465.314
498.861
533.408
569.206
606.481
645.343
685.725
727.322
769.531
811.388
851.518
888.105
918.918
941.434
953.093
951.722
936.083
692.733
696.544
687.303
666.634
636.986
600.955
560.857
518.559
475.454
432.524
390.42
349.542
310.113
272.226
235.892
201.069
167.686
135.661
104.919
75.4115
47.131
20.1359
-5.42234
-29.2663
-50.9542
-69.8447
-85.0792
-95.6153
-100.361
-98.479
-89.8823
-75.8207
-59.1234
-43.4198
-31.2864
-23.4548
-19.0384
-16.1139
-12.2739
-5.09893
7.34455
25.8769
49.5293
75.275
98.9466
117.39
129.378
135.344
136.722
135.39
133.329
132.433
134.38
140.435
151.135
165.923
182.999
199.879
214.682
226.683
236.144
243.927
251.157
259.031
268.727
281.366
297.957
319.278
345.664
376.755
411.385
447.947
485.232
522.784
560.772
599.706
640.192
682.766
727.793
775.409
825.45
877.386
930.209
982.324
1031.44
1074.53
1107.87
1127.34
1129.09
1110.61
822.293
826.679
812.017
781.793
740.502
692.316
640.537
587.532
534.87
483.524
434.041
386.681
341.518
298.506
257.527
218.424
181.02
145.138
110.612
77.3055
45.1272
14.0562
-15.822
-44.2656
-70.8067
-94.6628
-114.64
-129.069
-135.867
-132.914
-118.976
-95.2939
-67.0836
-42.4604
-26.3432
-19.3382
-19.1677
-22.1583
-24.1097
-20.7523
-8.25421
15.7507
50.4046
89.9437
124.98
149.583
162.537
165.625
161.835
154.335
146.108
139.921
138.351
143.637
157.131
178.267
203.562
227.376
246.147
259.139
267.408
272.717
276.923
281.758
288.827
299.683
315.859
338.76
369.273
407.062
449.891
494.117
537.485
579.616
621.296
663.739
708.14
755.484
806.484
861.561
920.811
983.917
1050
1117.39
1183.4
1244.12
1294.22
1327.05
1335.51
1314.14
979.974
984.192
959.088
912.843
853.903
788.809
721.947
655.975
592.361
531.814
474.58
420.636
369.808
321.843
276.45
233.322
192.155
152.655
114.545
77.5732
41.5287
6.26063
-28.2841
-61.9992
-94.5188
-125.058
-152.181
-173.5
-185.406
-183.155
-162.091
-121.28
-69.8711
-29.247
-8.27312
-5.37504
-14.7399
-29.6937
-43.5846
-49.5631
-40.4181
-9.70645
44.2468
111.096
166.037
198.548
209.899
205.81
192.29
174.328
155.957
140.774
132.472
135.059
152.18
184.707
226.368
262.267
286.082
298.56
303.104
303.269
301.962
301.447
303.651
310.507
324.236
347.424
382.521
430.199
486.442
541.551
591.53
637.091
680.705
724.926
771.816
822.897
879.257
941.657
1010.57
1086.11
1167.84
1254.39
1342.92
1428.93
1505.35
1561.78
1584.81
1561.51
1183.59
1183.87
1136.55
1062.12
976.114
887.804
802.031
720.98
645.398
575.298
510.349
450.074
393.949
341.454
292.087
245.376
200.873
158.157
116.826
76.4959
36.8043
-2.58242
-41.9445
-81.4564
-121.082
-160.371
-198.077
-231.482
-255.326
-260.481
-233.637
-162.525
-57.1298
12.2602
35.8226
26.243
-2.26751
-38.7618
-74.4551
-100.153
-103.64
-68.6356
19.5121
149.385
239.382
277.966
279.482
259.562
229.127
194.9
161.211
131.716
110.927
105.583
125.106
178.093
257.614
314.741
342.549
349.632
345.342
336.188
326.106
317.471
312.029
311.677
319.226
339.154
377.831
441.139
524.713
596.413
651.95
697.357
739.215
782.235
829.415
882.659
943.28
1012.32
1090.71
1179.31
1278.68
1388.44
1505.97
1627.43
1745.18
1844.5
1900.73
1881.27
1474.38
1452.03
1352.96
1228.03
1101.58
983.091
875.266
778.069
690.503
611.332
539.36
473.51
412.844
356.542
303.887
254.237
207.009
161.658
117.66
74.4975
31.6415
-11.4584
-55.3841
-100.742
-148.121
-197.954
-250.152
-303.216
-352.14
-383.87
-368.912
-253.125
7.46565
119.763
127.644
85.1243
21.7054
-48.9775
-119.711
-182.718
-222.28
-204.083
-65.3037
245.092
386.754
410.751
379.921
328.443
271.414
214.689
160.423
110.124
67.1575
40.3336
49.917
133.406
321.33
409.718
429.19
417.429
394.944
370.811
348.532
329.262
313.441
301.829
296.734
304.208
337.952
423.106
580.2
674.59
726.949
762.707
796.01
833.505
878.233
931.748
995.129
1069.46
1156.1
1256.93
1374.48
1511.21
1663.25
1831.2
2011.43
2189.14
2325.54
2339.51
1974.46
1830.55
1606.54
1396.03
1215.52
1062.96
933.143
821.243
723.475
636.963
559.519
489.453
425.426
366.356
311.339
259.594
210.429
163.2
117.284
72.0508
26.8261
-19.1465
-66.7594
-117.115
-171.622
-232.119
-300.968
-380.897
-473.694
-574.469
-649.365
-552.227
285.603
377.616
292.036
174.095
56.1369
-59.1185
-176.086
-299.033
-424.084
-513.156
-397.245
583.761
703.543
622.464
510.067
405.298
313.242
230.917
153.901
77.9544
0.128358
-77.3411
-131.652
-61.5226
528.722
604.376
561.3
501.168
447.425
403.273
367.135
336.602
309.306
283.111
256.656
231.933
224.497
301.82
726.098
813.295
825.808
831.535
846.706
874.299
914.336
966.57
1031.15
1108.8
1200.98
1310.39
1442.6
1611.81
1797.54
2017.14
2281.18
2593.13
2926.47
3131.57
3152.41
2324.31
1840.56
1520.78
1289.11
1110.04
965.158
844.014
740.193
649.497
569.022
496.666
430.845
370.312
314.057
261.22
211.047
162.839
115.917
69.5856
23.0839
-24.4732
-74.184
-127.504
-186.488
-254.246
-335.815
-440.026
-583.738
-802.303
-1177.51
-1917.9
1637.7
891.181
503.014
263.08
86.6727
-66.7917
-223.841
-412.305
-677.673
-1117.38
-1974.9
2162.56
1309.53
879.239
629.195
463.819
341.027
239.473
145.805
48.4502
-67.4696
-228.434
-492.479
-1005.36
1477.75
970.748
718.718
576.44
486.818
424.911
378.377
339.992
304.307
265.502
214.839
135.537
-10.2411
-318.436
1357.39
1059.42
934.314
886.654
879.423
897.097
932.803
983.544
1048.29
1127.16
1220.99
1330.93
1457.37
1688.5
1882.94
2138.94
2481.78
2966.18
3711.85
5005.13
33855.3
32011.6
30064.1
28018.8
25882.8
23663.5
21369.3
19008.3
16589
14119.7
11608.5
9063.51
6492.4
3902.8
1302.16
159.661
152.586
143.764
133.541
122.293
110.384
98.132
85.7947
73.5588
61.5441
49.8109
38.3703
27.1947
16.2279
5.39395
268.33
256.236
241.149
223.695
204.547
184.346
163.643
142.873
122.348
102.257
82.6911
63.6554
45.0928
26.8995
8.93971
380.46
362.854
340.875
315.52
287.835
258.79
229.202
199.693
170.689
142.436
115.034
88.4639
62.6207
37.3374
12.4058
497.73
473.815
443.952
409.652
372.459
333.758
294.665
255.992
218.263
181.752
146.535
112.539
79.5855
47.4227
15.7519
622.153
590.7
551.44
506.652
458.57
409.099
359.69
311.332
264.604
219.759
176.802
135.562
95.7536
57.0132
18.9304
756.26
715.363
664.429
606.923
546.046
484.355
423.647
365.026
309.05
255.866
205.338
157.143
110.846
65.9417
21.8857
903.369
850.014
783.948
710.523
634.303
558.598
485.487
416.057
350.69
289.304
231.527
176.815
124.538
74.0165
24.5543
1068.07
997.308
910.763
816.862
721.996
630.205
543.608
462.992
388.326
319.118
254.636
194.042
136.464
81.0266
26.8673
1257.07
1160.33
1044.88
924.117
806.57
696.581
595.712
503.945
420.478
344.184
273.84
208.241
146.239
86.753
28.7538
1480.5
1341.97
1184.26
1028.11
883.541
753.799
638.68
536.567
445.433
363.279
288.282
218.827
153.488
90.9865
30.1464
1753.99
1542.71
1321.99
1120.43
945.633
796.345
668.599
558.174
461.382
375.196
297.162
225.283
157.89
93.5521
30.9898
2099.78
1752.8
1440.48
1185.92
982.154
817.298
681.152
566.112
466.698
378.935
299.87
227.236
159.226
94.336
31.2486
2530.88
1928.12
1501.14
1200.53
979.708
809.49
672.553
558.388
460.335
373.954
296.127
224.55
157.433
93.311
30.9155
2909.29
1927.51
1435.34
1135.28
926.593
768.35
641.14
534.518
442.273
360.396
286.113
217.387
152.634
90.5541
30.0164
28.5098
85.6906
143.355
201.824
261.425
322.49
385.384
450.54
518.587
590.624
668.901
758.435
870.937
1034.74
1320.19
28.8756
86.7603
145.039
203.951
263.696
324.405
386.089
448.57
511.349
573.404
632.778
685.471
721.387
706.996
505.564
29.1476
87.5527
146.277
205.49
265.287
325.628
386.227
446.374
504.591
558.02
601.27
624.132
606.739
509.115
253.207
29.3419
88.1203
147.168
206.614
266.49
326.657
386.665
445.501
501.135
549.679
583.896
590.723
547.778
421.134
174.801
29.4692
88.4968
147.778
207.43
267.479
327.783
387.9
446.834
502.582
551.261
585.521
591.849
546.923
416.249
168.104
29.5335
88.6936
148.122
207.96
268.279
329.027
389.939
450.361
508.916
562.832
606.519
628.54
605.592
492.924
222.553
29.5317
88.7
148.177
208.148
268.768
330.142
392.302
455.162
518.447
581.484
642.533
696.43
726.54
679.095
398.338
29.456
88.4883
147.881
207.876
268.722
330.698
394.16
459.647
528.125
601.49
683.483
780.809
901.313
1027.26
932.383
29.2955
88.0223
147.16
207.002
267.879
330.209
394.593
462.03
534.383
615.478
713.749
849.055
1072.27
1528.73
2695.48
29.0396
87.2667
145.944
205.4
266.014
328.277
392.888
460.974
534.539
617.509
718.256
856.212
1081.19
1536.88
2699.02
28.68
86.1947
144.181
202.982
262.991
324.697
388.751
456.088
528.132
607.16
696.882
802.887
929.847
1054.38
944.71
28.2119
84.7916
141.845
199.713
258.775
319.468
382.313
447.907
516.84
589.347
664.154
734.956
780.127
734.449
426.294
27.6345
83.0557
138.938
195.606
253.41
312.727
373.943
437.379
503.032
569.894
634.154
684.76
693.427
596.731
285.922
26.9505
80.9958
135.478
190.7
246.98
304.646
364.01
425.282
488.346
552.2
613.576
663.61
679.806
607.612
326.779
26.1649
78.6289
131.498
185.049
239.574
295.368
352.728
411.91
473.074
536.173
600.804
665.86
727.441
763.238
626.371
25.2851
75.977
127.036
178.713
231.271
284.986
340.157
397.133
456.418
519.026
587.654
670.405
792.806
1038.52
1700.59
24.3196
73.0664
122.138
171.756
222.152
273.575
326.31
380.724
437.415
497.643
564.612
647.285
772.321
1024.24
1695.58
23.2781
69.9266
116.854
164.248
212.307
261.239
311.279
362.71
415.92
471.529
530.586
594.624
663.515
718.29
610.818
22.1712
66.59
111.238
156.271
201.845
248.121
295.266
343.437
392.73
442.977
493.046
538.507
564.367
524.794
299.51
21.0102
63.0906
105.351
147.909
190.884
234.389
278.528
323.369
368.852
414.518
458.675
495.953
510.598
460.182
247.675
19.8066
59.4635
99.2507
139.252
179.547
220.207
261.294
302.844
344.833
387.095
429.074
469.114
502.028
508.17
392.303
18.5717
55.7433
92.9977
130.385
167.948
205.722
243.732
282.006
320.621
359.873
400.84
447.268
512.14
641.054
1001.56
17.3165
51.9632
86.6485
121.391
156.198
191.067
225.98
260.927
295.968
331.474
368.844
412.692
477.928
613.443
990.018
16.0511
48.1542
80.2564
112.347
144.402
176.377
208.201
239.778
270.995
301.803
332.384
363.345
395.078
418.768
352.836
14.7847
44.3441
73.8691
103.325
132.659
161.79
190.594
218.877
246.312
272.316
295.694
313.531
317.943
286.531
160.155
13.5251
40.5565
67.5271
94.3836
121.052
147.428
173.35
198.567
222.629
244.674
262.882
273.095
265.767
220.348
102.232
12.2785
36.8104
61.2623
85.5688
109.645
133.376
156.596
179.058
200.349
219.712
235.641
244.879
240.087
204.702
104.304
11.0497
33.1195
55.0971
76.911
98.4736
119.673
140.366
160.364
179.409
197.14
213.058
226.425
235.678
234.226
181.531
9.84156
29.4926
49.0449
68.4254
87.5497
106.318
124.617
142.33
159.379
175.83
192.254
210.833
238.712
299.338
474.284
8.6558
25.9342
43.1116
60.1162
76.8691
93.2834
109.269
124.759
139.765
154.534
169.959
188.781
219.001
285.049
468.888
7.49293
22.4455
37.2979
51.9807
66.4207
80.5401
94.2602
107.519
120.315
132.775
145.303
158.809
174.4
188.943
164.024
6.35271
19.0256
31.6011
44.0131
56.1933
68.0693
79.5638
90.5979
101.095
110.958
119.965
127.38
130.518
120.227
69.6527
5.23436
15.6718
26.0164
36.2056
46.176
55.86
65.181
74.0436
82.3107
89.7292
95.7242
98.9125
95.9537
79.4749
36.8944
4.13678
12.3809
20.5374
28.5485
36.3564
43.9007
51.1117
57.8972
64.1117
69.4813
73.4253
74.7055
70.7687
56.8409
25.8045
3.05876
9.14867
15.1568
21.0303
26.7182
32.1706
37.3341
42.1421
46.4949
50.2168
52.9685
54.1125
52.5121
46.0783
28.9954
1.99913
5.97143
9.86708
13.6381
17.2411
20.6388
23.7999
26.6983
29.3112
31.6194
33.62
35.416
37.6006
42.6976
60.5827
0.95694
2.84591
4.66164
6.35995
7.90402
9.26853
10.4447
11.4481
12.3339
13.2297
14.4055
16.4397
20.6537
30.4171
55.946
-0.0683489
-0.229846
-0.464028
-0.813455
-1.31094
-1.97348
-2.79346
-3.72448
-4.6553
-5.36028
-5.41273
-4.05978
-0.159636
7.16956
13.9535
-1.07662
-3.25578
-5.51085
-7.88577
-10.4134
-13.1083
-15.957
-18.9005
-21.8056
-24.4084
-26.2133
-26.3361
-23.3645
-15.7116
-3.95947
-2.06694
-6.22927
-10.475
-14.8531
-19.4009
-24.138
-29.0563
-34.1057
-39.1692
-44.0145
-48.1873
-50.7679
-49.828
-41.4472
-19.2154
-3.03745
-9.14474
-15.3474
-21.7027
-28.2575
-35.0426
-42.0655
-49.3022
-56.6863
-64.0904
-71.2706
-77.6496
-81.4643
-76.8072
-45.7235
-3.9853
-11.9936
-20.1133
-28.4134
-36.9539
-45.7816
-54.9259
-64.3964
-74.1901
-84.3229
-94.9123
-106.315
-118.988
-130.524
-114.154
-4.90676
-14.7644
-24.753
-34.9559
-45.4494
-56.2994
-67.5583
-79.2647
-91.4575
-104.238
-117.99
-134.101
-157.306
-203.625
-329.769
-5.79728
-17.4432
-29.2425
-41.2947
-53.6949
-66.5305
-79.877
-93.7925
-108.314
-123.476
-139.427
-156.961
-179.575
-221.299
-337.034
-6.65173
-20.0144
-33.5544
-47.3893
-61.6348
-76.4029
-91.7962
-107.895
-124.721
-142.161
-159.763
-176.291
-188.573
-187.581
-138.812
-7.46457
-22.4609
-37.6591
-53.1953
-69.2075
-85.8359
-103.22
-121.484
-140.697
-160.726
-180.836
-198.563
-206.784
-187.042
-99.5183
-8.23016
-24.7653
-41.5261
-58.6666
-76.3471
-94.7378
-114.024
-134.407
-156.095
-179.224
-203.554
-227.427
-244.405
-233.566
-137.662
-8.94303
-26.911
-45.1259
-63.758
-82.987
-103.01
-124.056
-146.414
-170.482
-196.874
-226.576
-261.063
-301.327
-339.148
-300.393
-9.59823
-28.8825
-48.4319
-68.4291
-89.0681
-110.563
-133.168
-157.219
-183.242
-212.21
-246.257
-290.667
-359.922
-497.881
-853.397
-10.1915
-30.667
-51.422
-72.6479
-94.546
-117.334
-141.261
-166.641
-193.938
-224
-258.72
-302.991
-370.774
-505.491
-856.126
-10.7194
-32.2544
-54.0796
-76.3923
-99.3962
-123.303
-148.332
-174.716
-202.696
-232.534
-264.527
-298.96
-335.112
-363.112
-308.981
-11.1792
-33.6368
-56.3926
-79.6484
-103.609
-128.477
-154.447
-181.663
-210.142
-239.546
-268.612
-293.705
-305.077
-277.734
-153.357
-11.5689
-34.8081
-58.3519
-82.4061
-107.178
-132.873
-159.677
-187.713
-216.923
-246.764
-275.429
-297.946
-301.895
-259.713
-124.339
-11.8869
-35.7636
-59.9498
-84.6553
-110.094
-136.483
-164.033
-192.926
-223.241
-254.77
-286.482
-315.045
-330.714
-306.379
-173.99
-12.1321
-36.4997
-61.1794
-86.3845
-112.336
-139.269
-167.436
-197.125
-228.689
-262.618
-299.686
-341.06
-387.272
-428.042
-373.334
-12.3037
-37.0142
-62.0361
-87.5837
-113.883
-141.18
-169.761
-199.998
-232.463
-268.253
-309.858
-363.67
-447.559
-615.951
-1053.15
-12.402
-37.3075
-62.5193
-88.2489
-114.72
-142.179
-170.913
-201.295
-233.897
-269.812
-311.512
-365.345
-449.1
-617.102
-1053.6
-12.4282
-37.3828
-62.6339
-88.3863
-114.856
-142.274
-170.898
-201.02
-232.998
-267.314
-304.695
-346.187
-392.074
-431.711
-374.79
-12.3844
-37.2467
-62.3912
-88.0126
-114.315
-141.51
-169.817
-199.427
-230.441
-262.65
-294.979
-323.928
-339.331
-313.312
-176.943
-12.2739
-36.909
-61.8078
-87.1528
-113.135
-139.954
-167.804
-196.831
-227.017
-257.861
-287.566
-311.026
-315.302
-271.496
-130.123
-12.101
-36.3825
-60.9047
-85.8364
-111.357
-137.661
-164.947
-193.398
-223.1
-253.823
-284.444
-311.395
-324.614
-297.391
-165.832
-11.871
-35.683
-59.7076
-84.0967
-109.018
-134.662
-161.254
-189.065
-218.436
-249.814
-283.823
-321.247
-361.954
-395.691
-340.472
-11.5905
-34.8299
-58.2475
-81.9735
-106.157
-130.982
-156.687
-183.618
-212.341
-243.936
-280.78
-328.764
-404.07
-555.695
-949.58
-11.2676
-33.8473
-56.5634
-79.5181
-102.834
-126.668
-151.241
-176.893
-204.213
-234.37
-269.948
-317.246
-393.113
-547.359
-946.336
-10.912
-32.7641
-54.7034
-76.7979
-99.1322
-121.819
-145.02
-168.976
-194.079
-220.998
-250.926
-285.83
-327.651
-368.969
-329.773
-10.5349
-31.6145
-52.7259
-73.8971
-95.1672
-116.592
-138.248
-160.233
-182.644
-205.494
-228.4
-249.556
-262.473
-246.42
-143.946
-10.149
-30.4373
-50.6972
-70.9136
-91.0768
-111.182
-131.222
-151.163
-170.87
-189.91
-207.044
-218.953
-217.36
-183.836
-86.8528
-9.76828
-29.2743
-48.6891
-67.9535
-87.0091
-105.796
-124.24
-142.226
-159.523
-175.61
-189.272
-197.679
-194.374
-165.278
-83.0196
-9.407
-28.1693
-46.7766
-65.1253
-83.1111
-100.626
-117.551
-133.74
-148.984
-162.956
-175.108
-184.492
-189.249
-183.597
-137.344
-9.07994
-27.1669
-45.0348
-62.5366
-79.5239
-95.8462
-111.35
-125.881
-139.296
-151.53
-162.824
-174.472
-191.303
-230.055
-350.257
-8.80189
-26.3117
-43.5388
-60.2932
-76.383
-91.6158
-105.803
-118.77
-130.397
-140.723
-150.252
-160.806
-178.079
-219.873
-346.268
-8.58758
-25.648
-42.363
-58.4998
-73.8225
-88.094
-101.081
-112.565
-122.373
-130.437
-136.931
-142.43
-147.771
-150.868
-124.138
-8.4515
-25.2195
-41.581
-57.2607
-71.978
-85.4477
-97.383
-107.501
-115.53
-121.213
-124.266
-124.126
-118.978
-102.527
-55.814
-8.40781
-25.0691
-41.2653
-56.6795
-70.9865
-83.8511
-94.9289
-103.866
-110.291
-113.787
-113.786
-109.265
-97.9995
-75.167
-32.5513
-8.47005
-25.2379
-41.4857
-56.8575
-70.9839
-83.4802
-93.9443
-101.955
-107.064
-108.765
-106.419
-99.0583
-85.0252
-61.5217
-24.8934
-8.65076
-25.764
-42.3084
-57.8912
-72.1018
-84.5064
-94.6472
-102.041
-106.181
-106.531
-102.511
-93.4594
-78.6029
-56.9699
-26.3629
-8.9611
-26.6819
-43.7929
-59.8698
-74.463
-87.0919
-97.2424
-104.37
-107.912
-107.311
-102.073
-91.8691
-76.8629
-58.6278
-43.1767
-9.41027
-28.0201
-45.9903
-62.871
-78.1786
-91.3869
-101.923
-109.173
-112.5
-111.295
-105.061
-93.5927
-77.3421
-58.3253
-42.8995
-10.0048
-29.7993
-48.9392
-66.9575
-83.3431
-97.5269
-108.874
-116.685
-120.221
-118.753
-111.667
-98.6183
-79.7215
-55.5036
-25.1647
-10.7478
-32.0304
-52.6623
-72.1713
-90.0284
-105.627
-118.269
-127.154
-131.403
-130.098
-122.397
-107.689
-85.7789
-56.9154
-21.298
-11.6379
-34.7108
-57.1608
-78.526
-98.2739
-115.772
-130.261
-140.832
-146.427
-145.872
-137.979
-121.746
-96.6518
-63.0058
-22.2713
-12.6683
-37.8215
-62.4085
-85.9979
-108.074
-127.999
-144.965
-157.956
-165.711
-166.728
-159.341
-141.945
-113.453
-74.0107
-25.8855
-13.8254
-41.3232
-68.3453
-94.5153
-119.362
-142.271
-162.419
-178.704
-189.663
-193.41
-187.642
-169.841
-137.849
-91.039
-32.0292
-15.0879
-45.1533
-74.8703
-103.947
-131.99
-158.453
-182.548
-203.142
-218.615
-226.688
-224.288
-207.581
-172.528
-116.534
-41.677
-16.4264
-49.2234
-81.8371
-114.09
-145.711
-176.272
-205.099
-231.128
-252.695
-267.229
-270.86
-258.054
-221.742
-155.124
-57.2234
-17.8031
-53.4189
-89.0512
-124.668
-160.161
-195.288
-229.585
-262.203
-291.649
-315.333
-328.838
-324.841
-291.994
-215.434
-84.258
-19.1726
-57.601
-96.2732
-135.328
-174.859
-214.875
-255.228
-295.471
-334.594
-370.497
-398.961
-411.653
-392.595
-313.665
-137.221
-20.4835
-61.6122
-103.227
-145.652
-189.214
-234.222
-280.941
-329.51
-379.765
-430.816
-480.027
-520.502
-534.764
-479.607
-258.234
-21.6817
-65.2844
-109.614
-155.184
-202.559
-252.374
-305.36
-362.368
-424.375
-492.402
-567.148
-647.543
-725.128
-760.969
-584.171
-22.7133
-68.4505
-115.136
-163.458
-214.205
-268.317
-326.977
-391.746
-464.794
-549.311
-650.333
-776.521
-944.465
-1189.98
-1598.67
2055.55
1531.34
1215.29
998.407
835.105
704.259
594.838
500.415
416.905
341.514
272.212
207.446
145.966
86.7175
28.7642
750.941
978.124
931.346
830.588
726.177
629.165
541.027
460.917
387.536
319.623
256.057
195.862
138.177
82.2278
27.2972
331.504
615.114
684.85
665.269
612.078
547.879
481.619
416.725
354.352
294.698
237.551
182.527
129.178
77.027
25.5958
175.524
400.602
500.351
523.259
505.599
468.001
421.24
370.764
319.265
268.019
217.559
168.023
119.34
71.3236
23.7269
107.013
273.107
369.191
409.4
412.941
394.467
363.424
325.495
283.989
240.784
196.915
152.919
109.034
65.3258
21.7579
71.7817
194.219
276.818
320.986
335.553
329.643
310.373
282.698
249.88
213.998
176.351
137.73
98.6011
59.2281
19.7519
51.2187
142.988
211.119
253.115
272.371
274.082
263.145
243.46
217.887
188.429
156.457
122.888
88.3336
53.1995
17.7641
38.0618
108.166
163.561
201.025
221.362
227.293
221.982
208.301
188.581
164.599
137.664
108.726
78.4649
47.3779
15.8402
29.0831
83.5548
128.447
160.82
180.347
188.3
186.62
177.327
162.227
142.811
120.258
95.4772
69.1666
41.8672
14.015
22.6688
65.5921
102.021
129.528
147.363
155.989
156.538
150.378
138.862
123.195
104.393
83.2872
60.552
36.7387
12.3125
17.9301
52.1366
81.7873
104.947
120.766
129.282
131.106
127.142
118.374
105.751
90.1232
72.2252
52.6836
32.0345
10.7475
14.339
41.8426
66.0575
85.4592
99.2357
107.214
109.689
107.236
100.559
90.3901
77.4261
62.3016
45.5822
27.7718
9.32667
11.5629
33.8306
53.6675
69.8739
81.7273
88.9647
91.6902
90.2578
85.1641
76.9659
66.2262
53.4829
39.2364
23.9488
8.05003
9.38212
27.5052
43.7963
57.3085
67.4208
73.8444
76.5745
75.8185
71.9214
65.3035
56.4147
45.7058
33.6122
20.5491
6.91286
7.64619
22.4509
35.8528
47.1014
55.673
61.2856
63.8763
63.5572
60.5651
55.2152
47.865
38.8884
28.6597
17.5465
5.907
6.2486
18.3696
29.4031
38.7513
45.9775
50.8226
53.196
53.1495
50.8434
46.5136
40.4427
32.9387
24.3204
14.9085
5.02212
5.11199
15.0427
24.1223
31.8732
37.9336
42.0738
44.1939
44.3086
42.525
39.0192
34.0139
27.7615
20.5311
12.5995
4.24663
4.1788
12.3062
19.7633
26.1676
31.2215
34.726
36.5825
36.784
35.4009
32.5643
28.4496
23.2624
17.2279
10.5824
3.56849
3.40532
10.0345
16.1344
21.3987
25.584
28.5213
30.1188
30.3582
29.2846
26.9956
23.6288
19.3507
14.3481
8.8207
2.97566
2.75765
8.13014
13.085
17.3782
20.8121
23.2456
24.5971
24.8428
24.0112
22.1744
19.4397
15.9413
11.8323
7.27917
2.45649
2.20905
6.51543
10.4945
13.9535
16.7341
18.7204
19.8421
20.0746
19.4347
17.9756
15.7803
12.9552
9.62446
5.92449
1.99995
1.73794
5.12771
8.26487
10.9995
13.2071
14.7947
15.7039
15.9114
15.4264
14.2874
12.5575
10.3198
7.67259
4.72551
1.59564
1.32657
3.9152
6.31439
8.41098
10.11
11.3394
12.0524
12.2284
11.8716
11.0089
9.68682
7.96822
5.92865
3.65329
1.2339
0.959932
2.83408
4.5738
6.09822
7.33873
8.24228
8.77338
8.91488
8.66755
8.04888
7.09115
5.83924
4.3482
2.68093
0.90575
0.625008
1.84622
2.98255
3.98238
4.80115
5.40347
5.76456
5.87104
5.7211
5.32405
4.69951
3.87608
2.88999
1.78339
0.602785
0.310066
0.917246
1.48599
1.99213
2.41372
2.73201
2.93236
3.00507
2.94603
2.75703
2.44581
2.02576
1.51534
0.937203
0.317132
0.0041138
0.0149399
0.032877
0.0605553
0.0979782
0.142386
0.188719
0.230535
0.261158
0.274824
0.267633
0.238161
0.1877
0.120108
0.0413308
-0.303635
-0.892281
-1.42697
-1.87774
-2.22256
-2.44851