/*--------------------------------*- C++ -*----------------------------------*\
| =========                 |                                                 |
| \\      /  F ield         | OpenFOAM: The Open Source CFD Toolbox           |
|  \\    /   O peration     | Version:  5.x                                   |
|   \\  /    A nd           | Web:      www.OpenFOAM.org                      |
|    \\/     M anipulation  |                                                 |
\*---------------------------------------------------------------------------*/
FoamFile
{
    version     2.0;
    format      ascii;
    class       volScalarField;
    location    "5";
    object      T;
}
// * * * * * * * * * * * * * * * * * * * * * * * * * * * * * * * * * * * * * //

dimensions      [0 0 0 1 0 0 0];

internalField   nonuniform List<scalar> 
6300
(
18.9293
36.7623
54.5185
72.1462
89.5935
106.808
123.738
140.33
156.531
172.29
187.557
202.286
216.432
229.959
242.836
18.9544
36.8376
54.6442
72.3228
89.8214
107.088
124.069
140.712
156.964
172.772
188.086
202.856
217.039
230.596
243.494
19.0044
36.988
54.8954
72.6755
90.2767
107.646
124.732
141.478
157.832
173.739
189.146
204.002
218.26
231.877
244.819
19.0793
37.2128
55.2711
73.2035
90.9586
108.484
125.726
142.629
159.138
175.197
190.747
205.736
220.109
233.82
246.83
19.1786
37.5113
55.7701
73.9051
91.8655
109.599
127.051
144.166
160.886
177.152
192.901
208.072
222.607
236.451
249.557
19.3019
37.882
56.3901
74.7776
92.9945
110.989
128.707
146.091
163.081
179.613
195.62
211.033
225.784
239.805
253.041
19.4486
38.3228
57.128
75.8169
94.341
112.65
130.689
148.401
165.724
182.589
198.922
214.646
229.676
243.932
257.34
19.6176
38.8312
57.9792
77.017
95.898
114.573
132.991
151.092
168.815
186.086
202.824
218.939
234.329
248.892
262.528
19.8078
39.4033
58.9378
78.3697
97.6556
116.749
135.601
154.155
172.347
190.104
207.338
223.943
239.797
254.764
268.707
20.0177
40.0346
59.9962
79.8645
99.6
119.161
138.502
157.57
176.306
194.636
212.468
229.685
246.138
261.647
276.011
20.2453
40.7196
61.1449
81.4877
101.714
121.786
141.666
161.309
180.66
199.654
218.201
236.178
253.41
269.659
284.626
20.4886
41.4517
62.3729
83.2236
103.975
124.598
145.061
165.329
185.362
205.108
224.493
243.402
261.65
278.938
294.815
20.7452
42.2241
63.6681
85.0542
106.36
127.563
148.642
169.575
190.341
210.912
231.247
251.273
270.835
289.611
306.959
21.0129
43.0294
65.018
86.9608
108.841
130.645
152.36
173.98
195.504
216.939
238.298
259.592
280.791
301.696
321.595
21.2893
43.8606
66.4103
88.9252
111.394
133.808
156.165
178.471
200.744
223.028
245.4
267.994
291.023
314.768
339.256
254.025
263.721
272.941
281.685
289.961
297.779
305.155
312.108
318.657
324.827
330.643
336.131
341.317
346.229
350.894
355.339
359.588
363.669
367.604
371.418
375.132
378.767
382.342
385.874
389.379
392.871
396.359
399.854
403.362
406.888
410.433
413.999
417.582
421.181
424.79
428.405
432.018
435.624
439.214
442.78
446.313
449.803
453.242
456.619
459.923
463.146
466.277
469.308
472.23
475.037
477.721
480.274
482.691
484.964
487.086
489.048
490.844
492.463
493.897
495.136
496.169
496.987
497.577
497.927
498.026
497.857
497.407
496.657
495.588
494.181
492.414
490.261
487.698
484.697
481.232
477.272
472.787
467.748
462.122
455.88
448.99
441.423
433.152
424.151
414.397
403.874
392.568
380.471
367.584
353.911
254.694
264.393
273.609
282.343
290.602
298.399
305.748
312.669
319.185
325.319
331.097
336.545
341.692
346.565
351.192
355.598
359.811
363.856
367.758
371.54
375.224
378.832
382.382
385.891
389.377
392.851
396.327
399.812
403.314
406.836
410.381
413.948
417.536
421.141
424.758
428.382
432.005
435.621
439.223
442.801
446.348
449.852
453.305
456.696
460.015
463.251
466.394
469.437
472.37
475.187
477.88
480.444
482.87
485.154
487.287
489.261
491.069
492.702
494.15
495.403
496.452
497.286
497.893
498.262
498.381
498.235
497.809
497.086
496.047
494.673
492.939
490.823
488.299
485.339
481.916
477.999
473.559
468.564
462.983
456.785
449.938
442.412
434.177
425.208
415.482
404.978
393.682
381.588
368.692
355.002
256.041
265.748
274.956
283.668
291.894
299.645
306.939
313.798
320.244
326.304
332.005
337.375
342.443
347.237
351.785
356.116
360.255
364.229
368.064
371.781
375.406
378.957
382.457
385.921
389.367
392.809
396.258
399.723
403.212
406.728
410.273
413.845
417.442
421.06
424.692
428.334
431.977
435.615
439.24
442.844
446.417
449.95
453.432
456.852
460.199
463.462
466.631
469.696
472.651
475.488
478.2
480.782
483.229
485.533
487.688
489.686
491.52
493.179
494.655
495.937
497.016
497.882
498.524
498.93
499.089
498.988
498.611
497.942
496.962
495.652
493.988
491.945
489.499
486.621
483.282
479.452
475.101
470.197
464.707
458.598
451.838
444.394
436.235
427.333
417.661
407.197
395.925
383.835
370.924
357.197
258.087
267.804
277
285.679
293.852
301.532
308.741
315.501
321.841
327.787
333.37
338.62
343.567
348.242
352.672
356.888
360.916
364.783
368.515
372.136
375.669
379.137
382.559
385.955
389.341
392.732
396.141
399.577
403.047
406.555
410.1
413.682
417.294
420.933
424.59
428.258
431.931
435.602
439.262
442.904
446.519
450.095
453.622
457.087
460.478
463.782
466.989
470.089
473.074
475.94
478.679
481.289
483.764
486.099
488.287
490.321
492.192
493.892
495.409
496.735
497.86
498.773
499.465
499.925
500.144
500.108
499.804
499.216
498.325
497.112
495.552
493.621
491.292
488.537
485.326
481.629
477.413
472.646
467.294
461.322
454.696
447.379
439.338
430.54
420.955
410.555
399.322
387.241
374.308
360.526
260.864
270.594
279.772
288.404
296.5
304.081
311.169
317.794
323.985
329.774
335.196
340.282
345.065
349.577
353.848
357.909
361.787
365.51
369.104
372.595
376.006
379.36
382.678
385.98
389.285
392.608
395.963
399.36
402.806
406.304
409.853
413.449
417.085
420.754
424.445
428.152
431.865
435.578
439.286
442.979
446.649
450.285
453.875
457.403
460.854
464.215
467.473
470.619
473.644
476.545
479.319
481.962
484.473
486.848
489.08
491.162
493.085
494.838
496.412
497.796
498.979
499.953
500.71
501.241
501.537
501.587
501.379
500.897
500.125
499.041
497.622
495.841
493.67
491.081
488.043
484.524
480.491
475.91
470.746
464.962
458.52
451.381
443.506
434.856
425.395
415.091
403.916
391.852
378.891
365.035
264.415
274.163
283.316
291.882
299.875
307.321
314.248
320.692
326.687
332.273
337.485
342.36
346.933
351.238
355.307
359.172
362.86
366.401
369.822
373.147
376.402
379.611
382.796
385.979
389.18
392.415
395.701
399.049
402.466
405.955
409.513
413.134
416.806
420.517
424.255
428.01
431.773
435.539
439.303
443.06
446.802
450.517
454.19
457.802
461.335
464.77
468.093
471.294
474.365
477.307
480.117
482.799
485.352
487.774
490.06
492.204
494.193
496.016
497.661
499.116
500.371
501.419
502.253
502.867
503.255
503.409
503.318
502.97
502.346
501.425
500.183
498.593
496.623
494.244
491.424
488.13
484.329
479.985
475.063
469.522
463.321
456.416
448.763
440.314
431.025
420.854
409.765
397.732
384.739
370.788
268.801
278.572
287.691
296.166
304.021
311.288
318.005
324.216
329.962
335.29
340.239
344.853
349.167
353.218
357.041
360.667
364.125
367.445
370.654
373.779
376.844
379.875
382.896
385.931
389.001
392.127
395.326
398.614
401.998
405.482
409.06
412.721
416.446
420.217
424.016
427.83
431.651
435.477
439.306
443.138
446.968
450.783
454.565
458.289
461.929
465.46
468.863
472.126
475.248
478.228
481.075
483.794
486.391
488.867
491.22
493.44
495.513
497.423
499.155
500.696
502.034
503.165
504.084
504.791
505.282
505.554
505.601
505.41
504.965
504.244
503.219
501.861
500.137
498.014
495.458
492.438
488.919
484.866
480.242
475.004
469.108
462.503
455.138
446.956
437.899
427.914
416.951
404.969
391.946
377.876
274.106
283.906
292.974
301.327
308.997
316.029
322.475
328.388
333.822
338.83
343.459
347.755
351.759
355.508
359.038
362.381
365.568
368.627
371.587
374.473
377.313
380.131
382.955
385.809
388.719
391.709
394.802
398.017
401.365
404.85
408.465
412.19
415.997
419.853
423.732
427.615
431.498
435.383
439.28
443.195
447.129
451.071
454.997
458.872
462.654
466.307
469.805
473.138
476.305
479.316
482.188
484.937
487.576
490.111
492.543
494.859
497.039
499.06
500.899
502.538
503.969
505.187
506.195
506.997
507.597
507.998
508.197
508.188
507.953
507.47
506.708
505.629
504.197
502.377
500.134
497.436
494.25
490.543
486.276
481.407
475.886
469.659
462.663
454.829
446.085
436.358
425.576
413.682
400.636
386.423
280.442
290.276
299.271
307.453
314.874
321.596
327.692
333.23
338.278
342.896
347.14
351.059
354.696
358.092
361.282
364.299
367.173
369.932
372.603
375.214
377.79
380.358
382.946
385.583
388.298
391.121
394.081
397.204
400.511
404.008
407.687
411.518
415.452
419.433
423.416
427.377
431.316
435.249
439.201
443.198
447.252
451.356
455.478
459.561
463.538
467.35
470.961
474.36
477.558
480.578
483.452
486.211
488.881
491.479
494.006
496.446
498.769
500.933
502.903
504.656
506.182
507.486
508.576
509.467
510.172
510.704
511.068
511.262
511.272
511.072
510.622
509.877
508.789
507.32
505.436
503.106
500.303
496.996
493.149
488.718
483.654
477.894
471.366
463.986
455.661
446.293
435.779
424.031
410.98
396.598
287.961
297.837
306.72
314.66
321.737
328.048
333.692
338.759
343.331
347.481
351.268
354.746
357.961
360.952
363.756
366.402
368.922
371.34
373.685
375.981
378.255
380.534
382.846
385.223
387.7
390.312
393.101
396.105
399.358
402.881
406.668
410.674
414.815
418.985
423.106
427.146
431.117
435.061
439.034
443.093
447.276
451.589
455.988
460.377
464.633
468.655
472.393
475.845
479.039
482.024
484.855
487.586
490.263
492.92
495.566
498.177
500.699
503.058
505.193
507.072
508.692
510.066
511.218
512.178
512.972
513.625
514.156
514.573
514.866
515.005
514.935
514.588
513.902
512.833
511.349
509.43
507.054
504.198
500.832
496.915
492.395
487.207
481.267
474.476
466.714
457.848
447.734
436.229
423.218
408.636
296.887
306.809
315.511
323.089
329.684
335.443
340.502
344.981
348.975
352.566
355.821
358.792
361.527
364.062
366.433
368.668
370.793
372.834
374.815
376.76
378.692
380.639
382.63
384.698
386.882
389.228
391.788
394.623
397.793
401.35
405.308
409.612
414.11
418.584
422.889
426.99
430.933
434.806
438.719
442.783
447.086
451.671
456.486
461.36
466.038
470.341
474.211
477.672
480.795
483.665
486.375
489.01
491.648
494.351
497.148
500.012
502.84
505.48
507.826
509.838
511.531
512.94
514.115
515.102
515.949
516.697
517.385
518.037
518.657
519.213
519.62
519.759
519.539
518.912
517.862
516.381
514.466
512.106
509.278
505.95
502.07
497.572
492.366
486.334
479.33
471.175
461.664
450.572
437.691
422.881
307.561
317.521
325.902
332.917
338.815
343.824
348.131
351.878
355.179
358.117
360.759
363.159
365.357
367.389
369.285
371.069
372.765
374.394
375.976
377.533
379.086
380.659
382.28
383.983
385.809
387.811
390.057
392.635
395.65
399.218
403.426
408.248
413.417
418.4
422.941
427.039
430.822
434.467
438.163
442.101
446.467
451.394
456.873
462.599
467.954
472.626
476.591
479.961
482.885
485.511
487.974
490.401
492.913
495.621
498.609
501.872
505.227
508.303
510.914
513.043
514.754
516.131
517.257
518.206
519.045
519.835
520.641
521.522
522.517
523.609
524.664
525.419
525.733
525.575
524.963
523.928
522.49
520.656
518.417
515.748
512.606
508.929
504.624
499.563
493.573
486.427
477.841
467.465
454.914
439.866
320.559
330.487
338.242
344.332
349.206
353.199
356.543
359.4
361.883
364.072
366.028
367.794
369.406
370.892
372.275
373.575
374.811
375.998
377.152
378.29
379.428
380.588
381.791
383.069
384.46
386.02
387.827
389.993
392.687
396.14
400.635
406.362
412.968
418.829
423.605
427.515
430.887
434.031
437.23
440.78
445.014
450.298
456.876
464.348
470.825
475.901
479.801
482.864
485.377
487.563
489.599
491.644
493.867
496.463
499.65
503.574
507.992
511.775
514.677
516.831
518.437
519.664
520.637
521.451
522.189
522.931
523.769
524.82
526.214
528.036
530.114
531.687
532.578
532.86
532.646
532.026
531.054
529.759
528.144
526.196
523.884
521.158
517.939
514.103
509.449
503.724
496.567
487.462
475.705
460.506
337.048
346.561
352.961
357.477
360.846
363.486
365.636
367.44
368.989
370.344
371.547
372.629
373.614
374.52
375.362
376.153
376.905
377.627
378.329
379.023
379.719
380.43
381.173
381.968
382.847
383.852
385.054
386.57
388.607
391.54
396.047
403.186
413.566
420.795
425.494
428.741
431.257
433.488
435.768
438.447
442.022
447.313
455.567
467.501
475.689
480.841
484.189
486.53
488.313
489.805
491.183
492.604
494.256
496.428
499.608
504.54
511.653
516.498
519.498
521.392
522.653
523.547
524.228
524.792
525.313
525.872
526.576
527.606
529.276
532.071
536.268
538.911
540.272
540.829
540.884
540.598
540.055
539.291
538.319
537.137
535.728
534.067
532.113
529.787
526.838
523.051
518.07
511.248
501.425
486.656
360.048
367.098
370.373
372.252
373.516
374.458
375.206
375.825
376.352
376.812
377.218
377.583
377.914
378.219
378.502
378.767
379.019
379.262
379.497
379.731
379.965
380.205
380.456
380.727
381.028
381.378
381.807
382.375
383.213
384.651
387.648
395.317
418.68
426.381
429.446
430.997
432.01
432.848
433.708
434.799
436.532
440.035
448.931
476.023
484.896
488.35
490.002
490.97
491.642
492.181
492.677
493.203
493.869
494.916
497.017
502.343
518.567
523.862
525.903
526.854
527.386
527.729
527.979
528.183
528.375
528.593
528.902
529.458
530.704
534.072
544.636
547.953
549.094
549.49
549.58
549.512
549.341
549.09
548.767
548.372
547.904
547.366
546.791
546.339
545.4
544.066
542.191
539.325
534.234
523.137
338.023
319.609
300.164
279.744
258.421
236.268
213.366
189.797
165.644
140.991
115.919
90.5069
64.8331
38.9737
13.0035
339.083
320.623
301.119
280.632
259.235
237.003
214.02
190.369
166.135
141.402
116.252
90.7633
65.0149
39.0822
13.0396
341.216
322.661
303.039
282.415
260.867
238.475
215.328
191.513
167.116
142.222
116.915
91.2743
65.377
39.2983
13.1114
344.449
325.747
305.942
285.106
263.325
240.69
217.292
193.226
168.582
143.447
117.905
92.0364
65.9168
39.6202
13.2184
348.825
329.918
309.856
288.726
266.623
243.651
219.912
195.507
170.529
145.071
119.216
93.0436
66.6295
40.045
13.3595
354.404
335.224
314.821
293.299
270.775
247.365
223.186
198.346
172.947
147.082
120.836
94.2872
67.5085
40.5687
13.5334
361.268
341.732
320.885
298.859
275.795
251.833
227.106
201.733
175.821
149.466
122.752
95.7549
68.5445
41.1853
13.7381
369.529
349.531
328.109
305.438
281.696
257.052
231.659
205.647
179.128
152.2
124.943
97.4301
69.7254
41.8875
13.9711
379.336
358.732
336.564
313.069
288.481
263.005
236.816
210.054
182.835
155.252
127.382
99.2912
71.0353
42.6656
14.2292
390.891
369.477
346.325
321.775
296.135
269.656
242.531
214.907
186.895
158.582
130.036
101.311
72.4547
43.508
14.5085
404.477
381.939
357.462
331.552
304.612
276.937
248.73
220.133
191.245
162.136
132.859
103.456
73.9601
44.4007
14.8043
420.501
396.317
370.01
342.337
313.806
284.732
255.304
225.638
195.804
165.848
135.801
105.687
75.5244
45.3278
15.1114
439.557
412.793
383.901
353.96
323.525
292.864
262.102
231.297
200.472
169.64
138.802
107.962
77.1179
46.2717
15.4241
462.496
431.373
398.82
366.056
333.449
301.078
268.928
236.96
205.138
173.426
141.799
110.232
78.709
47.2145
15.7364
490.174
451.355
413.924
377.971
343.119
309.054
275.553
242.464
209.679
177.119
144.725
112.453
80.2665
48.138
16.0424
21.5487
44.6405
67.7155
90.7639
113.778
136.753
159.692
182.607
205.529
228.518
251.694
275.281
299.73
326.055
357.08
21.7881
45.3597
68.9182
92.4561
115.968
139.451
162.909
186.356
209.823
233.371
257.121
281.297
306.33
333.04
362.879
22.03
46.0865
70.1329
94.1631
118.173
142.16
166.127
190.083
214.051
238.075
262.241
286.706
311.753
337.839
365.506
22.2738
46.8189
71.3562
95.8809
120.389
144.878
169.346
193.795
218.232
242.672
267.142
291.699
316.442
341.525
367.099
22.519
47.5552
72.5857
97.6067
122.614
147.604
172.571
197.508
222.403
247.237
271.972
296.551
320.883
344.858
368.419
22.765
48.2939
73.8191
99.3381
124.847
150.341
175.811
201.243
226.609
251.859
276.901
301.563
325.558
348.463
369.901
23.0112
49.0334
75.0544
101.073
127.086
153.088
179.07
205.014
230.885
256.617
282.081
307.027
330.976
353.073
372.128
23.2572
49.7722
76.2888
102.807
129.327
155.843
182.349
208.829
235.25
261.551
287.609
313.17
337.667
359.781
376.54
23.5022
50.5082
77.5191
104.537
131.564
158.6
185.64
212.675
239.688
266.642
293.472
320.04
345.998
370.194
387.668
23.7455
51.2392
78.7414
106.257
133.791
161.347
188.926
216.529
244.156
271.809
299.505
327.321
355.538
385.26
421.464
23.9862
51.9627
79.9515
107.961
135.998
164.071
192.188
220.358
248.597
276.934
305.443
334.31
364.017
395.808
432.651
24.2235
52.6758
81.1445
109.64
138.174
166.758
195.405
224.131
252.958
281.928
311.12
340.703
371.035
402.833
437.209
24.4564
53.3759
82.3156
111.289
140.311
169.395
198.56
227.823
257.211
286.756
316.513
346.56
377.02
408.049
439.756
24.684
54.0601
83.4601
112.9
142.398
171.971
201.638
231.42
261.342
291.427
321.69
352.116
382.593
412.779
441.975
24.9056
54.7258
84.5736
114.468
144.427
174.473
204.627
234.911
265.35
295.96
326.739
357.621
388.351
418.177
445.203
25.1201
55.3706
85.6517
115.985
146.391
176.893
207.516
238.286
269.227
300.363
331.704
363.214
394.718
425.502
452.417
25.327
55.9921
86.6908
117.446
148.282
179.223
210.296
241.53
272.957
304.611
336.534
368.795
401.566
435.49
473.554
25.5254
56.5883
87.6874
118.847
150.093
181.453
212.955
244.631
276.517
308.657
341.114
374.003
407.592
442.575
480.684
25.7149
57.1575
88.6384
120.184
151.82
183.577
215.484
247.576
279.889
312.47
345.378
378.706
412.626
447.463
483.737
25.895
57.6982
89.5414
121.452
153.457
185.588
217.876
250.355
283.063
316.04
349.332
382.979
416.998
451.323
485.676
26.0651
58.209
90.3942
122.649
155.002
187.483
220.126
252.965
286.037
319.378
353.022
386.972
421.135
455.132
487.864
26.2251
58.6892
91.1955
123.773
156.45
189.258
222.231
255.403
288.81
322.492
356.483
390.797
425.364
459.79
492.212
26.3746
59.1381
91.9442
124.822
157.801
190.912
224.188
257.665
291.38
325.376
359.702
394.425
429.669
465.813
504.549
26.5137
59.5553
92.6397
125.796
159.053
192.443
225.997
259.751
293.743
328.016
362.63
397.674
433.328
470.011
508.705
26.6422
59.9407
93.2818
126.694
160.207
193.851
227.658
261.661
295.897
330.406
365.242
400.48
436.253
472.79
510.427
26.7601
60.2943
93.8708
127.518
161.264
195.139
229.174
263.399
297.848
332.554
367.557
402.899
438.626
474.785
511.374
26.8676
60.6166
94.4072
128.267
162.225
196.309
230.547
264.971
299.607
334.483
369.623
405.032
440.682
476.462
512.131
26.9647
60.9078
94.8918
128.944
163.092
197.362
231.784
266.383
301.187
336.216
371.485
406.98
442.627
478.197
513.112
27.0517
61.1686
95.3255
129.549
163.866
198.303
232.887
267.643
302.597
337.769
373.173
408.805
444.609
480.366
515.156
27.1288
61.3994
95.7092
130.084
164.551
199.134
233.861
268.755
303.843
339.147
374.689
410.494
446.606
483.186
521.017
27.196
61.6008
96.044
130.551
165.147
199.858
234.708
269.723
304.926
340.344
376.006
411.951
448.259
485.117
522.972
27.2536
61.7735
96.3309
130.951
165.658
200.476
235.431
270.547
305.848
341.359
377.11
413.14
449.513
486.335
523.751
27.3019
61.9179
96.5707
131.285
166.084
200.992
236.034
271.232
306.611
342.194
378.005
414.074
450.435
487.121
524.133
27.3409
62.0347
96.7645
131.554
166.427
201.407
236.518
271.781
307.22
342.855
378.706
414.789
451.112
487.66
524.366
27.3708
62.1243
96.913
131.76
166.69
201.724
236.886
272.197
307.68
343.352
379.229
415.32
451.614
488.068
524.563
27.3919
62.1871
97.0171
131.905
166.873
201.944
237.14
272.484
307.995
343.692
379.589
415.691
451.987
488.428
524.849
27.4041
62.2238
97.0774
131.988
166.977
202.068
237.282
272.642
308.168
343.879
379.789
415.91
452.241
488.78
525.572
27.4078
62.2346
97.0948
132.011
167.004
202.098
237.314
272.675
308.201
343.912
379.829
415.965
452.331
488.935
525.782
27.403
62.2199
97.0697
131.974
166.955
202.035
237.236
272.58
308.091
343.789
379.699
415.842
452.238
488.899
525.805
27.3899
62.1803
97.0029
131.879
166.831
201.88
237.048
272.36
307.837
343.506
379.392
415.526
451.942
488.673
525.716
27.3685
62.1161
96.8951
131.727
166.632
201.633
236.752
272.012
307.438
343.056
378.896
414.996
451.408
488.208
525.485
27.3392
62.0279
96.7471
131.517
166.36
201.296
236.347
271.538
306.892
342.437
378.204
414.232
450.584
487.393
524.954
27.3021
61.9162
96.5599
131.253
166.016
200.87
235.836
270.939
306.201
341.65
377.314
413.224
449.425
486.033
523.582
27.2575
61.7818
96.3346
130.935
165.602
200.357
235.221
270.217
305.368
340.7
376.237
411.997
447.963
483.999
519.457
27.2055
61.6255
96.0725
130.565
165.121
199.761
234.505
269.375
304.396
339.593
374.99
410.608
446.432
482.345
517.965
27.1466
61.4483
95.7753
130.145
164.575
199.084
233.691
268.419
303.289
338.331
373.575
409.059
444.82
480.873
517.144
27.0811
61.2512
95.4449
129.678
163.968
198.33
232.785
267.351
302.051
336.914
371.977
407.299
442.985
479.227
516.306
27.0094
61.0355
95.0832
129.167
163.303
197.505
231.791
266.178
300.688
335.344
370.182
405.268
440.746
476.98
514.85
26.932
60.8026
94.6928
128.616
162.584
196.613
230.717
264.91
299.21
333.633
368.2
402.948
437.963
473.575
511.3
26.8495
60.5541
94.276
128.027
161.818
195.662
229.571
263.558
297.634
331.807
366.078
400.424
434.748
468.682
500.626
26.7622
60.2915
93.8357
127.405
161.009
194.658
228.363
262.133
295.978
329.899
363.888
397.898
431.784
465.15
497.031
26.6708
60.0165
93.3747
126.754
160.162
193.607
227.099
260.646
294.255
327.931
361.669
395.441
429.162
462.63
495.477
26.5759
59.7309
92.8959
126.077
159.282
192.517
225.788
259.105
292.475
325.907
359.411
393.003
426.699
460.521
494.475
26.478
59.4364
92.4022
125.38
158.375
191.393
224.438
257.518
290.64
323.819
357.079
390.475
424.131
458.301
493.404
26.3778
59.1349
91.8967
124.666
157.447
190.242
223.055
255.89
288.755
321.661
354.637
387.752
421.187
455.415
491.575
26.2758
58.8281
91.3825
123.94
156.503
189.071
221.647
254.232
286.829
319.442
352.084
384.791
417.676
451.167
487.182
26.1727
58.518
90.8628
123.207
155.549
187.889
220.225
252.557
284.88
317.19
349.472
381.691
413.728
445.149
474.023
26.0691
58.2063
90.3405
122.47
154.591
186.702
218.799
250.877
282.93
314.945
346.892
378.702
410.191
440.882
469.622
25.9656
57.8949
89.8189
121.734
153.635
185.518
217.377
249.206
280.997
312.735
344.394
375.921
407.193
437.954
467.776
25.8627
57.5855
89.3007
121.003
152.686
184.343
215.968
247.553
279.09
310.567
341.976
373.303
404.536
435.66
466.673
25.761
57.2798
88.7887
120.281
151.749
183.185
214.58
245.926
277.213
308.437
339.601
370.737
401.938
433.429
465.607
25.661
56.9791
88.2856
119.572
150.83
182.049
213.219
244.33
275.371
306.337
337.235
368.113
399.125
430.704
463.909
25.5631
56.685
87.7936
118.879
149.932
180.941
211.893
242.775
273.573
304.273
334.871
365.383
395.906
426.834
459.933
25.4678
56.3986
87.3148
118.206
149.06
179.866
210.608
241.27
271.832
302.271
332.555
362.634
392.391
421.442
448.083
25.3753
56.1209
86.8509
117.554
148.218
178.83
209.372
239.827
270.169
300.367
330.372
360.096
389.354
417.711
444.161
25.2859
55.8526
86.4031
116.926
147.408
177.836
208.191
238.454
268.598
298.588
328.373
357.87
386.93
415.293
442.587
25.1998
55.594
85.9721
116.322
146.632
176.886
207.068
237.156
267.125
296.942
326.565
355.936
384.979
413.604
441.762
25.1168
55.3453
85.5581
115.744
145.89
175.983
206.004
235.934
265.75
295.423
324.923
354.221
383.307
412.229
441.139
25.037
55.1061
85.1606
115.19
145.182
175.123
204.997
234.786
264.466
294.015
323.411
352.642
381.74
410.85
440.378
24.96
54.8758
84.7785
114.659
144.505
174.305
204.045
233.705
263.267
292.707
322.004
351.146
380.153
409.169
438.85
24.8856
54.6533
84.4101
114.148
143.857
173.526
203.141
232.688
262.145
291.49
320.697
349.734
378.551
407.015
434.54
24.8133
54.4373
84.0529
113.654
143.232
172.778
202.281
231.726
261.093
290.361
319.5
348.466
377.185
405.504
433.079
24.7425
54.2259
83.704
113.173
142.626
172.057
201.457
230.811
260.105
289.316
318.415
347.36
376.088
404.501
432.471
24.6725
54.0169
83.3599
112.699
142.032
171.354
200.658
229.934
259.168
288.341
317.429
346.397
375.202
403.796
432.149
24.6024
53.808
83.0163
112.228
141.443
170.66
199.875
229.08
258.267
287.419
316.518
345.539
374.455
403.248
431.929
24.5313
53.5963
82.6684
111.752
140.849
169.963
199.092
228.235
257.384
286.528
315.655
344.746
373.785
402.77
431.734
24.4582
53.3786
82.3111
111.263
140.241
169.251
198.297
227.38
256.497
285.644
314.81
343.981
373.145
402.299
431.489
24.3819
53.1516
81.9386
110.754
139.608
168.511
197.472
226.495
255.585
284.74
313.954
343.215
372.504
401.793
431.014
24.3014
52.9116
81.5446
110.215
138.938
167.728
196.598
225.56
254.622
283.789
313.059
342.421
371.856
401.327
430.774
24.2152
52.655
81.1229
109.638
138.219
166.886
195.657
224.551
253.581
282.761
312.093
341.571
371.175
400.868
430.595
24.1222
52.3778
80.6669
109.012
137.438
165.968
194.627
223.441
252.432
281.621
311.019
340.627
370.426
400.378
430.419
24.0212
52.0764
80.1702
108.329
136.581
164.957
193.486
222.203
251.141
280.33
309.793
339.542
369.565
399.818
430.224
23.9111
51.7474
79.6268
107.579
135.637
163.835
192.211
220.808
249.67
278.842
308.363
338.261
368.536
399.145
429.988
23.7908
51.3877
79.0311
106.754
134.592
162.585
190.779
219.225
247.98
277.106
306.666
336.711
367.267
398.301
429.69
23.6596
50.9949
78.3789
105.847
133.437
161.194
189.169
217.423
246.027
275.064
304.625
334.801
365.66
397.202
429.293
23.517
50.5673
77.6672
104.852
132.164
159.647
187.361
215.373
243.768
272.652
302.151
332.41
363.571
395.715
428.736
23.3629
50.1046
76.8947
103.769
130.768
157.939
185.342
213.053
241.166
269.808
299.144
329.387
360.793
393.612
427.889
23.1975
49.6073
76.0626
102.597
129.249
156.066
183.107
210.448
238.192
266.477
295.502
325.55
357.028
390.488
426.449
23.0215
49.0777
75.1743
101.341
127.614
154.035
180.66
207.561
234.837
262.628
291.144
320.712
351.881
385.618
423.585
22.8361
48.5192
74.2357
100.011
125.873
151.86
178.018
204.409
231.119
258.271
286.05
314.757
344.943
377.805
416.713
518.14
468.376
426.393
387.862
351.243
315.829
281.234
247.218
213.624
180.341
147.288
114.403
81.6371
48.9516
16.3122
526.976
478.425
435.313
395.51
357.776
321.407
285.984
251.237
216.986
183.104
149.495
116.087
82.8239
49.6572
16.5463
530.655
484.678
441.915
401.705
363.346
326.315
290.251
254.9
220.083
185.668
151.556
117.667
83.94
50.3221
16.7671
532.501
488.677
446.727
406.598
367.977
330.538
294.011
258.182
222.892
188.015
153.454
119.129
84.9769
50.941
16.9729
533.581
491.354
450.254
410.426
371.772
334.115
297.272
261.08
225.404
190.135
155.182
120.467
85.929
51.5108
17.1626
534.284
493.229
452.88
413.421
374.86
337.113
300.068
263.607
227.625
192.028
156.736
121.678
86.7941
52.0298
17.3356
534.777
494.591
454.868
415.776
377.365
339.609
302.445
265.791
229.569
193.702
158.121
122.763
87.5724
52.4979
17.4918
535.138
495.612
456.399
417.64
379.399
341.681
304.453
267.665
231.257
195.169
159.344
123.726
88.2663
52.9164
17.6316
535.411
496.394
457.594
419.126
381.054
343.397
306.144
269.263
232.712
196.445
160.415
124.575
88.8801
53.2875
17.7558
535.623
497.005
458.539
420.32
382.405
344.819
307.564
270.62
233.96
197.549
161.348
125.318
89.4191
53.6142
17.8652
535.789
497.487
459.294
421.285
383.51
345.997
308.753
271.769
235.026
198.499
162.155
125.963
89.8893
53.8999
17.961
535.922
497.873
459.903
422.069
384.418
346.974
309.749
272.739
235.933
199.312
162.85
126.521
90.2971
54.1481
18.0443
536.028
498.185
460.395
422.709
385.164
347.784
310.581
273.557
236.702
200.005
163.445
127.001
90.649
54.3627
18.1164
536.114
498.437
460.797
423.234
385.78
348.457
311.277
274.244
237.353
200.594
163.954
127.413
90.9511
54.5473
18.1785
536.185
498.643
461.125
423.665
386.288
349.015
311.858
274.82
237.901
201.093
164.386
127.763
91.2092
54.7052
18.2317
536.242
498.811
461.395
424.019
386.708
349.478
312.342
275.303
238.362
201.515
164.751
128.061
91.4287
54.8397
18.2769
536.289
498.949
461.615
424.31
387.054
349.862
312.744
275.706
238.749
201.869
165.06
128.312
91.6146
54.9537
18.3154
536.327
499.062
461.797
424.55
387.34
350.179
313.078
276.041
239.071
202.165
165.318
128.523
91.7709
55.0497
18.3477
536.358
499.154
461.945
424.747
387.575
350.441
313.354
276.319
239.339
202.411
165.534
128.7
91.9017
55.1301
18.3748
536.384
499.229
462.065
424.907
387.766
350.655
313.58
276.547
239.559
202.615
165.712
128.846
92.0101
55.1967
18.3973
536.404
499.29
462.163
425.036
387.921
350.828
313.764
276.733
239.739
202.781
165.858
128.966
92.0989
55.2514
18.4158
536.421
499.338
462.24
425.139
388.045
350.967
313.911
276.882
239.883
202.914
165.975
129.062
92.1705
55.2955
18.4307
536.433
499.375
462.301
425.22
388.142
351.075
314.026
276.998
239.996
203.019
166.067
129.138
92.2268
55.3301
18.4424
536.443
499.403
462.346
425.28
388.214
351.156
314.112
277.086
240.081
203.098
166.137
129.195
92.2693
55.3563
18.4512
536.449
499.423
462.377
425.321
388.264
351.212
314.172
277.147
240.14
203.153
166.185
129.235
92.2992
55.3748
18.4575
536.453
499.434
462.395
425.346
388.294
351.246
314.208
277.184
240.176
203.187
166.215
129.259
92.3175
55.3861
18.4613
536.454
499.438
462.402
425.354
388.304
351.258
314.221
277.197
240.189
203.199
166.226
129.269
92.3245
55.3904
18.4627
536.453
499.434
462.396
425.347
388.295
351.248
314.211
277.187
240.181
203.191
166.219
129.263
92.3206
55.3881
18.462
536.449
499.423
462.378
425.323
388.267
351.217
314.178
277.155
240.149
203.163
166.195
129.243
92.3057
55.3789
18.4589
536.443
499.404
462.347
425.282
388.218
351.163
314.121
277.098
240.095
203.113
166.151
129.208
92.2795
55.3629
18.4535
536.433
499.375
462.302
425.222
388.147
351.084
314.039
277.015
240.015
203.04
166.088
129.156
92.2414
55.3395
18.4456
536.42
499.337
462.24
425.142
388.051
350.978
313.928
276.904
239.909
202.943
166.003
129.087
92.1905
55.3083
18.4351
536.403
499.288
462.161
425.037
387.927
350.841
313.784
276.761
239.773
202.818
165.895
128.999
92.1256
55.2686
18.4217
536.382
499.224
462.06
424.904
387.771
350.669
313.605
276.583
239.603
202.663
165.761
128.89
92.0454
55.2195
18.4052
536.355
499.145
461.933
424.738
387.575
350.455
313.383
276.363
239.394
202.474
165.598
128.758
91.9481
55.16
18.3852
536.321
499.045
461.775
424.532
387.334
350.192
313.112
276.096
239.142
202.246
165.401
128.6