/*--------------------------------*- C++ -*----------------------------------*\
| =========                 |                                                 |
| \\      /  F ield         | OpenFOAM: The Open Source CFD Toolbox           |
|  \\    /   O peration     | Version:  5.x                                   |
|   \\  /    A nd           | Web:      www.OpenFOAM.org                      |
|    \\/     M anipulation  |                                                 |
\*---------------------------------------------------------------------------*/
FoamFile
{
    version     2.0;
    format      ascii;
    class       volScalarField;
    location    "0.9";
    object      gradTx;
}
// * * * * * * * * * * * * * * * * * * * * * * * * * * * * * * * * * * * * * //

dimensions      [0 -1 0 1 0 0 0];

internalField   nonuniform List<scalar> 
3200
(
179.549
197.646
50.6192
13.9834
11.4477
3.69028
3.03086
0.402836
0.14756
-1.12442
-1.22791
-1.26241
-1.38109
-3.60061
-4.07442
-11.822
-12.0506
-8.38349
-8.17248
-7.11476
-6.99079
-5.82941
-5.67295
-3.47436
-3.45172
-5.49589
-5.91378
-13.1188
-13.2837
-9.43523
-9.24543
-8.39058
-8.23311
-5.21631
-5.51444
-15.2693
-15.517
-10.9664
-10.6771
-9.5571
-9.52031
-9.76881
-9.7497
-8.48358
-8.33472
-6.9714
-6.79138
-4.33923
-4.42635
-9.27494
-9.33894
-6.2845
-6.0544
-3.58822
-3.61403
-6.90467
-6.90309
-3.504
-3.44739
-4.95813
-5.26419
-10.6172
-10.8016
-9.08959
-9.11091
-10.1965
-10.4093
-12.8222
-13.1478
-15.9255
-16.2969
-18.8126
-19.0892
-20.0744
-20.0232
-4.52574
-3.49999
-1.35089
-0.3868
114.654
192.812
164.318
54.9994
18.6089
12.5747
5.13199
3.51637
0.957931
0.327676
-0.879457
-1.14597
-1.3315
-1.60689
-3.43221
-4.49285
-10.8696
-11.4103
-8.62281
-8.16189
-7.19389
-6.90081
-5.88556
-5.53806
-3.80074
-3.73716
-5.29417
-6.21131
-12.095
-12.4686
-9.3975
-9.00106
-8.44434
-8.11419
-5.69167
-6.34039
-14.1478
-14.7024
-11.1417
-10.4773
-9.32084
-9.24239
-9.66685
-9.64869
-8.5406
-8.18728
-6.9736
-6.57177
-4.66076
-4.83321
-8.51494
-8.6403
-6.2705
-5.78262
-3.85272
-3.89922
-6.38756
-6.38703
-3.82988
-3.73104
-4.99691
-5.66504
-9.90684
-10.3292
-9.18761
-9.27836
-10.2948
-10.8101
-13.0104
-13.8055
-16.447
-17.3793
-19.9213
-20.6331
-21.7899
-22.2126
-12.9984
-10.5449
-4.00525
-1.13424
144.583
204.205
137.231
56.4628
22.0203
13.7581
6.34073
4.03968
1.43596
0.530912
-0.67209
-1.06724
-1.39698
-1.77066
-3.29437
-4.6986
-10.1506
-10.9031
-8.76906
-8.17159
-7.24603
-6.83972
-5.91501
-5.45877
-4.06016
-3.95779
-5.11803
-6.31016
-11.2916
-11.7912
-9.2528
-8.7631
-8.48904
-8.07897
-6.04417
-6.88
-13.3163
-14.0524
-11.2011
-10.2973
-9.04148
-8.94437
-9.5826
-9.59129
-8.56745
-8.07427
-6.94335
-6.41255
-4.89896
-5.09973
-7.89722
-8.04149
-6.18123
-5.56853
-4.03818
-4.08676
-5.97002
-5.97325
-4.05744
-3.96012
-5.05963
-5.92296
-9.34924
-9.91926
-9.23638
-9.40881
-10.4132
-11.1436
-13.2549
-14.3895
-17.0369
-18.3974
-21.1033
-22.1593
-23.5347
-24.7874
-21.2006
-17.7533
-6.51287
-1.80325
174.55
213.8
115.173
56.0733
24.3847
14.908
7.345
4.57524
1.84615
0.74614
-0.496983
-0.991089
-1.46066
-1.8884
-3.16127
-4.74241
-9.61951
-10.5114
-8.85384
-8.19441
-7.2774
-6.79938
-5.92572
-5.41718
-4.26774
-4.1279
-4.94061
-6.25742
-10.6674
-11.2354
-9.02614
-8.51652
-8.53918
-8.10874
-6.28186
-7.19558
-12.7129
-13.5459
-11.1827
-10.1314
-8.7158
-8.61697
-9.52356
-9.57522
-8.57309
-7.98681
-6.88912
-6.29267
-5.06862
-5.26241
-7.38565
-7.52289
-6.0421
-5.39119
-4.16051
-4.20095
-5.62772
-5.63628
-4.2123
-4.14136
-5.13184
-6.07841
-8.90595
-9.55953
-9.251
-9.50605
-10.5426
-11.4219
-13.5385
-14.9131
-17.6784
-19.3619
-22.3514
-23.6729
-25.2845
-27.556
-29.3972
-25.2734
-8.75925
-2.34186
204.576
221.688
97.1858
54.5876
25.861
15.9816
8.15777
5.10934
2.19129
0.967183
-0.351769
-0.915863
-1.52597
-1.97228
-3.01578
-4.65431
-9.2478
-10.2216
-8.89867
-8.22753
-7.29122
-6.77488
-5.92184
-5.40123
-4.43494
-4.2599
-4.743
-6.08094
-10.1969
-10.7906
-8.73149
-8.24864
-8.60745
-8.19437
-6.40991
-7.32702
-12.2969
-13.1672
-11.1119
-9.98009
-8.33748
-8.24938
-9.49874
-9.60133
-8.56215
-7.91985
-6.8149
-6.19794
-5.18161
-5.34794
-6.95357
-7.06905
-5.86981
-5.23708
-4.23204
-4.25973
-5.34219
-5.35664
-4.31308
-4.2802
-5.20585
-6.15868
-8.54968
-9.23836
-9.24316
-9.57212
-10.6784
-11.6508
-13.8519
-15.3811
-18.3634
-20.2742
-23.6664
-25.175
-27.0081
-30.3418
-37.8326
-33.2892
-10.6017
-2.69935
234.678
227.963
82.5154
52.5475
26.5837
16.9734
8.77979
5.63842
2.46883
1.19212
-0.236674
-0.838739
-1.59778
-2.03222
-2.84643
-4.44796
-9.02082
-10.0236
-8.91743
-8.27126
-7.28826
-6.76385
-5.90468
-5.40311
-4.57048
-4.36557
-4.51118
-5.79332
-9.86722
-10.4519
-8.3738
-7.94711
-8.70659
-8.33485
-6.4299
-7.29635
-12.0448
-12.9056
-11.0041
-9.84927
-7.89702
-7.82832
-9.51983
-9.67315
-8.53538
-7.87145
-6.72121
-6.11923
-5.24734
-5.37595
-6.58114
-6.66785
-5.67492
-5.0979
-4.26231
-4.27636
-5.09943
-5.11938
-4.37349
-4.38074
-5.27883
-6.18148
-8.26158
-8.94463
-9.22244
-9.6072
-10.8196
-11.8307
-14.1923
-15.7912
-19.0913
-21.1274
-25.057
-26.6643
-28.6718
-32.9614
-46.7493
-42.0307
-11.8528
-2.82824
264.87
232.702
70.5783
50.3475
26.6527
17.9087
9.19996
6.16882
2.67078
1.42325
-0.154575
-0.755277
-1.68252
-2.07691
-2.64552
-4.1227
-8.93659
-9.91
-8.91777
-8.32847
-7.26696
-6.76623
-5.87322
-5.41824
-4.68092
-4.4572
-4.23388
-5.394
-9.67712
-10.2198
-7.95004
-7.59813
-8.85099
-8.53666
-6.33903
-7.11039
-11.9483
-12.7545
-10.8665
-9.75038
-7.38126
-7.33689
-9.60247
-9.79666
-8.4897
-7.84256
-6.60563
-6.05137
-5.27309
-5.36094
-6.25349
-6.30989
-5.46343
-4.96912
-4.25865
-4.26068
-4.88884
-4.91279
-4.40382
-4.44571
-5.35169
-6.15726
-8.02943
-8.6672
-9.19754
-9.60926
-10.969
-11.9567
-14.5633
-16.1334
-19.87
-21.9051
-26.5406
-28.1377
-30.2444
-35.2012
-56.4064
-51.7906
-12.2577
-2.68837
295.155
235.955
60.9365
48.2864
26.1239
18.843
9.39326
6.71807
2.78284
1.66767
-0.111494
-0.6587
-1.78852
-2.11458
-2.40822
-3.6639
-9.00594
-9.87497
-8.90198
-8.40458
-7.22324
-6.78432
-5.82424
-5.44467
-4.77081
-4.54881
-3.90123
-4.86974
-9.63662
-10.1001
-7.44958
-7.18496
-9.05807
-8.8138
-6.1294
-6.76178
-12.0131
-12.7113
-10.6981
-9.70165
-6.77254
-6.75309
-9.76801
-9.98025
-8.41767
-7.8373
-6.4628
-5.99251
-5.26424
-5.31379
-5.95933
-5.98808
-5.2379
-4.84903
-4.22652
-4.21999
-4.70246
-4.72757
-4.41216
-4.47616
-5.42862
-6.09044
-7.84673
-8.39413
-9.17746
-9.57349
-11.1334
-12.018
-14.9759
-16.389
-20.7169
-22.5789
-28.1459
-29.591
-31.7031
-36.7912
-67.0963
-62.9472
-11.464
-2.25394
325.529
237.726
53.2821
46.6061
25.0002
19.8642
9.31576
7.31785
2.78219
1.93872
-0.11764
-0.538778
-1.92663
-2.15351
-2.13238
-3.04162
-9.25417
-9.91359
-8.86716
-8.50804
-7.14983
-6.82326
-5.75206
-5.48288
-4.84262
-4.65744
-3.50391
-4.19353
-9.76825
-10.105
-6.85367
-6.68628
-9.34985
-9.18854
-5.78709
-6.2284
-12.2599
-12.7765
-10.489
-9.73025
-6.04747
-6.04795
-10.0457
-10.2349
-8.30638
-7.86384
-6.28384
-5.94401
-5.22431
-5.24283
-5.68988
-5.69746
-4.99796
-4.73832
-4.16979
-4.15978
-4.53441
-4.556
-4.40536
-4.47111
-5.51722
-5.97988
-7.71244
-8.1117
-9.17295
-9.49124
-11.3249
-11.9964
-15.4504
-16.5282
-21.6625
-23.1047
-29.9162
-31.0176
-33.0429
-37.3726
-79.1644
-75.9971
-8.97936
-1.52561
355.979
237.957
47.4338
45.5231
23.2178
21.1021
8.89634
8.01922
2.63391
2.25833
-0.189162
-0.380161
-2.11116
-2.20233
-1.81931
-2.20717
-9.7245
-10.0204
-8.80485
-8.65147
-7.03517
-6.89199
-5.6478
-5.53594
-4.89624
-4.80479
-3.03286
-3.3219
-10.1094
-10.2534
-6.13441
-6.07436
-9.75463
-9.69288
-5.29108
-5.47143
-12.7274
-12.9538
-10.2187
-9.87584
-5.17508
-5.18293
-10.4757
-10.5742
-8.13568
-7.93591
-6.05529
-5.91072
-5.15487
-5.15474
-5.43803
-5.43514
-4.74044
-4.63998
-4.09074
-4.08421
-4.38051
-4.39135
-4.38993
-4.42687
-5.62919
-5.81856
-7.63153
-7.80282
-9.19819
-9.34841
-11.5629
-11.8637
-16.02
-16.5051
-22.7559
-23.4157
-31.915
-32.4075
-34.2905
-36.4555
-93.0309
-91.6011
-4.11215
-0.549901
386.48
403.243
38.511
38.761
7.32032
5.8097
0.433531
0.0949641
-1.48547
-1.59812
-2.30686
-2.3752
-3.4696
-3.49627
-2.56263
-2.93115
-10.8629
-11.1217
-8.66871
-8.46918
-6.84684
-6.72246
-5.97908
-5.9029
-5.6078
-5.6155
-6.14909
-6.26158
-6.97447
-6.91992
-4.22167
-4.27641
-9.21057
-9.2033
-4.73178
-4.89199
-12.0103
-12.1918
-8.66496
-8.34011
-4.55779
-4.62677
-10.3907
-10.4858
-7.33773
-7.15058
-5.97228
-5.83724
-3.70557
-3.86296
-9.69786
-9.84262
-7.53019
-7.34466
-4.67538
-4.93165
-13.413
-13.5779
-8.08065
-8.47478
-22.4457
-22.8953
-19.1806
-19.0947
-19.9163
-20.0689
-22.366
-22.5891
-25.0502
-25.2527
-27.3044
-27.4431
-29.086
-28.9492
-26.5361
-25.2868
-1.29582
-0.201889
-0.0439471
-0.0100915
242.41
425.95
31.8284
32.3757
8.35637
5.17633
0.583737
-0.180805
-1.54773
-1.80315
-2.39271
-2.53108
-3.33242
-3.40812
-2.92838
-3.7835
-10.2471
-10.8249
-8.85668
-8.40515
-7.02962
-6.74113
-6.06171
-5.86861
-5.51403
-5.52822
-6.06511
-6.36172
-7.16753
-7.07892
-4.92416
-5.00335
-8.65823
-8.61734
-5.19274
-5.58029
-11.4034
-11.8187
-8.97583
-8.26766
-5.31953
-5.45274
-9.82561
-10.0141
-7.57815
-7.17478
-6.18407
-5.90054
-4.32043
-4.65708
-9.14836
-9.45332
-7.69901
-7.32682
-5.38715
-5.94398
-12.5135
-12.9019
-9.01203
-9.88701
-20.7406
-21.715
-19.059
-18.91
-19.6131
-19.9583
-21.8571
-22.3539
-24.378
-24.8213
-26.4616
-26.7411
-27.8863
-27.4955
-24.9208
-22.1289
-2.97157
-0.56823
-0.126878
-0.02925
226.266
447.509
26.2712
26.9733
8.55911
4.59966
0.580941
-0.432414
-1.65442
-1.99479
-2.4966
-2.66044
-3.22425
-3.34217
-3.24072
-4.41148
-9.86668
-10.6299
-8.98398
-8.37809
-7.16891
-6.77545
-6.12488
-5.84078
-5.40551
-5.42003
-5.99074
-6.44148
-7.39636
-7.32055
-5.53729
-5.58725
-8.25372
-8.16673
-5.5012
-6.05117
-11.0129
-11.576
-9.20132
-8.28482
-5.95802
-6.10912
-9.42793
-9.64738
-7.73727
-7.22248
-6.36758
-6.0157
-4.85862
-5.28502
-8.76632
-9.14641
-7.81254
-7.37169
-5.99907
-6.71581
-11.8612
-12.3971
-9.75283
-10.9001
-19.4305
-20.6798
-18.8371
-18.6912
-19.3243
-19.7856
-21.4044
-22.0577
-23.7691
-24.342
-25.6732
-26.0044
-26.748
-26.1293
-23.3141
-19.6257
-3.97716
-0.856095
-0.196061
-0.0454586
210.123
468.172
21.5809
22.3359
8.1841
4.02567
0.458119
-0.675577
-1.79633
-2.17994
-2.61399
-2.77378
-3.13389
-3.28497
-3.50214
-4.86805
-9.67391
-10.5313
-9.06967
-8.37516
-7.27559
-6.82006
-6.1734
-5.81899
-5.27899
-5.28958
-5.92116
-6.50107
-7.66642
-7.63049
-6.07708
-6.06647
-7.95934
-7.81924
-5.68103
-6.34556
-10.7983
-11.4508
-9.36849
-8.3584
-6.49739
-6.63878
-9.15422
-9.36582
-7.84059
-7.2838
-6.53097
-6.16308
-5.33348
-5.79076
-8.50834
-8.90805
-7.89036
-7.45384
-6.52743
-7.3105
-11.3933
-12.0195
-10.342
-11.6179
-18.4118
-19.7684
-18.5473
-18.4413
-19.0423
-19.5666
-20.9903
-21.7191
-23.2058
-23.8324
-24.9249
-25.2513
-25.6642
-24.8509
-21.7424
-17.6009
-4.48167
-1.04552
-0.244869
-0.0571261
193.982
488.133
17.5613
18.2954
7.40988
3.42844
0.238175
-0.919132
-1.96766
-2.36305
-2.74234
-2.8791
-3.05188
-3.2251
-3.71757
-5.18698
-9.63905
-10.5255
-9.12468
-8.38844
-7.35651
-6.87232
-6.21024
-5.80463
-5.13045
-5.13429
-5.85364
-6.53724
-7.98452
-8.00111
-6.55515
-6.46955
-7.74627
-7.55166
-5.74873
-6.48841
-10.7357
-11.435
-9.49277
-8.46602
-6.95667
-7.07348
-8.97266
-9.15373
-7.90518
-7.35298
-6.67899
-6.32893
-5.75686
-6.20608
-8.34306
-8.72641
-7.94496
-7.55561
-6.98742
-7.77322
-11.0637
-11.734
-10.813
-12.1149
-17.6106
-18.9602
-18.213
-18.1632
-18.7635
-19.3118
-20.604
-21.3503
-22.6769
-23.3042
-24.2072
-24.4948
-24.6296
-23.6644
-20.2121
-15.9352
-4.59888
-1.12954
-0.269163
-0.0631455
177.842
507.543
14.0608
14.7203
6.3601
2.79998
-0.0628333
-1.1669
-2.16504
-2.54676
-2.88036
-2.98296
-2.96983
-3.15243
-3.89387
-5.38655
-9.74677
-10.6111
-9.15311
-8.41356
-7.41554
-6.93171
-6.23682
-5.80101
-4.95478
-4.95037
-5.78754
-6.54286
-8.35984
-8.43023
-6.97879
-6.81812
-7.59203
-7.3484
-5.71471
-6.49093
-10.815
-11.5249
-9.58045
-8.59295
-7.3509
-7.43689
-8.85983
-8.99884
-7.94193
-7.42704
-6.81407
-6.50368
-6.13939
-6.5539
-8.24794
-8.59137
-7.98389
-7.66455
-7.39327
-8.13576
-10.8389
-11.5123
-11.1951
-12.4443
-16.9752
-18.2358
-17.8509
-17.8592
-18.4868
-19.0272
-20.2397
-20.9584
-22.176
-22.765
-23.5143
-23.7444
-23.639
-22.5774
-18.7148
-14.5519
-4.40141
-1.1092
-0.267284
-0.0629805
161.705
526.526
10.9606
11.5067
5.11891
2.14405
-0.433943
-1.41878
-2.38702
-2.73236
-3.02761
-3.09143
-2.87993
-3.05736
-4.04008
-5.47138
-9.99429
-10.7895
-9.1528
-8.44903
-7.45402
-6.99955
-6.25304
-5.81381
-4.74543
-4.73279
-5.72471
-6.506
-8.80502
-8.92021
-7.35079
-7.1293
-7.47848
-7.20072
-5.58427
-6.35152
-11.0388
-11.7209
-9.62985
-8.73008
-7.69202
-7.74681
-8.79834
-8.89179
-7.95701
-7.50505
-6.93705
-6.68059
-6.49078
-6.85054
-8.20685
-8.49438
-8.01132
-7.77159
-7.75858
-8.41989
-10.6954
-11.3301
-11.5146
-12.6424
-16.4707
-17.5774
-17.4731
-17.5304
-18.2137
-18.7158
-19.8951
-20.5465
-21.7003
-22.2195
-22.8421
-23.0076
-22.6866
-21.6025
-17.2295
-13.4082
-3.92963
-0.990857
-0.239902
-0.0566928
145.57
545.181
8.16523
8.57097
3.74173
1.47261
-0.868563
-1.67121
-2.63386
-2.91994
-3.18409
-3.21089
-2.77445
-2.93006
-4.1683
-5.4325
-10.3909
-11.0653
-9.11517
-8.49616
-7.47088
-7.07908
-6.25697
-5.85177
-4.49385
-4.47501
-5.6703
-6.40843
-9.33754
-9.47757
-7.66887
-7.41763
-7.38999
-7.10658
-5.35846
-6.0553
-11.4229
-12.0279
-9.63161
-8.87274
-7.98943
-8.01686
-8.77518
-8.82587
-7.95279
-7.58772
-7.0476
-6.85485
-6.82018
-7.10731
-8.20852
-8.42823
-8.02902
-7.86958
-8.09694
-8.63947
-10.6174
-11.166
-11.7964
-12.7325
-16.0751
-16.9674
-17.0889
-17.1766
-17.9479
-18.3773
-19.5717
-20.1146
-21.25
-21.6699
-22.1883
-22.2902
-21.7649
-20.7592
-15.7223
-12.4907
-3.19627
-0.785006
-0.189812
-0.0449204
129.436
563.591
5.59682
5.84512
2.26255
0.804333
-1.36456
-1.91715
-2.90771
-3.10837
-3.35005
-3.34887
-2.64526
-2.75942
-4.29545
-5.24582
-10.9588
-11.446
-9.02431
-8.55954
-7.46242
-7.17583
-6.24423
-5.92784
-4.18871
-4.16866
-5.63417
-6.22322
-9.98163
-10.1129
-7.92464
-7.69701
-7.31172
-7.07101
-5.03485
-5.57223
-11.9975
-12.455
-9.56787
-9.02039
-8.2504
-8.25766
-8.78032
-8.7969
-7.92826
-7.6774
-7.14425
-7.02279
-7.13672
-7.33152
-8.24545
-8.38684
-8.03716
-7.9521
-8.4227
-8.80164
-10.5967
-10.9986
-12.0659
-12.7264
-15.7775
-16.3882
-16.706
-16.7956
-17.6958
-18.0083
-19.2744
-19.659
-20.8284
-21.1163
-21.5512
-21.5979
-20.8624
-20.0771
-14.1428
-11.8158
-2.18758
-0.506517
-0.121711
-0.0288123
113.304
581.829
3.19017
3.2728
0.698664
0.164657
-1.9251
-2.14552
-3.21314
-3.29514
-3.52572
-3.51493
-2.48336
-2.53188
-4.44601
-4.86861
-11.7358
-11.943
-8.85516
-8.64823
-7.42154
-7.29838
-6.20689
-6.06082
-3.8148
-3.80289
-5.6331
-5.91123
-10.7708
-10.8409
-8.10197
-7.98269
-7.22766
-7.10725
-4.60828
-4.85364
-12.8107
-13.0158
-9.41056
-9.17694
-8.48029
-8.47786
-8.80571
-8.80334
-7.87903
-7.77838
-7.22445
-7.18131
-7.45001
-7.52696
-8.31328
-8.36511
-8.03471
-8.01241
-8.75213
-8.90717
-10.6317
-10.8047
-12.3517
-12.6246
-15.5776
-15.8209
-16.3323
-16.3822
-17.4673
-17.6011
-19.0124
-19.1721
-20.4421
-20.5569
-20.9296
-20.937
-19.962
-19.6011
-12.419
-11.4329
-0.861022
-0.17618
-0.0419335
-0.00992382
97.1732
574.386
3.61814
3.78927
2.0845
1.57877
-0.552287
-0.79605
-1.95308
-2.05868
-2.52476
-2.54037
-1.89007
-1.92326
-3.09137
-3.37707
-8.66867
-8.9326
-8.23651
-8.2033
-7.12251
-6.99824
-5.91856
-5.76093
-3.56667
-3.54181
-5.18585
-5.43294
-9.7985
-9.85327
-7.20521
-7.08407
-6.42852
-6.3227
-4.11015
-4.37057
-12.2421
-12.4795
-9.45864
-9.27552
-8.84622
-8.88556
-9.79383
-9.84532
-9.18504
-9.1025
-8.4549
-8.36503
-7.40668
-7.26461
-4.82538
-4.97612
-10.9743
-11.0361
-6.06904
-6.16482
-12.9973
-13.05
-6.92865
-6.88916
-10.7134
-11.43
-23.7943
-24.1394
-19.1001
-18.8957
-18.3446
-18.3722
-19.1102
-19.2618
-21.049
-21.2568
-21.4422
-21.2295
-13.5072
-12.4133
-1.04168
-0.224668
-0.0542513
-0.0127845
77.901
555.431
6.22771
6.69859
3.83918
2.43495
0.163225
-0.45606
-1.55799
-1.81833
-2.27427
-2.32971
-1.90048
-1.98198
-2.93576
-3.55731
-7.80307
-8.43215
-8.26394
-8.23272
-7.29114
-6.99481
-6.01554
-5.661
-3.92714
-3.87259
-5.17391
-5.69455
-9.06471
-9.16468
-7.052
-6.81104
-6.43851
-6.22732
-4.47182
-5.04757
-11.3984
-11.9355
-9.59592
-9.16994
-8.62292
-8.72495
-9.74635
-9.895
-9.31277
-9.11085
-8.49756
-8.28501
-7.46687
-7.1652
-5.33375
-5.65569
-10.2716
-10.4207
-6.76401
-6.98438
-12.231
-12.3651
-7.83523
-7.80551
-11.0079
-12.5678
-22.3189
-23.089
-19.3849
-18.9791
-18.5575
-18.6351
-19.3286
-19.6945
-21.3148
-21.8758
-22.584
-22.2302
-16.1081
-13.5026
-2.70283
-0.648119
-0.157585
-0.0371157
94.976
536.284
9.0101
9.74139
5.53593
3.32602
0.812767
-0.0966929
-1.19653
-1.57014
-2.03978
-2.13843
-1.89045
-2.00581
-2.79342
-3.59257
-7.08212
-7.96358
-8.28588
-8.29855
-7.43395
-7.01871
-6.08754
-5.61624
-4.22045
-4.14914
-5.19319
-5.84219
-8.46172
-8.5646
-6.82393
-6.54327
-6.44203
-6.1937
-4.74024
-5.49355
-10.7871
-11.5065
-9.65666
-9.06919
-8.37366
-8.52757
-9.73377
-9.97391
-9.42529
-9.13567
-8.5242
-8.22921
-7.50641
-7.12698
-5.756
-6.1635
-9.74747
-9.95752
-7.30391
-7.60291
-11.6693
-11.8667
-8.56182
-8.59258
-11.3682
-13.3779
-21.2028
-22.2175
-19.5378
-19.0631
-18.7505
-18.8734
-19.5602
-20.0772
-21.623
-22.4891
-23.7683
-23.4618
-18.5683
-14.9196
-4.01411
-1.00895
-0.246088
-0.0578597
112.052
516.867
12.0321
12.9821
7.15328
4.22955
1.39836
0.270399
-0.864058
-1.31807
-1.82012
-1.961
-1.86588
-2.00273
-2.6506
-3.52019
-6.46545
-7.51734
-8.32018
-8.39947
-7.5588
-7.06325
-6.14115
-5.60847
-4.46078
-4.38107
-5.22827
-5.911
-7.95939
-8.03825
-6.53745
-6.26832
-6.45144
-6.20827
-4.92037
-5.75791
-10.3588
-11.1802
-9.6669
-8.97278
-8.09043
-8.28808
-9.75984
-10.0844
-9.52746
-9.17337
-8.5382
-8.19054
-7.53222
-7.12844
-6.10711
-6.54425
-9.35835
-9.60889
-7.7257
-8.07075
-11.2623
-11.5085
-9.15499
-9.26987
-11.7592
-13.9554
-20.3591
-21.4938
-19.6026
-19.1406
-18.9261
-19.0891
-19.7986
-20.4187
-21.9584
-23.0858
-25.016
-24.8767
-20.9787
-16.6268
-5.00925
-1.28
-0.311563
-0.0730256
129.129
497.089
15.3753
16.4945
8.65498
5.12979
1.91606
0.637888
-0.558734
-1.06405
-1.61488
-1.79299
-1.83201
-1.97919
-2.49889
-3.36474
-5.92449
-7.08103
-8.3834
-8.53717
-7.66985
-7.12487
-6.1792
-5.62531
-4.6584
-4.57593
-5.26994
-5.92518
-7.53584
-7.57509
-6.20169
-5.97527
-6.47788
-6.26462
-5.01546
-5.87171
-10.0817
-10.9474
-9.64438
-8.8839
-7.764
-7.99763
-9.83179
-10.2301
-9.62153
-9.22233
-8.54072
-8.16432
-7.54787
-7.15461
-6.39989
-6.82994
-9.07178
-9.34562
-8.05839
-8.42474
-10.9732
-11.2542
-9.64944
-9.85219
-12.1619
-14.3646
-19.7262
-20.8912
-19.6102
-19.2083
-19.0866
-19.2831
-20.0407
-20.7235
-22.3104
-23.6505
-26.3465
-26.442
-23.4071
-18.6244
-5.68871
-1.4405
-0.347795
-0.0811377
146.207
476.844
19.1405
20.3659
9.98472
6.018
2.35662
1.00226
-0.280983
-0.808156
-1.42452
-1.63053
-1.79379
-1.94072
-2.33329
-3.1415
-5.4396
-6.63885
-8.49254
-8.71571
-7.76801
-7.20254
-6.20159
-5.65868
-4.82064
-4.73972
-5.31315
-5.90114
-7.17515
-7.16843
-5.82005
-5.65304
-6.53294
-6.36239
-5.02632
-5.85135
-9.93838
-10.8013
-9.60016
-8.8094
-7.38343
-7.64316
-9.96116
-10.4161
-9.70723
-9.2826
-8.53105
-8.14772
-7.55461
-7.19526
-6.6453
-7.04317
-8.86395
-9.14481
-8.32494
-8.69147
-10.7748
-11.0754
-10.0716
-10.3503
-12.5689
-14.6476
-19.2613
-20.3865
-19.5828
-19.2649
-19.2345
-19.4547
-20.2858
-20.9923
-22.6724
-24.161
-27.7811
-28.1324
-25.9052
-20.948
-6.0205
-1.47467
-0.350936
-0.0813681
163.287
455.999
23.4548
24.7023
11.0585
6.89443
2.70515
1.36394
-0.0333998
-0.548657
-1.25055
-1.46975
-1.75621
-1.8924
-2.15104
-2.85862
-4.99863
-6.17044
-8.66688
-8.94108
-7.85089
-7.29764
-6.20568
-5.70387
-4.95261
-4.87735
-5.35577
-5.84965
-6.86568
-6.81543
-5.39115
-5.28893
-6.63001
-6.50677
-4.95072
-5.70048
-9.92397
-10.7377
-9.53953
-8.76031
-6.93544
-7.20635
-10.1651
-10.6487
-9.78157
-9.35598
-8.50667
-8.13953
-7.55202
-7.24354
-6.8528
-7.19949
-8.71772
-8.98804
-8.54405
-8.88954
-10.6477
-10.9488
-10.4425
-10.7707
-12.9815
-14.8291
-18.9359
-19.959
-19.5359
-19.3101
-19.3724
-19.6019
-20.536
-21.2221
-23.0421
-24.5864
-29.3465
-29.9259
-28.5124
-23.6702
-5.93685
-1.37184
-0.319866
-0.0736262
180.369
434.392
28.4809
29.6348
11.7536
7.77226
2.94
1.72799
0.178967
-0.281656
-1.09587
-1.30627
-1.72462
-1.83917
-1.9508
-2.51841
-4.59634
-5.64902
-8.93007
-9.22102
-7.9123
-7.4143
-6.18618
-5.75905
-5.05754
-4.99282
-5.39777
-5.77728
-6.59886
-6.51739
-4.90936
-4.86708
-6.78563
-6.70844
-4.78286
-5.41065
-10.0459
-10.7546
-9.46215
-8.75305
-6.40361
-6.66202
-10.4679
-10.9352
-9.83827
-9.44631
-8.46303
-8.14018
-7.53828
-7.29513
-7.03081
-7.30897
-8.62141
-8.85985
-8.7316
-9.03112
-10.5789
-10.8545
-10.78
-11.116
-13.4087
-14.9203
-18.7338
-19.5894
-19.4813
-19.3437
-19.5037
-19.721
-20.7961
-21.4067
-23.4229
-24.8831
-31.079
-31.7991
-31.2566
-26.9078
-5.32632
-1.12838
-0.256532
-0.0585943
197.452
411.813
34.4312
35.3293
11.8931
8.68442
3.03021
2.10561
0.347849
-0.000483452
-0.965321
-1.13446
-1.70516
-1.78603
-1.73229
-2.11775
-4.23503
-5.03843
-9.31286
-9.56493
-7.94129
-7.56018
-6.13466
-5.82521
-5.137
-5.08951
-5.44079
-5.68722
-6.36816
-6.28041
-4.36493
-4.36679
-7.02108
-6.98403
-4.51286
-4.9605
-10.325
-10.8516
-9.36143
-8.81141
-5.76748
-5.97579
-10.9044
-11.2844
-9.86677
-9.56032
-8.39299
-8.152
-7.5102
-7.34758
-7.18714
-7.37707
-8.56808
-8.74634
-8.90205
-9.12278
-10.561
-10.7742
-11.1012
-11.3829
-13.8671
-14.9195
-18.6502
-19.2584
-19.4278
-19.3655
-19.6327
-19.8058
-21.0749
-21.5351
-23.826
-24.9905
-33.0307
-33.7227
-34.153
-30.8347
-4.02034
-0.751807
-0.166219
-0.0376979
214.537
387.993
41.5865
41.9974
11.2238
9.69457
2.93135
2.51662
0.460384
0.305366
-0.866589
-0.946578
-1.7053
-1.73826
-1.4962
-1.64779
-3.92625
-4.28899
-9.85653
-9.98388
-7.92058
-7.74785
-6.0385
-5.90653
-5.19084
-5.17025
-5.488
-5.57978
-6.1682
-6.11654
-3.7438
-3.76039
-7.36417
-7.35699
-4.12609
-4.31367
-10.7975
-11.0292
-9.2231
-8.96954
-5.00125
-5.10075
-11.5228
-11.7055
-9.85083
-9.70877
-8.2859
-8.17987
-7.46296
-7.39994
-7.32945
-7.40514
-8.55526
-8.63373
-9.0699
-9.16575
-10.5921
-10.6894
-11.4241
-11.5618
-14.3828
-14.8115
-18.6914
-18.945
-19.3836
-19.3742
-19.7656
-19.8469
-21.3861
-21.5903
-24.2741
-24.8228
-35.2763
-35.6567
-37.1992
-35.7013
-1.77244
-0.267865
-0.0576148
-0.0129991
231.623
423.821
7.72014
7.68542
-0.0745615
-0.457917
-1.34448
-1.67017
-7.43564
-7.61058
-5.72229
-5.56049
-4.60013
-4.52161
-3.3416
-3.56759
-7.53385
-8.0208
-14.8342
-14.8439
-9.57691
-9.20913
-6.41758
-6.16359
-3.57689
-3.66582
-6.93193
-7.34434
-13.0489
-12.9752
-6.3459
-6.22133
-10.8317
-10.9569
-9.46377
-9.47216
-9.0099
-8.94075
-7.61906
-7.36629
-4.27029
-4.57571
-13.8521
-14.1184
-10.2651
-9.99866
-8.50922
-8.31639
-5.47857
-5.75996
-15.9982
-16.4698
-15.5885
-15.5763
-14.2461
-14.1572
-14.4502
-14.3354
-10.5245
-11.2044
-30.5213
-31.0774
-24.8046
-24.5202
-23.5337
-23.5155
-24.1293
-24.2108
-25.5816
-25.6746
-26.7656
-26.8422
-28.5969
-28.4589
-25.2055
-26.3991
-63.4513
-62.4547
-2.8013
-0.374087
593.665
434.163
6.35372
6.26034
0.166248
-0.668625
-1.52804
-2.26508
-6.9814
-7.36513
-5.78119
-5.39678
-4.50955
-4.35332
-3.6551
-4.2397
-7.85428
-8.92289
-13.9971
-13.9653
-9.78006
-8.96966
-6.61931
-6.05215
-3.98577
-4.2325
-7.22609
-8.13747
-12.3896
-12.1994
-7.04965
-6.74671
-10.0724
-10.3334
-9.4038
-9.50787
-9.47204
-9.33042
-7.97405
-7.37224
-4.90052
-5.59397
-13.1813
-13.7844
-10.684
-10.0771
-8.75263
-8.3318
-6.19144
-6.7621
-14.5641
-15.6421
-15.6926
-15.7435
-14.5187
-14.2866
-14.4208
-14.2079
-11.6048
-13.0787
-28.0625
-29.2534
-24.5928
-24.007
-23.1903
-23.1489
-23.6314
-23.8031
-24.8711
-25.0593
-25.8698
-25.9919
-27.1233
-26.7582
-24.132
-26.4563
-53.9614
-51.796
-6.11483
-1.03774
562.275
444.277
5.22015
5.07535
0.196742
-0.878301
-1.71644
-2.70078
-6.70043
-7.19836
-5.7921
-5.25318
-4.38972
-4.20671
-3.91727
-4.79058
-8.27651
-9.66474
-13.3643
-13.2529
-9.84823
-8.7918
-6.74973
-6.0007
-4.30214
-4.6893
-7.60352
-8.79696
-11.9079
-11.6221
-7.55952
-7.12696
-9.43562
-9.75741
-9.3025
-9.54918
-9.93843
-9.7687
-8.29888
-7.453
-5.40414
-6.33649
-12.7899
-13.5986
-11.0033
-10.1842
-8.95992
-8.41601
-6.79588
-7.47499
-13.3988
-14.8556
-15.7966
-15.9617
-14.7517
-14.4013
-14.4052
-14.176
-12.522
-14.4126
-26.1554
-27.6635
-24.2179
-23.5031
-22.8158
-22.7615
-23.1459
-23.3595
-24.1959
-24.4191
-25.0016
-25.1013
-25.7095
-25.148
-22.8605
-25.5063
-45.6583
-42.8779
-7.80416
-1.53292
530.919
454.212
4.27026
4.07979
0.0751832
-1.09737
-1.89893
-3.01581
-6.55949
-7.10773
-5.7683
-5.12256
-4.24267
-4.06434
-4.13289
-5.23691
-8.78261
-10.3141
-12.8839
-12.6722
-9.82248
-8.65339
-6.82845
-5.98723
-4.53507
-5.04501
-8.04977
-9.37973
-11.5621
-11.1958
-7.9242
-7.39756
-8.87835
-9.21253
-9.17313
-9.5848
-10.4272
-10.259
-8.59876
-7.58189
-5.78853
-6.85816
-12.6242
-13.549
-11.2514
-10.3076
-9.14003
-8.5433
-7.30836
-7.9781
-12.4123
-14.0897
-15.9318
-16.235
-14.9503
-14.5019
-14.399
-14.201
-13.2975
-15.3524
-24.6576
-26.2718
-23.7338
-22.9982
-22.4161
-22.3565
-22.6673
-22.891
-23.5452
-23.7646
-24.1527
-24.1904
-24.3425
-23.6068
-21.3917
-23.8559
-38.2724
-35.2514
-8.34133
-1.82805
499.614
464.009
3.4666
3.23691
-0.159544
-1.33117
-2.0687
-3.23368
-6.5383
-7.09256
-5.71672
-5.00128
-4.06755
-3.91207
-4.30706
-5.58553
-9.36922
-10.9218
-12.5147
-12.197
-9.72953
-8.54125
-6.86785
-5.99822
-4.68951
-5.3009
-8.56297
-9.92838
-11.3183
-10.8857
-8.17909
-7.58787
-8.36695
-8.68261
-9.02575
-9.60321
-10.9564
-10.809
-8.87294
-7.74186
-6.0584
-7.192
-12.6522
-13.6283
-11.4455
-10.4399
-9.29736
-8.69615
-7.74468
-8.33065
-11.536
-13.3173
-16.1285
-16.5718
-15.1155
-14.5887
-14.3967
-14.2544
-13.9546
-16.0022
-23.4675
-25.0462
-23.1776
-22.4871
-21.9955
-21.9367
-22.1923
-22.4054
-22.912
-23.1033
-23.3179
-23.2749
-23.0112
-22.1248
-19.7356
-21.7274
-31.5839
-28.5804
-8.06255
-1.9228
468.368
473.699
2.78028
2.52082
-0.483137
-1.58222
-2.22128
-3.36588
-6.62705
-7.15455
-5.6387
-4.88873
-3.86128
-3.73775
-4.44585
-5.83387
-10.045
-11.5279
-12.2219
-11.8078
-9.58543
-8.44854
-6.87513
-6.02678
-4.76715
-5.45075
-9.15202
-10.476
-11.1473
-10.6666
-8.34937
-7.72337
-7.87409
-8.15159
-8.869
-9.59062
-11.5457
-11.4306
-9.11495
-7.92394
-6.2156
-7.35277
-12.8597
-13.8339
-11.5926
-10.5779
-9.43308
-8.86306
-8.11953
-8.57843
-10.7168
-12.5037
-16.42
-16.9847
-15.2436
-14.6621
-14.3923
-14.314
-14.5178
-16.4353
-22.5129
-23.9584
-22.5744
-21.9681
-21.5576
-21.5044
-21.7189
-21.908
-22.2914
-22.4412
-22.4934
-22.3684
-21.7047
-20.7029
-17.9042
-19.2842
-25.4097
-22.6099
-7.20855
-1.83483
437.185
483.305
2.18855
1.91464
-0.882796
-1.85155
-2.35353
-3.41333
-6.82509
-7.29823
-5.53002
-4.78726
-3.61883
-3.53014
-4.55739
-5.96923
-10.8298
-12.1655
-11.9734
-11.4909
-9.39794
-8.37333
-6.85344
-6.07182
-4.76705
-5.47986
-9.83612
-11.0498
-11.0224
-10.5209
-8.45201
-7.82782
-7.37617
-7.60299
-8.7121
-9.52872
-12.2178
-12.1403
-9.312
-8.12673
-6.259
-7.33877
-13.2484
-14.1683
-11.6907
-10.721
-9.54587
-9.03693
-8.44629
-8.75906
-9.91159
-11.6049
-16.8456
-17.4899
-15.3253
-14.7232
-14.3804
-14.3624
-15.0125
-16.702
-21.7435
-22.9839
-21.9401
-21.4413
-21.1055
-21.0614
-21.2467
-21.4029
-21.6802
-21.783
-21.676
-21.4834
-20.4118
-19.3529
-15.9057
-16.6511
-19.5924
-17.1433
-5.95337
-1.59157
406.061
492.845
1.67303
1.40951
-1.35549
-2.13945
-2.46337
-3.36663
-7.14061
-7.53152
-5.3803
-4.7028
-3.33319
-3.27787
-4.65351
-5.96657
-11.7556
-12.8642
-11.7365
-11.2385
-9.16773
-8.31797
-6.80225
-6.13779
-4.68624
-5.36321
-10.6459
-11.6731
-10.9165
-10.4379
-8.49687
-7.92537
-6.85111
-7.01911
-8.56692
-9.39194
-13.0006
-12.96
-9.44336
-8.35684
-6.1845
-7.13158
-13.8368
-14.6385
-11.7284
-10.8725
-9.63206
-9.21411
-8.73695
-8.9061
-9.0848
-10.5643
-17.4551
-18.1075
-15.3446
-14.7739
-14.3555
-14.384
-15.4656
-16.8346
-21.1262
-22.1008
-21.284
-20.9081
-20.6417
-20.6093
-20.7756
-20.8929
-21.076
-21.1333
-20.8622
-20.6336
-19.1184
-18.0984
-13.7394
-13.9301
-13.9906
-12.0262
-4.425
-1.22535
374.987
502.336
1.21819
1.00453
-1.90733
-2.44566
-2.54996
-3.20503
-7.5914
-7.86647
-5.17162
-4.64602
-2.99496
-2.96833
-4.7521
-5.78484
-12.8686
-13.6523
-11.4744
-11.0489
-8.88871
-8.28926
-6.71702
-6.23525
-4.52028
-5.06232
-11.6259
-12.3678
-10.7994
-10.4135
-8.48696
-8.04303
-6.27637
-6.38004
-8.45067
-9.14383
-13.9294
-13.9188
-9.47753
-8.6304
-5.98524
-6.69408
-14.6613
-15.2573
-11.6841
-11.0394
-9.68538
-9.39369
-9.00176
-9.05277
-8.20599
-9.30723
-18.3142
-18.8618
-15.2763
-14.8186
-14.3128
-14.3636
-15.9072
-16.8502
-20.6416
-21.2893
-20.6103
-20.3705
-20.1686
-20.1492
-20.3065
-20.3804
-20.4769
-20.4967
-20.0467
-19.8353
-17.8053
-16.9775
-11.3911
-11.2142
-8.46967
-7.13448
-2.72051
-0.770668
343.953
511.789
0.809993
0.707535
-2.55405
-2.76918
-2.61448
-2.89415
-8.20663
-8.3202
-4.87616
-4.63425
-2.59174
-2.58637
-4.8807
-5.36103
-14.2335
-14.5588
-11.1422
-10.9288
-8.54727
-8.29949
-6.58819
-6.38204
-4.26404
-4.52055
-12.8387
-13.1549
-10.6351
-10.4506
-8.41774
-8.21361
-5.62682
-5.6623
-8.38952
-8.73204
-15.05
-15.0548
-9.36795
-8.97588
-5.65181
-5.96625
-15.7806
-16.0429
-11.5226
-11.2346
-9.69623
-9.57728
-9.24886
-9.23537
-7.24926
-7.73397
-19.5116
-19.7814
-15.0828
-14.8652
-14.2478
-14.2834
-16.3728
-16.752
-20.2827
-20.5309
-19.9191
-19.8315
-19.6882
-19.6822
-19.8407
-19.867
-19.8809
-19.8789
-19.2216
-19.1098
-16.444
-16.0469
-8.82633
-8.601
-2.89233
-2.36587
-0.917423
-0.262797
312.944
)
;

boundaryField
{
    F1_1
    {
        type            calculated;
        value           nonuniform List<scalar> 
80
(
179.549
197.646
50.6192
13.9834
11.4477
3.69028
3.03086
0.402836
0.14756
-1.12442
-1.22791
-1.26241
-1.38109
-3.60061
-4.07442
-11.822
-12.0506
-8.38349
-8.17248
-7.11476
-6.99079
-5.82941
-5.67295
-3.47436
-3.45172
-5.49589
-5.91378
-13.1188
-13.2837
-9.43523
-9.24543
-8.39058
-8.23311
-5.21631
-5.51444
-15.2693
-15.517
-10.9664
-10.6771
-9.5571
-9.52031
-9.76881
-9.7497
-8.48358
-8.33472
-6.9714
-6.79138
-4.33923
-4.42635
-9.27494
-9.33894
-6.2845
-6.0544
-3.58822
-3.61403
-6.90467
-6.90309
-3.504
-3.44739
-4.95813
-5.26419
-10.6172
-10.8016
-9.08959
-9.11091
-10.1965
-10.4093
-12.8222
-13.1478
-15.9255
-16.2969
-18.8126
-19.0892
-20.0744
-20.0232
-4.52574
-3.49999
-1.35089
-0.3868
114.654
)
;
    }