/*--------------------------------*- C++ -*----------------------------------*\
| =========                 |                                                 |
| \\      /  F ield         | OpenFOAM: The Open Source CFD Toolbox           |
|  \\    /   O peration     | Version:  5.x                                   |
|   \\  /    A nd           | Web:      www.OpenFOAM.org                      |
|    \\/     M anipulation  |                                                 |
\*---------------------------------------------------------------------------*/
FoamFile
{
    version     2.0;
    format      ascii;
    class       volScalarField;
    location    "0.9";
    object      gradTy;
}
// * * * * * * * * * * * * * * * * * * * * * * * * * * * * * * * * * * * * * //

dimensions      [0 -1 0 1 0 0 0];

internalField   nonuniform List<scalar> 
3200
(
260.751
-118.684
-111.376
-52.8028
-58.3013
-42.5776
-42.4649
-38.1164
-36.4395
-36.5187
-33.7562
-35.6855
-34.464
-38.3636
-32.4309
-44.0027
-21.4028
-36.8207
-24.4872
-36.5455
-25.4652
-35.4383
-26.2277
-33.6809
-29.9267
-36.9488
-27.5842
-41.2815
-15.9379
-32.3274
-16.2924
-29.7507
-16.9695
-27.9897
-22.3861
-38.1406
-9.2691
-29.0347
-11.8742
-26.8713
-9.72827
-24.1492
-8.65507
-22.8897
-9.44866
-21.1723
-9.70728
-18.5217
-13.4303
-23.5427
-4.87342
-15.9326
-5.29819
-12.7675
-8.44152
-16.2723
-2.61194
-10.4322
-6.53916
-13.5821
-6.68601
-18.5999
1.45185
-13.4957
0.12498
-15.3829
-0.683205
-19.8311
-2.14776
-26.8992
-6.88156
-38.1521
-17.5207
-53.733
-34.4673
-72.5371
-122.088
-142.762
-148.868
-150.367
207.138
-83.8536
-94.9389
-54.6356
-54.7545
-43.0835
-41.5022
-38.0394
-36.3366
-36.1226
-34.075
-35.3193
-34.7478
-37.2671
-33.2166
-40.388
-24.8593
-34.6507
-26.7872
-34.6462
-27.4435
-33.8909
-27.8715
-32.82
-30.8005
-35.3504
-28.9112
-37.3322
-19.7749
-29.8698
-18.8628
-27.4581
-19.3551
-26.6875
-23.4944
-33.5153
-13.7294
-26.1921
-14.9032
-24.2934
-12.3251
-21.4137
-11.394
-20.6217
-11.8133
-19.3194
-11.6731
-17.4253
-14.4717
-20.7922
-7.5831
-14.3049
-7.06675
-11.8756
-9.31652
-14.2392
-4.6433
-9.59008
-7.4105
-12.1537
-7.918
-15.4476
-1.57798
-11.0356
-2.31196
-12.5251
-3.39524
-16.1966
-5.55864
-22.4054
-11.1159
-32.908
-22.5694
-48.2587
-39.8706
-72.0797
-123.245
-143.346
-149.055
-150.428
165.164
-60.2208
-80.5579
-54.8517
-51.6789
-43.185
-40.6138
-37.8907
-36.1727
-35.7983
-34.2604
-35.0239
-34.9062
-36.4315
-33.5514
-37.6793
-27.301
-33.1847
-28.4561
-33.3473
-28.8736
-32.8401
-29.0744
-32.2357
-31.4095
-34.1894
-29.6417
-34.42
-22.5036
-28.254
-20.6468
-25.8313
-21.121
-25.804
-24.072
-30.08
-16.8977
-24.2974
-17.1028
-22.5678
-14.0776
-19.4406
-13.3612
-19.0733
-13.5236
-18.071
-13.1013
-16.6754
-15.1406
-18.8214
-9.49414
-13.2343
-8.35216
-11.2772
-9.89113
-12.7858
-6.09195
-9.03207
-8.00406
-11.0837
-8.67867
-13.1506
-3.67421
-9.30241
-3.99117
-10.4409
-5.23005
-13.4998
-7.87048
-19.0376
-14.0278
-28.9501
-26.1783
-44.1489
-43.6517
-70.8659
-125.646
-144.508
-149.416
-150.546
132.205
-44.7909
-68.0192
-54.1665
-48.8157
-43.0489
-39.7305
-37.7006
-35.9538
-35.5192
-34.3522
-34.7623
-34.9972
-35.7704
-33.6042
-35.549
-29.0903
-32.1413
-29.7384
-32.421
-29.9643
-32.0968
-29.9985
-31.8091
-31.8724
-33.3197
-29.9972
-32.1736
-24.5238
-27.1705
-21.9173
-24.5983
-22.5093
-25.1753
-24.338
-27.4104
-19.2407
-22.9847
-18.7943
-21.3986
-15.2743
-17.9236
-14.855
-17.9738
-14.8285
-17.2017
-14.1863
-16.1286
-15.5995
-17.3697
-10.8813
-12.5075
-9.32421
-10.8502
-10.2935
-11.7151
-7.15439
-8.63199
-8.43259
-10.2324
-9.16367
-11.411
-5.16584
-8.00648
-5.19974
-8.82304
-6.52568
-11.3592
-9.5108
-16.3173
-16.1431
-25.701
-28.9587
-40.7792
-46.3258
-68.551
-129.486
-146.23
-149.93
-150.711
106.325
-35.5122
-56.964
-53.1411
-45.9689
-42.8143
-38.795
-37.4984
-35.6816
-35.2685
-34.3801
-34.5067
-35.0656
-35.2258
-33.4914
-33.7536
-30.498
-31.3149
-30.816
-31.6992
-30.8702
-31.5215
-30.765
-31.4512
-32.2787
-32.6395
-30.1316
-30.319
-26.1308
-26.4019
-22.8691
-23.5548
-23.7062
-24.6854
-24.4464
-25.1892
-21.1059
-21.988
-20.2128
-20.5774
-16.1189
-16.6341
-16.1003
-17.1238
-15.9117
-16.547
-15.0721
-15.6798
-15.9657
-16.2475
-11.9431
-11.9724
-10.1072
-10.5059
-10.6162
-10.883
-7.97474
-8.29848
-8.78067
-9.49538
-9.51565
-10.0108
-6.29379
-6.93626
-6.15099
-7.44197
-7.53612
-9.48598
-10.8052
-13.8767
-17.8697
-22.7044
-31.3973
-37.6614
-48.3338
-64.6888
-135.094
-148.475
-150.562
-150.907
86.1176
-31.049
-46.9198
-52.2497
-42.9613
-42.6141
-37.7503
-37.3167
-35.3529
-35.0364
-34.3669
-34.2335
-35.1497
-34.7566
-33.2984
-32.0985
-31.7423
-30.5406
-31.8378
-31.0453
-31.7165
-31.0021
-31.4734
-31.0872
-32.7033
-32.0737
-30.1577
-28.639
-27.559
-25.7849
-23.6517
-22.5323
-24.8694
-24.2437
-24.515
-23.1606
-22.7721
-21.0973
-21.5453
-19.9487
-16.7642
-15.3862
-17.2829
-16.3629
-16.9206
-15.9764
-15.8743
-15.2435
-16.3317
-15.3085
-12.8313
-11.5127
-10.7994
-10.1729
-10.9324
-10.1777
-8.66561
-7.95844
-9.11928
-8.78599
-9.8485
-8.77892
-7.24727
-5.92309
-7.01916
-6.10878
-8.47237
-7.63807
-12.0296
-11.3993
-19.5627
-19.5539
-33.9334
-34.3676
-50.1149
-58.6649
-142.984
-151.172
-151.264
-151.117
70.5973
-30.6375
-37.2971
-51.9428
-39.596
-42.5946
-36.5286
-37.1964
-34.9585
-34.8187
-34.3326
-33.9185
-35.2863
-34.3303
-33.0953
-30.41
-33.0208
-29.6667
-32.9436
-30.3333
-32.6185
-30.4356
-32.2164
-30.6434
-33.218
-31.5596
-30.1682
-26.9417
-29.0153
-25.1826
-24.3941
-21.3718
-26.1515
-23.7666
-24.649
-21.0937
-24.4901
-20.1219
-22.9599
-19.3838
-17.3375
-14.0077
-18.5784
-15.5432
-17.9899
-15.3724
-16.6979
-14.7388
-16.7824
-14.428
-13.6733
-11.0291
-11.4883
-9.7847
-11.3093
-9.50287
-9.32446
-7.54384
-9.51781
-8.02092
-10.2668
-7.56569
-8.19255
-4.8132
-7.96765
-4.64467
-9.53656
-5.58112
-13.4548
-8.57015
-21.5826
-15.8276
-37.0272
-30.4611
-52.1836
-49.61
-153.919
-154.193
-151.975
-151.321
59.1268
-34.0084
-27.3545
-52.7156
-35.6169
-42.9381
-35.038
-37.193
-34.4809
-34.6156
-34.2963
-33.5331
-35.5168
-33.9161
-32.9512
-28.5107
-34.539
-28.5287
-34.286
-29.4265
-33.7004
-29.7116
-33.0946
-30.0348
-33.9031
-31.036
-30.2533
-25.0336
-30.7089
-24.4597
-25.2271
-19.9004
-27.7214
-23.1598
-24.9617
-18.7499
-26.5198
-18.8595
-24.6322
-18.7589
-17.9632
-12.3141
-20.1792
-14.5051
-19.2626
-14.6115
-17.6537
-14.0747
-17.4098
-13.4841
-14.5917
-10.422
-12.2643
-9.26797
-11.82
-8.76349
-10.0479
-6.97955
-10.0556
-7.10656
-10.8833
-6.21966
-9.29835
-3.44216
-9.17539
-2.85204
-10.9546
-3.05093
-15.3902
-5.02484
-24.3528
-11.0227
-41.2309
-25.4223
-55.2233
-36.2789
-169.014
-157.312
-152.622
-151.498
51.3825
-41.37
-16.1308
-55.1866
-30.6614
-43.8911
-33.146
-37.3853
-33.8907
-34.432
-34.279
-33.0393
-35.8922
-33.478
-32.9477
-26.1943
-36.5405
-26.9217
-36.0548
-28.1562
-35.1145
-28.6945
-34.2323
-29.1508
-34.8594
-30.4307
-30.5176
-22.6915
-32.8814
-23.4579
-26.3056
-17.905
-29.7884
-22.3004
-25.5967
-15.8486
-29.1685
-17.0615
-26.772
-17.9324
-18.7847
-10.0816
-22.3231
-13.0513
-20.9132
-13.5443
-18.8757
-13.1354
-18.3288
-12.3402
-15.7223
-9.57549
-13.235
-8.53026
-12.5561
-7.85134
-10.9463
-6.17024
-10.8351
-5.9238
-11.838
-4.56443
-10.762
-1.60787
-10.8656
-0.48248
-13.013
0.289125
-18.2335
-0.291355
-28.4287
-4.47539
-47.2743
-18.5578
-60.2114
-16.8792
-189.885
-160.149
-153.125
-151.629
47.3492
-53.4503
-2.33479
-60.2008
-24.1961
-45.8038
-30.6558
-37.8883
-33.1404
-34.2777
-34.3069
-32.3835
-36.4801
-32.9665
-33.1951
-23.196
-39.3427
-24.5668
-38.5071
-26.2937
-37.0658
-27.2012
-35.7967
-27.8373
-36.2232
-29.6469
-31.1005
-19.6309
-35.8406
-21.9675
-27.8362
-15.1003
-32.6323
-21.0117
-26.7557
-12.0268
-32.8365
-14.3928
-29.6559
-16.7203
-19.9903
-7.01317
-25.3294
-10.9139
-23.1747
-11.9708
-20.5421
-11.7602
-19.6966
-10.8228
-17.2354
-8.33804
-14.5414
-7.4445
-13.6424
-6.62824
-12.1605
-4.9842
-11.9986
-4.30879
-13.3209
-2.37095
-12.8401
0.962546
-13.3417
2.80353
-16.1045
4.90236
-22.535
6.28588
-34.5874
4.74303
-56.177
-8.8771
-68.5972
11.1759
-218.864
-162.076
-153.406
-151.698
105.612
128.862
31.4344
58.6702
47.7805
51.563
50.2899
48.5568
49.9607
46.3873
49.2303
44.6233
50.8157
45.6969
46.8977
35.6608
54.5907
39.171
52.2603
40.0959
50.133
40.033
49.1733
40.4197
50.0505
41.1873
50.9745
40.0659
49.1974
39.0047
41.6219
30.7595
48.1335
37.5119
42.5976
29.2372
50.0534
33.7091
46.3043
35.1251
37.9166
25.7265
44.7009
31.0924
41.7045
31.0486
39.378
30.815
32.7716
21.7383
39.4046
26.1226
37.2911
26.7978
29.5883
15.0295
40.2468
22.9215
29.7547
6.08391
49.5109
18.7203
50.0017
20.3859
53.1674
21.0628
58.6708
22.9668
65.8444
26.9115
74.6552
33.6312
87.0087
48.6229
102.929
84.7498
81.5926
80.8992
80.7385
80.7025
104.68
116.651
43.4809
57.7127
49.6749
51.6625
50.412
49.0256
49.5672
47.0423
48.6185
45.6161
49.8453
46.3866
46.4549
38.985
51.4362
41.4438
49.8598
41.8993
48.2495
41.6343
47.5205
41.945
48.532
42.9223
49.3237
42.0228
47.2143
40.0197
40.6362
33.4655
45.4204
38.6484
41.5733
32.8525
46.5603
35.9311
43.8784
36.2076
36.8773
28.7959
41.691
32.9882
39.6933
32.6287
37.7168
31.7364
31.9515
24.6261
36.6092
28.1072
35.1975
27.972
28.579
19.0512
36.338
24.9551
27.9771
12.8286
43.0531
23.9059
44.7709
25.9233
47.7311
27.3396
52.5391
29.9966
58.9446
34.5504
67.1005
41.7439
78.7908
55.8434
94.9007
84.1488
81.494
80.8778
80.7334
80.701
103.267
107.844
52.0296
57.6452
51.1683
51.8919
50.5402
49.418
49.2972
47.5341
48.1908
46.3206
49.1834
46.9363
46.3146
41.5135
49.1806
42.9814
48.1156
43.1314
46.8858
42.7368
46.3273
42.9849
47.5025
44.178
48.2222
43.4813
45.7278
40.7234
39.9632
35.4078
43.4576
39.3983
41.0162
35.5719
44.0419
37.4114
42.0786
36.9578
36.1893
31.0276
39.5463
34.2691
38.2341
33.724
36.4996
32.4112
31.4343
26.7429
34.6345
29.4692
33.6777
28.8341
27.9763
22.0015
33.5771
26.4136
26.9274
17.7593
38.5712
27.4919
41.1295
29.8352
43.9833
31.7934
48.3175
34.9672
54.1789
39.9118
61.8624
47.3607
72.9726
60.5838
88.8643
83.224
81.3138
80.8375
80.7238
80.6981
101.669
101.45
58.1198
58.0608
52.3736
52.2047
50.6598
49.7711
49.0936
47.9298
47.8649
46.8365
48.7267
47.4218
46.3425
43.5443
47.4807
44.0667
46.7771
44.015
45.8391
43.5306
45.4124
43.7113
46.7877
45.14
47.4732
44.6612
44.5324
41.2584
39.4431
36.8469
41.9803
39.9222
40.7427
37.736
42.1288
38.441
40.6715
37.535
35.6782
32.7131
37.9546
35.1814
37.115
34.5289
35.558
32.9627
31.0668
28.3574
33.1831
30.4574
32.521
29.5377
27.5792
24.2507
31.5667
27.566
26.2658
21.4917
35.3657
30.09
38.4859
32.73
41.2896
35.0991
45.2914
38.6358
50.7526
43.8248
58.0825
51.373
68.6746
63.6974
84.1847
82.1499
81.0761
80.7826
80.7106
80.6942
100.078
96.7792
62.4783
58.7013
53.3583
52.5728
50.7535
50.1162
48.9099
48.2821
47.5781
47.2362
48.3984
47.899
46.4397
45.3064
46.0754
44.9077
45.6583
44.7157
44.9585
44.1575
44.6414
44.2474
46.2625
45.9434
46.9306
45.7345
43.4634
41.7358
38.9549
37.9775
40.7914
40.3317
40.6231
39.6049
40.5396
39.2345
39.4798
38.0618
35.2122
34.0712
36.6842
35.9061
36.1775
35.1899
34.762
33.4869
30.7325
29.6712
32.0344
31.2546
31.5668
30.2011
27.2376
26.0748
30.0095
28.6109
25.7438
24.4788
32.9267
32.1417
36.4089
35.0525
39.1863
37.7499
42.9394
41.5536
48.0883
46.8905
55.1414
54.4249
65.2678
65.7925
80.4059
81.0373
80.8073
80.7189
80.6952
80.6896
98.619
93.3481
65.6156
59.4044
54.1607
52.9824
50.8001
50.4842
48.7033
48.6376
47.277
47.576
48.1368
48.4147
46.5242
46.9927
44.748
45.6723
44.6074
45.3693
44.1198
44.7332
43.9058
44.6873
45.8309
46.6948
46.4755
46.851
42.373
42.2555
38.3948
38.9568
39.7338
40.7115
40.5561
41.3959
39.0403
39.9664
38.3549
38.6461
34.6781
35.2794
35.5497
36.5892
35.2906
35.8288
34.0003
34.0705
30.3307
30.8483
31.0117
32.0084
30.68
30.9285
26.8242
27.6951
28.6659
29.7147
25.158
27.0775
30.8573
33.9916
34.557
37.1557
37.306
40.1357
40.8506
44.1547
45.7334
49.5783
52.559
57.0145
62.2736
67.324
77.1865
79.9591
80.5327
80.6525
80.679
80.6848
97.3706
90.816
67.8926
60.0691
54.8007
53.4322
50.772
50.9107
48.428
49.0448
46.9093
47.9052
47.8863
49.017
46.5141
48.7873
43.2935
46.5162
43.4832
46.1032
43.2065
45.3664
43.1057
45.1126
45.4103
47.4894
45.9965
48.1615
41.108
42.9248
37.6576
39.9273
38.6678
41.1364
40.4491
43.3146
37.4095
40.7995
37.1537
39.4005
33.9611
36.5007
34.3843
37.3656
34.33
36.5622
33.1624
34.8063
29.7584
32.0393
29.9555
32.855
29.7299
31.8299
26.2115
29.3114
27.3191
31.0426
24.3129
29.6016
28.8135
35.944
32.6236
39.3566
35.3183
42.6059
38.658
46.8248
43.2878
52.3006
49.9176
59.5718
59.2879
68.6629
74.2506
78.9689
80.2763
80.5899
80.6637
80.6802
96.3853
88.9399
69.5665
60.6321
55.2847
53.9335
50.6317
51.4417
48.0282
49.5616
46.416
48.2744
47.5893
49.7642
46.3125
50.892
41.4898
47.6098
42.1323
47.0572
42.0903
46.1758
42.1343
45.6056
44.9179
48.4262
45.3706
49.8401
39.4876
43.8768
36.6183
41.0383
37.4521
41.6868
40.1993
45.5833
35.4062
41.9133
35.7161
40.4618
32.9242
37.9075
33.0143
38.3819
33.158
37.5202
32.122
35.8092
28.8923
33.4043
28.6994
33.942
28.5702
33.0394
25.2496
31.1307
25.743
32.7881
22.9865
32.3683
26.4524
38.3139
30.2877
41.9879
32.8772
45.5253
35.9807
49.9627
40.34
55.4785
46.7946
62.5267
55.9157
70.1534
71.3495
78.1152
80.0597
80.5369
80.6506
80.6763
95.6996
87.5431
70.8243
61.0522
55.609
54.5125
50.3263
52.1409
47.4299
50.2649
45.7218
48.7447
47.1772
50.7356
45.7887
53.555
39.0642
49.1662
40.3643
48.4058
40.611
47.3093
40.8614
46.2641
44.2567
49.6247
44.4427
52.1107
37.2765
45.2938
35.1109
42.4685
35.9226
42.4652
39.6735
48.4735
32.7345
43.5342
33.8397
42.0133
31.3854
39.7082
31.2327
39.8209
31.6016
38.8675
30.7173
37.2352
27.5681
35.137
27.0443
35.4526
27.0159
34.7384
23.7399
33.3998
23.6687
35.2066
20.8919
35.7461
23.3795
41.4787
27.1621
45.4512
29.5653
49.332
32.3618
54.0445
36.4014
59.6091
42.6948
66.3751
51.7094
72.1655
68.2256
77.4544
79.9018
80.4985
80.6412
80.6735
95.3424
86.4911
71.8059
61.2999
55.7594
55.2146
49.7802
53.1005
46.5289
51.2625
44.724
49.3976
46.5591
52.0461
44.7553
57.1072
35.6538
51.4776
37.9214
50.3868
38.5509
48.9676
39.1134
47.2178
43.2993
51.2439
42.9997
55.2802
34.1501
47.4376
32.9007
44.4536
33.8683
43.6156
38.6828
52.3438
28.9998
45.9736
31.2473
44.3155
29.0873
42.1797
28.7674
41.9308
29.4244
40.8303
28.7246
39.3074
25.5533
37.4949
24.728
37.6358
24.814
37.185
21.4027
36.4436
20.7426
38.6582
17.6295
40.2118
19.087
45.9392
22.7314
50.2807
24.8266
54.6075
27.1964
59.6989
30.8284
65.3444
36.9709
71.7572
46.0983
75.1535
64.575
77.0648
79.818
80.4783
80.6362
80.672
-99.3241
-89.6033
-73.8165
-60.8856
-56.0304
-52.6493
-48.498
-49.4322
-44.3369
-47.1008
-41.7419
-44.8611
-41.9827
-45.6753
-40.2502
-48.479
-30.5887
-43.2825
-30.9956
-43.3673
-32.8731
-43.1419
-34.0273
-41.7352
-38.0659
-45.3768
-37.6671
-48.8166
-29.467
-41.3902
-28.4403
-38.553
-28.6502
-37.1778
-32.7615
-45.47
-22.7969
-39.3778
-24.7372
-38.2727
-22.598
-36.8404
-21.9518
-37.1948
-23.3447
-37.1654
-23.8828
-36.1914
-24.648
-34.7378
-30.2497
-42.7029
-22.0348
-35.5429
-29.9971
-45.0859
-20.9787
-37.0018
-31.2609
-46.938
-33.5853
-60.6449
-16.4278
-49.0634
-20.243
-49.8275
-22.4878
-52.5984
-24.555
-57.2533
-26.897
-63.4395
-38.2353
-71.9455
-65.5703
-80.7833
-84.2929
-85.1472
-85.3521
-85.3967
-99.7148
-90.7971
-72.755
-61.0364
-55.4979
-52.3002
-48.6726
-48.8034
-44.8899
-46.3607
-42.465
-44.351
-42.4669
-44.7638
-40.9771
-45.8413
-33.0444
-40.9962
-33.2912
-41.4725
-34.8484
-41.5748
-35.6933
-40.8513
-38.9622
-43.8879
-38.9989
-45.9342
-32.315
-39.4908
-30.4086
-36.7869
-30.4761
-36.1418
-33.6266
-41.7567
-26.3515
-36.8915
-27.3416
-35.8598
-24.9788
-34.0698
-24.6785
-34.7128
-25.8798
-34.8787
-26.2263
-34.1996
-26.725
-33.5114
-31.3781
-39.4483
-25.2438
-34.0553
-31.4182
-41.2457
-24.7783
-35.3292
-32.9441
-43.8463
-36.2186
-53.5856
-23.2612
-43.9759
-25.4499
-44.8127
-27.4793
-47.3185
-29.7295
-51.3956
-32.5995
-57.5571
-44.2299
-68.7186
-69.5356
-81.2503
-84.3977
-85.1717
-85.3569
-85.397
-100.464
-92.358
-71.4418
-60.9405
-54.8714
-51.9674
-48.6957
-48.3351
-45.226
-45.8338
-42.9553
-43.9903
-42.7823
-44.094
-41.3565
-43.9084
-34.6685
-39.3344
-34.9497
-40.1681
-36.288
-40.5103
-36.916
-40.2477
-39.5842
-42.79
-39.856
-43.8723
-34.3295
-38.2401
-31.7567
-35.5265
-31.8213
-35.4313
-34.064
-38.983
-28.8664
-35.2069
-29.2214
-34.2211
-26.5589
-32.0367
-26.6264
-32.9836
-27.6998
-33.2962
-27.903
-32.8239
-28.2298
-32.6401
-32.0966
-37.083
-27.5306
-33.0239
-32.339
-38.4557
-27.4955
-34.1726
-34.0943
-41.4944
-37.8506
-48.4325
-28.0517
-40.4568
-29.1401
-41.2646
-30.9829
-43.5348
-33.333
-47.1557
-36.5512
-53.2055
-48.7113
-66.4379
-73.064
-82.0588
-84.5961
-85.2181
-85.366
-85.3977
-101.539
-94.433
-69.7131
-60.6674
-54.1178
-51.6486
-48.6014
-47.9757
-45.4124
-45.4452
-43.2879
-43.7181
-42.9957
-43.5849
-41.523
-42.4458
-35.7348
-38.0331
-36.2225
-39.2262
-37.4019
-39.757
-37.8602
-39.8023
-40.05
-41.9363
-40.4337
-42.3512
-35.8043
-37.4037
-32.6932
-34.5637
-32.8724
-34.9183
-34.2485
-36.8091
-30.7215
-34.0137
-30.6602
-33.0872
-27.6119
-30.4376
-28.1019
-31.7185
-29.0831
-32.1518
-29.1657
-31.8274
-29.373
-31.9655
-32.5925
-35.2978
-29.214
-32.2383
-32.9864
-36.3474
-29.506
-33.2849
-34.9441
-39.5829
-38.9123
-44.5167
-31.5296
-37.8854
-31.8916
-38.6118
-33.5723
-40.6605
-35.9747
-43.8923
-39.412
-49.6995
-52.3033
-64.6006
-76.4969
-83.1245
-84.8699
-85.2823
-85.3784
-85.3987
-102.9
-97.2137
-67.358
-60.2946
-53.2008
-51.3523
-48.4095
-47.693
-45.4941
-45.1434
-43.5161
-43.4911
-43.1557
-43.1811
-41.5691
-41.2876
-36.4399
-36.8951
-37.3017
-38.4764
-38.3477
-39.1728
-38.65
-39.4239
-40.4493
-41.2171
-40.8736
-41.1678
-36.9524
-36.8187
-33.3654
-33.7423
-33.773
-34.5129
-34.3027
-34.9801
-32.2004
-33.0853
-31.8667
-32.2684
-28.3317
-29.0438
-29.3383
-30.7024
-30.2371
-31.2486
-30.2014
-31.0345
-30.3133
-31.3686
-33.0043
-33.8632
-30.5322
-31.5427
-33.5284
-34.6463
-31.0907
-32.481
-35.6738
-37.883
-39.7223
-41.3438
-34.233
-35.8073
-34.1339
-36.4288
-35.676
-38.2566
-38.1119
-41.1243
-41.6818
-46.5004
-55.5073
-62.7789
-80.1399
-84.3848
-85.1962
-85.3582
-85.393
-85.3999
-104.489
-100.962
-64.0912
-59.9229
-52.0737
-51.0996
-48.1283
-47.4694
-45.5016
-44.8924
-43.68
-43.2762
-43.301
-42.8423
-41.5618
-40.3117
-36.9324
-35.7588
-38.3498
-37.7783
-39.255
-38.6421
-39.3874
-39.0349
-40.8585
-40.5421
-41.2877
-40.1644
-37.9368
-36.3661
-33.8841
-32.9345
-34.6448
-34.1452
-34.321
-33.289
-33.5322
-32.2407
-33.008
-31.6228
-28.8652
-27.6663
-30.5315
-29.7591
-31.3317
-30.4273
-31.1615
-30.3034
-31.1822
-30.7481
-33.4468
-32.5958
-31.6764
-30.8079
-34.1048
-33.1319
-32.4772
-31.6048
-36.4425
-36.1976
-40.5406
-38.5199
-36.5887
-33.8589
-36.2172
-34.3675
-37.6462
-35.9615
-40.1227
-38.4545
-43.781
-43.1337
-58.7806
-60.5534
-84.3074
-85.7822
-85.5481
-85.4388
-85.4084
-85.4013
-106.218
-106.043
-59.516
-59.6982
-50.6717
-50.9269
-47.7547
-47.2982
-45.455
-44.6657
-43.8117
-43.0445
-43.4659
-42.5367
-41.5534
-39.4212
-37.3371
-34.4721
-39.5247
-36.9986
-40.2462
-38.0574
-40.1691
-38.5593
-41.3536
-39.8248
-41.7767
-39.2055
-38.8953
-35.9503
-34.3418
-32.0205
-35.6053
-33.7507
-34.388
-31.5472
-34.9258
-31.314
-34.2357
-31.0323
-29.3366
-26.1266
-31.8705
-28.7223
-32.5257
-29.5408
-32.1856
-29.5031
-32.104
-30.0025
-34.0315
-31.3315
-32.8189
-29.9067
-34.8522
-31.6049
-33.8727
-30.5004
-37.4148
-34.3288
-41.6138
-35.6926
-38.9767
-31.7071
-38.4691
-32.1012
-39.8152
-33.4328
-42.3668
-35.505
-46.1192
-39.1154
-62.6089
-57.4487
-89.3661
-87.248
-85.8952
-85.5166
-85.4232
-85.4027
-107.954
-112.977
-53.0717
-59.8415
-48.8984
-50.8916
-47.2731
-47.1832
-45.3669
-44.4424
-43.9407
-42.7659
-43.6855
-42.234
-41.5918
-38.5296
-37.7737
-32.8696
-41.0037
-35.9889
-41.4557
-37.3016
-41.1005
-37.9083
-42.0225
-38.9691
-42.4476
-38.157
-39.96
-35.4819
-34.8289
-30.8711
-36.7842
-33.2575
-34.5949
-29.5576
-36.5999
-30.1269
-35.7094
-30.3825
-29.8696
-24.2297
-33.5662
-27.4084
-33.9922
-28.4301
-33.4237
-28.4924
-33.2147
-29.0126
-34.8863
-29.9005
-34.1382
-28.692
-35.9281
-29.8582
-35.4946
-28.9853
-38.7879
-32.0461
-43.2159
-32.4979
-41.7874
-28.9948
-41.2468
-29.2722
-42.5485
-30.2919
-45.2432
-31.8568
-49.1625
-33.8774
-67.5837
-52.8613
-95.7867
-88.6838
-86.2041
-85.5837
-85.4358
-85.404
-109.487
-122.506
-43.9593
-60.6931
-46.608
-51.0815
-46.6513
-47.1383
-45.2442
-44.2032
-44.0978
-42.4047
-44.0012
-41.9002
-41.7282
-37.5471
-38.3777
-30.747
-43.01
-34.5613
-43.0514
-36.229
-42.313
-36.9664
-42.9795
-37.8536
-43.4306
-36.8661
-41.2773
-34.8618
-35.4495
-29.3284
-38.3422
-32.5711
-35.0584
-27.0862
-38.8161
-28.4592
-37.6209
-29.5416
-30.6091
-21.7352
-35.8831
-25.5863
-35.9459
-26.8986
-35.0603
-27.097
-34.6837
-27.621
-36.1769
-28.1019
-35.8461
-26.9713
-37.5376
-27.6445
-37.6037
-26.819
-40.8241
-29.048
-45.6947
-28.504
-45.4826
-25.2817
-44.9945
-25.4341
-46.3039
-26.0634
-49.2537
-26.9816
-53.51
-26.6803
-74.496
-45.9685
-104.209
-89.9357
-86.4397
-85.6331
-85.4451
-85.4051
-110.498
-135.696
-31.0344
-62.7771
-43.5757
-51.6284
-45.8339
-47.1899
-45.0887
-43.928
-44.3198
-41.9134
-44.4662
-41.4907
-42.0265
-36.3658
-39.3218
-27.8303
-45.8466
-32.4579
-45.2614
-34.6419
-43.9843
-35.5719
-44.3836
-36.3116
-44.9009
-35.1378
-43.0294
-33.9633
-36.3402
-27.1819
-40.4933
-31.5561
-35.942
-23.8286
-41.9177
-26.0124
-40.2239
-28.3366
-31.7481
-18.3217
-39.1797
-22.9397
-38.6778
-24.6804
-37.3436
-25.0813
-36.7404
-25.6064
-38.1344
-25.6722
-38.2205
-24.4747
-39.9671
-24.6383
-40.544
-23.6626
-43.8929
-24.9145
-49.5285
-23.1447
-50.6662
-19.9734
-50.3143
-19.9799
-51.7048
-20.0986
-55.0836
-20.155
-59.9924
-16.4978
-84.4627
-35.6057
-115.533
-90.7576
-86.5691
-85.6593
-85.4499
-85.4058
50.1356
54.7699
34.9802
38.974
38.8636
36.7662
37.1401
29.7291
42.8006
32.5963
41.8662
34.393
42.5957
36.2961
39.1795
28.827
36.671
18.5407
46.4021
28.3818
43.3907
31.2613
40.8659
32.8422
36.2419
26.5399
33.8711
17.5502
41.6201
26.6187
33.2817
20.4179
41.7722
26.9774
42.0716
26.7145
37.3716
23.0683
33.6079
23.5774
26.6253
11.6006
35.1357
15.7642
30.2291
15.2248
27.5357
15.5997
19.7832
3.58697
36.0785
12.1341
34.864
10.726
31.8894
9.35625
32.2656
11.3709
20.5644
-11.0995
48.905
8.50602
49.8263
13.7781
53.0673
17.3171
58.1527
21.1366
65.5126
27.0902
74.6733
35.2573
89.7882
52.8874
99.6336
45.1433
202.142
163.462
157.561
156.402
49.9504
52.3263
37.4505
39.276
38.807
37.1741
36.9472
32.021
40.6232
34.0821
40.2742
35.6186
41.3262
37.1931
38.4479
31.0782
34.7346
22.8585
42.0839
30.8136
40.7273
32.9002
39.0665
33.7147
35.4402
28.5973
32.0823
21.3342
37.7873
28.0997
31.7192
23.5716
38.6997
29.5692
39.5061
29.1842
34.8634
25.0444
31.4643
24.6109
25.7951
15.807
31.1064
18.4059
27.4158
17.4783
25.1623
16.9801
18.5757
8.40498
31.5728
16.476
30.5322
14.5489
28.0043
13.3287
28.2293
14.126
18.2417
-1.91502
40.0715
15.1544
43.0054
20.2397
46.595
24.0098
51.5117
28.2663
58.4399
34.5438
67.26
43.2483
81.697
59.8029
93.4219
64.267
182.387
162.151
157.373
156.357
49.6705
50.5732
39.2532
39.6705
38.7979
37.5267
36.9435
33.7731
39.0531
35.0601
39.1175
36.4313
40.4519
37.8762
38.0629
32.8901
33.4213
25.9342
38.9874
32.3999
38.7753
33.9812
37.7296
34.3059
34.9831
30.2433
30.8647
24.032
35.002
29.0503
30.6292
25.7961
36.5994
31.4002
37.7527
31.0156
32.9769
26.3727
29.8534
25.3244
25.4133
19.0035
28.1988
20.1807
25.3618
19.0282
23.4248
17.9707
17.8402
11.8907
28.599
19.6528
27.403
17.1953
25.2452
16.1188
25.354
16.1531
16.8906
4.78449
33.915
19.6927
38.2098
24.7371
42.0809
28.6994
46.901
33.2596
53.5305
39.7332
62.116
48.7409
76.0196
64.4981
89.7214
77.5
168.166
160.223
157.034
156.271
49.3548
49.3094
40.5871
40.1172
38.8056
37.8529
37.0443
35.1884
37.855
35.7174
38.2319
36.9769
39.8428
38.4501
37.8938
34.4754
32.4303
28.1898
36.6782
33.4694
37.2717
34.7221
36.6811
34.7345
34.7442
31.6765
29.947
26.0194
32.8952
29.7013
29.7974
27.3967
35.1407
32.7708
36.5245
32.5006
31.4346
27.299
28.5643
25.8547
25.293
21.5772
25.9811
21.4289
23.7696
20.1501
22.0824
18.7494
17.3384
14.4711
26.6523
22.1627
24.993
19.1121
23.174
18.1752
23.2168
17.7832
16.054
9.83522
29.4932
22.9221
34.6944
28.0023
38.7962
32.1261
43.5645
36.8968
49.984
43.4757
58.4025
52.6075
71.8943
67.7236
87.5189
86.6179
157.891
158.105
156.599
156.156
49.041
48.393
41.5911
40.5982
38.7995
38.1739
37.1878
36.4235
36.85
36.1894
37.4979
37.3586
39.4049
38.9915
37.8401
36.0067
31.5282
29.9374
34.838
34.2594
36.0233
35.2837
35.7899
35.0859
34.6295
33.0572
29.1182
27.5757
31.1923
30.2218
29.0664
28.5927
34.0878
33.8974
35.6084
33.8683
30.016
28.0102
27.4351
26.3
25.2997
23.827
24.1225
22.4021
22.4167
21.0507
20.9514
19.4519
16.8956
16.4502
25.3732
24.3805
22.9321
20.6318
21.4657
19.8305
21.499
19.2657
15.3974
13.8513
26.1211
25.4181
31.918
30.5684
36.2104
34.8288
40.9524
39.744
47.2215
46.3609
55.518
55.471
68.7073
69.9905
86.1444
92.849
150.458
156.057
156.122
156.023
48.7533
47.7229
42.363
41.1115
38.7468
38.5096
37.3227
37.6113
35.8887
36.583
36.8222
37.6531
39.0658
39.5628
37.8141
37.6443
30.511
31.4258
33.2174
34.9562
34.8754
35.7958
34.9474
35.4278
34.5597
34.533
28.194
28.9261
29.6733
30.75
28.3087
29.5503
33.2626
34.9484
34.8308
35.3208
28.5239
28.6646
26.3286
26.7402
25.3256
26.0064
22.3449
23.3063
21.1193
21.9008
19.8767
20.1969
16.3687
18.0549
24.4909
26.6167
20.9054
22.0264
19.8563
21.3538
19.9375
20.8137
14.648
17.315
23.268
27.6262
29.4557
32.8549
33.9057
37.2314
38.6337
42.2438
44.7927
48.8454
53.0017
57.8031
65.9985
71.6626
85.148
97.0441
145.106
154.23
155.652
155.886
48.5068
47.2258
42.9705
41.6693
38.6088
38.8831
37.3983
38.8794
34.8306
36.9945
36.1225
37.9242
38.763
40.2236
37.7247
39.5601
29.1716
32.8788
31.5986
35.7254
33.6871
36.3783
34.0515
35.8233
34.4561
36.261
26.9866
30.2756
28.1408
31.4187
27.4033
30.4088
32.5181
36.0712
34.0285
37.0646
26.754
29.4178
25.112
27.2533
25.2675
28.3592
20.382
24.3361
19.7029
22.863
18.708
21.1077
15.6209
19.4694
23.7808
29.1663
18.6053
23.5524
18.1
22.9935
18.2841
22.6433
13.5452
20.647
20.4786
29.9353
26.9304
35.2353
31.5098
39.7108
36.2266
44.786
42.3036
51.3257
50.4596
59.9994
63.3909
73.0219
84.2151
99.7925
141.311
152.711
155.229
155.758
48.3114
46.8476
43.4596
42.297
38.3369
39.3265
37.3548
40.368
33.5232
37.5268
35.3152
38.233
38.4346
41.042
37.461
41.964
27.2674
34.5303
29.7625
36.7403
32.3086
37.1607
32.9907
36.3435
34.2246
38.4312
25.2758
31.841
26.3908
32.3782
26.216
31.3021
31.715
37.4168
33.0222
39.3413
24.4643
30.4488
23.6366
27.9305
25.0054
31.154
17.9412
25.7087
17.9739
24.1171
17.2764
22.3333
14.4991
20.8647
23.0271
32.353
15.6843
25.4938
15.9294
25.0168
16.2675
25.0108
11.7941
24.2695
17.3037
32.7425
23.9525
38.0966
28.6367
42.6574
33.3376
47.7697
39.3541
54.2013
47.5011
62.4416
60.5337
74.3186
83.1068
101.503
138.72
151.547
154.885
155.652
48.1743
46.5459
43.8591
43.0361
37.8663
39.8874
37.1108
42.2498
31.7807
38.3064
34.3014
38.6492
38.0086
42.1067
36.8727
45.1344
24.4834
36.6615
27.455
38.21
30.5573
38.3024
31.6276
37.0811
33.7386
41.2944
22.7745
33.8855
24.1817
33.8221
24.5773
32.3808
30.6988
39.1649
31.5858
42.4643
21.3386
31.9904
21.7157
28.8952
24.3791
34.7219
14.6598
27.7001
15.6888
25.8894
15.3679
24.0735
12.8083
22.4272
21.986
36.5787
11.7033
28.2095
13.0121
27.753
13.5507
28.2561
9.01459
28.669
13.2321
36.5183
20.0566
41.9015
24.8238
46.5372
29.498
51.6669
35.4739
57.9387
43.6768
65.5575
57.0487
75.8151
81.614
102.461
137.105
150.762
154.643
155.575
48.1021
46.2862
44.1835
43.9482
37.1071
40.6391
36.5489
44.7546
29.357
39.5059
32.9521
39.2634
37.3917
43.543
35.7429
49.4596
20.3844
39.6462
24.3471
40.4141
28.1883
40.0191
29.7776
38.1688
32.8149
45.1989
19.0862
36.7608
21.197
36.0195
22.2549
33.8371
29.2748
41.5529
29.4093
46.8658
16.9401
34.3673
19.0949
30.3261
23.1568
39.5044
10.0527
30.6921
12.5137
28.4892
12.689
26.6113
10.2809
24.3909
20.3423
42.382
6.06597
32.1923
8.89635
31.6461
9.67674
32.8584
4.67852
34.4714
7.61073
41.8832
14.6277
47.2628
19.4588
51.9665
24.0898
57.0983
30.047
63.1448
38.4065
69.889
52.4726
77.8302
79.519
102.866
136.329
150.368
154.519
155.535
)
;

boundaryField
{
    F1_1
    {
        type            calculated;
        value           nonuniform List<scalar> 
80
(
290.844
-139.34
-120.125
-51.3809
-60.2303
-42.2004
-42.9745
-38.133
-36.4746
-36.7387
-33.5578
-35.8917
-34.2824
-38.9901
-31.9002
-46.084
-19.3683
-38.1229
-23.144
-37.6784
-24.3087
-36.3636
-25.2722
-34.1978
-29.4063
-37.8791
-26.7386
-43.5692
-13.6843
-33.8125
-14.7706
-31.1028
-15.5871
-28.7699
-21.6667
-40.8121
-6.64825
-30.7466
-10.1056
-28.4171
-8.17625
-25.752
-7.0495
-24.243
-8.06651
-22.2827
-8.56176
-19.1777
-12.7926
-25.1509
-3.27877
-16.917
-4.26837
-13.3047
-7.91006
-17.4625
-1.42201
-10.9428
-6.01768
-14.4062
-5.92356
-20.4333
3.24808
-14.9497
1.5746
-17.0497
0.941067
-21.9379
-0.105937
-29.4964
-4.35838
-41.178
-14.5495
-56.9005
-31.2888
-72.6152
-121.804
-142.615
-148.821
-150.351
)
;
    }
    F1_2
    {
        type            calculated;
        value           nonuniform List<scalar> 
80
(
95.2493
86.0366
72.2427
61.3774
55.7887
55.6036
49.4359
53.6589
45.9875
51.8506
44.1343
49.7817
46.1854
52.8034
44.0834
59.1534
33.6499
52.8648
36.4937
51.57
37.3439
49.9571
38.0955
47.7873
42.7282
52.1819
42.1182
57.1344
32.3107
48.73
31.5853
45.6189
32.6798
44.3052
38.0432
54.5758
26.8098
47.4435
29.7316
45.6928
27.7104
43.623
27.3245
43.1898
28.1462
41.9986
27.5486
40.5381
24.3389
38.8674
23.3667
38.9318
23.5143
38.6335
19.9861
38.2059
19.0156
40.6953
15.6477
42.7849
16.5632
48.5659
20.1152
53.1144
22.0201
57.6967
24.1395
63.0101
27.5405
68.7071
33.6099
74.9234
42.86
76.9554
62.5759
76.9496
79.7963
80.4732
80.635
80.6716
)
;
    }
    F1_3
    {
        type            calculated;
        value           nonuniform List<scalar> 
80
(
-99.2223
-89.0819
-74.3027
-60.7398
-56.2772
-52.8289
-48.3676
-49.7946
-43.9963
-47.5353
-41.3113
-45.1624
-41.6888
-46.2037
-39.7797
-50.0086
-29.1127
-44.6202
-29.6522
-44.4954
-31.7211
-44.0789
-33.0596
-42.2649
-37.5321
-46.2402
-36.8539
-50.5038
-27.7917
-42.5368
-27.2704
-39.5927
-27.5902
-37.7962
-32.1961
-47.6106
-20.7047
-40.8668
-23.2126
-39.7124
-21.1671
-38.4539
-20.3496
-38.666
-21.858
-38.5235
-22.5076
-37.3758
-23.436
-35.4628
-29.5557
-44.5974
-20.1536
-36.4316
-29.1284
-47.3219
-18.7541
-38.0029
-30.2527
-48.7118
-31.9555
-64.7483
-12.3941
-52.0898
-17.1764
-52.7846
-19.5368
-55.6975
-21.4867