/*--------------------------------*- C++ -*----------------------------------*\
| =========                 |                                                 |
| \\      /  F ield         | OpenFOAM: The Open Source CFD Toolbox           |
|  \\    /   O peration     | Version:  5.x                                   |
|   \\  /    A nd           | Web:      www.OpenFOAM.org                      |
|    \\/     M anipulation  |                                                 |
\*---------------------------------------------------------------------------*/
FoamFile
{
    version     2.0;
    format      ascii;
    class       volScalarField;
    location    "0.9";
    object      T;
}
// * * * * * * * * * * * * * * * * * * * * * * * * * * * * * * * * * * * * * //

dimensions      [0 0 0 1 0 0 0];

internalField   nonuniform List<scalar> 
3200
(
1.45422
16.5006
21.2188
21.5625
22.6172
22.7073
22.9862
23.0104
23.0265
23.0252
22.914
22.9024
22.7878
22.7643
22.4277
22.3568
21.2455
21.1518
20.4072
20.3345
19.6957
19.6354
19.1128
19.0681
18.7653
18.723
18.2157
18.1316
16.9039
16.8032
15.9603
15.8787
15.1213
15.0554
14.5996
14.5039
13.0727
12.9522
11.9761
11.8845
11.0204
10.9325
10.0435
9.95751
9.19512
9.12404
8.49798
8.4449
8.06406
8.00227
7.13657
7.06838
6.50812
6.46293
6.14929
6.10153
5.45883
5.41122
5.10843
5.06648
4.61261
4.54007
3.55089
3.4599
2.64193
2.54881
1.62228
1.50788
0.340058
0.193106
-1.25249
-1.43659
-3.13375
-3.3455
-5.14119
-5.34783
-5.59377
-5.69783
-5.72886
-5.73651
3.7608
15.5204
20.1926
21.0203
22.0534
22.2778
22.5666
22.6294
22.6624
22.6622
22.5745
22.5476
22.4413
22.3869
22.0981
21.9376
21.0112
20.7966
20.1489
19.9804
19.4295
19.2903
18.8409
18.7365
18.4609
18.3628
17.9314
17.7416
16.7219
16.4948
15.7822
15.5947
14.9378
14.7833
14.3686
14.1492
12.9538
12.679
11.8396
11.6313
10.9076
10.707
9.94088
9.74215
9.08682
8.92342
8.38946
8.26625
7.92338
7.78292
7.07189
6.91889
6.44484
6.34063
6.05956
5.95071
5.42081
5.31201
5.03782
4.9389
4.53813
4.3724
3.54745
3.33948
2.62868
2.41165
1.5992
1.33064
0.298163
-0.0499145
-1.34653
-1.78785
-3.33867
-3.85116
-5.51765
-6.07242
-6.81749
-7.12691
-7.21801
-7.24033
5.59699
14.8236
19.3201
20.4698
21.5221
21.8456
22.1562
22.2496
22.2997
22.3027
22.2325
22.196
22.0928
22.0189
21.7634
21.5491
20.7483
20.4587
19.8714
19.6416
19.1468
18.9576
18.5553
18.4117
18.1493
18.016
17.6375
17.3849
16.5084
16.2058
15.5831
15.3295
14.7342
14.5216
14.1298
13.8336
12.7981
12.4284
11.678
11.3986
10.7739
10.5042
9.8156
9.54508
8.95886
8.73765
8.26452
8.0964
7.77463
7.58643
6.9849
6.78228
6.36678
6.22542
5.96296
5.81675
5.36596
5.21942
4.96022
4.82341
4.45425
4.23111
3.51933
3.23919
2.59569
2.29831
1.55437
1.18395
0.228886
-0.255001
-1.47481
-2.09475
-3.58514
-4.31068
-5.93861
-6.78942
-8.05866
-8.56475
-8.70995
-8.74507
7.06409
14.3159
18.5814
19.9233
21.0199
21.4141
21.7544
21.8716
21.939
21.9462
21.8893
21.8471
21.7432
21.6583
21.4271
21.184
20.4651
20.1329
19.5798
19.3134
18.852
18.6335
18.2594
18.0918
17.8327
17.679
17.3386
17.0532
16.2719
15.9297
15.3693
15.0781
14.5153
14.2672
13.8872
13.5476
12.6159
12.193
11.4976
11.1799
10.626
10.3182
9.67365
9.36069
8.81634
8.562
8.12743
7.93274
7.62057
7.4065
6.882
6.65421
6.27779
6.11509
5.86174
5.69499
5.29897
5.13137
4.87774
4.71723
4.36456
4.10939
3.47396
3.15344
2.54886
2.20283
1.4946
1.06064
0.140753
-0.430666
-1.62709
-2.36685
-3.86223
-4.73414
-6.39069
-7.48973
-9.33041
-10.0171
-10.2063
-10.2513
8.24109
13.9277
17.9597
19.3865
20.5458
20.9847
21.3615
21.4956
21.5807
21.5923
21.5455
21.5007
21.3929
21.3035
21.0913
20.8381
20.1665
19.8159
19.2767
18.9932
18.5475
18.3157
17.9554
17.7756
17.5119
17.3496
17.0376
16.7415
16.0179
15.6624
15.1447
14.8375
14.284
14.0181
13.643
13.2854
12.4133
11.9687
11.3021
10.9707
10.4684
10.1457
9.5185
9.18561
8.66229
8.39362
7.9808
7.77383
7.46264
7.23903
6.76728
6.53213
6.1803
6.00842
5.75709
5.58245
5.22287
5.04678
4.79157
4.61876
4.27098
4.00289
3.41601
3.07906
2.4917
2.12185
1.42386
0.956766
0.0386696
-0.581348
-1.79767
-2.60877
-4.16431
-5.12626
-6.86512
-8.16044
-10.6484
-11.4894
-11.7086
-11.7593
9.19058
13.6057
17.4421
18.8604
20.1005
20.5578
20.9785
21.1216
21.2253
21.2408
21.2017
21.157
21.0419
20.9537
20.7573
20.5089
19.8552
19.5066
18.9634
18.6795
18.2346
18.0031
17.6441
17.4628
17.1871
17.0262
16.736
16.4469
15.7493
15.4017
14.9119
14.607
14.0412
13.7735
13.3982
13.0438
12.1937
11.7533
11.0933
10.7684
10.3036
9.98552
9.35165
9.01821
8.49811
8.23106
7.82599
7.61914
7.30126
7.08155
6.64314
6.41476
6.07565
5.90497
5.64942
5.47733
5.13948
4.9654
4.70213
4.52732
4.17424
3.90917
3.34809
3.01471
2.42584
2.05399
1.34388
0.870923
-0.0753505
-0.708199
-1.98448
-2.82094
-4.49018
-5.48737
-7.35736
-8.78351
-12.0323
-12.9866
-13.2176
-13.2694
9.96344
13.3068
17.0213
18.3415
19.6865
20.1324
20.6065
20.7493
20.8736
20.8916
20.8582
20.8161
20.6899
20.6084
20.4254
20.1961
19.5317
19.2051
18.6399
18.3723
17.9132
17.6956
17.3259
17.1538
16.8578
16.7081
16.4344
16.1687
15.4667
15.1467
14.6717
14.3869
13.7866
13.5332
13.1527
12.8222
11.9579
11.5467
10.8712
10.5717
10.1331
9.83801
9.17284
8.85835
8.32387
8.07409
7.66331
7.46896
7.136
6.93286
6.51065
6.30187
5.96431
5.80496
5.53845
5.37889
5.04956
4.88761
4.60918
4.44304
4.07401
3.82732
3.27107
2.9606
2.35131
1.99967
1.25441
0.804005
-0.201922
-0.809334
-2.18892
-2.99984
-4.84298
-5.81362
-7.86742
-9.33374
-13.5081
-14.5128
-14.7338
-14.7816
10.6025
12.9929
16.6962
17.8216
19.3086
19.7059
20.2479
20.3777
20.5262
20.5445
20.515
20.4786
20.3362
20.2671
20.0954
19.9007
19.1948
18.9132
18.3046
18.0728
17.5822
17.3944
16.9998
16.8499
16.5227
16.395
16.1326
15.908
15.1689
14.898
14.424
14.1795
13.5182
13.2981
12.9052
12.622
11.7039
11.3508
10.6341
10.3807
9.95688
9.70537
8.98008
8.70735
8.13831
7.92362
7.49203
7.32437
6.96561
6.79299
6.36967
6.19418
5.84588
5.70928
5.42323
5.28728
4.95299
4.81452
4.51177
4.3669
3.96891
3.75786
3.18423
2.91845
2.26649
1.9611
1.15315
0.7593
-0.344446
-0.879602
-2.41614
-3.13749
-5.23072
-6.09659
-8.40103
-9.77571
-15.1107
-16.0704
-16.2571
-16.2958
11.146
12.6266
16.4742
17.2872
18.9742
19.2736
19.9058
20.0054
20.184
20.1993
20.1722
20.1454
19.9796
19.9301
19.7663
19.6259
18.8409
18.6345
17.9542
17.7837
17.2392
17.1014
16.664
16.5531
16.1797
16.0874
15.8294
15.668
14.8525
14.6575
14.1672
13.9889
13.2322
13.07
12.6535
12.4472
11.4275
11.1696
10.3786
10.1965
9.77383
9.59173
8.76926
8.56825
7.93862
7.78186
7.31024
7.18746
6.78781
6.66318
6.21882
6.09343
5.71902
5.6196
5.30204
5.20362
4.8486
4.74802
4.40807
4.30091
3.85635
3.70292
3.0851
2.89175
2.16781
1.94263
1.03532
0.742986
-0.509725
-0.909831
-2.67598
-3.2203
-5.6676
-6.32206
-8.97188
-10.0593
-16.8883
-17.659
-17.7863
-17.8116
11.6302
12.1655
16.3736
16.7179
18.6953
18.8281
19.585
19.63
19.8484
19.8558
19.8294
19.8178
19.6183
19.5976
19.4364
19.3769
18.464
18.3748
17.5835
17.5097
16.8799
16.8205
16.3152
16.2669
15.8255
15.7864
15.5223
15.4542
14.5113
14.4289
13.8979
13.8214
12.9224
12.8521
12.3933
12.305
11.1206
11.0096
10.0987
10.022
9.58119
9.50374
8.53362
8.44632
7.72005
7.65273
7.11452
7.06166
6.59903
6.54618
6.05523
6.00267
5.58119
5.53867
5.17211
5.13025
4.73406
4.69112
4.29507
4.24843
3.73215
3.66657
2.969
2.88629
2.04918
1.95145
0.892889
0.765083
-0.709116
-0.885429
-2.98471
-3.227
-6.17621
-6.46775
-9.60526
-10.1133
-18.9084
-19.2734
-19.3196
-19.3284
20.087
20.2373
23.9381
24.1134
24.6701
24.6943
24.7135
24.7038
24.5649
24.544
24.3343
24.3065
23.9873
23.9569
23.731
23.6637
22.6447
22.5516
21.7779
21.7047
21.0932
21.0324
20.4953
20.4421
19.9345
19.8806
19.3196
19.2544
18.6221
18.5624
18.2
18.1348
17.2789
17.2145
16.8057
16.7253
15.6047
15.5061
14.7382
14.6721
14.2824
14.2094
13.2434
13.1608
12.5096
12.4457
11.9124
11.862
11.5418
11.4757
10.572
10.4915
9.819
9.757
9.35147
9.26383
8.01017
7.90604
7.2021
7.05857
4.95753
4.76904
3.03946
2.85957
1.04783
0.852683
-1.18876
-1.40622
-3.69379
-3.9315
-6.42423
-6.67581
-9.33283
-9.57073
-11.9864
-12.0994
-12.116
-12.1196
-12.1204
-12.1206
21.1401
21.4549
24.323
24.6924
25.1586
25.2101
25.217
25.192
25.0622
25.0117
24.8229
24.7586
24.4897
24.4177
24.1968
24.0394
23.1721
22.9569
22.2865
22.1164
21.5835
21.4423
20.9773
20.8554
20.4259
20.3026
19.8194
19.6664
19.1027
18.9585
18.6102
18.4582
17.7444
17.5965
17.2252
17.0384
16.0848
15.8566
15.1872
15.0298
14.6553
14.4845
13.6727
13.4831
12.9149
12.7656
12.2965
12.1756
11.8644
11.7099
10.9496
10.7645
10.1797
10.0318
9.64099
9.43745
8.38965
8.14726
7.48844
7.15856
5.41439
4.98706
3.50849
3.09607
1.54718
1.10024
-0.638533
-1.13515
-3.07634
-3.61728
-5.7225
-6.29139
-8.51113
-9.04094
-11.0032
-11.2538
-11.3004
-11.3107
-11.313
-11.3136
22.1806
22.5703
24.8077
25.2676
25.6636
25.7276
25.7217
25.6843
25.5563
25.4849
25.3066
25.2188
24.9842
24.8846
24.6601
24.4434
23.6735
23.3805
22.7751
22.5426
22.0582
21.8651
21.4457
21.281
20.9051
20.739
20.3061
20.0949
19.5664
19.3628
19.0127
18.8041
18.1873
17.9874
17.6372
17.3823
16.5359
16.2247
15.6158
15.3962
15.02
14.7853
14.0772
13.8206
13.3035
13.0983
12.6667
12.4967
12.1808
11.9682
11.3042
11.0536
10.523
10.3164
9.92305
9.64486
8.73693
8.40515
7.76164
7.31514
5.81859
5.24715
3.93488
3.37803
2.00246
1.39948
-0.137981
-0.806291
-2.51489
-3.24049
-5.08222
-5.84093
-7.75702
-8.45386
-10.0884
-10.4164
-10.4861
-10.502
-10.5058
-10.5066
23.2055
23.6117
25.3635
25.8453
26.182
26.2479
26.2278
26.1803
26.0481
25.9623
25.7867
25.685
25.4733
25.3565
25.1231
24.8697
24.1557
23.8165
23.2488
22.979
22.5212
22.297
21.9039
21.7151
21.376
21.1862
20.7839
20.536
20.0172
19.773
19.4095
19.1663
18.6136
18.3844
18.0455
17.7499
16.9656
16.6048
16.0288
15.7689
15.3791
15.1051
14.4636
14.1685
13.6796
13.4401
13.0265
12.8238
12.4931
12.2447
11.6423
11.3539
10.8533
10.6085
10.2005
9.87748
9.06119
8.67553
8.02699
7.51374
6.18581
5.5369
4.33108
3.69277
2.42685
1.73611
0.327817
-0.435807
-1.99276
-2.81905
-4.48525
-5.34418
-7.05167
-7.82927
-9.22592
-9.58935
-9.67408
-9.69391
-9.69857
-9.69962
24.214
24.5993
25.9701
26.4288
26.7111
26.7717
26.7349
26.6798
26.5382
26.4434
26.2639
26.1555
25.9587
25.833
25.587
25.3143
24.6231
24.2618
23.7106
23.4229
22.975
22.7357
22.3539
22.1552
21.8409
21.6418
21.2555
20.9881
20.4571
20.188
19.8016
19.541
19.0269
18.7859
18.4521
18.137
17.3785
16.9935
16.4292
16.1469
15.7335
15.4396
14.8363
14.5242
14.0458
13.7889
13.3779
13.156
12.8022
12.5354
11.9679
11.6628
11.1734
10.9072
10.4746
10.1299
9.36826
8.95647
8.28696
7.74497
6.5259
5.84895
4.7046
4.03263
2.82825
2.10146
0.767846
-0.0335762
-1.49984
-2.364
-3.92057
-4.81347
-6.38352
-7.17991
-8.40473
-8.77343
-8.86462
-8.88639
-8.89154
-8.8927
25.207
25.5473
26.6131
27.0194
27.2491
27.2993
27.2428
27.1827
27.0263
26.928
26.7383
26.6297
26.4413
26.3144
26.0519
25.7758
25.0773
24.7147
24.1619
23.8733
23.4204
23.1802
22.7967
22.6001
22.3012
22.105
21.7225
21.4507
20.8865
20.6077
20.1886
19.9259
19.4294
19.1911
18.8579
18.542
17.7764
17.3895
16.8184
16.5302
16.0833
15.7865
15.1973
14.8866
14.4031
14.1439
13.7217
13.4935
13.1078
12.8381
12.283
11.979
11.4846
11.2126
10.7453
10.399
9.66138
9.24775
8.54187
8.00332
6.84434
6.17974
5.05926
4.39382
3.21057
2.4911
1.18661
0.395265
-1.03099
-1.88124
-3.38242
-4.25568
-5.74632
-6.51342
-7.6178
-7.96861
-8.05794
-8.07953
-8.08467
-8.08583
26.1864
26.4662
27.2824
27.6169
27.7943
27.8313
27.7509
27.6894
27.5122
27.4162
27.2095
27.1071
26.9215
26.8013
26.5175
26.2542
25.518
25.1752
24.6028
24.3303
23.8574
23.6304
23.232
23.049
22.7575
22.5757
22.185
21.9251
21.3045
21.0331
20.5695
20.3202
19.8216
19.6001
19.2632
18.9649
18.1593
17.7928
17.1963
16.9198
16.4271
16.1452
15.5473
15.256
14.7516
14.5055
14.0579
13.8374
13.4088
13.1524
12.5881
12.3029
11.787
11.5258
11.0111
10.6838
9.94158
9.55076
8.79012
8.28652
7.14305
6.52879
5.39574
4.77575
3.57437
2.90417
1.58486
0.849518
-0.585173
-1.37243
-2.86939
-3.67319
-5.13805
-5.83343
-6.86101
-7.17425
-7.25397
-7.27333
-7.27796
-7.279
27.1544
27.3636
27.971
28.2207
28.3451
28.368
28.2583
28.2009
27.9949
27.9089
27.6765
27.5878
27.399
27.2948
26.9822
26.7515
25.9431
25.645
25.0316
24.7954
24.2845
24.0875
23.6588
23.5023
23.2094
23.0548
22.6424
22.414
21.7086
21.4662
20.9418
20.7244
20.2028
20.0138
19.6669
19.4083
18.5246
18.2055
17.5615
17.3182
16.7625
16.5165
15.885
15.6339
15.0897
14.8751
14.385
14.1897
13.7029
13.4789
12.8821
12.6361
12.0792
11.8491
11.2695
10.9852
10.2078
9.8686
9.02812
8.59535
7.42061
6.89862
5.71173
5.18095
3.91694
3.34322
1.95977
1.33176
-0.165238
-0.835225
-2.38407
-3.06424
-4.56056
-5.14016
-6.13279
-6.38923
-6.45241
-6.46773
-6.47139
-6.47222
28.1141
28.245
28.6738
28.8296
28.9
28.91
28.7636
28.7183
28.4728
28.4074
28.1378
28.0725
27.8733
27.7966
27.4437
27.272
26.3478
26.1274
25.4454
25.2715
24.6992
24.5539
24.0747
23.9611
23.6559
23.5442
23.0924
22.9219
22.0943
21.9106
21.3018
21.1409
20.5706
20.4338
20.0672
19.8766
18.8674
18.6311
17.9106
17.7291
17.0856
16.9033
16.2076
16.0236
15.4147
15.2559
14.7003
14.5536
13.9866
13.8204
13.1621
12.9818
12.3584
12.1866
11.5161
11.3064
10.4564
10.2065
9.24985
8.93389
7.6721
7.29506
6.00149
5.6155
4.23191
3.81468
2.30447
1.84877
0.221627
-0.262859
-1.93349
-2.42265
-4.01974
-4.43036
-5.43402
-5.61194
-5.65277
-5.6626
-5.66495
-5.66548
29.0684
29.1145
29.3875
29.4418
29.4573
29.4582
29.2648
29.2437
28.9435
28.9142
28.5909
28.5627
28.3426
28.3095
27.898
27.8226
26.7244
26.6283
25.8389
25.7635
25.0967
25.0337
24.476
24.4276
24.0946
24.0473
23.5313
23.4562
22.4542
22.3721
21.644
21.5738
20.9212
20.8631
20.4604
20.3777
19.1793
19.0761
18.2383
18.1585
17.3902
17.3107
16.5097
16.4303
15.7218
15.6525
14.9993
14.9344
14.2543
14.1817
13.423
13.3452
12.6195
12.5439
11.7443
11.6532
10.6811
10.5727
9.44596
9.31028
7.8882
7.72819
6.25497
6.08997
4.50824
4.32986
2.607
2.41265
0.56279
0.356958
-1.53017
-1.73674
-3.52637
-3.69685
-4.76827
-4.84014
-4.85438
-4.85776
-4.85857
-4.85875
28.694
28.7447
29.0558
29.1236
29.2642
29.2815
29.209
29.2019
29.0137
28.996
28.7612
28.742
28.5722
28.5496
28.2631
28.2119
27.3962
27.3187
26.5725
26.4983
25.8603
25.7985
25.2684
25.2224
24.9118
24.8682
24.3932
24.3249
23.4133
23.3396
22.6928
22.6312
22.05
21.9989
21.639
21.5619
20.4147
20.3139
19.4689
19.3864
18.5843
18.4978
17.6049
17.5133
16.6864
16.603
15.8409
15.7665
15.1002
15.0401
14.6177
14.5425
13.5202
13.4388
12.9133
12.8224
11.6136
11.5174
10.9207
10.8284
9.84941
9.68544
7.46998
7.2715
5.55997
5.38193
3.72551
3.54471
1.8145
1.61853
-0.290402
-0.507144
-2.43462
-2.63009
-3.78534
-3.87142
-3.88951
-3.89388
-3.89493
-3.89516
27.6997
27.8434
28.3225
28.5133
28.7064
28.7568
28.7227
28.7112
28.5669
28.5293
28.3395
28.2964
28.1494
28.0982
27.8559
27.7424
27.0756
26.8992
26.2492
26.0759
25.52
25.3765
24.9185
24.8104
24.5258
24.4231
24.0084
23.8536
23.1019
22.9372
22.3967
22.2561
21.7529
21.6333
21.3057
21.1286
20.1658
19.935
19.2063
19.018
18.344
18.1455
17.3693
17.156
16.438
16.245
15.5883
15.4165
14.8416
14.6999
14.3082
14.1344
13.2811
13.0923
12.6047
12.3939
11.3816
11.1574
10.5981
10.3768
9.49726
9.12003
7.26537
6.81113
5.32688
4.91323
3.47113
3.04972
1.53826
1.08026
-0.593215
-1.10732
-2.85161
-3.33035
-4.46243
-4.68061
-4.73271
-4.74542
-4.74847
-4.74913
26.6997
26.9287
27.6007
27.9029
28.1543
28.2355
28.2355
28.2258
28.1159
28.0688
27.9119
27.8549
27.7229
27.6544
27.4435
27.2951
26.7353
26.4987
25.9067
25.6689
25.1633
24.967
24.5546
24.4054
24.1325
23.9905
23.6132
23.4063
22.767
22.5498
22.0846
21.8955
21.4404
21.2761
20.9664
20.7267
19.8877
19.5761
18.922
18.6692
18.0847
17.8164
17.1113
16.819
16.1688
15.9055
15.3163
15.0825
14.5657
14.3698
13.9901
13.7535
13.0154
12.7577
12.285
11.9975
11.118
10.8108
10.2619
9.95152
9.12504
8.61373
7.00476
6.39198
5.05097
4.48568
3.17593
2.59834
1.21991
0.590621
-0.942392
-1.65829
-3.31922
-4.00446
-5.17605
-5.49642
-5.57746
-5.59732
-5.60207
-5.6031
25.6904
25.9963
26.8936
27.2945
27.609
27.7174
27.7488
27.7445
27.6624
27.6127
27.4804
27.4166
27.2938
27.2163
27.0287
26.8643
26.3822
26.1125
25.5502
25.2726
24.7943
24.5663
24.1802
24.0054
23.7341
23.5673
23.2113
22.9762
22.4153
22.1724
21.7616
21.5455
21.1164
20.9247
20.6244
20.3489
19.5885
19.2309
18.6218
18.3336
17.8128
17.5048
16.8368
16.4964
15.8841
15.579
15.0302
14.76
14.277
14.0471
13.6663
13.3927
12.7305
12.4318
11.9579
11.6248
10.8317
10.4739
9.91616
9.54692
8.74024
8.15138
6.70433
6.002
4.74407
4.08793
2.85147
2.17902
0.871605
0.137148
-1.32424
-2.17143
-3.82584
-4.6591
-5.92371
-6.32178
-6.42463
-6.44978
-6.45579
-6.45708
24.6689
25.0401
26.2064
26.6895
27.0719
27.2025
27.2635
27.2663
27.2076
27.1599
27.0462
26.9806
26.863
26.7827
26.6131
26.4462
26.0206
25.7381
25.1823
24.8844
24.4153
24.1719
23.7974
23.6093
23.3315
23.1517
22.8045
22.5592
22.051
21.8017
21.4308
21.2042
20.783
20.5777
20.2814
19.9906
19.2733
18.8958
18.3088
18.0074
17.5324
17.2077
16.5493
16.1847
15.5871
15.2624
14.733
14.446
13.9782
13.7305
13.3383
13.0475
12.4311
12.113
11.6252
11.2705
10.5279
10.1451
9.56298
9.15986
8.34679
7.7234
6.37416
5.63427
4.41314
3.71344
2.50448
1.78513
0.500412
-0.287224
-1.73063
-2.65227
-4.36528
-5.29647
-6.70599
-7.15891
-7.27486
-7.30296
-7.30964
-7.31108
23.6324
24.052
25.5465
26.0886
26.5449
26.6904
26.7806
26.7906
26.7525
26.7098
26.6101
26.5467
26.4307
26.3527
26.1973
26.0385
25.6534
25.3746
24.8041
24.5031
24.0273
23.7828
23.4072
23.2169
22.9251
22.743
22.3938
22.1528
21.6763
21.436
21.0943
20.8707
20.441
20.2345
19.9383
19.6493
18.9445
18.5692
17.9845
17.6883
17.2461
16.9239
16.25
15.8823
15.2793
14.9541
14.4262
14.1393
13.6707
13.4198
13.0062
12.7155
12.1198
11.801
11.2873
10.9318
10.2098
9.82428
9.20269
8.78926
7.9458
7.3245
6.01967
5.28585
4.06139
3.35936
2.13795
1.41389
0.109367
-0.685339
-2.15787
-3.10144
-4.93598
-5.91468
-7.5265
-8.00948
-8.12855
-8.15695
-8.16365
-8.16508
22.5791
23.0208
24.9246
25.4911
26.0304
26.1805
26.3009
26.3169
26.2976
26.262
26.1726
26.115
25.9969
25.9258
25.7818
25.6399
25.282
25.0229
24.4153
24.1288
23.6302
23.399
23.0096
22.8286
22.5144
22.3409
21.9788
21.7559
21.2922
21.0744
20.7531
20.5455
20.0901
19.8948
19.595
19.3248
18.6026
18.251
17.6487
17.375
16.9551
16.6543
15.9386
15.5895
14.9605
14.6539
14.1098
13.8399
13.3546
13.1156
12.6693
12.3956
11.7975
11.4968
10.9431
10.6079
9.87838
9.51299
8.83413
8.43591
7.53598
6.953
5.64239
4.9571
3.6888
3.02609
1.75156
1.0659
-0.302042
-1.05631
-2.60625
-3.51495
-5.5409
-6.50754
-8.39214
-8.87456
-8.98582
-9.01174
-9.01781
-9.0191
21.5081
21.9311
24.3562
24.8946
25.5315
25.6718
25.8255
25.8446
25.8434
25.8165
25.7338
25.6858
25.5614
25.5019
25.3663
25.2501
24.9066
24.6852
24.0136
23.7631
23.2224
23.0216
22.6038
22.4457
22.098
21.9465
21.5583
21.3687
20.8984
20.717
20.4074
20.2303
19.7289
19.5594
19.2506
19.0184
18.246
17.9429
17.2998
17.0676
16.6594
16.4014
15.6126
15.3079
14.6288
14.3633
13.7825
13.5492
13.0287
12.8197
12.3256
12.0888
11.4634
11.2028
10.5903
10.2997
9.53239
9.21428
8.45439
8.10268
7.11352
6.61065
5.24014
4.65171
3.29201
2.71733
1.34164
0.745234
-0.737969
-1.39544
-3.08026
-3.88375
-6.18816
-7.06366
-9.31383
-9.75444
-9.84646
-9.86728
-9.87211
-9.87314
20.42
20.7613
23.8632
24.2942
25.0525
25.1627
25.3555
25.3732
25.3903
25.3732
25.2937
25.2597
25.1232
25.0811
24.95
24.8694
24.5265
24.3655
23.5952
23.409
22.8011
22.653
22.1876
22.0705
21.6739
21.5615
21.1298
20.9928
20.493
20.3648
20.0565
19.9281
19.3544
19.2297
18.9031
18.7336
17.8706
17.6485
16.9345
16.7673
16.3577
16.1697
15.2673
15.0413
14.2806
14.0853
13.4413
13.2701
12.6903
12.5353
11.9716
11.7976
11.1148
10.923
10.2246
10.0107
9.16848
8.93328
8.05837
7.79499
6.67166
6.30304
4.80664
4.3772
2.86386
2.44065
0.900586
0.460063
-1.2069
-1.69345
-3.5895
-4.1925
-6.89257
-7.56477
-10.3079
-10.6482
-10.7099
-10.7234
-10.7265
-10.7272
19.3183
19.481
23.477
23.6807
24.5993
24.6502
24.8925
24.9019
24.9385
24.9324
24.8519
24.8377
24.6813
24.6639
24.5317
24.4991
24.1391
24.0702
23.1534
23.0719
22.3614
22.2971
21.7575
21.7064
21.2384
21.1894
20.6896
20.6314
20.0728
20.0198
19.6984
19.6437
18.962
18.908
18.5494
18.4767
17.4697
17.3737
16.5474
16.4768
16.0472
15.9667
14.895
14.7962
13.9099
13.8253
13.0813
13.0073
12.335
12.2673
11.602
11.5268
10.7465
10.6634
9.83953
9.74684
8.78032
8.6779
7.63791
7.52172
6.19963
6.04057
4.33049
4.14607
2.39212
2.20865
0.415565
0.223965
-1.72304
-1.93507
-4.15046
-4.41735
-7.67808
-7.98303
-11.398
-11.5532
-11.5753
-11.5799
-11.581
-11.5812
21.1761
21.2061
21.9481
21.9746
21.9406
21.9288
21.8062
21.7618
21.0626
21.0007
20.4904
20.4447
20.0304
19.9925
19.6962
19.6358
18.9428
18.8337
17.4594
17.3493
16.5017
16.4284
15.86
15.812
15.5023
15.4454
14.8091
14.711
13.5042
13.4135
12.8696
12.7913
11.7864
11.6957
10.84
10.7484
9.93905
9.85436
9.17715
9.11773
8.75012
8.66016
7.3649
7.24833
6.33839
6.24846
5.48747
5.41682
4.93961
4.84082
3.33979
3.19385
1.78094
1.63621
0.356329
0.22049
-1.08869
-1.21305
-2.14114
-2.33349
-5.19328
-5.44123
-7.67374
-7.89325
-10.0271
-10.2448
-12.44
-12.6659
-14.9982
-15.2333
-17.6748
-17.9176
-20.5344
-20.7635
-23.055
-23.4034
-29.4001
-29.6488
-29.6803
-29.6862
21.6768
21.7395
22.3122
22.3655
22.3288
22.2987
22.176
22.0722
21.4779
21.3357
20.8998
20.796
20.4488
20.3607
20.0833
19.9367
19.2979
19.0444
17.8981
17.6479
16.9201
16.7509
16.2582
16.1457
15.8596
15.7224
15.137
14.9087
13.8981
13.6887
13.1931
13.0141
12.1859
11.9807
11.2455
11.0299
10.2983
10.0969
9.50087
9.35968
9.01082
8.80028
7.69269
7.42184
6.62429
6.41413
5.74902
5.58095
5.12988
4.90474
3.67347
3.34053
2.10422
1.76618
0.652345
0.337521
-0.789732
-1.08327
-1.95021
-2.39114
-4.75646
-5.31648
-7.21574
-7.71718
-9.53476
-10.0321
-11.8979
-12.4124
-14.385
-14.9183
-16.972
-17.5175
-19.6843
-20.1933
-22.0975
-22.839
-27.4937
-28.0186
-28.1051
-28.1223
22.1751
22.2526
22.6971
22.7601
22.7168
22.6723
22.5451
22.4022
21.8751
21.6824
21.2959
21.1571
20.8569
20.7364
20.4652
20.2573
19.6375
19.2908
18.3011
17.9656
17.3163
17.0864
16.6413
16.4863
16.2111
16.0174
15.4507
15.1377
14.2599
13.9755
13.504
13.2628
12.5604
12.287
11.6302
11.3321
10.6363
10.3553
9.80643
9.60995
9.26602
8.9763
7.98703
7.61644
6.88671
6.59802
5.99071
5.75642
5.31113
5.00892
3.97124
3.52336
2.39158
1.92719
0.916415
0.487063
-0.524107
-0.930533
-1.77631
-2.37179
-4.39185
-5.13815
-6.81363
-7.48846
-9.09521
-9.76461
-11.4098
-12.1006
-13.8294
-14.5425
-16.3296
-17.0526
-18.9005
-19.5674
-21.1866
-22.118
-25.7524
-26.4058
-26.5328
-26.5591
22.6702
22.751
23.0973
23.159
23.1048
23.0492
22.9149
22.7476
22.2589
22.0369
21.6821
21.5246
21.2578
21.1182
20.8445
20.5945
19.9663
19.5631
18.6779
18.2959
17.6956
17.4305
17.0128
16.8318
16.5593
16.3273
15.7543
15.3893
14.5981
14.2697
13.8057
13.53
12.9179
12.6087
12.0005
11.6503
10.9578
10.6244
10.0979
9.86617
9.51909
9.18035
8.25667
7.82545
7.13152
6.7947
6.21752
5.94037
5.48668
5.14256
4.24545
3.73358
2.65228
2.11009
1.15725
0.659898
-0.282652
-0.760206
-1.6124
-2.29545
-4.07816
-4.92263
-6.45154
-7.22244
-8.69314
-9.45809
-10.9599
-11.7472
-13.3144
-14.1236
-15.7297
-16.5427
-18.1639
-18.9034
-20.3031
-21.289
-24.1303
-24.8141
-24.9645
-24.9969
23.1622
23.2388
23.5088
23.5625
23.4929
23.4293
23.286
23.106
22.6322
22.3967
22.0605
21.8966
21.6537
21.5054
21.223
20.9468
20.2861
19.8546
19.0346
18.6349
18.0617
17.7808
17.3749
17.181
16.906
16.6509
16.0497
15.6581
14.9178
14.5695
14.0999
13.8107
13.2632
12.9425
12.3607
11.9821
11.265
10.9012
10.3777
10.127
9.77188
9.40785
8.50665
8.04502
7.3621
7.00103
6.43236
6.13141
5.65789
5.29835
4.50429
3.96662
2.89144
2.30944
1.37989
0.850568
-0.0597709
-0.574868
-1.45523
-2.17509
-3.80198
-4.6797
-6.11974
-6.92841
-8.31929
-9.12208
-10.5385
-11.3626
-12.8297
-13.673
-15.1615
-16.0004
-17.4626
-18.2129
-19.4362
-20.3857
-22.5946
-23.2437
-23.4008
-23.436
23.651
23.7188
23.9291
23.9709
23.8808
23.8127
23.6586
23.4761
22.9959
22.7607
22.4321
22.2718
22.0459
21.898
21.6013
21.3146
20.5968
20.1618
19.3747
18.981
18.4161
18.1362
17.7286
17.5335
17.2519
16.9884
16.3367
15.9408
15.222
14.8742
14.387
14.1018
13.5996
13.2867
12.7127
12.3276
11.5581
11.1846
10.6466
10.3922
10.0251
9.65689
8.73912
8.2735
7.57986
7.21571
6.63655
6.3294
5.82459
5.47156
4.75292
4.22119
3.11092
2.52272
1.58656
1.05651
0.147329
-0.374892
-1.30445
-2.01842
-3.55574
-4.41426
-5.81318
-6.61108
-7.96894
-8.76151
-10.1408
-10.9523
-12.37
-13.1964
-14.6193
-15.4333
-16.7898
-17.5036
-18.5802
-19.432
-21.1212
-21.693
-21.842
-21.8764
24.1372
24.1932
24.3561
24.3847
24.2678
24.1995
24.0325
23.8582
23.3499
23.1284
22.7969
22.6497
22.4351
22.2966
21.9793
21.6997
20.8963
20.4832
19.699
19.3341
18.7592
18.4967
18.0739
17.8896
17.5972
17.3416
16.6135
16.2366
15.5113
15.1845
14.6661
14.4017
13.9285
13.6414
13.0573
12.6886
11.8355
11.4745
10.9043
10.6618
10.2784
9.92797
8.95355
8.51115
7.78448
7.43904
6.8299
6.53535
5.98527
5.65944
4.99411
4.49895
3.30955
2.74996
1.77702
1.27764
0.338978
-0.158593
-1.16227
-1.82879
-3.33662
-4.12718
-5.53063
-6.27132
-7.64118
-8.37746
-9.76584
-10.5177
-11.9339
-12.696
-14.1015
-14.8444
-16.1426
-16.7797
-17.7332
-18.4448
-19.6925
-20.1591
-20.2878
-20.3183
24.6212
24.6634
24.7885
24.8043
24.6529
24.5904
24.4066
24.2537
23.6925
23.5005
23.1545
23.0303
22.8212
22.7025
22.3558
22.1058
21.1803
20.8194
20.0066
19.6956
19.0899
18.8638
18.4096
18.25
17.941
17.7137
16.8764
16.5463
15.7848
15.5026
14.9351
14.71
14.25
14.0081
13.3933
13.0689
12.0932
11.7729
11.1489
10.9372
10.5304
10.2241
9.14676
8.76022
7.97391
7.67297
7.01071
6.75156
6.13701
5.86095
5.22853
4.80452
3.48302
2.99377
1.94856
1.51638
0.51301
0.0779747
-1.03355
-1.60548
-3.14617
-3.81556
-5.27457
-5.90637
-7.33874
-7.9673
-9.4163
-10.0566
-11.5239
-12.1699
-13.6101
-14.2333
-15.522
-16.0431
-16.8959
-17.4361
-18.295
-18.6387
-18.7375
-18.7613
25.1035
25.1302
25.2253
25.2306
25.0345
24.9861
24.7796
24.6656
24.0204
23.8789
23.5032
23.4143
23.2038
23.1175
22.7285
22.539
21.4417
21.1738
20.2942
20.0689
19.4054
19.2399
18.7337
18.6164
18.2816
18.1102
17.1191
16.8734
16.0391
15.8321
15.1904
15.0278
14.5628
14.3898
13.7177
13.4754
12.3248
12.0835
11.377
11.2205
10.7785
10.5511
9.31237
9.02532
8.14396
7.92138
7.17543
6.98201
6.27525
6.07674
5.45465
5.14601
3.62324
3.25984
2.09561
1.77798
0.664329
0.341623
-0.926389
-1.3434
-2.99055
-3.47233
-5.05158
-5.50938
-7.06844
-7.52431
-9.09909
-9.56235
-11.1468
-11.612
-13.1514
-13.5956
-14.932
-15.2933
-16.0711
-16.4147
-16.918
-17.1282
-17.1901
-17.2052
25.5847
25.5943
25.6657
25.665
25.4103
25.3881
25.1488
25.0987
24.3282
24.2667
23.8405
23.8032
23.5814
23.5446
23.0933
23.0085
21.6699
21.5526
20.5557
20.4598
19.701
19.6298
19.0422
18.9916
18.6158
18.5395
17.3319
17.2241
16.2684
16.179
15.4266
15.3576
14.8639
14.7914
14.025
13.9182
12.52
12.4127
11.5832
11.5151
11.018
10.9185
9.43995
9.31422
8.28769
8.19076
7.31806
7.23303
6.39318
6.30949
5.66825
5.53609
3.71709
3.55796
2.2088
2.07144
0.784023
0.643096
-0.853256
-1.0321
-2.88153
-3.08519
-4.87344
-5.06834
-6.84226
-7.03655
-8.82634
-9.02325
-10.8144
-11.0111
-12.7366
-12.9221
-14.381
-14.5268
-15.2636
-15.3869
-15.5529
-15.6235
-15.6446
-15.6498
)
;

boundaryField
{
    F1_1
    {
        type            fixedValue;
        value           nonuniform List<scalar> 
80
(
0
17.1973
21.8195
21.8195
22.9183
22.9183
23.2011
23.2011
23.2089
23.2089
23.0818
23.0818
22.9592
22.9592
22.5872
22.5872
21.3424
21.3424
20.5229
20.5229
19.8172
19.8172
19.2391
19.2391
18.9124
18.9124
18.3494
18.3494
16.9723
16.9723
16.0342
16.0342
15.1992
15.1992
14.708
14.708
13.106
13.106
12.0266
12.0266
11.0612
11.0612
10.0787
10.0787
9.23546
9.23546
8.54079
8.54079
8.12802
8.12802
7.15296
7.15296
6.52946
6.52946
6.18884
6.18884
5.46594
5.46594
5.13852
5.13852
4.64223
4.64223
3.53465
3.53465
2.63406
2.63406
1.61757
1.61757
0.340588
0.340588
-1.2307
-1.2307
-3.061
-3.061
-4.98475
-4.98475
-4.98475
-4.98475
-4.98475
-4.98475
)
;
    }
    F1_2
    {
        type            fixedValue;
        value           nonuniform List<scalar> 
80
(
29.5447
29.5447
29.7487
29.7487
29.7363
29.7363
29.512
29.512
29.1734
29.1734
28.8116
28.8116
28.5735
28.5735
28.1184
28.1184
26.8927
26.8927
26.0214
26.0214
25.2835
25.2835
24.6665
24.6665
24.3082
24.3082
23.7418
23.7418
22.6157
22.6157
21.8019
21.8019
21.0846
21.0846
20.6506
20.6506
19.3134
19.3134
18.3869
18.3869
17.5288
17.5288
16.6463
16.6463
15.8625
15.8625
15.1371
15.1371
14.376
14.376
13.5398
13.5398
12.7371
12.7371
11.8442
11.8442
10.7762
10.7762
9.5242
9.5242
7.97102
7.97102
6.35555
6.35555
4.61834
4.61834
2.7277
2.7277
0.700493
0.700493
-1.36212
-1.36212
-3.31207
-3.31207
-4.4554
-4.4554
-4.4554
-4.4554
-4.4554
-4.4554
)
;
    }
    F1_3
    {
        type            fixedValue;
        value           nonuniform List<scalar> 
80
(
29.1901
29.1901
29.4273
29.4273
29.5456
29.5456
29.4508
29.4508
29.2337
29.2337
28.9678
28.9678
28.7806
28.7806
28.462
28.462
27.5418
27.5418
26.7208
26.7208
26.0189
26.0189
25.4337
25.4337
25.0994
25.0994
24.5775
24.5775
23.5523
23.5523
22.8292
22.8292
22.1879
22.1879
21.7999
21.7999
20.5183
20.5183
19.5849
19.5849
18.6901
18.6901
17.7066
17.7066
16.7957
16.7957
15.9534
15.9534
15.2174
15.2174
14.7654
14.7654
13.621
13.621
13.059
13.059
11.7074
11.7074
11.072
11.072
10.0092
10.0092
7.53195
7.53195
5.64585
5.64585
3.8232
3.8232
1.92193
1.92193
-0.172838
-0.172838
-2.26076
-2.26076
-3.46818
-3.46818
-3.46818
-3.46818
-3.46818
-3.46818
)
;
    }
    F1_4
    {
        type            fixedValue;
        value           nonuniform List<scalar> 
80
(
25.8251
25.8251
25.8873
25.8873
25.5935
25.5935
25.3297
25.3297
24.4679
24.4679
24.0014
24.0014
23.7665
23.7665
23.2683
23.2683
21.7597
21.7597
20.6685
20.6685
19.8351
19.8351
19.1857
19.1857
18.7769
18.7769
17.4163
17.4163
16.3657
16.3657
15.5311
15.5311
15.0061
15.0061
14.1654
14.1654
12.5918
12.5918
11.6711
11.6711
11.1298
11.1298
9.47669
9.47669
8.34096
8.34096
7.37363
7.37363
6.43702
6.43702
5.76487
5.76487
3.73082
3.73082
2.24117
2.24117
0.820944
0.820944
-0.843037
-0.843037
-2.85993
-2.85993
-4.81623
-4.81623
-6.76077
-6.76077
-8.72182
-8.72182
-10.6801
-10.6801
-12.56
-12.56
-14.1318
-14.1318
-14.8722
-14.8722
-14.8722
-14.8722
-14.8722
-14.8722
)
;
    }
    F2_1
    {
        type            fixedValue;
        value           nonuniform List<scalar> 
80
(
11.8616
11.8616
16.4005
16.4005
18.5928