/*--------------------------------*- C++ -*----------------------------------*\
| =========                 |                                                 |
| \\      /  F ield         | OpenFOAM: The Open Source CFD Toolbox           |
|  \\    /   O peration     | Version:  5.x                                   |
|   \\  /    A nd           | Web:      www.OpenFOAM.org                      |
|    \\/     M anipulation  |                                                 |
\*---------------------------------------------------------------------------*/
FoamFile
{
    version     2.0;
    format      ascii;
    class       volScalarField;
    location    "0.2";
    object      gradTy;
}
// * * * * * * * * * * * * * * * * * * * * * * * * * * * * * * * * * * * * * //

dimensions      [0 -1 0 1 0 0 0];

internalField   nonuniform List<scalar> 
2048
(
-25.6859
-25.6934
-25.7078
-25.7278
-25.7518
-25.7771
-25.8008
-25.8192
-25.8283
-25.8239
-25.8015
-25.7568
-25.6856
-25.5842
-25.4496
-25.2793
-25.072
-24.8275
-24.5468
-24.2328
-23.8899
-23.5241
-23.1428
-22.7541
-22.3666
-21.9885
-21.6269
-21.2875
-20.9746
-20.6905
-20.4364
-20.2118
-20.0155
-19.8456
-19.6997
-19.5754
-19.47
-19.3812
-19.3067
-19.2443
-19.1924
-19.1492
-19.1133
-19.0836
-19.059
-19.0387
-19.022
-19.0082
-18.9968
-18.9874
-18.9797
-18.9734
-18.9682
-18.9639
-18.9604
-18.9576
-18.9552
-18.9534
-18.9519
-18.9507
-18.9498
-18.9492
-18.9488
-18.9486
-25.6759
-25.6839
-25.6993
-25.7208
-25.7467
-25.7745
-25.801
-25.8227
-25.8353
-25.8345
-25.8156
-25.7741
-25.7059
-25.607
-25.4742
-25.305
-25.0979
-24.8523
-24.5693
-24.2516
-23.9037
-23.5319
-23.1438
-22.7481
-22.354
-21.97
-21.6036
-21.2608
-20.9457
-20.6608
-20.4068
-20.1832
-19.9884
-19.8203
-19.6765
-19.5541
-19.4507
-19.3638
-19.2909
-19.23
-19.1793
-19.1372
-19.1023
-19.0735
-19.0496
-19.0299
-19.0136
-19.0002
-18.9891
-18.9801
-18.9726
-18.9664
-18.9614
-18.9573
-18.9539
-18.9511
-18.9489
-18.947
-18.9456
-18.9445
-18.9436
-18.943
-18.9426
-18.9424
-25.6567
-25.6656
-25.6828
-25.7071
-25.7367
-25.7692
-25.8013
-25.8292
-25.8485
-25.8545
-25.8423
-25.8072
-25.7446
-25.6505
-25.5214
-25.3544
-25.1476
-24.9001
-24.6128
-24.2882
-23.9307
-23.5472
-23.1459
-22.7366
-22.3295
-21.934
-21.5585
-21.2092
-20.8902
-20.6038
-20.3503
-20.1287
-19.9369
-19.7725
-19.6325
-19.514
-19.4144
-19.3309
-19.2611
-19.203
-19.1548
-19.1148
-19.0817
-19.0544
-19.0318
-19.0131
-18.9978
-18.9851
-18.9747
-18.9662
-18.9591
-18.9533
-18.9486
-18.9447
-18.9415
-18.9389
-18.9368
-18.9351
-18.9337
-18.9327
-18.9318
-18.9312
-18.9309
-18.9307
-25.6288
-25.639
-25.6587
-25.6869
-25.7219
-25.7611
-25.8012
-25.838
-25.8669
-25.8828
-25.8803
-25.8543
-25.7999
-25.7129
-25.5891
-25.4255
-25.2195
-24.9697
-24.6764
-24.3419
-23.9706
-23.5699
-23.1493
-22.7199
-22.2937
-21.8815
-21.4927
-21.1342
-20.81
-20.5219
-20.2695
-20.051
-19.8639
-19.7048
-19.5705
-19.4577
-19.3634
-19.2848
-19.2195
-19.1653
-19.1205
-19.0835
-19.0529
-19.0277
-19.0069
-18.9898
-18.9757
-18.9641
-18.9545
-18.9467
-18.9403
-18.935
-18.9306
-18.9271
-18.9241
-18.9218
-18.9198
-18.9183
-18.917
-18.916
-18.9153
-18.9147
-18.9144
-18.9142
-25.5928
-25.6044
-25.6273
-25.6604
-25.702
-25.7497
-25.8
-25.8484
-25.8897
-25.9183
-25.9283
-25.9141
-25.8704
-25.7924
-25.6759
-25.517
-25.3125
-25.0603
-24.7599
-24.4128
-24.0237
-23.6005
-23.1542
-22.6982
-22.2465
-21.8124
-21.4066
-21.0366
-20.7062
-20.4166
-20.1663
-19.9526
-19.7718
-19.6199
-19.4931
-19.3876
-19.3001
-19.2277
-19.168
-19.1187
-19.0781
-19.0447
-19.0173
-18.9946
-18.9761
-18.9608
-18.9482
-18.9379
-18.9295
-18.9225
-18.9168
-18.9121
-18.9082
-18.9051
-18.9025
-18.9004
-18.8987
-18.8973
-18.8962
-18.8953
-18.8946
-18.8942
-18.8939
-18.8937
-25.5488
-25.5622
-25.5886
-25.6273
-25.6767
-25.7345
-25.7971
-25.8596
-25.9161
-25.9602
-25.9854
-25.9854
-25.9547
-25.8879
-25.7805
-25.6278
-25.426
-25.1718
-24.8634
-24.5017
-24.0909
-23.6397
-23.1611
-22.6712
-22.1876
-21.7263
-21.2999
-20.9165
-20.5796
-20.2891
-20.0424
-19.8353
-19.6628
-19.5201
-19.4025
-19.3058
-19.2266
-19.1616
-19.1084
-19.0649
-19.0292
-19
-18.9761
-18.9565
-18.9404
-18.9272
-18.9164
-18.9076
-18.9003
-18.8943
-18.8895
-18.8854
-18.8821
-18.8794
-18.8772
-18.8754
-18.874
-18.8728
-18.8718
-18.8711
-18.8705
-18.8701
-18.8698
-18.8697
-25.4971
-25.5123
-25.5426
-25.5874
-25.6457
-25.715
-25.7919
-25.8709
-25.9453
-26.0078
-26.0507
-26.0674
-26.0517
-25.9981
-25.9016
-25.7571
-25.5595
-25.3042
-24.9877
-24.6096
-24.1734
-23.6886
-23.1704
-22.639
-22.1163
-21.6222
-21.1717
-20.7735
-20.4303
-20.1405
-19.8994
-19.7011
-19.5391
-19.4075
-19.3009
-19.2147
-19.1448
-19.0883
-19.0425
-19.0053
-18.9751
-18.9506
-18.9305
-18.9142
-18.9009
-18.89
-18.8811
-18.8738
-18.8678
-18.863
-18.859
-18.8557
-18.853
-18.8508
-18.849
-18.8475
-18.8463
-18.8453
-18.8445
-18.8439
-18.8435
-18.8431
-18.8429
-18.8428
-25.438
-25.4551
-25.4893
-25.5405
-25.6083
-25.6905
-25.7836
-25.8816
-25.9768
-26.0603
-26.1236
-26.1591
-26.1603
-26.1218
-26.0383
-25.9039
-25.7126
-25.4577
-25.1338
-24.7382
-24.2731
-23.7486
-23.1828
-22.601
-22.0313
-21.4986
-21.0208
-20.607
-20.2586
-19.9715
-19.7386
-19.5517
-19.4027
-19.2844
-19.1905
-19.116
-19.0567
-19.0095
-18.9717
-18.9415
-18.9171
-18.8975
-18.8817
-18.8688
-18.8584
-18.8499
-18.843
-18.8373
-18.8327
-18.829
-18.8259
-18.8234
-18.8213
-18.8196
-18.8182
-18.8171
-18.8162
-18.8154
-18.8148
-18.8143
-18.814
-18.8137
-18.8136
-18.8135
-25.3719
-25.3907
-25.4286
-25.4864
-25.564
-25.6602
-25.7714
-25.891
-26.0099
-26.1174
-26.2035
-26.2597
-26.2797
-26.258
-26.1893
-26.0674
-25.8847
-25.6327
-25.3029
-24.8893
-24.3923
-23.8216
-23.1991
-22.5568
-21.9309
-21.3533
-20.8453
-20.416
-20.0642
-19.7828
-19.5614
-19.389
-19.2556
-19.1526
-19.0732
-19.0117
-18.964
-18.9267
-18.8976
-18.8746
-18.8564
-18.8419
-18.8304
-18.8211
-18.8136
-18.8076
-18.8027
-18.7988
-18.7956
-18.7929
-18.7908
-18.7891
-18.7876
-18.7865
-18.7855
-18.7847
-18.7841
-18.7835
-18.7831
-18.7828
-18.7826
-18.7824
-18.7823
-18.7822
-25.2992
-25.3195
-25.3608
-25.4247
-25.5123
-25.6233
-25.7545
-25.8985
-26.0443
-26.1788
-26.29
-26.3687
-26.4087
-26.4052
-26.3532
-26.2463
-26.0754
-25.8294
-25.4962
-25.0654
-24.5337
-23.9101
-23.2203
-22.5054
-21.813
-21.1838
-20.6432
-20.1993
-19.8473
-19.5755
-19.3693
-19.2148
-19.0997
-19.0143
-18.9508
-18.9035
-18.8681
-18.8414
-18.8212
-18.8058
-18.7939
-18.7847
-18.7775
-18.7718
-18.7673
-18.7638
-18.761
-18.7587
-18.7569
-18.7554
-18.7542
-18.7532
-18.7524
-18.7517
-18.7512
-18.7508
-18.7504
-18.7501
-18.7499
-18.7497
-18.7496
-18.7495
-18.7495
-18.7494
-25.2205
-25.2418
-25.2859
-25.3552
-25.4526
-25.5789
-25.7318
-25.9033
-26.0796
-26.2444
-26.383
-26.4856
-26.5465
-26.5622
-26.5286
-26.4392
-26.2837
-26.048
-25.7151
-25.269
-24.7007
-24.017
-23.2476
-22.4458
-21.6746
-20.9868
-20.4119
-19.9556
-19.6078
-19.3504
-19.1639
-19.031
-18.9371
-18.8712
-18.8251
-18.793
-18.7705
-18.7548
-18.7438
-18.736
-18.7304
-18.7265
-18.7237
-18.7216
-18.7201
-18.719
-18.7182
-18.7175
-18.7171
-18.7167
-18.7164
-18.7162
-18.716
-18.7159
-18.7157
-18.7156
-18.7156
-18.7155
-18.7154
-18.7154
-18.7154
-18.7154
-18.7154
-18.7154
-25.1365
-25.1583
-25.2042
-25.2778
-25.3841
-25.526
-25.7024
-25.9047
-26.1157
-26.3143
-26.4826
-26.6099
-26.692
-26.7274
-26.7136
-26.6444
-26.5084
-26.2882
-25.9611
-25.5033
-24.8976
-24.1461
-23.2828
-22.3765
-21.5121
-20.7583
-20.1485
-19.6839
-19.3459
-19.1088
-18.9471
-18.8396
-18.7697
-18.7253
-18.6979
-18.6816
-18.6726
-18.668
-18.6662
-18.6661
-18.6669
-18.6681
-18.6696
-18.671
-18.6724
-18.6737
-18.6748
-18.6758
-18.6766
-18.6773
-18.6779
-18.6784
-18.6788
-18.6792
-18.6794
-18.6797
-18.6798
-18.68
-18.6801
-18.6802
-18.6803
-18.6804
-18.6805
-18.6805
-25.048
-25.0696
-25.116
-25.1924
-25.3062
-25.4633
-25.665
-25.902
-26.1528
-26.3892
-26.589
-26.7413
-26.8442
-26.8992
-26.9062
-26.8599
-26.748
-26.5494
-26.2351
-25.7713
-25.1292
-24.3024
-23.328
-22.2955
-21.3209
-20.4934
-19.8498
-19.3828
-19.0622
-18.8523
-18.7209
-18.6428
-18.5995
-18.5783
-18.5706
-18.5708
-18.5753
-18.582
-18.5894
-18.5968
-18.6038
-18.6101
-18.6156
-18.6205
-18.6246
-18.6282
-18.6312
-18.6337
-18.6358
-18.6375
-18.639
-18.6402
-18.6411
-18.6419
-18.6426
-18.6431
-18.6435
-18.6439
-18.6442
-18.6444
-18.6446
-18.6448
-18.6449
-18.645
-24.9559
-24.9766
-25.0219
-25.0989
-25.2182
-25.3896
-25.618
-25.8942
-26.1909
-26.4699
-26.703
-26.8797
-27.002
-27.0759
-27.1042
-27.0834
-27.0003
-26.8306
-26.538
-26.0765
-25.4013
-24.4919
-23.3859
-22.2001
-21.0948
-20.1866
-19.5126
-19.0517
-18.7577
-18.5829
-18.4876
-18.4428
-18.4286
-18.4319
-18.4446
-18.4615
-18.4797
-18.4975
-18.5139
-18.5287
-18.5416
-18.5528
-18.5623
-18.5704
-18.5772
-18.5829
-18.5876
-18.5916
-18.5949
-18.5976
-18.5998
-18.6017
-18.6032
-18.6044
-18.6054
-18.6062
-18.6069
-18.6074
-18.6079
-18.6082
-18.6085
-18.6087
-18.6089
-18.609
-24.8613
-24.8801
-24.9224
-24.9975
-25.1194
-25.3033
-25.5595
-25.8805
-26.2309
-26.5578
-26.8253
-27.0249
-27.1644
-27.2555
-27.3052
-27.312
-27.2628
-27.1302
-26.8701
-26.4222
-25.7204
-24.7222
-23.4605
-22.0866
-20.8264
-19.8312
-19.1335
-18.6902
-18.434
-18.3028
-18.2495
-18.2417
-18.2587
-18.2877
-18.3212
-18.3549
-18.3866
-18.4152
-18.4404
-18.4622
-18.4808
-18.4966
-18.5099
-18.521
-18.5303
-18.538
-18.5444
-18.5497
-18.5541
-18.5577
-18.5607
-18.5631
-18.5651
-18.5668
-18.5681
-18.5692
-18.5701
-18.5708
-18.5714
-18.5719
-18.5722
-18.5725
-18.5727
-18.5728
-24.7654
-24.7811
-24.8185
-24.8884
-25.0092
-25.2026
-25.4873
-25.8593
-26.2735
-26.6547
-26.9573
-27.1769
-27.3301
-27.436
-27.5066
-27.543
-27.5326
-27.4458
-27.2309
-26.8116
-26.0943
-25.0033
-23.5568
-21.9499
-20.5059
-19.4197
-18.7093
-18.2986
-18.0931
-18.0149
-18.0094
-18.0419
-18.0917
-18.147
-18.2014
-18.2517
-18.2965
-18.3356
-18.3692
-18.3977
-18.4217
-18.4418
-18.4586
-18.4726
-18.4842
-18.4937
-18.5017
-18.5082
-18.5136
-18.518
-18.5217
-18.5247
-18.5272
-18.5292
-18.5308
-18.5322
-18.5333
-18.5342
-18.5349
-18.5355
-18.5359
-18.5362
-18.5364
-18.5365
-24.6692
-24.6809
-24.711
-24.7721
-24.8871
-25.0858
-25.3985
-25.829
-26.3204
-26.7632
-27.1004
-27.3356
-27.4978
-27.6153
-27.7057
-27.773
-27.8062
-27.7743
-27.6192
-27.2473
-26.5313
-25.3474
-23.6822
-21.783
-20.1211
-18.9438
-18.2375
-17.8783
-17.7381
-17.7222
-17.7699
-17.8455
-17.9293
-18.0111
-18.0862
-18.1526
-18.2101
-18.2592
-18.3007
-18.3354
-18.3645
-18.3886
-18.4087
-18.4252
-18.4389
-18.4502
-18.4596
-18.4673
-18.4736
-18.4788
-18.4831
-18.4866
-18.4895
-18.4918
-18.4938
-18.4953
-18.4966
-18.4976
-18.4985
-18.4992
-18.4996
-18.5
-18.5002
-18.5003
-24.5739
-24.5806
-24.6011
-24.6495
-24.7528
-24.9508
-25.2895
-25.7872
-26.374
-26.887
-27.2564
-27.5009
-27.6662
-27.7914
-27.8998
-27.999
-28.08
-28.1121
-28.0326
-27.731
-27.0404
-25.77
-23.8469
-21.5756
-19.6566
-18.3945
-17.7164
-17.4315
-17.3725
-17.4283
-17.5339
-17.6545
-17.7728
-17.881
-17.9763
-18.0582
-18.1278
-18.1862
-18.235
-18.2756
-18.3093
-18.3371
-18.3601
-18.3791
-18.3947
-18.4076
-18.4182
-18.4269
-18.4341
-18.44
-18.4448
-18.4488
-18.4521
-18.4548
-18.4569
-18.4587
-18.4602
-18.4614
-18.4623
-18.4631
-18.4636
-18.464
-18.4642
-18.4643
-24.4806
-24.4814
-24.49
-24.5214
-24.6065
-24.7955
-25.1558
-25.7304
-26.4375
-27.0303
-27.4274
-27.6725
-27.8337
-27.962
-28.0864
-28.2177
-28.3499
-28.4546
-28.4672
-28.2629
-27.6309
-26.2906
-24.0659
-21.3128
-19.0931
-17.7627
-17.1458
-16.9621
-17.0008
-17.1367
-17.304
-17.4709
-17.6237
-17.7576
-17.8722
-17.9689
-18.0496
-18.1168
-18.1724
-18.2184
-18.2563
-18.2875
-18.3132
-18.3343
-18.3517
-18.366
-18.3777
-18.3874
-18.3953
-18.4018
-18.4072
-18.4115
-18.4152
-18.4181
-18.4205
-18.4225
-18.4241
-18.4254
-18.4264
-18.4273
-18.4278
-18.4283
-18.4285
-18.4286
-24.3905
-24.3846
-24.3791
-24.3894
-24.4486
-24.618
-24.992
-25.6535
-26.5163
-27.1987
-27.6152
-27.8498
-27.9987
-28.1251
-28.263
-28.4261
-28.612
-28.7967
-28.9181
-28.8416
-28.3115
-26.9331
-24.3611
-20.9731
-18.4068
-17.0398
-16.5273
-16.4751
-16.6278
-16.8514
-17.083
-17.2964
-17.4829
-17.6416
-17.7744
-17.8848
-17.976
-18.0511
-18.113
-18.1637
-18.2055
-18.2397
-18.2678
-18.2909
-18.3098
-18.3254
-18.3382
-18.3486
-18.3572
-18.3643
-18.3701
-18.3749
-18.3788
-18.382
-18.3846
-18.3867
-18.3885
-18.3899
-18.391
-18.3919
-18.3925
-18.393
-18.3932
-18.3933
-24.3046
-24.2913
-24.27
-24.2551
-24.2803
-24.4167
-24.7914
-25.5492
-26.618
-27.3992
-27.8215
-28.0316
-28.1592
-28.2789
-28.4275
-28.6213
-28.8622
-29.1331
-29.3788
-29.463
-29.0897
-27.7263
-24.765
-20.5241
-17.5692
-16.2185
-15.8652
-15.9771
-16.2593
-16.5761
-16.8731
-17.1324
-17.3514
-17.5334
-17.6833
-17.8062
-17.9069
-17.9893
-18.0567
-18.1118
-18.157
-18.1939
-18.2242
-18.249
-18.2693
-18.2859
-18.2996
-18.3108
-18.32
-18.3276
-18.3338
-18.3388
-18.343
-18.3464
-18.3492
-18.3515
-18.3534
-18.3549
-18.3561
-18.3571
-18.3577
-18.3582
-18.3585
-18.3586
-24.2235
-24.2026
-24.1641
-24.1205
-24.1033
-24.1908
-24.5463
-25.4062
-26.7541
-27.6396
-28.0475
-28.2164
-28.3134
-28.4214
-28.5781
-28.8011
-29.097
-29.4578
-29.8414
-30.1201
-29.97
-28.7039
-25.3258
-19.9176
-16.5465
-15.2945
-15.1665
-15.4762
-15.9009
-16.3145
-16.6767
-16.9802
-17.2298
-17.4334
-17.5988
-17.7332
-17.8425
-17.9313
-18.0037
-18.0626
-18.1108
-18.1501
-18.1822
-18.2085
-18.2301
-18.2477
-18.2622
-18.274
-18.2837
-18.2917
-18.2983
-18.3036
-18.308
-18.3116
-18.3146
-18.317
-18.319
-18.3206
-18.3218
-18.3229
-18.3235
-18.324
-18.3244
-18.3245
-24.1481
-24.1193
-24.063
-23.9879
-23.9203
-23.9403
-24.248
-25.2079
-26.9417
-27.9291
-28.2933
-28.4018
-28.459
-28.551
-28.7133
-28.9634
-29.313
-29.7651
-30.2967
-30.8025
-30.9524
-29.904
-26.1159
-19.0818
-15.3012
-14.2681
-14.442
-14.9815
-15.5585
-16.0699
-16.4953
-16.8406
-17.1185
-17.3417
-17.5212
-17.6658
-17.7826
-17.8771
-17.9538
-18.0162
-18.0669
-18.1083
-18.1421
-18.1697
-18.1923
-18.2108
-18.2259
-18.2383
-18.2485
-18.2568
-18.2637
-18.2693
-18.2739
-18.2776
-18.2807
-18.2833
-18.2853
-18.287
-18.2883
-18.2894
-18.29
-18.2906
-18.291
-18.2912
-24.0788
-24.0424
-23.9681
-23.8596
-23.7346
-23.6671
-23.8873
-24.9291
-27.2061
-28.2772
-28.5576
-28.5846
-28.5938
-28.6666
-28.8321
-29.1069
-29.5073
-30.0497
-30.7351
-31.4961
-32.03
-31.3667
-27.2427
-17.9091
-13.7932
-13.1461
-13.7057
-14.5031
-15.2377
-15.8451
-16.3303
-16.7141
-17.0176
-17.2584
-17.4503
-17.6038
-17.7272
-17.8266
-17.9071
-17.9723
-18.0253
-18.0685
-18.1037
-18.1324
-18.1559
-18.1751
-18.1908
-18.2037
-18.2143
-18.2229
-18.23
-18.2358
-18.2406
-18.2445
-18.2477
-18.2503
-18.2525
-18.2542
-18.2555
-18.2567
-18.2574
-18.2579
-18.2585
-18.2586
-24.0159
-23.9722
-23.8805
-23.7381
-23.5504
-23.375
-23.4553
-24.5326
-27.5848
-28.6929
-28.8367
-28.761
-28.7157
-28.7669
-28.9338
-29.2304
-29.6779
-30.3065
-31.1463
-32.1836
-33.1871
-33.1296
-28.8655
-16.2406
-11.985
-11.9445
-12.9753
-14.0511
-14.9436
-15.6423
-16.1824
-16.6008
-16.927
-17.1832
-17.3858
-17.547
-17.676
-17.7797
-17.8634
-17.9311
-17.986
-18.0306
-18.067
-18.0967
-18.1209
-18.1407
-18.157
-18.1702
-18.1811
-18.19
-18.1973
-18.2033
-18.2082
-18.2122
-18.2156
-18.2183
-18.2205
-18.2223
-18.2236
-18.2248
-18.2255
-18.2261
-18.2267
-18.2268
-23.9597
-23.9093
-23.8012
-23.6258
-23.3726
-23.0703
-22.9458
-23.964
-28.1327
-29.183
-29.1246
-28.9265
-28.8226
-28.8514
-29.0182
-29.3337
-29.8233
-30.5314
-31.5204
-32.8444
-34.3966
-35.2207
-31.2177
-13.8428
-9.84857
-10.6906
-12.2711
-13.6357
-14.6802
-15.4628
-16.0521
-16.5008
-16.8465
-17.1158
-17.3275
-17.4952
-17.6289
-17.7361
-17.8224
-17.8922
-17.9487
-17.9946
-18.032
-18.0624
-18.0873
-18.1076
-18.1242
-18.1378
-18.1489
-18.1581
-18.1655
-18.1717
-18.1767
-18.1808
-18.1842
-18.187
-18.1893
-18.1911
-18.1925
-18.1936
-18.1945
-18.195
-18.1956
-18.1957
-23.9102
-23.8536
-23.731
-23.5248
-23.2064
-22.7626
-22.3572
-23.1438
-28.9295
-29.7492
-29.4122
-29.0762
-28.9129
-28.9196
-29.0854
-29.4167
-29.9428
-30.7215
-31.8484
-33.4566
-35.6183
-37.6464
-34.6381
-10.3771
-7.37771
-9.4244
-11.6155
-13.2657
-14.4505
-15.3076
-15.9392
-16.4135
-16.7756
-17.0557
-17.2749
-17.448
-17.5856
-17.6957
-17.7841
-17.8555
-17.9133
-17.9602
-17.9984
-18.0295
-18.0549
-18.0756
-18.0925
-18.1064
-18.1177
-18.127
-18.1346
-18.1409
-18.146
-18.1502
-18.1537
-18.1565
-18.1588
-18.1607
-18.1621
-18.1632
-18.1642
-18.1647
-18.1652
-18.1654
-23.867
-23.8052
-23.6703
-23.4368
-23.0571
-22.4645
-21.6974
-21.9586
-30.0887
-30.3839
-29.687
-29.2051
-28.9851
-28.9717
-29.1359
-29.48
-30.0363
-30.875
-32.1232
-33.9975
-36.7985
-40.3737
-39.6112
-5.35884
-4.60544
-8.19973
-11.0308
-12.9485
-14.2566
-15.1766
-15.8432
-16.3384
-16.7137
-17.0026
-17.2277
-17.405
-17.5457
-17.658
-17.7482
-17.821
-17.8798
-17.9275
-17.9662
-17.9978
-18.0236
-18.0446
-18.0618
-18.0759
-18.0874
-18.0968
-18.1046
-18.1109
-18.1161
-18.1204
-18.1239
-18.1268
-18.1291
-18.131
-18.1325
-18.1336
-18.1346
-18.1351
-18.1355
-18.1357
-23.83
-23.764
-23.6191
-23.3631
-22.9296
-22.1915
-20.9895
-20.2483
-31.7711
-31.0644
-29.9339
-29.3088
-29.0385
-29.008
-29.1707
-29.5245
-30.1045
-30.9912
-32.3396
-34.4467
-37.8715
-43.3048
-46.8206
1.8953
-1.62964
-7.08253
-10.538
-12.6894
-14.0992
-15.0694
-15.7635
-16.2749
-16.6603
-16.9559
-17.1856
-17.3661
-17.5091
-17.6231
-17.7146
-17.7883
-17.8479
-17.8962
-17.9355
-17.9674
-17.9935
-18.0147
-18.0321
-18.0464
-18.058
-18.0675
-18.0753
-18.0818
-18.087
-18.0913
-18.0949
-18.0978
-18.1002
-18.1021
-18.1036
-18.1046
-18.1058
-18.1063
-18.1065
-18.1069
-23.7989
-23.7296
-23.5774
-23.3042
-22.8279
-21.9611
-20.2799
-17.7906
-34.1992
-31.7449
-30.1361
-29.3839
-29.0733
-29.0295
-29.1908
-29.5516
-30.1489
-31.071
-32.4953
-34.7876
-38.7637
-46.243
-57.2153
12.3342
1.35257
-6.1466
-10.1538
-12.4911
-13.9778
-14.9851
-15.6991
-16.2222
-16.6149
-16.9152
-17.1482
-17.331
-17.4756
-17.5909
-17.6833
-17.7577
-17.8178
-17.8665
-17.9061
-17.9383
-17.9646
-17.986
-18.0036
-18.0179
-18.0296
-18.0392
-18.0471
-18.0536
-18.0589
-18.0632
-18.0668
-18.0698
-18.0721
-18.074
-18.0756
-18.0766
-18.0777
-18.0783
-18.0784
-18.079
-23.7731
-23.7019
-23.5448
-23.2604
-22.7546
-21.7905
-19.6488
-14.2818
-37.6773
-32.3456
-30.2769
-29.4284
-29.0899
-29.0373
-29.1975
-29.5629
-30.1712
-31.1162
-32.5905
-35.0098
-39.4024
-48.8469
-72.0921
27.2541
3.99944
-5.46506
-9.88897
-12.3537
-13.8911
-14.9224
-15.6492
-16.1797
-16.577
-16.8803
-17.1153
-17.2995
-17.4452
-17.5613
-17.6543
-17.7291
-17.7896
-17.8385
-17.8783
-17.9107
-17.9371
-17.9587
-17.9763
-17.9907
-18.0025
-18.0121
-18.02
-18.0265
-18.0318
-18.0362
-18.0398
-18.0428
-18.0451
-18.047
-18.0487
-18.0496
-18.0507
-18.0514
-18.0514
-18.0521
-23.7521
-23.68
-23.5206
-23.2306
-22.7101
-21.6933
-19.2236
-9.3134
-42.6138
-32.739
-30.3426
-29.4418
-29.0894
-29.0324
-29.1922
-29.5596
-30.1733
-31.1293
-32.628
-35.1109
-39.7291
-50.5729
-93.1927
48.3972
5.76778
-5.09602
-9.74572
-12.2742
-13.8363
-14.8791
-15.6121
-16.1461
-16.5456
-16.8504
-17.0864
-17.2713
-17.4174
-17.5339
-17.6271
-17.7021
-17.7628
-17.8119
-17.8518
-17.8842
-17.9107
-17.9323
-17.9499
-17.9644
-17.9762
-17.9858
-17.9938
-18.0003
-18.0056
-18.01
-18.0136
-18.0166
-18.0189
-18.0208
-18.0226
-18.0235
-18.0245
-18.0253
-18.0253
-18.0259
)
;

boundaryField
{
    left
    {
        type            calculated;
        value           nonuniform List<scalar> 
32
(
-25.6859
-25.6759
-25.6567
-25.6288
-25.5928
-25.5488
-25.4971
-25.438
-25.3719
-25.2992
-25.2205
-25.1365
-25.048
-24.9559
-24.8613
-24.7654
-24.6692
-24.5739
-24.4806
-24.3905
-24.3046
-24.2235
-24.1481
-24.0788
-24.0159
-23.9597
-23.9102
-23.867
-23.83
-23.7989
-23.7731
-23.7521
)
;
    }
    right
    {
        type            calculated;
        value           nonuniform List<scalar> 
32
(
-18.9486
-18.9424
-18.9307
-18.9142
-18.8937
-18.8697
-18.8428
-18.8135
-18.7822
-18.7494
-18.7154
-18.6805
-18.645
-18.609
-18.5728
-18.5365
-18.5003
-18.4643
-18.4286
-18.3933
-18.3586
-18.3245
-18.2912
-18.2586
-18.2268
-18.1957
-18.1654
-18.1357
-18.1069
-18.079
-18.0521
-18.0259
)
;
    }
    interface
    {
        type            calculated;
        value           nonuniform List<scalar> 
64
(
-23.7428
-23.6704
-23.5104
-23.2191
-22.695
-21.6643
-19.0818
-6.40587
-45.505
-32.8645
-30.3554
-29.4409
-29.085
-29.027
-29.1866
-29.5545
-30.1695
-31.1282
-32.6328
-35.1313
-39.8085
-51.1338
-105.548
60.7736
6.34987
-4.99539
-9.70417
-12.2483
-13.8164
-14.862
-15.5965
-16.1314
-16.5314
-16.8365
-17.0727
-17.2578
-17.4041
-17.5206
-17.6139
-17.689
-17.7496
-17.7988
-17.8387
-17.8712
-17.8976
-17.9192
-17.9369
-17.9513
-17.9632
-17.9728
-17.9808
-17.9873
-17.9926
-17.997
-18.0006
-18.0036
-18.006
-18.0078
-18.0096
-18.0105
-18.0115
-18.0123
-18.0123
-18.0129
)
;
    }
    bottom
    {
        type            calculated;
        value           nonuniform List<scalar> 
64
(
-25.6885
-25.6959
-25.71
-25.7297
-25.7531
-25.7777
-25.8007
-25.8183
-25.8265
-25.8212
-25.7979
-25.7523
-25.6803
-25.5783
-25.4432
-25.2727
-25.0654
-24.8211
-24.541
-24.228
-23.8863
-23.5221
-23.1425
-22.7556
-22.3699
-21.9933
-21.6329
-21.2944
-20.9821
-20.6982
-20.444
-20.2192
-20.0225
-19.8521
-19.7058
-19.5809
-19.475
-19.3858
-19.3108
-19.2481
-19.1958
-19.1523
-19.1162
-19.0863
-19.0615
-19.0411
-19.0242
-19.0103
-18.9988
-18.9893
-18.9816
-18.9752
-18.97
-18.9656
-18.9621
-18.9593
-18.9569
-18.955
-18.9535
-18.9523
-18.9515
-18.9508
-18.9504
-18.9502
)
;
    }
    defaultFaces
    {
        type            empty;
    }
}


// ************************************************************************* //
