/*--------------------------------*- C++ -*----------------------------------*\
| =========                 |                                                 |
| \\      /  F ield         | OpenFOAM: The Open Source CFD Toolbox           |
|  \\    /   O peration     | Version:  5.x                                   |
|   \\  /    A nd           | Web:      www.OpenFOAM.org                      |
|    \\/     M anipulation  |                                                 |
\*---------------------------------------------------------------------------*/
FoamFile
{
    version     2.0;
    format      ascii;
    class       volScalarField;
    location    "0.2";
    object      gradTx;
}
// * * * * * * * * * * * * * * * * * * * * * * * * * * * * * * * * * * * * * //

dimensions      [0 -1 0 1 0 0 0];

internalField   nonuniform List<scalar> 
2048
(
-0.00169365
-0.00493795
-0.00777054
-0.00990487
-0.0110528
-0.0109444
-0.00931412
-0.00594352
-0.000673728
0.00658495
0.0158428
0.0270286
0.0399925
0.0545068
0.0702635
0.0868669
0.103825
0.120546
0.136352
0.150506
0.162277
0.171008
0.176207
0.177617
0.17526
0.169433
0.160663
0.149628
0.137065
0.123689
0.110132
0.0969051
0.084385
0.0728219
0.0623559
0.0530391
0.0448586
0.0377575
0.0316514
0.0264421
0.0220267
0.0183045
0.0151808
0.0125689
0.0103918
0.00858171
0.00707982
0.00583577
0.00480667
0.00395622
0.00325384
0.00267388
0.00219484
0.00179876
0.00147062
0.00119792
0.000970247
0.000778927
0.000616665
0.000477247
0.000355299
0.000246092
0.000145196
4.81373e-05
-0.00512285
-0.0149408
-0.0235429
-0.0300912
-0.0337164
-0.0336062
-0.0289665
-0.0191351
-0.00362843
0.0178245
0.0452546
0.0784496
0.116965
0.160131
0.207043
0.256538
0.307163
0.357161
0.404497
0.446953
0.482295
0.508516
0.524098
0.528249
0.521034
0.503371
0.476883
0.443645
0.405909
0.365841
0.325338
0.285919
0.248696
0.214394
0.183408
0.155873
0.131734
0.110809
0.0928372
0.0775205
0.0645497
0.0536233
0.0444592
0.0368011
0.0304205
0.0251174
0.0207186
0.017076
0.0140634
0.0115743
0.00951889
0.00782195
0.00642047
0.00526177
0.00430189
0.00350422
0.00283828
0.00227871
0.00180414
0.00139634
0.00103955
0.000720288
0.000426202
0.000141961
-0.00871081
-0.0254313
-0.0401762
-0.0515869
-0.0582133
-0.0586866
-0.0516676
-0.0360242
-0.0109281
0.0240819
0.0690565
0.123641
0.187106
0.258363
0.335957
0.418014
0.502173
0.585542
0.664719
0.735935
0.795344
0.839442
0.865556
0.872278
0.85972
0.829508
0.784498
0.728319
0.664862
0.597825
0.530394
0.465079
0.403675
0.347321
0.296601
0.25168
0.212413
0.17846
0.149363
0.124611
0.103683
0.0860784
0.0713299
0.0590169
0.0487663
0.0402524
0.0331946
0.0273527
0.0225232
0.0185342
0.0152413
0.0125233
0.0102791
0.0084239
0.00688723
0.00561031
0.00454434
0.00364871
0.00288919
0.00223642
0.00166488
0.00115355
0.00068559
0.000230273
-0.0125939
-0.0368309
-0.058393
-0.0754235
-0.0858889
-0.0878306
-0.0793148
-0.0586856
-0.0247302
0.0232185
0.0852251
0.160779
0.248865
0.348005
0.456251
0.571093
0.689336
0.806985
0.919231
1.02063
1.10548
1.16853
1.2057
1.2148
1.19601
1.15181
1.08656
1.00574
0.91512
0.820073
0.725142
0.633806
0.548479
0.470617
0.400904
0.339444
0.285938
0.239836
0.200446
0.167026
0.138832
0.115159
0.0953581
0.0788489
0.0651203
0.0537283
0.0442919
0.0364864
0.0300371
0.0247128
0.0203192
0.0166941
0.0137017
0.0112287
0.00918049
0.00747868
0.00605811
0.00486461
0.00385262
0.00298285
0.00222068
0.00153756
0.000917278
0.000310926
-0.0168627
-0.0494202
-0.0786878
-0.102336
-0.117737
-0.122289
-0.113382
-0.0887509
-0.0467354
0.0135571
0.0921849
0.188447
0.301025
0.428079
0.56724
0.715476
0.868859
1.02235
1.16969
1.30355
1.41609
1.49986
1.54897
1.56024
1.53391
1.47357
1.3855
1.27745
1.15742
1.0327
0.909251
0.791489
0.682343
0.583466
0.495511
0.418412
0.351627
0.294332
0.245564
0.204317
0.169615
0.140544
0.116274
0.0960723
0.0792955
0.06539
0.0538823
0.0443711
0.0365177
0.0300378
0.0246934
0.0202856
0.0166484
0.0136433
0.011155
0.00908765
0.00736203
0.00591224
0.00468294
0.0036266
0.00270075
0.00186786
0.00111761
0.000382428
-0.0215658
-0.0633555
-0.101357
-0.132804
-0.154456
-0.162997
-0.155019
-0.127518
-0.0782993
-0.00622369
0.0887163
0.205559
0.342638
0.497773
0.668275
0.850736
1.04066
1.23207
1.41722
1.5867
1.73004
1.83703
1.89941
1.91263
1.87699
1.79758
1.68319
1.54445
1.39207
1.2355
1.08219
0.937445
0.804547
0.685177
0.579798
0.488042
0.409023
0.341573
0.284406
0.236233
0.195829
0.162068
0.133947
0.110581
0.0912062
0.075168
0.0619096
0.0509612
0.0419278
0.0344791
0.0283392
0.0232777
0.0191028
0.0156546
0.0127999
0.0104285
0.0084491
0.00678591
0.00537533
0.00416333
0.00310169
0.00214207
0.00128451
0.000443746
-0.0267118
-0.0786781
-0.126515
-0.167079
-0.196494
-0.210631
-0.205121
-0.176036
-0.120519
-0.0371652
0.0738954
0.211315
0.372996
0.556428
0.758725
0.976317
1.20438
1.43618
1.66249
1.87158
2.04981
2.18339
2.26086
2.27579
2.22854
2.12625
1.98103
1.80725
1.61891
1.42791
1.24324
1.07091
0.914395
0.775162
0.653297
0.547978
0.457864
0.381369
0.316843
0.262687
0.217417
0.179699
0.148356
0.122364
0.100848
0.0830622
0.0683757
0.0562597
0.0462711
0.0380404
0.03126
0.0256735
0.0210676
0.0172648
0.0141173
0.0115029
0.00932058
0.00748659
0.00593036
0.00459304
0.0034229
0.00235935
0.00141676
0.000494076
-0.0322715
-0.0953201
-0.154111
-0.205201
-0.244074
-0.265656
-0.264394
-0.235174
-0.174299
-0.0800852
0.0470566
0.205185
0.391624
0.603535
0.837988
1.09154
1.35936
1.63426
1.90566
2.15923
2.37752
2.54209
2.63712
2.65351
2.59169
2.46164
2.27998
2.06589
1.83738
1.60908
1.39147
1.19108
1.01123
0.852938
0.715685
0.598028
0.498058
0.4137
0.342899
0.28373
0.234446
0.193506
0.159571
0.131488
0.108282
0.0891261
0.0733276
0.0603072
0.0495821
0.040751
0.0334804
0.0274936
0.02256
0.0184882
0.0151187
0.01232
0.00998395
0.00802016
0.00635251
0.00491884
0.0036661
0.00252032
0.00151385
0.000532786
-0.03818
-0.11311
-0.18393
-0.247015
-0.29721
-0.328351
-0.333398
-0.305685
-0.240418
-0.135622
0.00776941
0.186899
0.398292
0.638753
0.905508
1.1956
1.50467
1.82549
2.14637
2.45024
2.71501
2.91623
3.03209
3.04968
2.96952
2.80554
2.58054
2.31989
2.04646
1.77784
1.52582
1.29707
1.09444
0.918136
0.766785
0.638155
0.529663
0.438682
0.362724
0.299523
0.247075
0.203642
0.167731
0.138077
0.113616
0.0934539
0.0768457
0.063172
0.0519185
0.042659
0.0350408
0.0287713
0.0236076
0.0193473
0.0158226
0.0128951
0.0104512
0.00839608
0.006649
0.00514607
0.00383479
0.00262694
0.0015761
0.000559499
-0.0443388
-0.131779
-0.215601
-0.292169
-0.35572
-0.398833
-0.412593
-0.388263
-0.319578
-0.204272
-0.044173
0.156461
0.393027
0.661936
0.960808
1.28762
1.63911
2.0086
2.38374
2.74467
3.06382
3.30892
3.44993
3.46846
3.36512
3.15945
2.8827
2.56826
2.24472
1.93274
1.64507
1.38804
1.16351
0.970516
0.806566
0.668471
0.552876
0.456557
0.376572
0.310318
0.255542
0.21032
0.173027
0.142298
0.116994
0.0961683
0.0790343
0.0649419
0.0533537
0.0438259
0.035992
0.0295489
0.024245
0.0198708
0.0162524
0.0132469
0.0107375
0.00862625
0.00682904
0.00528171
0.00393384
0.00268247
0.00160499
0.000574276
-0.0506183
-0.150963
-0.248603
-0.340116
-0.419224
-0.477068
-0.502369
-0.483599
-0.412465
-0.286421
-0.108758
0.114156
0.376142
0.67316
1.00352
1.3667
1.76124
2.18188
2.6163
3.04201
3.42514
3.72335
3.8952
3.91441
3.78165
3.52456
3.18593
2.80945
2.43031
2.07212
1.74798
1.46319
1.21804
1.00999
0.835146
0.689224
0.568015
0.467667
0.384784
0.316435
0.260136
0.2138
0.175686
0.144346
0.118584
0.0974112
0.0800127
0.065717
0.0539713
0.044321
0.0363915
0.0298737
0.0245113
0.0200907
0.0164343
0.0133967
0.0108598
0.00872417
0.00690312
0.00533391
0.00396923
0.00269149
0.00160338
0.000577822
-0.0568617
-0.170216
-0.282272
-0.390121
-0.487136
-0.562873
-0.603083
-0.592445
-0.519811
-0.382373
-0.185749
0.0605748
0.348255
0.672749
1.03342
1.4319
1.86943
2.34319
2.84193
3.3411
3.79975
4.16279
4.37305
4.39269
4.22244
3.90165
3.48905
3.0413
2.60097
2.19412
1.83328
1.52181
1.25778
1.03661
0.852792
0.700789
0.575501
0.472439
0.387765
0.318246
0.261191
0.214374
0.175958
0.144435
0.118566
0.0973351
0.0799087
0.0656037
0.0538599
0.0442177
0.0363
0.0297959
0.0244476
0.0200405
0.0163956
0.0133667
0.0108361
0.00870411
0.00688246
0.0053116
0.00394778
0.00265981
0.00157581
0.000571646
-0.0628902
-0.18902
-0.31581
-0.441252
-0.558652
-0.655905
-0.715078
-0.715679
-0.642459
-0.492375
-0.274677
-0.00337271
0.310301
0.66129
1.05046
1.48236
1.96189
2.48999
3.05787
3.63999
4.18794
4.63068
4.88939
4.9092
4.69092
4.29104
3.79012
3.26101
2.75406
2.29677
1.89976
1.56336
1.28265
1.05063
0.859916
0.703661
0.575846
0.471366
0.38597
0.316157
0.259062
0.212347
0.174105
0.142787
0.117128
0.0960963
0.0788528
0.0647107
0.0531094
0.0435907
0.035779
0.0293659
0.0240955
0.0197543
0.0161641
0.0131794
0.0106844
0.00858052
0.00677854
0.00522424
0.00387697
0.00259425
0.00152835
0.000558064
-0.0685104
-0.206805
-0.348306
-0.492386
-0.632732
-0.755638
-0.838699
-0.85438
-0.78144
-0.616635
-0.374813
-0.076432
0.263545
0.639648
1.05482
1.51731
2.03678
2.61936
3.26062
3.93581
4.58928
5.13058
5.45116
5.4709
5.19068
4.69236
4.08634
3.46515
2.88667
2.37809
1.94636
1.58748
1.2928
1.05245
0.857067
0.698432
0.569633
0.464988
0.379884
0.310594
0.254116
0.208032
0.170393
0.139625
0.114455
0.0938502
0.0769739
0.0631448
0.0518085
0.0425129
0.0348888
0.0286332
0.0234953
0.0192652
0.0157666
0.0128565
0.0104223
0.00836765
0.00660278
0.00508156
0.00376468
0.00250232
0.00146818
0.00053998
-0.0735226
-0.222966
-0.378759
-0.542221
-0.708074
-0.861322
-0.974301
-1.00992
-0.938064
-0.755328
-0.485141
-0.156986
0.209576
0.608953
1.04688
1.53616
2.09227
2.72814
3.44602
4.22464
5.00246
5.66612
6.06659
6.08606
5.72542
5.10435
4.37387
3.6496
2.99564
2.43619
1.97225
1.59409
1.28856
1.04265
0.844915
0.685777
0.557495
0.453877
0.370009
0.301989
0.246721
0.201742
0.165082
0.135167
0.110729
0.0907468
0.0743964
0.0610088
0.0500417
0.0410541
0.0336866
0.027645
0.0226859
0.0186046
0.0152288
0.0124189
0.0100666
0.00807921
0.00636627
0.00489329
0.00361888
0.00239153
0.00140266
0.000520422
-0.0777316
-0.236895
-0.406109
-0.589288
-0.783091
-0.971926
-1.12223
-1.18407
-1.11403
-0.908594
-0.604302
-0.243041
0.150282
0.570578
1.02727
1.53853
2.12666
2.813
3.60922
4.50136
5.42495
6.24091
6.74567
6.76466
6.29878
5.52458
4.64769
3.80962
3.07772
2.46934
1.97687
1.58335
1.2705
1.02198
0.824233
0.666434
0.540099
0.438619
0.356847
0.290768
0.237237
0.193775
0.158422
0.129619
0.106121
0.0869281
0.0712372
0.0583991
0.0478886
0.0392797
0.0322263
0.0264454
0.0217031
0.017802
0.0145747
0.0118859
0.00963326
0.00772814
0.00607954
0.00466888
0.00344734
0.00226862
0.00133812
0.000501938
-0.0809581
-0.248009
-0.429281
-0.63198
-0.855884
-1.08605
-1.28277
-1.37912
-1.31155
-1.0765
-0.730527
-0.332213
0.0878151
0.526097
0.996822
1.52431
2.13847
2.87059
3.74481
4.75949
5.85262
6.85827
7.50055
7.51888
6.91418
5.94902
4.90145
3.93996
3.1297
2.47616
1.96003
1.55574
1.23942
0.991311
0.795878
0.641182
0.51813
0.419798
0.340894
0.277347
0.226008
0.184418
0.150649
0.123177
0.100791
0.0825258
0.0676049
0.0554049
0.0454224
0.0372499
0.0305572
0.0250749
0.0205802
0.0168844
0.0138263
0.0112755
0.0091367
0.00732653
0.00575239
0.00441722
0.00325728
0.00213872
0.00127855
0.000486005
-0.0830495
-0.255786
-0.447236
-0.668599
-0.924232
-1.20183
-1.4561
-1.59807
-1.53354
-1.25895
-0.861544
-0.421733
0.0245296
0.477221
0.956579
1.49369
2.1266
2.89775
3.84693
4.99112
6.27925
7.52092
8.34627
8.36379
7.57437
6.37156
5.12739
4.03494
3.14861
2.45566
1.92194
1.51205
1.19629
0.951631
0.76076
0.610819
0.492268
0.397987
0.322624
0.262118
0.213357
0.173936
0.141981
0.116019
0.0948875
0.0776604
0.0635981
0.0521072
0.0427096
0.0350193
0.0287242
0.0235701
0.0193471
0.0158763
0.0130034
0.0106038
0.00859018
0.0068855
0.00539379
0.00414627
0.00305505
0.00200474
0.00122469
0.000472689
-0.0838907
-0.259794
-0.459022
-0.697409
-0.985591
-1.3168
-1.64211
-1.84478
-1.78379
-1.45562
-0.994465
-0.508465
-0.0370993
0.425728
0.907738
1.44719
2.0904
2.89171
3.90955
5.18688
6.69598
8.2303
9.30156
9.31812
8.28087
6.78346
5.31631
4.08873
3.1319
2.40741
1.86323
1.45333
1.14226
0.904019
0.719824
0.576147
0.463178
0.373733
0.302487
0.245448
0.199584
0.162574
0.132617
0.108309
0.0885419
0.0724405
0.0593058
0.0485787
0.0398097
0.0326366
0.0267672
0.0219638
0.0180306
0.0147996
0.0121239
0.00988525
0.00800559
0.00641514
0.00501178
0.00386274
0.00284594
0.0018671
0.00117383
0.000460741
-0.0834116
-0.259721
-0.463835
-0.716721
-1.03712
-1.42777
-1.84023
-2.12432
-2.06726
-1.66564
-1.12565
-0.58895
-0.0945768
0.373373
0.851608
1.38568
2.02976
2.8503
3.92674
5.33603
7.09067
8.98565
10.39
10.4055
9.033
7.1727
5.45764
4.09562
3.07765
2.3316
1.78497
1.38091
1.07862
0.849603
0.674018
0.537945
0.431497
0.347552
0.280899
0.227672
0.184961
0.150551
0.122736
0.10019
0.0818728
0.0669626
0.0548067
0.0448837
0.0367753
0.0301449
0.0247214
0.0202849
0.0166542
0.0136735
0.0112035
0.00913277
0.00739345
0.00592449
0.0046135
0.0035718
0.00263401
0.00172415
0.00112056
0.000448188
-0.0815918
-0.255403
-0.461078
-0.724978
-1.07573
-1.53062
-2.04904
-2.44324
-2.39044
-1.88739
-1.25059
-0.659485
-0.145507
0.321802
0.789556
1.3103
1.94519
2.77215
3.89305
5.42669
7.44722
9.78257
11.6413
11.6556
9.82643
7.52329
5.53967
4.05038
2.98481
2.22907
1.68866
1.29634
1.00673
0.789531
0.624276
0.496962
0.397821
0.319919
0.25824
0.209096
0.169732
0.138065
0.112498
0.0917931
0.0749846
0.0613114
0.0501697
0.0410785
0.0336524
0.0275817
0.0226175
0.0185584
0.0152387
0.0125147
0.0102559
0.0083576
0.00676299
0.00542147
0.00420526
0.00327692
0.00242206
0.00157311
0.00105852
0.000433262
-0.078461
-0.246829
-0.450401
-0.720861
-1.09823
-1.62024
-2.26586
-2.81003
-2.76173
-2.11793
-1.36372
-0.716248
-0.187726
0.272468
0.722946
1.2225
1.83787
2.6569
3.80392
5.44631
7.74497
10.611
13.0934
13.1065
10.6511
7.81468
5.55
3.94871
2.85331
2.10136
1.57616
1.20131
0.928026
0.72494
0.571493
0.453899
0.3627
0.291267
0.234851
0.189989
0.154113
0.125289
0.10204
0.0832288
0.0679678
0.0555603
0.0454545
0.0372116
0.0304804
0.0249794
0.0204821
0.0168061
0.0138016
0.0113378
0.00929298
0.00756955
0.00612217
0.00491284
0.00379258
0.00297996
0.00221172
0.0014116
0.000982588
0.00041535
-0.0740955
-0.234152
-0.431747
-0.703403
-1.10142
-1.69035
-2.48599
-3.23571
-3.19209
-2.35233
-1.45839
-0.755468
-0.219432
0.226556
0.653091
1.12397
1.70957
2.50533
3.65622
5.38231
7.95828
11.4521
14.7947
14.8065
11.4883
8.02135
5.47623
3.78769
2.68423
1.95065
1.44964
1.09765
0.843923
0.656929
0.51651
0.409401
0.326632
0.261981
0.211033
0.17059
0.138292
0.112371
0.0914831
0.0745938
0.0609002
0.0497722
0.0407121
0.0333245
0.0272933
0.0223654
0.0183376
0.0150465
0.0123581
0.0101551
0.00832495
0.00677706
0.00547782
0.00440415
0.00338034
0.00268146
0.00200357
0.00123914
0.000890988
0.000395477
-0.0686111
-0.217674
-0.405365
-0.67209
-1.08239
-1.73353
-2.70176
-3.73451
-3.69568
-2.58273
-1.52682
-0.773663
-0.239318
0.184931
0.581203
1.01653
1.56265
2.31943
3.44862
5.22303
8.05644
12.2743
16.8073
16.8178
12.3066
8.11266
5.30684
3.56619
2.47988
1.77973
1.31147
0.987196
0.755815
0.586534
0.460101
0.364052
0.290059
0.232403
0.187052
0.151105
0.122432
0.0994416
0.0809292
0.0659701
0.0538475
0.0440001
0.0359854
0.0294519
0.0241192
0.0197628
0.0162029
0.0132948
0.0109208
0.00897686
0.00736033
0.00598735
0.00483575
0.00389968
0.00297285
0.00238117
0.00179734
0.00105848
0.000786309
0.000375961
-0.0621536
-0.197826
-0.371807
-0.626952
-1.03871
-1.74134
-2.90124
-4.32481
-4.29082
-2.79703
-1.56024
-0.767913
-0.246675
0.148109
0.508361
0.902115
1.39994
2.10237
3.18199
4.95891
8.00419
13.0276
19.2105
19.2197
13.0559
8.05347
5.03243
3.28531
2.24371
1.59184
1.16416
0.871785
0.66502
0.514707
0.402963
0.318367
0.253369
0.202825
0.163131
0.131708
0.106669
0.0866075
0.0704641
0.0574261
0.0468647
0.0382884
0.0313102
0.0256229
0.0209818
0.0171909
0.0140936
0.0115641
0.00950023
0.00781177
0.00640619
0.00520652
0.00420087
0.00340252
0.00257382
0.00207884
0.00159212
0.000875834
0.00067501
0.000359103
-0.0548881
-0.175141
-0.331903
-0.568624
-0.968806
-1.70463
-3.06648
-5.03024
-5.00109
-2.97711
-1.54922
-0.736194
-0.241471
0.116256
0.435492
0.782679
1.22462
1.85839
2.85971
4.58386
7.76323
13.6362
22.1061
22.114
13.6605
7.80552
4.64701
2.9486
1.98024
1.39054
1.01024
0.753171
0.572758
0.44231
0.345712
0.272795
0.216895
0.173498
0.139463
0.112547
0.0911169
0.0739589
0.0601589
0.0490183
0.0399969
0.0326734
0.0267157
0.0218612
0.0179002
0.0146653
0.0120225
0.00986468
0.00810502
0.0066668
0.00546832
0.00443963
0.00357738
0.0029146
0.00218628
0.00177492
0.00138663
0.000700118
0.00056523
0.000345261
-0.0469902
-0.150216
-0.286717
-0.498366
-0.872288
-1.6142
-3.17127
-5.88102
-5.85668
-3.0966
-1.48432
-0.677713
-0.224371
0.0892133
0.363359
0.660116
1.04004
1.59264
2.4877
4.09668
7.29486
13.989
25.6239
25.6304
14.0093
7.33021
4.14949
2.56215
1.69487
1.17958
0.852189
0.632987
0.480131
0.370099
0.288882
0.227721
0.180916
0.144631
0.116204
0.0937427
0.0758704
0.0615688
0.0500711
0.0407923
0.0332807
0.0271841
0.0222256
0.0181857
0.0148898
0.0121983
0.0099998
0.008205
0.00674207
0.00554761
0.00455136
0.00369081
0.00296888
0.00243693
0.00181243
0.00147119
0.00117953
0.000540852
0.000463562
0.000331117
-0.0386382
-0.12368
-0.237476
-0.418026
-0.750239
-1.46185
-3.17826
-6.91566
-6.89604
-3.11808
-1.35711
-0.593224
-0.19671
0.0665539
0.292567
0.53621
0.849599
1.31087
2.07431
3.50242
6.5645
13.9273
29.9285
29.9338
13.9436
6.59302
3.54503
2.13444
1.39355
0.962687
0.692325
0.512711
0.388105
0.298727
0.232923
0.183463
0.145666
0.116396
0.0934842
0.0753921
0.0610042
0.0494957
0.0402465
0.0327844
0.0267447
0.0218437
0.0178581
0.0146113
0.0119627
0.00979999
0.00803349
0.00659158
0.00541679
0.00445866
0.00365892
0.00296331
0.00237843
0.00196988
0.00145346
0.00117103
0.000969655
0.000405324
0.00037213
0.000309273
-0.0300089
-0.0961565
-0.185497
-0.329956
-0.605477
-1.2419
-3.03554
-8.18283
-8.16782
-2.9895
-1.16175
-0.485265
-0.160402
0.0476481
0.22358
0.412584
0.656578
1.01911
1.62991
2.81342
5.54827
13.2299
35.2282
35.2322
13.2425
5.57009
2.84604
1.67598
1.08252
0.743438
0.53276
0.39364
0.297508
0.228741
0.17821
0.140283
0.111331
0.0889285
0.0714035
0.0575721
0.0465768
0.0377848
0.0307206
0.0250223
0.0204111
0.0166698
0.0136275
0.0111495
0.00912808
0.00747762
0.0061296
0.0050294
0.00413333
0.00340335
0.00279374
0.00225959
0.00180862
0.00151345
0.00110945
0.000879272
0.000756468
0.000295759
0.000287634
0.000270229
-0.0212751
-0.0682414
-0.132104
-0.236853
-0.442641
-0.953335
-2.67232
-9.7436
-9.73307
-2.64002
-0.897092
-0.358253
-0.11778
0.0317464
0.156733
0.290658
0.464
0.723353
1.16627
2.04973
4.24215
11.5955
41.7837
41.7865
11.6043
4.25745
2.07263
1.19862
0.767915
0.525114
0.375346
0.276879
0.20903
0.160588
0.125041
0.0983878
0.0780569
0.0623344
0.0500405
0.040341
0.0326326
0.0264701
0.0215196
0.0175269
0.0142962
0.0116752
0.00954417
0.00780841
0.00639261
0.00523664
0.00429254
0.00352206
0.00289472
0.00238424
0.00195784
0.00158139
0.00126156
0.00106766
0.000779386
0.000601539
0.000540355
0.000207579
0.00020368
0.000207141
-0.012605
-0.0404809
-0.0785473
-0.141567
-0.26807
-0.602702
-1.9941
-11.6739
-11.6677
-1.97508
-0.569572
-0.218348
-0.0713961
0.0180609
0.0922627
0.171634
0.274538
0.429192
0.695687
1.23856
2.67415
8.62106
49.9195
49.9212
8.62624
2.68317
1.25206
0.714755
0.455465
0.310598
0.221653
0.163337
0.123225
0.0946223
0.073651
0.0579362
0.0459549
0.0366928
0.0294525
0.0237413
0.0192033
0.0155759
0.0126622
0.0103125
0.00841137
0.00686909
0.00561517
0.00459388
0.00376087
0.00308075
0.0025253
0.00207202
0.00170303
0.00140312
0.00115263
0.000929791
0.000738827
0.000632817
0.000461358
0.000343236
0.000323002
0.000129736
0.000116525
0.000122456
-0.00415973
-0.0133578
-0.0259361
-0.0468619
-0.0893614
-0.207664
-0.876966
-14.0675
-14.0654
-0.870714
-0.196772
-0.0730129
-0.0237893
0.00583841
0.0303221
0.0564901
0.0904428
0.141579
0.230078
0.412417
0.919731
3.77832
60.0349
60.0355
3.78002
0.922693
0.416858
0.236348
0.15022
0.102307
0.0729545
0.0537346
0.0405255
0.0311116
0.0242123
0.0190438
0.0151041
0.012059
0.00967893
0.00780174
0.00631026
0.00511814
0.00416063
0.00338848
0.00276376
0.00225698
0.00184496
0.00150939
0.00123568
0.00101221
0.000829702
0.000680772
0.000559559
0.000461163
0.000379023
0.000305348
0.000241393
0.000209666
0.000152958
0.000108384
0.000107685
4.76358e-05
3.22056e-05
3.36872e-05
)
;

boundaryField
{
    left
    {
        type            calculated;
        value           uniform 0;
    }
    right
    {
        type            calculated;
        value           uniform 0;
    }
    interface
    {
        type            calculated;
        value           nonuniform List<scalar> 
64
(
-0.00415973
-0.0133578
-0.0259361
-0.0468619
-0.0893614
-0.207664
-0.876966
-14.0675
-14.0654
-0.870714
-0.196772
-0.0730129
-0.0237893
0.00583841
0.0303221
0.0564901
0.0904428
0.141579
0.230078
0.412417
0.919731
3.77832
60.0349
60.0355
3.78002
0.922693
0.416858
0.236348
0.15022
0.102307
0.0729545
0.0537346
0.0405255
0.0311116
0.0242123
0.0190438
0.0151041
0.012059
0.00967893
0.00780174
0.00631026
0.00511814
0.00416063
0.00338848
0.00276376
0.00225698
0.00184496
0.00150939
0.00123568
0.00101221
0.000829702
0.000680772
0.000559559
0.000461163
0.000379023
0.000305348
0.000241393
0.000209666
0.000152958
0.000108384
0.000107685
4.76358e-05
3.22056e-05
3.36872e-05
)
;
    }
    bottom
    {
        type            calculated;
        value           nonuniform List<scalar> 
64
(
-0.00169365
-0.00493795
-0.00777054
-0.00990487
-0.0110528
-0.0109444
-0.00931412
-0.00594352
-0.000673728
0.00658495
0.0158428
0.0270286
0.0399925
0.0545068
0.0702635
0.0868669
0.103825
0.120546
0.136352
0.150506
0.162277
0.171008
0.176207
0.177617
0.17526
0.169433
0.160663
0.149628
0.137065
0.123689
0.110132
0.0969051
0.084385
0.0728219
0.0623559
0.0530391
0.0448586
0.0377575
0.0316514
0.0264421
0.0220267
0.0183045
0.0151808
0.0125689
0.0103918
0.00858171
0.00707982
0.00583577
0.00480667
0.00395622
0.00325384
0.00267388
0.00219484
0.00179876
0.00147062
0.00119792
0.000970247
0.000778927
0.000616665
0.000477247
0.000355299
0.000246092
0.000145196
4.81373e-05
)
;
    }
    defaultFaces
    {
        type            empty;
    }
}


// ************************************************************************* //
