/*--------------------------------*- C++ -*----------------------------------*\
| =========                 |                                                 |
| \\      /  F ield         | OpenFOAM: The Open Source CFD Toolbox           |
|  \\    /   O peration     | Version:  5.x                                   |
|   \\  /    A nd           | Web:      www.OpenFOAM.org                      |
|    \\/     M anipulation  |                                                 |
\*---------------------------------------------------------------------------*/
FoamFile
{
    version     2.0;
    format      ascii;
    class       volScalarField;
    location    "0.2";
    object      T;
}
// * * * * * * * * * * * * * * * * * * * * * * * * * * * * * * * * * * * * * //

dimensions      [0 0 0 1 0 0 0];

internalField   nonuniform List<scalar> 
2048
(
9.81545
9.81539
9.81529
9.81515
9.81498
9.81481
9.81464
9.81451
9.81446
9.81449
9.81466
9.81499
9.81551
9.81624
9.81721
9.81843
9.81992
9.82168
9.82369
9.82594
9.82839
9.83101
9.83374
9.83652
9.83929
9.84199
9.84458
9.84701
9.84926
9.8513
9.85312
9.85474
9.85615
9.85738
9.85843
9.85933
9.86009
9.86073
9.86127
9.86172
9.86209
9.8624
9.86266
9.86288
9.86306
9.8632
9.86333
9.86343
9.86351
9.86358
9.86363
9.86368
9.86371
9.86375
9.86377
9.86379
9.86381
9.86382
9.86383
9.86384
9.86385
9.86385
9.86386
9.86386
9.45448
9.45432
9.45402
9.45359
9.45308
9.45254
9.45203
9.45163
9.45143
9.45152
9.45199
9.45293
9.45444
9.45659
9.45944
9.46306
9.46746
9.47265
9.47862
9.4853
9.49259
9.50037
9.50848
9.51675
9.52499
9.53303
9.54072
9.54793
9.55458
9.56061
9.56601
9.57078
9.57495
9.57855
9.58165
9.58428
9.58652
9.5884
9.58998
9.5913
9.5924
9.59332
9.59408
9.59471
9.59523
9.59566
9.59601
9.59631
9.59655
9.59675
9.59691
9.59704
9.59715
9.59724
9.59732
9.59738
9.59743
9.59747
9.5975
9.59752
9.59754
9.59756
9.59757
9.59757
9.10951
9.10924
9.10871
9.10798
9.1071
9.10616
9.10527
9.10455
9.10414
9.1042
9.10489
9.10636
9.10876
9.11221
9.11683
9.12271
9.12989
9.1384
9.14819
9.15917
9.17119
9.18403
9.19742
9.21108
9.22468
9.23794
9.2506
9.26246
9.27336
9.28324
9.29205
9.29981
9.30658
9.31243
9.31743
9.32169
9.3253
9.32833
9.33087
9.333
9.33477
9.33624
9.33746
9.33847
9.3393
9.33999
9.34056
9.34103
9.34142
9.34173
9.342
9.34221
9.34239
9.34253
9.34265
9.34275
9.34282
9.34289
9.34294
9.34298
9.34301
9.34303
9.34304
9.34305
8.77992
8.77953
8.77877
8.7777
8.77641
8.77502
8.77367
8.77254
8.77183
8.77177
8.77256
8.77443
8.77758
8.78221
8.78846
8.79647
8.80631
8.81801
8.83153
8.84673
8.86342
8.88128
8.89994
8.91896
8.9379
8.95633
8.97389
8.99029
9.00532
9.01889
9.03095
9.04155
9.05076
9.05869
9.06546
9.07121
9.07607
9.08015
9.08357
9.08641
9.08878
9.09075
9.09238
9.09373
9.09485
9.09577
9.09653
9.09715
9.09767
9.09809
9.09844
9.09873
9.09896
9.09915
9.09931
9.09944
9.09955
9.09963
9.0997
9.09975
9.09979
9.09982
9.09984
9.09985
8.46514
8.46462
8.4636
8.46216
8.4604
8.45848
8.45658
8.45494
8.45381
8.45347
8.45423
8.45636
8.46012
8.46576
8.4735
8.48349
8.49586
8.51064
8.5278
8.54719
8.56854
8.59145
8.61541
8.63985
8.66417
8.68779
8.71022
8.73108
8.75014
8.76725
8.78241
8.79567
8.80714
8.81699
8.82538
8.83247
8.83845
8.84346
8.84765
8.85114
8.85403
8.85644
8.85843
8.86007
8.86143
8.86255
8.86347
8.86423
8.86486
8.86537
8.8658
8.86615
8.86643
8.86667
8.86686
8.86701
8.86714
8.86724
8.86733
8.86739
8.86744
8.86748
8.8675
8.86751
8.1646
8.16393
8.16262
8.16076
8.15847
8.15594
8.15338
8.15109
8.1494
8.14864
8.1492
8.15142
8.15562
8.16212
8.17118
8.18301
8.19777
8.21553
8.23627
8.25982
8.28585
8.31388
8.34326
8.37324
8.40303
8.43189
8.4592
8.48449
8.50747
8.528
8.54608
8.56181
8.57537
8.58696
8.59678
8.60507
8.61204
8.61786
8.62271
8.62674
8.63009
8.63286
8.63516
8.63705
8.63861
8.6399
8.64096
8.64183
8.64255
8.64314
8.64363
8.64403
8.64436
8.64463
8.64485
8.64503
8.64517
8.64529
8.64539
8.64546
8.64552
8.64556
8.64558
8.6456
7.87775
7.87691
7.87529
7.87296
7.87007
7.86682
7.86348
7.86041
7.85798
7.85664
7.85682
7.85895
7.86343
7.87061
7.88081
7.89432
7.91132
7.93195
7.9562
7.98391
8.01469
8.04796
8.08292
8.11861
8.15404
8.18826
8.22049
8.25016
8.27696
8.30076
8.32158
8.33961
8.35505
8.36818
8.37927
8.3886
8.3964
8.4029
8.40832
8.41281
8.41653
8.4196
8.42214
8.42424
8.42596
8.42739
8.42856
8.42952
8.43032
8.43097
8.43151
8.43195
8.43231
8.43261
8.43285
8.43305
8.43321
8.43334
8.43344
8.43352
8.43359
8.43363
8.43366
8.43368
7.60403
7.60302
7.60105
7.59821
7.59464
7.59058
7.58634
7.58232
7.57899
7.57687
7.57648
7.57834
7.5829
7.59058
7.60176
7.61676
7.63587
7.65924
7.68694
7.7188
7.75441
7.79309
7.83385
7.8755
7.91678
7.95649
7.9937
8.02774
8.05826
8.08516
8.10855
8.12865
8.14577
8.16025
8.17242
8.18261
8.19111
8.19818
8.20404
8.20889
8.2129
8.21622
8.21895
8.2212
8.22306
8.22459
8.22585
8.22688
8.22773
8.22843
8.229
8.22948
8.22986
8.23018
8.23044
8.23065
8.23083
8.23096
8.23108
8.23116
8.23123
8.23128
8.23131
8.23133
7.34293
7.34174
7.33939
7.33599
7.33167
7.3267
7.32141
7.31628
7.31186
7.30877
7.30762
7.30901
7.31346
7.32146
7.33342
7.34975
7.37079
7.39678
7.42783
7.46385
7.5044
7.54869
7.59554
7.64345
7.69084
7.73624
7.77851
7.81689
7.85101
7.88084
7.90657
7.92852
7.9471
7.96272
7.97579
7.98668
7.99573
8.00323
8.00944
8.01457
8.0188
8.02229
8.02517
8.02753
8.02948
8.03108
8.0324
8.03348
8.03437
8.03511
8.03571
8.0362
8.03661
8.03694
8.03721
8.03743
8.03761
8.03776
8.03788
8.03797
8.03804
8.03809
8.03812
8.03814
7.09393
7.09254
7.08981
7.08581
7.08068
7.07469
7.06822
7.0618
7.05608
7.05181
7.0497
7.05043
7.05459
7.06271
7.07528
7.09274
7.11551
7.14396
7.17828
7.21845
7.26405
7.31419
7.36746
7.42201
7.47585
7.52716
7.57458
7.61725
7.65484
7.6874
7.71524
7.73881
7.75861
7.77517
7.78894
7.80037
7.80983
7.81765
7.8241
7.82942
7.8338
7.8374
7.84037
7.84281
7.84481
7.84646
7.84782
7.84893
7.84985
7.8506
7.85122
7.85173
7.85214
7.85248
7.85276
7.85299
7.85318
7.85333
7.85345
7.85354
7.85361
7.85366
7.8537
7.85371
6.85653
6.85495
6.85181
6.84718
6.84119
6.83408
6.82628
6.81838
6.81117
6.80549
6.80221
6.80209
6.80578
6.81385
6.82682
6.84521
6.86953
6.90025
6.93771
6.98201
7.03277
7.08904
7.14913
7.21077
7.27145
7.32894
7.3816
7.4285
7.46939
7.50445
7.53415
7.55908
7.57987
7.59714
7.61143
7.62324
7.63297
7.64099
7.64759
7.65301
7.65747
7.66114
7.66416
7.66663
7.66867
7.67034
7.67171
7.67284
7.67376
7.67452
7.67515
7.67566
7.67608
7.67643
7.67671
7.67694
7.67713
7.67728
7.6774
7.6775
7.67757
7.67762
7.67765
7.67767
6.63025
6.62847
6.62493
6.61965
6.61274
6.60443
6.59515
6.58558
6.57664
6.56934
6.56469
6.56354
6.56658
6.57442
6.5876
6.60671
6.63235
6.66513
6.70558
6.75394
6.80999
6.87268
6.94007
7.00934
7.07734
7.14129
7.19927
7.25033
7.29431
7.33161
7.36288
7.3889
7.41043
7.4282
7.44283
7.45485
7.46473
7.47284
7.47949
7.48495
7.48944
7.49312
7.49614
7.49861
7.50065
7.50232
7.50369
7.50482
7.50574
7.5065
7.50712
7.50763
7.50805
7.5084
7.50868
7.50891
7.5091
7.50925
7.50937
7.50946
7.50954
7.50959
7.50962
7.50964
6.41461
6.41264
6.4087
6.40277
6.39491
6.38532
6.37442
6.36297
6.35205
6.34289
6.33666
6.33431
6.33656
6.34401
6.35722
6.37683
6.40355
6.43814
6.48136
6.5337
6.59511
6.66457
6.73982
6.81737
6.89323
6.96396
7.02733
7.0824
7.12923
7.16846
7.20101
7.22783
7.24986
7.26791
7.28269
7.29479
7.30468
7.31278
7.31941
7.32484
7.32929
7.33294
7.33593
7.33838
7.34039
7.34204
7.34339
7.3445
7.34542
7.34616
7.34678
7.34728
7.3477
7.34804
7.34831
7.34854
7.34873
7.34887
7.34899
7.34909
7.34916
7.34921
7.34924
7.34926
6.20914
6.207
6.20268
6.19612
6.18729
6.17634
6.16368
6.15013
6.13698
6.12571
6.11771
6.114
6.11532
6.12224
6.13531
6.1552
6.18273
6.21885
6.26458
6.32074
6.38757
6.46416
6.54791
6.63451
6.71887
6.79672
6.86551
6.92441
6.97379
7.01462
7.04811
7.07545
7.09772
7.11585
7.13061
7.14263
7.15243
7.16043
7.16696
7.1723
7.17667
7.18024
7.18317
7.18557
7.18753
7.18915
7.19047
7.19155
7.19244
7.19317
7.19377
7.19426
7.19466
7.19499
7.19527
7.19549
7.19567
7.19581
7.19593
7.19602
7.19609
7.19614
7.19617
7.19618
6.0134
6.0111
6.00643
5.99926
5.98948
5.97714
5.96257
5.94669
5.93101
5.91737
5.9074
5.90221
5.9025
5.90876
5.92153
5.94148
5.96953
6.00686
6.05479
6.11455
6.18681
6.27088
6.36387
6.46046
6.55406
6.63938
6.71357
6.77606
6.82762
6.86967
6.90375
6.93131
6.95357
6.97157
6.98615
6.99798
7.00758
7.0154
7.02177
7.02696
7.0312
7.03467
7.03751
7.03983
7.04173
7.04329
7.04457
7.04562
7.04647
7.04718
7.04776
7.04823
7.04862
7.04894
7.0492
7.04942
7.04959
7.04973
7.04984
7.04993
7.05
7.05004
7.05007
7.05009
5.82693
5.8245
5.81953
5.81181
5.80111
5.78734
5.77074
5.75227
5.73374
5.71745
5.70534
5.69857
5.69775
5.70327
5.71558
5.73537
5.76366
5.80183
5.85156
5.91462
5.99223
6.08414
6.18726
6.29495
6.39865
6.49178
6.5713
6.63702
6.69035
6.7332
6.76752
6.79498
6.817
6.83468
6.84893
6.86044
6.86976
6.87732
6.88346
6.88847
6.89255
6.89588
6.89861
6.90083
6.90266
6.90415
6.90537
6.90638
6.9072
6.90787
6.90843
6.90888
6.90925
6.90956
6.90981
6.91001
6.91018
6.91032
6.91042
6.91051
6.91057
6.91061
6.91064
6.91065
5.64931
5.64678
5.64156
5.63337
5.62181
5.60662
5.58787
5.56653
5.54477
5.52555
5.51113
5.50272
5.50075
5.50546
5.51719
5.53661
5.56483
5.60344
5.65453
5.72046
5.80327
5.90336
6.01759
6.13775
6.25255
6.35382
6.43846
6.50699
6.56158
6.60479
6.63896
6.66604
6.68758
6.70478
6.71856
6.72965
6.7386
6.74584
6.75171
6.75649
6.76038
6.76355
6.76614
6.76826
6.76999
6.77141
6.77257
6.77352
6.7743
6.77494
6.77547
6.7759
6.77625
6.77654
6.77678
6.77697
6.77713
6.77726
6.77736
6.77744
6.7775
6.77754
6.77757
6.77758
5.48012
5.47752
5.47213
5.46355
5.45123
5.43467
5.41367
5.38916
5.36374
5.34124
5.32439
5.31432
5.31121
5.31508
5.32613
5.34498
5.3728
5.41143
5.46336
5.53165
5.61933
5.72787
5.85436
5.9887
6.11573
6.22539
6.31484
6.38563
6.44093
6.48402
6.51767
6.54408
6.56492
6.58146
6.59466
6.60524
6.61375
6.62062
6.62619
6.6307
6.63438
6.63737
6.63981
6.64181
6.64344
6.64477
6.64587
6.64676
6.64749
6.6481
6.64859
6.64899
6.64932
6.6496
6.64982
6.65
6.65015
6.65027
6.65037
6.65044
6.6505
6.65054
6.65056
6.65057
5.31895
5.31633
5.31083
5.30198
5.28904
5.27118
5.24789
5.21987
5.19024
5.16412
5.14475
5.13305
5.12886
5.13189
5.14216
5.16025
5.18739
5.22558
5.27775
5.34775
5.43984
5.557
5.69704
5.84768
5.98823
6.10645
6.20021
6.27259
6.32799
6.37046
6.40322
6.42868
6.44864
6.46438
6.47689
6.48688
6.49489
6.50135
6.50657
6.5108
6.51424
6.51704
6.51932
6.52118
6.52271
6.52395
6.52497
6.5258
6.52649
6.52705
6.52751
6.52788
6.52819
6.52845
6.52866
6.52883
6.52896
6.52908
6.52917
6.52923
6.52929
6.52932
6.52934
6.52936
5.1654
5.1628
5.15729
5.1483
5.13489
5.11589
5.09027
5.05839
5.02389
4.99378
4.97184
4.95861
4.95343
4.95565
4.9651
4.98226
5.0084
5.04569
5.09747
5.1684
5.26422
5.38999
5.54503
5.71467
5.8702
5.99696
6.09434
6.16751
6.22233
6.26368
6.29519
6.31946
6.33835
6.35317
6.3649
6.37423
6.38171
6.38772
6.39257
6.3965
6.39968
6.40228
6.40439
6.40611
6.40752
6.40867
6.40961
6.41038
6.41101
6.41153
6.41196
6.4123
6.41259
6.41283
6.41302
6.41318
6.4133
6.41341
6.41349
6.41355
6.4136
6.41363
6.41365
6.41367
5.0191
5.01656
5.01112
5.00215
4.98847
4.96853
4.94064
4.9045
4.86428
4.8298
4.8053
4.79072
4.7847
4.78617
4.79475
4.81084
4.8357
4.87163
4.92233
4.99329
5.09191
5.22601
5.39762
5.5898
5.76185
5.89688
5.99696
6.06999
6.12353
6.16327
6.19319
6.21604
6.2337
6.2475
6.25837
6.26701
6.2739
6.27944
6.2839
6.28751
6.29044
6.29281
6.29475
6.29633
6.29762
6.29867
6.29953
6.30024
6.30082
6.30129
6.30168
6.302
6.30226
6.30247
6.30265
6.3028
6.30291
6.30301
6.30308
6.30314
6.30318
6.30321
6.30323
6.30325
4.87969
4.87723
4.87197
4.86316
4.84945
4.82884
4.79881
4.75803
4.711
4.67173
4.64481
4.62911
4.62243
4.62324
4.63095
4.64584
4.66915
4.70327
4.75218
4.82214
4.92237
5.06417
5.25397
5.47334
5.66354
5.80619
5.90775
5.97963
6.03115
6.06879
6.09682
6.11805
6.13436
6.14705
6.15701
6.16491
6.1712
6.17624
6.1803
6.18358
6.18624
6.1884
6.19015
6.19158
6.19275
6.19371
6.19449
6.19513
6.19565
6.19608
6.19643
6.19672
6.19696
6.19715
6.19731
6.19744
6.19755
6.19763
6.1977
6.19775
6.1978
6.19782
6.19784
6.19785
4.74679
4.74448
4.73948
4.73099
4.7175
4.69657
4.66467
4.61888
4.56356
4.51913
4.49005
4.47355
4.46644
4.4667
4.47352
4.4871
4.50864
4.54053
4.58693
4.65479
4.75513
4.90348
5.11301
5.36582
5.57571
5.72483
5.82638
5.89596
5.94474
5.97984
6.0057
6.02514
6.04
6.05151
6.06053
6.06766
6.07332
6.07786
6.08151
6.08446
6.08684
6.08878
6.09035
6.09164
6.09269
6.09354
6.09424
6.09481
6.09528
6.09567
6.09598
6.09624
6.09645
6.09663
6.09677
6.09689
6.09698
6.09706
6.09712
6.09716
6.0972
6.09723
6.09724
6.09725
4.6201
4.61795
4.61329
4.60528
4.59229
4.57146
4.53812
4.48703
4.42141
4.37154
4.3407
4.32383
4.31653
4.31635
4.32231
4.33451
4.35407
4.38334
4.42655
4.49111
4.58977
4.74288
4.97334
5.2681
5.4989
5.65268
5.75242
5.81852
5.86386
5.89602
5.91948
5.937
5.95033
5.96062
5.96866
5.975
5.98004
5.98406
5.9873
5.98991
5.99202
5.99373
5.99513
5.99626
5.99719
5.99795
5.99856
5.99907
5.99948
5.99982
6.0001
6.00033
6.00052
6.00067
6.0008
6.0009
6.00099
6.00105
6.00111
6.00115
6.00118
6.0012
6.00121
6.00123
4.49927
4.49733
4.49309
4.48571
4.4735
4.45325
4.41908
4.36259
4.28393
4.2285
4.19652
4.17974
4.17252
4.17203
4.17715
4.18792
4.20534
4.23167
4.27104
4.3311
4.42601
4.58123
4.83312
5.18156
5.43373
5.58956
5.68541
5.74682
5.78807
5.81694
5.83782
5.85332
5.86506
5.8741
5.88114
5.88669
5.89109
5.89461
5.89743
5.89971
5.90155
5.90304
5.90425
5.90524
5.90605
5.90671
5.90725
5.90769
5.90805
5.90834
5.90858
5.90878
5.90894
5.90908
5.90919
5.90928
5.90935
5.90941
5.90946
5.90949
5.90952
5.90954
5.90955
5.90956
4.38401
4.3823
4.37854
4.37193
4.36077
4.34165
4.3075
4.24582
4.15031
4.08954
4.05727
4.04113
4.03427
4.03358
4.0379
4.04719
4.06236
4.08546
4.12043
4.17483
4.26368
4.41743
4.68981
5.10824
5.38087
5.53513
5.62479
5.68035
5.71694
5.74223
5.76039
5.7738
5.78393
5.7917
5.79775
5.80251
5.80628
5.80928
5.8117
5.81364
5.81522
5.81649
5.81753
5.81837
5.81906
5.81962
5.82008
5.82046
5.82076
5.82101
5.82122
5.82139
5.82153
5.82164
5.82174
5.82181
5.82188
5.82193
5.82197
5.82199
5.82202
5.82204
5.82204
5.82206
4.27404
4.27257
4.26935
4.26361
4.25377
4.23636
4.20333
4.13725
4.01955
3.95423
3.92278
3.90785
3.9016
3.90084
3.90439
3.91219
3.92502
3.94469
3.97479
4.02243
4.10281
4.2504
4.53997
5.05114
5.34092
5.48893
5.56999
5.6186
5.65005
5.67157
5.68691
5.6982
5.70669
5.7132
5.71826
5.72223
5.72538
5.72789
5.7299
5.73152
5.73283
5.73389
5.73475
5.73545
5.73602
5.73649
5.73687
5.73719
5.73744
5.73765
5.73782
5.73796
5.73808
5.73818
5.73825
5.73832
5.73837
5.73841
5.73845
5.73847
5.73849
5.7385
5.73851
5.73852
4.16908
4.16788
4.16522
4.16046
4.15216
4.13701
4.10647
4.03769
3.89036
3.82219
3.79292
3.77978
3.77438
3.77363
3.77646
3.78277
3.79322
3.80932
3.83418
3.87415
3.94363
4.07929
4.37886
5.01455
5.31429
5.45029
5.52032
5.56107
5.58702
5.60462
5.61711
5.62626
5.63313
5.63839
5.64246
5.64566
5.6482
5.65022
5.65184
5.65314
5.65419
5.65504
5.65574
5.6563
5.65676
5.65714
5.65744
5.6577
5.6579
5.65807
5.65821
5.65832
5.65841
5.65849
5.65855
5.6586
5.65865
5.65868
5.65871
5.65872
5.65874
5.65875
5.65876
5.65877
4.06888
4.06795
4.06588
4.06215
4.05557
4.04323
4.01676
3.94837
3.76104
3.69312
3.66762
3.65682
3.65246
3.65181
3.65395
3.65879
3.66684
3.67931
3.69869
3.73025
3.78661
3.90363
4.20004
5.00451
5.30105
5.41834
5.47511
5.50727
5.52749
5.5411
5.55072
5.55775
5.56302
5.56705
5.57017
5.57262
5.57455
5.5761
5.57733
5.57833
5.57913
5.57978
5.58031
5.58074
5.5811
5.58138
5.58162
5.58181
5.58196
5.58209
5.5822
5.58228
5.58236
5.58241
5.58246
5.5825
5.58253
5.58256
5.58258
5.58259
5.58261
5.58262
5.58262
5.58262
3.9732
3.97254
3.97107
3.96841
3.96367
3.95458
3.93388
3.87107
3.62939
3.56691
3.54689
3.53887
3.53569
3.53519
3.53668
3.54009
3.54577
3.55459
3.56837
3.59104
3.63243
3.7236
3.99479
5.02934
5.30061
5.39198
5.43366
5.45675
5.47112
5.48075
5.48753
5.49248
5.49618
5.49901
5.5012
5.50291
5.50427
5.50535
5.50622
5.50692
5.50748
5.50794
5.50831
5.50861
5.50886
5.50906
5.50922
5.50936
5.50946
5.50955
5.50963
5.50969
5.50974
5.50978
5.50981
5.50984
5.50986
5.50988
5.5099
5.5099
5.50991
5.50992
5.50992
5.50993
3.88181
3.88142
3.88055
3.87897
3.87612
3.87059
3.85729
3.80827
3.49248
3.44366
3.43076
3.42586
3.42393
3.42362
3.4245
3.42651
3.42986
3.43509
3.44327
3.45683
3.48198
3.54039
3.75139
5.10038
5.31142
5.36995
5.39527
5.40908
5.41761
5.42331
5.42732
5.43024
5.43242
5.43409
5.43538
5.43639
5.43719
5.43782
5.43833
5.43874
5.43908
5.43934
5.43956
5.43974
5.43988
5.44
5.4401
5.44018
5.44024
5.4403
5.44034
5.44037
5.4404
5.44043
5.44045
5.44046
5.44048
5.44049
5.4405
5.4405
5.44051
5.44051
5.44051
5.44052
3.79451
3.79438
3.79409
3.79357
3.79263
3.79077
3.78614
3.76337
3.34653
3.32382
3.31932
3.31767
3.31704
3.31693
3.31722
3.31788
3.31898
3.32071
3.32341
3.3279
3.3363
3.35664
3.45437
5.23273
5.33048
5.35085
5.35931
5.36388
5.3667
5.36858
5.36989
5.37086
5.37157
5.37212
5.37255
5.37288
5.37314
5.37335
5.37352
5.37365
5.37376
5.37385
5.37392
5.37398
5.37403
5.37407
5.3741
5.37412
5.37415
5.37416
5.37418
5.37419
5.3742
5.37421
5.37421
5.37422
5.37422
5.37423
5.37423
5.37423
5.37423
5.37423
5.37423
5.37423
)
;

boundaryField
{
    left
    {
        type            zeroGradient;
    }
    right
    {
        type            zeroGradient;
    }
    interface
    {
        type            fixedValue;
        value           nonuniform List<scalar> 
64
(
3.75186
3.75186
3.75186
3.75186
3.75186
3.75186
3.75186
3.75186
3.2648
3.2648
3.2648
3.2648
3.2648
3.2648
3.2648
3.2648
3.2648
3.2648
3.2648
3.2648
3.2648
3.2648
3.2648
5.34188
5.34188
5.34188
5.34188
5.34188
5.34188
5.34188
5.34188
5.34188
5.34188
5.34188
5.34188
5.34188
5.34188
5.34188
5.34188
5.34188
5.34188
5.34188
5.34188
5.34188
5.34188
5.34188
5.34188
5.34188
5.34188
5.34188
5.34188
5.34188
5.34188
5.34188
5.34188
5.34188
5.34188
5.34188
5.34188
5.34188
5.34188
5.34188
5.34188
5.34188
)
;
    }
    bottom
    {
        type            fixedValue;
        value           uniform 10;
    }
    defaultFaces
    {
        type            empty;
    }
}


// ************************************************************************* //
