/*--------------------------------*- C++ -*----------------------------------*\
| =========                 |                                                 |
| \\      /  F ield         | OpenFOAM: The Open Source CFD Toolbox           |
|  \\    /   O peration     | Version:  5.x                                   |
|   \\  /    A nd           | Web:      www.OpenFOAM.org                      |
|    \\/     M anipulation  |                                                 |
\*---------------------------------------------------------------------------*/
FoamFile
{
    version     2.0;
    format      ascii;
    class       volScalarField;
    location    "0.2";
    object      gradTy;
}
// * * * * * * * * * * * * * * * * * * * * * * * * * * * * * * * * * * * * * //

dimensions      [0 -1 0 1 0 0 0];

internalField   nonuniform List<scalar> 
6300
(
14170
40473.2
66666.2
92674.8
118424
143837
168838
193346
217285
240574
263138
284901
305797
325765
344753
53.7518
161.566
270.279
380.38
492.185
605.753
720.793
836.568
951.798
1064.6
1172.45
1272.28
1360.65
1433.99
1489.08
89.2419
268.279
448.926
632.079
818.358
1007.96
1200.53
1394.91
1589.06
1779.86
1963.02
2133.25
2284.46
2410.29
2504.9
124.177
373.379
625.058
880.642
1141.19
1407.22
1678.43
1953.49
2229.7
2502.76
2766.57
3013.3
3233.71
3417.92
3556.63
158.262
475.993
797.276
1124.23
1458.54
1801.26
2152.48
2510.91
2873.5
3234.93
3587.25
3919.74
4219.24
4471.19
4661.4
191.134
575.044
963.809
1360.42
1767.46
2186.8
2619.29
3064.17
3518.47
3976.25
4427.82
4859.26
5252.45
5586.32
5839.5
222.361
669.226
1122.47
1586.16
2064.03
2559.17
3073.68
3607.98
4159.96
4723.79
5288.59
5837.11
6345.1
6782.34
7116.27
251.436
757.005
1270.65
1797.69
2343.27
2912.13
3508.25
4134.1
4789.59
5470.39
6165.7
6855.59
7508.67
8081.86
8524.76
277.803
836.678
1405.4
1990.63
2599.15
3237.77
3913.02
4630.53
5393.89
6202.49
7048.29
7910.97
8752.28
9511.9
10110.3
300.889
906.47
1523.56
2160.19
2824.85
3526.69
4275.43
5081.05
5952.88
6897.39
7914.04
8987.81
10077.7
11103.4
11938.3
320.157
964.701
1622.12
2301.6
3013.26
3768.59
4580.82
5465.26
6439.09
7520.09
8722.69
10048.6
11467.7
12885.8
14106.8
335.17
1009.99
1698.51
2410.69
3157.84
3953.4
4813.83
5759.91
6817.99
8021.1
9408
11016.2
12858.8
14865.6
16766.8
345.673
1041.51
1751.11
2484.62
3253.81
4073.09
4960.97
5942.31
7051.66
8338.17
9871.94
11749.4
14085.7
16951.4
20132.2
351.645
1059.16
1779.64
2522.66
3299.43
4123.87
5014.32
5996.39
7107.89
8407.71
9992.01
12023.9
14783.2
18722.3
24327.1
353.346
1063.73
1785.41
2526.66
3297.04
4108.26
4975.64
5920.61
6975.4
8192.41
9664.25
11570.6
14301.1
18827.7
28022.7
361227
375481
389006
401803
413880
425249
435932
445953
455341
464128
472350
480042
487240
493983
500306
506246
511838
517115
522109
526852
531372
535696
539849
543855
547735
551508
555190
558796
562337
565824
569265
572665
576028
579357
582655
585920
589153
592353
595518
598646
601735
604780
607779
610727
613619
616451
619218
621915
624539
627085
629548
631922
634204
636385
638460
640420
642257
643960
645518
646921
648155
649206
650061
650701
651109
651265
651145
650725
649975
648866
647363
645429
643025
640109
636637
632562
627834
622403
616215
609215
601349
592560
582794
572001
560132
547148
533015
517711
501223
483550
1520.55
1533.84
1531.62
1514.32
1482.96
1439.01
1384.23
1320.59
1250.05
1174.5
1095.68
1015.11
934.068
853.631
774.654
697.812
623.629
552.507
484.764
420.655
360.398
304.193
252.226
204.675
161.703
123.436
89.9447
61.2148
37.1203
17.4079
1.69605
-10.5019
-19.7334
-26.546
-31.426
-34.7513
-36.7716
-37.6214
-37.3593
-36.0234
-33.6859
-30.4909
-26.6636
-22.4868
-18.2516
-14.1952
-10.4444
-6.9804
-3.63288
-0.103372
3.98787
9.04287
15.4273
23.4243
33.2104
44.859
58.3719
73.7334
90.9729
110.222
131.749
155.97
183.431
214.763
250.621
291.626
338.301
391.028
450.022
515.344
586.924
664.62
748.271
837.727
932.856
1033.49
1139.37
1249.97
1364.44
1481.43
1599.02
1714.68
1825.34
1927.48
2017.36
2091.33
2146.06
2178.93
2188.18
2173.16
2558.79
2581.27
2576.9
2546.49
2491.9
2415.81
2321.43
2212.22
2091.65
1963
1829.22
1692.88
1556.12
1420.7
1288.01
1159.12
1034.85
915.819
802.52
695.338
594.611
500.654
413.778
334.29
262.487
198.619
142.847
95.1867
55.456
23.2317
-2.15759
-21.5946
-36.087
-46.6453
-54.1544
-59.2752
-62.4047
-63.7038
-63.1831
-60.82
-56.6752
-50.974
-44.1279
-36.6873
-29.2353
-22.2568
-16.0194
-10.5011
-5.38099
-0.0882249
6.10306
13.956
24.154
37.2073
53.4037
72.8138
95.3551
120.902
149.415
181.055
216.256
255.74
300.483
351.626
410.367
477.833
554.968
642.441
740.603
849.499
968.935
1098.59
1238.15
1387.36
1546.07
1714.14
1891.3
2076.92
2269.75
2467.7
2667.6
2865.19
3055.12
3231.19
3386.75
3515.22
3610.61
3668.13
3684.63
3658.89
3635.32
3667.51
3659.83
3613.64
3532
3419.17
3280.21
3120.47
2945.18
2759.19
2566.78
2371.59
2176.62
1984.24
1796.31
1614.21
1438.97
1271.37
1111.98
961.265
819.641
687.512
565.309
453.488
352.522
262.85
184.801
118.503
63.7736
20.0329
-13.7342
-38.9308
-57.2009
-70.203
-79.3622
-85.6803
-89.661
-91.3692
-90.5986
-87.0989
-80.8014
-71.9812
-61.3046
-49.7407
-38.3552
-28.0513
-19.3412
-12.2144
-6.12788
-0.103209
7.09989
16.7736
30.0533
47.7492
70.251
97.5332
129.27
165.041
204.573
247.953
295.756
349.065
409.402
478.582
558.516
651.008
757.548
879.16
1016.31
1168.92
1336.52
1518.45
1714.1
1923.12
2145.44
2381.17
2630.37
2892.63
3166.68
3449.93
3738.14
4025.2
4303.16
4562.58
4793.16
4984.57
5127.39
5214.06
5239.57
5202.02
4768.72
4811.4
4798.46
4732.16
4617.3
4460.5
4269.31
4051.53
3814.56
3565.08
3308.83
3050.52
2793.94
2541.99
2296.85
2060.08
1832.82
1615.84
1409.72
1214.92
1031.85
860.976
702.826
558.036
427.319
311.407
210.943
126.314
57.4659
3.71478
-36.3658
-64.9102
-84.5258
-97.8754
-107.199
-113.945
-118.642
-121.016
-120.316
-115.741
-106.861
-93.9294
-77.9955
-60.7425
-44.0914
-29.6923
-18.4922
-10.5076
-4.83245
0.167244
6.54586
16.4216
31.6247
53.4036
82.2444
117.86
159.387
205.758
256.162
310.429
369.241
434.146
507.421
591.82
690.268
805.529
939.874
1094.8
1270.87
1467.7
1684.22
1919.06
2171.1
2439.78
2725.31
3028.41
3349.99
3690.47
4049.19
4423.6
4808.64
5196.33
5575.65
5933.03
6253.29
6521
6721.98
6844.79
6881.89
6830.49
5981.36
6035.62
6014.21
5920.92
5763.38
5551.74
5297.15
5010.68
4702.46
4381.29
4054.41
3727.6
3405.26
3090.65
2786.06
2493.06
2212.67
1945.55
1692.1
1452.65
1227.53
1017.18
822.227
643.493
482.023
339.004
215.618
112.791
30.8633
-30.7904
-74.0571
-102.142
-119.215
-129.634
-136.981
-143.345
-149.1
-153.171
-153.651
-148.578
-136.708
-118.121
-94.4746
-68.7356
-44.4104
-24.5188
-10.7693
-3.19564
-0.250091
0.800266
3.33411
10.7955
26.1291
51.2824
86.8557
132.023
184.841
242.945
304.43
368.563
436.107
509.282
591.469
686.799
799.681
934.302
1094.11
1281.34
1496.62
1738.96
2006.05
2295.14
2604.02
2931.8
3279.16
3648.04
4041.04
4460.44
4907.16
5379.63
5872.64
6376.4
6876.25
7353.09
7784.91
8149.03
8424.46
8594.13
8646.75
8578.2
7301.85
7369.15
7333.85
7202.59
6987.85
6705.32
6371.46
6001.74
5609.67
5206.4
4800.65
4399.04
4006.31
3625.76
3259.52
2908.87
2574.49
2256.67
1955.49
1670.97
1403.22
1152.58
919.681
705.566
511.701
339.943
192.366
70.9213
-23.1202
-89.8917
-131.663
-153.215
-161.405
-163.666
-165.961
-171.339
-179.631
-188.081
-192.508
-188.672
-173.647
-146.979
-111.305
-71.9947
-35.6078
-7.71905
8.67939
13.667
10.0005
2.28751
-3.93547
-3.09176
9.58726
37.2472
80.7184
138.199
205.666
278.196
351.779
424.641
497.686
574.217
659.319
759.167
880.359
1029.23
1211.1
1429.44
1685.08
1975.87
2297.13
2643.25
3009.87
3395.4
3801.39
4231.98
4692.76
5189.36
5725.99
6303.63
6918.19
7558.67
8206.01
8833.47
9409.05
9899.38
10273.5
10506.1
10580
10489
8768.7
8850.78
8792.1
8604.95
8310.48
7933.43
7498.04
7025.68
6533.8
6035.88
5541.83
5058.61
4590.83
4141.32
3711.65
3302.44
2913.71
2545.15
2196.25
1866.56
1555.8
1264.01
991.752
740.218
511.363
307.957
133.462
-8.35258
-114.236
-182.78
-216.091
-221.163
-209.686
-195.125
-187.894
-192.446
-207.161
-225.934
-240.341
-241.895
-224.315
-185.722
-130.251
-67.8823
-11.3623
28.886
47.8857
46.3945
29.5584
5.18162
-17.767
-30.3616
-24.8423
4.12555
58.059
133.592
222.733
315.406
403.591
483.855
557.632
630.182
709.274
804.086
924.372
1079.69
1278.4
1526.33
1825.06
2170.59
2553.61
2962.57
3388.76
3829.36
4287.64
4771.52
5291.54
5858.9
6483.55
7171.77
7923.19
8727.2
9559.88
10383.4
11150.2
11810.7
12319.7
12639.5
12743.8
12621.8
10437.1
10535.6
10435.8
10162.4
9752.67
9246.24
8678.64
8078.56
7467.51
6860.73
6268.43
5697.02
5150.15
4629.54
4135.58
3667.84
3225.32
2806.78
2410.93
2036.56
1682.77
1349.13
1035.88
744.195
476.459
236.509
29.7642
-137.01
-256.674
-323.865
-338.557
-310.227
-259.6
-213.132
-189.864
-195.82
-225.65
-266.777
-303.297
-319.216
-301.725
-245.212
-155.541
-51.7214
39.9846
99.8207
120.414
105.138
64.0051
10.1578
-42.2807
-79.4291
-88.7301
-60.657
8.52994
113.539
238.769
363.055
470.722
556.308
623.258
680.672
740.556
816.269
921.808
1071.34
1278.25
1553.13
1900.23
2313.35
2774.13
3257.87
3747.13
4237.59
4736.37
5257.97
5820.66
6444.04
7147.13
7945.84
8848.66
9849.84
10921.4
12008.6
13037.1
13932.5
14629.9
15074.7
15224.5
15058.4
12391.8
12506.2
12330.3
11916.9
11334.8
10647.9
9906.88
9148.16
8396.08
7665.81
6966.1
6301.3
5672.94
5080.71
4523.22
3998.42
3503.98
3037.43
2596.41
2178.76
1782.67
1406.91
1051.08
715.924
403.883
119.691
-128.936
-330.846
-471.909
-537.679
-520.012
-428.339
-300.366
-194.466
-146.374
-161.32
-224.252
-310.513
-392.068
-440.707
-431.321
-348.403
-197.142
-14.0385
141.335
231.438
248.864
205.515
121.307
17.808
-83.9633
-163.638
-201.424
-179.648
-87.6747
69.1336
260.773
439.11
574.044
659.967
707.037
732.101
753.641
790.179
860.589
984.94
1184.57
1479.84
1883.65
2390.05
2963.37
3546.22
4104.1
4633.55
5151.49
5684.12
6260.91
6912.53
7670.67
8567.03
9628.66
10866.3
12254.4
13711.3
15107.1
16329.9
17293.9
17924
18149.6
17921.4
14775.8
14895.7
14567.1
13915
13068.7
12128.4
11161.6
10209.2
9294.34
8428.09
7614.76
6854.48
6145.13
5483.38
4865.36
4286.98
3744.22
3233.19
2750.21
2291.95
1855.44
1438.28
1038.87
656.857
293.814
-45.6101
-352.055
-609.323
-792.47
-868.429
-804.723
-595.311
-305.835
-88.9343
-8.35984
-53.8199
-185.206
-356.811
-523.879
-641.275
-662.254
-545.432
-280.043
68.0877
341.184
472.274
469.52
369.608
211.492
28.3026
-151.916
-302.441
-394.061
-393.899
-271.551
-19.9868
307.075
582.572
752.725
824.369
827.432
793.739
750.489
720.875
727.399
795.859
958.715
1255.36
1723.68
2373.7
3141.09
3871.62
4502.25
5045.76
5544.71
6045.71
6592.18
7226.14
7993.29
8947.74
10151.8
11661.3
13482.2
15493.6
17416.8
19088.8
20426.4
21343.5
21715.2
21410.2
17863.3
17931.8
17270.6
16193.7
14938.7
13648.1
12396.4
11217.6
10123.7
9115.5
8188.41
7335.8
6550.33
5824.74
5152.12
4526.08
3940.71
3390.55
2870.55
2376.04
1902.68
1446.53
1004.2
573.173
152.573
-255.421
-642.865
-991.268
-1263.98
-1396.76
-1295.61
-873.85
-202.99
216.822
315.208
181.663
-83.7859
-404.97
-722.342
-975.64
-1086.49
-951.27
-477.081
263.108
750.281
910.656
835.075
622.769
343.366
40.4564
-256.356
-519.51
-712.126
-777.34
-634.953
-211.738
433.124
882.784
1078.15
1092.52
1006
874.771
733.769
606.02
511.853
477.888
547.201
790.24
1307.71
2192.45
3374.22
4341.64
5025.61
5521.41
5934
6340.84
6796.54
7346.99
8044.99
8967.31
10232.2
12003.5
14428.8
17393.4
20076.1
22315.7
24149.5
25532.5
26239.5
25895.1
22288.1
22019.3
20573.6
18729.7
16860.9
15112.7
13527.4
12105.1
10831.2
9687.46
8656.32
7722.04
6871.03
6091.6
5373.71
4708.6
4088.56
3506.65
2956.48
2432.07
1927.66
1437.54
956.029
477.407
-3.7395
-491.583
-986.483
-1478.64
-1933.22
-2258.09
-2244.16
-1507.03
265.442
989.602
977.096
611.671
102.752
-453.456
-1007.61
-1509.42
-1859.18
-1839.39
-1051.59
827.567
1634.83
1693.72
1402.69
978.121
515.136
50.3962
-402.172
-830.58
-1205.71
-1451.65
-1394.94
-715.685
845.988
1554.13
1668.94
1510.94
1254.41
975.994
704.805
450.394
217.913
20.0749
-105.289
-61.0809
370.746
1589.06
3918.4
5219.94
5818.88
6115.53
6330.42
6564.85
6864.16
7255.53
7774.04
8493.75
9582.86
11401
14593
19688.1
23358.9
26109.8
28503.5
30676.3
32259
32225.2
29922.9
27802.1
24451
21302.6
18610.3
16344.2
14425.1
12780.2
11352.6
10098.9
8986.4
7990.12
7090.45
6271.76
5521.29
4828.35
4183.74
3579.35
3007.75
2461.88
1934.73
1419
906.662
388.399
-147.117
-714.109
-1330.39
-2016.23
-2785.15
-3603
-4229.67
-3626.67
2247.67
2827.46
2151.69
1253.14
362.603
-499.26
-1362.18
-2255.66
-3157.2
-3826.52
-3191.3
2940.55
3601.53
2985.34
2167.75
1394.55
695.877
49.9873
-574.84
-1209.66
-1875.9
-2551.87
-3041.59
-2481.87
2493.19
3083.81
2656.51
2075.79
1539.79
1073.31
659.261
271.894
-116.036
-531.064
-989.913
-1458.01
-1686.94
-605.756
5943.79
7107.76
7044.46
6824.87
6697.16
6695.01
6799.89
6982.65
7215.92
7491.41
7886.7
8821.51
12012.6
24020.3
27947.3
30396.6
33152.6
36646.5
40582.7
42942.2
47937.9
35357.7
28037.2
23220
19747.3
17077.2
14929.1
13144.1
11625.1
10308.5
9150.91
8120.92
7195.2
6355.74
5588.18
4880.72
4223.36
3607.31
3024.55
2467.42
1928.18
1398.55
868.954
327.529
-241.693
-861.986
-1570.21
-2430.06
-3562.16
-5218.45
-7980.85
-13332
11858.1
6477.43
3651.58
1888.06
586.665
-537.476
-1666.03
-2982.91
-4781.42
-7683.43
-13237.8
12935.2
7410.61
4570.91
2873.75
1709.47
807.371
26.9688
-724.36
-1533.61
-2520.86
-3907.7
-6185.77
-10593.6
10456.1
6080.29
3867.17
2580
1730.33
1101.9
583.527
103.977
-399.504
-1005.72
-1845.62
-3181.32
-5611.51
-10658.2
15719.1
10754.7
8488.59
7397.81
6881.19
6671.19
6625.37
6640.69
6602.47
6323.98
5422.99
3003.16
-3258.06
39965.5
34635.5
34213.4
36711.1
41951.5
51147.5
67949.4
462820
438553
412695
385331
356560
326492
295247
262952
229733
195717
161034
125807
90160
54214.9
18091.4
2130.38
2051.55
1944.79
1815.42
1669.18
1511.57
1347.44
1180.69
1014.2
849.857
688.724
531.118
376.774
225.001
74.8349
3584.99
3448.91
3265.12
3043.25
2793.52
2525.61
2247.84
1966.83
1687.35
1412.41
1143.59
881.246
624.796
372.95
124
5092.83
4891.85
4621.5
4297.06
3934.35
3547.96
3150.15
2750.3
2354.96
1968.02
1591.28
1224.9
867.718
517.652
172.051
6679.08
6400.78
6028.77
5586.14
5096.1
4579.29
4052.32
3527.4
3012.53
2512.08
2027.61
1558.59
1102.95
657.517
218.451
8373.64
7998.82
7502.3
6918.59
6280.92
5617.42
4949.51
4291.89
3653.45
3038.3
2447.04
1877.85
1327.25
790.596
262.557
10214.1
9713.03
9057.85
8300.25
7487.24
6656.07
5832.96
5034.24
4268.48
3538.38
2842.59
2177.21
1536.71
914.548
303.591
12248.8
11575
10709.9
9731.89
8706.86
7682.32
6688.16
5740.38
4845.08
4001.74
3205.75
2450.17
1726.79
1026.69
340.663
14541.8
13620.2
12467.3
11203.8
9919.95
8672.84
7492.36
6390.16
5366.48
4415.07
3526.35
2689.31
1892.43
1124.09
372.809
17182.8
15886.9
14326.4
12688
11089.3
9590.54
8213.03
6956.97
5811.87
4762.62
3792.86
2886.5
2028.27
1203.71
399.044
20302.1
18407.4
16254.1
14123.9
12151.7
10380.5
8806.71
7408.2
6157.48
5027.41
3993.35
3033.63
2129.11
1262.64
418.436
24092.8
21173.7
18147.2
15392
13005
10965.9
9219.15
7706.72
6378.33
5192.75
4116.8
3123.51
2190.48
1298.45
430.216
28819.7
24032.7
19756.7
16281.2
13501.5
11251.5
9390.97
7816.04
6452.04
5244.96
4154.81
3151.07
2209.41
1309.58
433.899
34598.8
26364.5
20552.5
16463.8
13459.1
11140
9270.91
7709.18
6364.47
5176.66
4103.64
3114.45
2185.03
1295.68
429.389
39487
26256.3
19611.1
15551.6
12721.9
10571
8837.33
7380.15
6115.72
4990.05
3965.91
3016
2119.11
1257.83
417.049
351.731
1058.21
1773.89
2505.33
3259.82
4045.83
4873.77
5757.22
6715.35
7777.7
8994.41
10459.4
12366.3
15153.6
19886.3
347.88
1045.96
1751.02
2467.8
3201.18
3956.08
4737.43
5549.76
6396.46
7277.89
8186.07
9087.29
9856.18
10000.2
7424.04
342.369
1028.7
1719.74
2418.41
3127.16
3847.48
4579.03
5317.84
6052.85
6758.92
7382.04
7806.66
7779.68
6735.71
3483.89
335.693
1007.99
1682.88
2361.62
3044.59
3730.49
4414.93
5087.86
5728.62
6296.82
6715.17
6839.05
6408.96
5004.13
2124.18
328.317
985.266
1643
2301.43
2959.42
3613.83
4258.07
4879.37
5453.92
5937.91
6251.91
6255.37
5714.49
4296.51
1714.59
320.642
961.764
1602.24
2241.02
2876.05
3503.43
4116.22
4702.38
5241.05
5695.98
6003.25
6048.68
5628.25
4396.55
1893.13
312.988
938.444
1562.2
2182.62
2797.23
3402.24
3991.84
4557.22
5085.11
5555.29
5935.13
6164.21
6104.21
5378.78
2962.11
305.592
916
1523.98
2127.54
2724.2
3310.72
3883.08
4436.76
4967.81
5475.8
5970.11
6478.88
7040.69
7534.08
6466.09
298.62
894.903
1488.25
2076.49
2657.22
3227.84
3785.94
4330.5
4864.86
5404.06
5993.18
6754.72
8022.6
10771.5
18207.3
292.186
875.465
1455.43
2029.79
2596.17
3152.33
3696.68
4229.62
4756.66
5295.61
5894.36
6676.58
7973.42
10750.8
18203.9
286.37
857.904
1425.81
1987.65
2540.97
3083.53
3613.63
4130.93
4638.06
5143.37
5665.66
6238.47
6893.21
7479.79
6463.18
281.233
842.394
1399.64
1950.35
2491.9
3021.76
3537.56
4037.17
4518.35
4976.79
5399.17
5740.66
5857.46
5319.3
2991.08
276.829
829.09
1377.16
1918.22
2449.45
2967.94
3470.64
3953.86
4411.81
4832.42
5185.87
5395.82
5273.61
4399.43
2055.2
273.207
818.138
1358.62
1891.65
2414.2
2923.11
3414.95
3885.47
4328.33
4731.56
5068.9
5278.21
5208.65
4497.74
2344.56
270.411
809.671
1344.24
1870.96
2386.64
2887.99
3371.54
3833.44
4269.18
4672.96
5037.1
5350.35
5585.13
5594.05
4393.03
268.481
803.808
1334.22
1856.44
2367.11
2862.89
3340.41
3796.48
4228.73
4638.07
5036.47
5472.46
6113.54
7525.41
11704.5
267.451
800.65
1328.74
1848.29
2355.85
2847.96
3321.24
3772.67
4200.43
4606.59
5005.13
5447.04
6100.81
7527.5
11710.8
267.351
800.29
1327.93
1846.73
2353.08
2843.39
3314.06
3761.65
4183.07
4575.9
4938.72
5269.02
5545.11
5607.41
4423.5
268.208
802.805
1331.94
1851.94
2359.08
2849.56
3319.51
3764.93
4181.19
4561.25
4889.66
5123
5131.9
4546.7
2453.01
270.042
808.263
1340.88
1864.11
2374.1
2866.88
3338.38
3784.32
4199.78
4577.34
4901.07
5126.99
5125.37
4528.31
2432.73
272.869
816.711
1354.85
1883.4
2398.38
2895.7
3371.14
3820.48
4239.72
4625.35
4974.49
5282.76
5526.05
5544.92
4332.89
276.696
828.175
1373.89
1909.89
2432.1
2936.24
3417.92
3872.86
4297.74
4692.85
5069.96
5476.82
6075.36
7408.98
11403.4
281.519
842.649
1398.02
1943.65
2475.37
2988.72
3478.95
3941.12
4370.82
4766.61
5137.94
5530.3
6105.87
7415.09
11398.9
287.321
860.088
1427.18
1984.65
2528.28
3053.43
3554.91
4026.66
4461.49
4850.73
5184.03
5448.61
5618.14
5553.33
4305.74
294.068
880.392
1461.23
2032.73
2590.74
3130.57
3646.72
4132.27
4577.49
4966.62
5270.06
5424.65
5284.58
4504.61
2320.16
301.704
903.401
1499.91
2087.58
2662.43
3219.96
3754.79
4260.05
4725.72
5134.46
5451.16
5596.49
5386.61
4423.69
2036.26
310.152
928.879
1542.83
2148.65
2742.66
3320.75
3878.17
4409.2
4906.36
5358.13
5742.25
6005.3
6001.74
5323.55
2918.51
319.308
956.522
1589.48
2215.19
2830.38
3431.45
4014.48
4575.47
5111.04
5620.14
6107.58
6588.18
7073.43
7411.15
6177.28
329.051
985.955
1639.23
2286.28
2924.28
3550.13
4160.56
4752.79
5326.3
5888.03
6466.92
7155.18
8232.59
10572.8
17142.9
339.237
1016.75
1691.35
2360.9
3023.01
3674.95
4313.7
4936.39
5541.73
6134.52
6738.92
7438.02
8496.85
10771.2
17219.5
349.707
1048.43
1745.05
2437.95
3125.21
3804.4
4472.42
5125.29
5757.83
6363.37
6933.62
7456.91
7898.84
8044.98
6428.74
360.286
1080.48
1799.47
2516.27
3229.49
3937.14
4636.18
5321.68
5984.71
6607.26
7149.68
7518.96
7490.51
6524.63
3428.3
370.777
1112.29
1853.64
2594.51
3334.25
4071.56
4804.05
5527.24
6231.96
6897.62
7475.22
7844.98
7719.82
6471.04
3031.74
380.963
1143.22
1906.46
2671.15
3437.5
4205.23
4973.33
5739.52
6498.97
7240.36
7934.88
8503.19
8717.3
7927.84
4452.23
390.608
1172.56
1956.72
2744.42
3536.82
4334.84
5139.19
5950.75
6771.55
7607.3
8472.44
9396.09
10399.4
11238.3
9636.03
399.46
1199.55
2003.12
2812.42
3629.57
4456.61
5295.74
6150.25
7027.32
7946
8959.95
10222.3
12182.1
16228.5
27076.5
407.261
1223.39
2044.32
2873.21
3713.11
4566.98
5437.81
6329.39
7248.4
8211.45
9266.11
10553
12500.7
16473.1
27172.2
413.748
1243.29
2078.98
2924.88
3784.98
4663
5562.28
6485.46
7433.9
8407.18
9403.12
10414.7
11399.4
12025.1
9953.04
418.658
1258.46
2105.74
2965.53
3842.8
4742.2
5667.6
6620.78
7598.08
8582.22
9522.9
10287.1
10536.8
9437.31
5105.5
421.729
1268.1
2123.26
2993.23
3884.1
4801.84
5751.77
6737.06
7754.53
8783.8
9760.65
10511.2
10604.3
9086.97
4335.88
422.707
1271.43
2130.19
3005.96
3906.08
4838.22
5810.26
6829.63
7901.01
9019.6
10152.9
11188.6
11786.7
10979.1
6287.33
421.358
1267.73
2125.22
3001.68
3905.64
4846.6
5835.52
6885.67
8014.12
9244.45
10612.2
12169.1
13944.7
15568.4
13713.4
417.486
1256.38
2107.22
2978.54
3879.81
4822
5818.63
6887.84
8057.05
9374.54
10941
12999.1
16210
22576.4
38900.9
410.955
1236.95
2075.37
2935.16
3826.3
4760.53
5752.48
6821.96
7998.67
9333.81
10930.7
13031.8
16288.2
22675.1
38954.9
401.706
1209.23
2029.28
2870.87
3744.02
4660.44
5634.33
6683.84
7832.95
9114.56
10574.3
12266.9
14198
15911.2
13919.9
389.759
1173.29
1969.06
2785.81
3633.24
4522.39
5466.15
6479.57
7578.81
8776.01
10061.2
11342.3
12265.8
11726.4
6840.18
375.218
1129.46
1895.27
2680.91
3495.38
4348.81
5252.63
6219.43
7261.05
8381.74
9557.29
10673.3
11357.3
10567.6
5871.45
358.262
1078.28
1808.91
2557.67
3332.71
4143.06
4998.9
5911.65
6893.56
7955.66
9102.2
10313.1
11482.2
12131.6
9802.39
339.129
1020.49
1711.27
2418.08
3148.02
3908.9
4709.59
5560.71
6476.22
7478.01
8610.97
9992.36
11980.7
15779.1
25744.3
318.11
956.99
1603.92
2264.48
2944.56
3650.53
4389.53
5170.29
6005.28
6916.94
7956.59
9261.87
11237.7
15167
25485.3
295.531
888.778
1488.61
2099.49
2726
3372.86
4044.98
4747.73
5487.73
6274.96
7127.48
8077.8
9153.98
10140.9
8910.71
271.736
816.911
1367.18
1925.89
2496.3
3081.43
3683.81
4304.95
4944.18
5595.72
6240.12
6817.81
7145.86
6670.26
3872.1
247.071
742.448
1241.48
1746.46
2259.4
2781.85
3314.33
3855.3
4398.88
4929.5
5408.48
5741.82
5707.47
4823.61
2274.75
221.867
666.401
1113.26
1563.78
2018.95
2479.17
2943.66
3409.48
3869.33
4307.03
4687.07
4931.32
4869.58
4142.55
2071.31
196.429
589.691
984.082
1380.13
1778.01
2177.33
2576.74
2973.37
3361.78
3732.4
4068.85
4343.39
4504.46
4405.02
3311.96
171.026
513.13
855.316
1197.43
1539
1879.11
2216.29
2548.4
2873.03
3189.11
3502.49
3844.57
4332.16
5370.76
8405.07
145.89
437.416
728.113
1017.24
1303.8
1586.48
1863.69
2133.83
2396.4
2654.97
2924.87
3255.18
3790.44
4969.25
8251.31
121.216
363.133
603.438
840.877
1073.97
1301.01
1520.09
1729.42
1928.4
2119.77
2313.54
2533.4
2814.54
3125.45
2809.06
97.1672
290.769
482.093
669.439
850.876
1024.22
1187.05
1336.76
1471.13
1589.19
1691.52
1777.83
1828.36
1729.35
1059.65
73.8777
220.721
364.741
503.852
635.713
757.659
866.603
958.864
1030.1
1075.2
1087.15
1054.44
954.014
737.299
321.593
51.4531
153.307
251.907
344.87
429.512
502.748
560.887
599.239
611.552
589.183
519.37
384.179
166.642
-111.159
-255.89
29.9712
88.757
143.982
193.053
233.059
260.632
271.689
260.91
220.856
140.408
1.721
-223.755
-573.728
-1047.6
-1287.08
9.4793
27.2147
41.2024
48.7364
46.8089
31.9624
0.0355236
-54.326
-138.591
-264.277
-451.636
-740.855
-1223.46
-2142.31
-4268.86
-10.0062
-31.2706
-56.3548
-87.9858
-129.151
-183.21
-254.075
-346.509
-466.638
-623.172
-830.896
-1119.93
-1565.97
-2393
-4364.17
-28.4981
-86.738
-148.764
-217.252
-295.084
-385.401
-491.661
-617.657
-767.312
-944.223
-1151.03
-1386.96
-1640.3
-1844.35
-1597.64
-46.0337
-139.304
-236.233
-339.396
-451.528
-575.525
-714.401
-871.063
-1047.51
-1242.86
-1449.03
-1639.76
-1746.38
-1605.83
-876.024
-62.6701
-189.144
-319.074
-454.893
-599.182
-754.648
-924.047
-1109.91
-1313.63
-1533
-1756.64
-1949.75
-2022.77
-1775.14
-863.396
-78.48
-236.482
-397.67
-564.302
-738.803
-923.764
-1121.92
-1336.04
-1568.5
-1819.83
-2085.13
-2342.87
-2521.6
-2405.49
-1416.7
-93.5503
-281.58
-472.46
-668.238
-871.161
-1083.72
-1308.75
-1549.6
-1810.49
-2097.31
-2419.37
-2791.49
-3226.06
-3642.89
-3251.74
-107.983
-324.745
-543.948
-767.385
-997.075
-1235.36
-1485.06
-1749.86
-2035.28
-2351.3
-2720.12
-3198.36
-3944.84
-5443.86
-9333.86
-121.898
-366.329
-612.715
-862.532
-1117.5
-1379.71
-1651.71
-1936.87
-2240.15
-2570.31
-2946.91
-3421.44
-4144.14
-5588.76
-9388.78
-135.433
-406.741
-679.43
-954.598
-1233.61
-1518.17
-1810.4
-2112.82
-2428.22
-2759.36
-3108.45
-3475.42
-3845.97
-4102.85
-3430.5
-148.743
-446.447
-744.859
-1044.64
-1346.74
-1652.48
-1963.52
-2281.66
-2607.75
-2938.86
-3261.03
-3530.89
-3631.07
-3266.53
-1773.06
-162.004
-485.969
-809.864
-1133.85
-1458.41
-1784.49
-2113.54
-2447.29
-2786.65
-3128.09
-3454.12
-3709
-3743.96
-3218.69
-1543.34
-175.409
-525.889
-875.408
-1223.54
-1570.24
-1916.03
-2262.34
-2611.67
-2967.41
-3332.16
-3701.67
-4045.71
-4252.38
-3975.46
-2296.7
-189.175
-566.854
-942.566
-1315.19
-1684
-2048.96
-2411.32
-2774.51
-3145.62
-3537.62
-3972.78
-4485.12
-5105.26
-5714.8
-5079.94
-203.537
-609.578
-1012.54
-1410.5
-1801.81
-2185.53
-2562.11
-2934.96
-3313.3
-3718.27
-4196.98
-4858.44
-5977.05
-8333.08
-14492.4
-218.747
-654.836
-1086.68
-1511.43
-1926.3
-2328.89
-2717.93
-3094.77
-3466.59
-3853.05
-4301.41
-4924.12
-6003.81
-8333.09
-14487.6
-235.061
-703.424
-1166.42
-1620.21
-2060.66
-2483.48
-2884.59
-3261.17
-3613.73
-3950.06
-4291.79
-4682.16
-5176.9
-5699.55
-5055.43
-252.718
-756.104
-1253.17
-1739.16
-2208.55
-2654.85
-3070.53
-3447.13
-3775.86
-4048.17
-4254.74
-4376.12
-4341.82
-3890.76
-2211.88
-271.906
-813.5
-1348.18
-1870.47
-2373.63
-2849.04
-3285.58
-3668.89
-3980.47
-4196.13
-4282.17
-4184.82
-3804.15
-2943.13
-1280.11
-292.731
-875.982
-1452.26
-2015.78
-2558.97
-3071.54
-3539.3
-3942.61
-4254.38
-4437.51
-4441.12
-4195.22
-3605.47
-2557.46
-973.948
-315.17
-943.535
-1565.59
-2175.77
-2766.36
-3326.22
-3839.14
-4281.57
-4619.74
-4806.17
-4776.36
-4447.87
-3728.57
-2546.61
-922.113
-339.036
-1015.64
-1687.44
-2349.78
-2995.67
-3614.27
-4188.91
-4694.15
-5091.95
-5326.81
-5321.03
-4974.13
-4175.1
-2844.75
-1023.53
-363.953
-1091.19
-1816.02
-2535.46
-3244.25
-3933.3
-4587.43
-5182.04
-5678.16
-6015.52
-6103.7
-5815.48
-4991.65
-3484.53
-1282.07
-389.346
-1168.43
-1948.38
-2728.62
-3506.66
-4276.7
-5027.43
-5738.51
-6374.86
-6877.41
-7147.97
-7028.91
-6282.77
-4607.22
-1791.77
-414.449
-1245.03
-2080.45
-2923.2
-3774.51
-4633.35
-5494.72
-6346.53
-7164.12
-7899.82
-8462.14
-8677
-8218.45
-6520.78
-2834.46
-438.346
-1318.15
-2207.22
-3111.54
-4036.76
-4987.8
-5968.03
-6977.5
-8009.29
-9041.32
-10016.1
-10790.9
-11012.6
-9813.67
-5253.1
-460.029
-1384.65
-2323.07
-3284.9
-4280.49
-5321.24
-6420.07
-7591.67
-8852.7
-10220.6
-11706.3
-13286.1
-14789.9
-15437.8
-11798.8
-478.472
-1441.33
-2422.22
-3434.2
-4492.05
-5613.36
-6820.23
-8141.97
-9619.77
-11315.3
-13327.8
-15830
-19156.4
-24033.1
-32200.1
27793.3
20817.9
16587.1
13669.6
11463.5
9689.26
8200.23
6910.83
5766.55
4730.14
3774.57
2879.19
2027.35
1205.03
399.812
10174.3
13310.1
12717.6
11375.5
9971.35
8659.03
7461.18
6367.89
5362.59
4428.91
3552.22
2719.72
1920.1
1143.19
379.602
4504.15
8385.32
9362.93
9119.45
8410.79
7545.31
6646.07
5760.9
4906.42
4086.07
3297.55
2536.15
1796.18
1071.56
356.165
2392.51
5473.17
6851.91
7182.24
6955.29
6451.56
5818.15
5129.94
4424.31
3719.23
3022.51
2336.52
1660.74
993.026
330.427
1463.36
3740.46
5065.82
5628.75
5688.83
5444.9
5025.61
4508.73
3939.79
3344.89
2738.62
2128.73
1518.92
910.476
303.324
984.648
2666.99
3806.9
4421.9
4630.91
4557.52
4298.54
3921.61
3471.49
2976.92
2456
1919.91
1375.45
826.607
275.731
704.76
1969.01
2910.76
3494.97
3766.97
3796.95
3651.41
3383.53
3032.48
2625.89
2182.77
1716.03
1234.38
743.77
248.417
525.43
1494.1
2261.59
2783.28
3069.39
3156.53
3087.58
2901.66
2630.65
2299.04
1924.97
1521.72
1098.97
663.888
222.017
402.941
1158.22
1782.1
2233.9
2508.59
2623.08
2603.58
2477.56
2269.74
2000.62
1686.55
1340.26
971.62
588.417
197.02
315.415
913.056
1421.31
1806.51
2057.92
2181.49
2192.37
2109.17
1950.36
1732.52
1469.76
1173.71
853.944
518.372
173.769
250.797
729.556
1145.34
1471.2
1695.1
1817.17
1845.52
1792.34
1671.1
1494.85
1275.42
1023.12
746.861
454.366
152.479
201.925
589.465
931.286
1206.06
1402.25
1517.13
1554.47
1521.98
1429.3
1286.51
1103.33
888.705
650.724
396.681
133.255
164.289
480.862
763.387
994.955
1165.24
1270.27
1311.22
1292.77
1221.68
1105.66
952.594
770.125
565.46
345.339
116.115
134.919
395.695
630.545
825.981
973.038
1067.38
1108.65
1099.55
1044.74
950.061
821.871
666.632
490.688
300.172
101.012
111.786
328.365
524.806
690.256
817.039
900.88
940.616
937.605
895.044
817.338
709.59
577.241
425.831
260.885
87.857
93.463
274.885
440.373
581.103
690.529
764.645
801.88
802.747
769.396
705.149
614.111
500.855
370.207
227.107
76.5327
78.9262
232.363
372.963
493.462
588.27
653.726
688.089
691.344
664.908
611.297
533.828
436.358
323.091
198.435
66.9097
67.4273
198.67
319.378
423.482
506.181
564.162
595.652
600.314
579.054
533.797
467.246
382.679
283.771
174.463
58.857
58.4148
172.227
277.216
368.228
441.09
492.812
521.654
527.09
509.68
470.914
413.028
338.838
251.585
154.81
52.25
51.4809
151.862
244.682
325.473
390.556
437.211
463.766
469.585
454.998
421.182
370.022
303.978
225.944
139.134
46.9765
46.3272
136.714
220.445
293.554
352.73
395.472
420.175
426.151
413.573
383.403
337.275
277.381
206.35
127.142
42.9404
42.7411
126.167
203.549
271.267
326.264
366.2
389.53
395.538
384.306
356.653
314.041
258.478
192.408
118.602
40.0645
40.5801
119.808
193.352
257.796
310.238
348.436
370.89
376.874
366.421
340.27
299.784
246.86
183.826
113.34
38.2921
39.7623
117.399
189.482
252.667
304.113
341.617
363.7
369.639
359.453
333.855
294.176
242.273
180.428
111.252
37.5879
40.261
118.862
191.815
255.724
307.711
345.555
367.772
373.652
363.236
337.265
297.099
244.623
182.145
112.297
37.9386
42.1032
124.276
200.474
267.121
321.205
360.425
383.276
389.07
377.907
350.613
308.642
253.978
189.024
116.502
39.3529
45.3716
133.88
215.833
287.331
345.127
386.783
410.753
416.392
403.907
374.268
329.101
270.561
201.221
123.958
41.8611
50.2104
148.093
238.541
317.175
380.4
425.583
451.131
456.473
441.984
408.862
358.983
294.757
219.001
134.822
45.5145
56.836
167.54
269.569
357.872
428.385
478.225
505.757
510.544
493.215
455.291
398.999
327.1
242.737
149.31
50.3845
65.5533
193.1
310.272
411.116
490.955
546.613
576.449
580.248
559.013
514.719
450.067
368.274
272.895
167.694
56.5602
76.7801
225.975
362.49
479.181
570.6
633.248
665.555
667.672
641.148
588.581
513.3
419.096
310.029
190.294
64.1454
91.084
267.789
428.692
565.083
670.568
741.334