/*--------------------------------*- C++ -*----------------------------------*\
| =========                 |                                                 |
| \\      /  F ield         | OpenFOAM: The Open Source CFD Toolbox           |
|  \\    /   O peration     | Version:  5.x                                   |
|   \\  /    A nd           | Web:      www.OpenFOAM.org                      |
|    \\/     M anipulation  |                                                 |
\*---------------------------------------------------------------------------*/
FoamFile
{
    version     2.0;
    format      ascii;
    class       volScalarField;
    location    "1.1";
    object      gradTx;
}
// * * * * * * * * * * * * * * * * * * * * * * * * * * * * * * * * * * * * * //

dimensions      [0 -1 0 1 0 0 0];

internalField   nonuniform List<scalar> 
3200
(
201.474
228.032
65.775
20.6197
17.5219
7.39027
6.58587
3.03496
2.71811
0.893797
0.733727
-0.138879
-0.263952
-1.62648
-1.98106
-7.68233
-7.86095
-5.59496
-5.451
-4.8052
-4.72602
-3.94251
-3.83845
-2.37342
-2.36963
-3.84708
-4.20919
-10.3636
-10.5086
-7.48844
-7.3462
-6.81591
-6.70265
-4.22368
-4.55465
-14.096
-14.3502
-10.237
-9.96448
-9.14835
-9.18818
-10.1201
-10.1445
-9.03003
-8.87833
-7.59004
-7.42247
-4.85653
-5.05095
-12.2696
-12.4157
-8.77595
-8.5067
-5.31375
-5.48318
-12.5691
-12.6441
-6.66836
-6.67176
-10.9771
-11.8521
-26.9535
-27.4916
-23.4219
-23.4591
-25.8244
-26.268
-31.0246
-31.6539
-37.0132
-37.539
-39.2662
-39.4262
-38.0305
-37.6176
-8.00018
-6.07529
-2.33952
-0.669404
270.234
221.965
189.945
69.5491
25.4785
18.1487
8.71391
6.78364
3.49314
2.73224
1.07608
0.690944
-0.133237
-0.429056
-1.63626
-2.44583
-7.17651
-7.58928
-5.79406
-5.46715
-4.86717
-4.68047
-4.00331
-3.77276
-2.61526
-2.60309
-3.7861
-4.59613
-9.6628
-9.98422
-7.49231
-7.19621
-6.96024
-6.73176
-4.72707
-5.46396
-13.2335
-13.7994
-10.4423
-9.8002
-8.9496
-9.06764
-10.1825
-10.2649
-9.18587
-8.81474
-7.68496
-7.32301
-5.39917
-5.81188
-11.3662
-11.6731
-8.8856
-8.32961
-5.92452
-6.29064
-11.758
-11.9444
-7.55718
-7.63445
-11.3169
-13.2355
-25.2097
-26.4258
-23.7021
-23.8849
-26.1188
-27.2001
-31.573
-33.1067
-38.1063
-39.4422
-41.5597
-42.0392
-41.2803
-41.2491
-22.8929
-18.2983
-6.93594
-1.96288
328.102
240.092
159.037
70.2702
28.8676
18.8597
9.73739
7.03584
3.85013
2.78218
1.20753
0.665726
-0.148726
-0.557702
-1.66195
-2.75374
-6.84341
-7.40591
-5.93442
-5.49421
-4.91261
-4.65453
-4.04624
-3.74414
-2.81128
-2.78874
-3.74003
-4.81279
-9.15184
-9.57234
-7.40835
-7.04382
-7.10426
-6.83192
-5.12078
-6.09195
-12.6591
-13.4056
-10.539
-9.64427
-8.71209
-8.90722
-10.2863
-10.4318
-9.3134
-8.7815
-7.74916
-7.28603
-5.84836
-6.36715
-10.6728
-11.0543
-8.906
-8.22648
-6.42445
-6.89406
-11.1581
-11.4277
-8.26743
-8.45296
-11.7272
-14.2168
-23.8961
-25.5175
-23.8661
-24.2286
-26.4594
-28.0007
-32.2351
-34.4209
-39.3461
-41.3143
-43.9187
-44.7018
-44.5011
-45.6137
-37.2351
-30.7921
-11.2768
-3.12044
386.034
255.983
133.916
69.0967
31.0011
19.5354
10.5041
7.30743
4.12243
2.8524
1.29768
0.651419
-0.180429
-0.658532
-1.68812
-2.94174
-6.65138
-7.30389
-6.03353
-5.52691
-4.94509
-4.64259
-4.07692
-3.74074
-2.97088
-2.93543
-3.6891
-4.8988
-8.79762
-9.26383
-7.25239
-6.87443
-7.26159
-6.98963
-5.4072
-6.4961
-12.3176
-13.1562
-10.5569
-9.48982
-8.42949
-8.69944
-10.4393
-10.6492
-9.41746
-8.76827
-7.7906
-7.28803
-6.21929
-6.77095
-10.1363
-10.5367
-8.86765
-8.16827
-6.83352
-7.34571
-10.718
-11.0482
-8.84387
-9.14795
-12.169
-14.9105
-22.905
-24.7403
-23.9496
-24.4978
-26.8276
-28.6936
-32.9792
-35.6256
-40.7042
-43.161
-46.3508
-47.4039
-47.6695
-50.358
-51.5
-43.8088
-15.1632
-4.05216
444.067
269.778
113.485
66.8544
32.0694
20.1138
11.0374
7.57857
4.31815
2.93401
1.35149
0.644543
-0.226276
-0.737294
-1.70533
-3.03148
-6.58163
-7.27878
-6.10207
-5.56261
-4.9664
-4.64116
-4.0984
-3.75468
-3.1011
-3.05055
-3.61992
-4.87723
-8.58069
-9.05443
-7.0311
-6.67442
-7.44528
-7.19975
-5.58676
-6.71094
-12.1753
-13.0444
-10.5134
-9.3351
-8.09368
-8.43286
-10.6536
-10.9243
-9.49822
-8.76818
-7.81303
-7.31267
-6.5254
-7.0622
-9.7184
-10.1019
-8.79052
-8.13548
-7.16873
-7.68298
-10.3996
-10.7701
-9.32001
-9.7343
-12.622
-15.3941
-22.1603
-24.0681
-23.9797
-24.6958
-27.2146
-29.2898
-33.789
-36.7332
-42.1674
-44.9786
-48.8684
-50.1377
-50.7411
-55.1643
-66.1182
-57.6637
-18.3483
-4.67026
502.233
281.601
96.8907
64.1384
32.2247
20.577
11.346
7.84181
4.43883
3.02357
1.37028
0.644229
-0.286507
-0.797768
-1.7082
-3.03225
-6.62598
-7.32861
-6.14511
-5.60058
-4.97685
-4.64843
-4.11192
-3.78101
-3.2072
-3.14086
-3.52321
-4.7578
-8.49295
-8.9449
-6.74312
-6.42931
-7.66961
-7.46456
-5.65682
-6.75217
-12.2169
-13.0685
-10.4159
-9.1829
-7.69463
-8.09101
-10.9458
-11.2673
-9.55113
-8.7771
-7.81727
-7.3488
-6.77855
-7.26869
-9.39143
-9.73486
-8.68714
-8.11516
-7.44471
-7.93217
-10.1751
-10.5649
-9.7216
-10.2218
-13.0797
-15.7181
-21.61
-23.476
-23.9777
-24.8217
-27.6193
-29.7893
-34.6612
-37.7413
-43.7358
-46.7532
-51.4911
-52.8983
-53.6601
-59.7095
-81.5129
-72.753
-20.5078
-4.89272
560.551
291.553
83.4776
61.3889
31.5693
20.9436
11.4257
8.10102
4.48001
3.12267
1.352
0.65211
-0.36351
-0.842267
-1.69452
-2.94222
-6.78597
-7.45387
-6.16258
-5.64169
-4.97548
-4.66401
-4.11721
-3.81704
-3.29298
-3.21322
-3.3924
-4.53835
-8.53652
-8.9415
-6.37962
-6.12202
-7.95176
-7.79348
-5.61075
-6.61861
-12.443
-13.2328
-10.2615
-9.0409
-7.2202
-7.65083
-11.3394
-11.6917
-9.56636
-8.79345
-7.80186
-7.38899
-6.9893
-7.40987
-9.13564
-9.4235
-8.56475
-8.09881
-7.6744
-8.11115
-10.0247
-10.409
-10.0695
-10.615
-13.5462
-15.912
-21.2209
-22.9384
-23.9621
-24.8697
-28.0494
-30.1808
-35.6052
-38.6331
-45.4233
-48.4592
-54.2472
-55.6848
-56.3677
-63.6247
-98.1302
-89.5818
-21.2021
-4.6502
619.031
299.693
72.7613
58.9487
30.1463
21.266
11.2576
8.3721
4.43067
3.23831
1.2909
0.672627
-0.46198
-0.871819
-1.66501
-2.74833
-7.07298
-7.65749
-6.14921
-5.68861
-4.95991
-4.689
-4.11262
-3.86203
-3.36099
-3.27521
-3.22292
-4.2048
-8.72381
-9.05678
-5.92394
-5.73122
-8.31341
-8.20336
-5.43706
-6.29239
-12.8705
-13.5475
-10.0371
-8.92291
-6.65571
-7.08032
-11.8664
-12.2153
-9.52748
-8.81854
-7.7633
-7.42867
-7.16723
-7.49885
-8.93737
-9.15801
-8.42666
-8.0808
-7.86965
-8.23109
-9.93549
-10.2822
-10.382
-10.9128
-14.0354
-15.9882
-20.9754
-22.4288
-23.9513
-24.8269
-28.5215
-30.4407
-36.6452
-39.3745
-47.2612
-50.0553
-57.1775
-58.5017
-58.8124
-66.45
-116.47
-108.804
-19.8232
-3.8983
677.665
306.019
64.4108
57.1081
27.9264
21.6335
10.8046
8.68544
4.27138
3.38416
1.17663
0.713802
-0.589436
-0.88603
-1.62389
-2.42479
-7.50958
-7.9448
-6.09394
-5.74624
-4.92602
-4.7262
-4.09499
-3.91702
-3.41237
-3.33586
-3.01206
-3.72975
-9.07854
-9.31067
-5.35065
-5.22943
-8.78275
-8.71949
-5.11849
-5.73725
-13.534
-14.0298
-9.71692
-8.85102
-5.98354
-6.33535
-12.5709
-12.8603
-9.40945
-8.85748
-7.69592
-7.46541
-7.32145
-7.54356
-8.78782
-8.9306
-8.27315
-8.05741
-8.042
-8.29732
-9.90061
-10.1652
-10.6773
-11.1069
-14.5714
-15.9431
-20.8714
-21.9164
-23.9664
-24.6715
-29.0647
-30.5293
-37.8244
-39.9098
-49.303
-51.4784
-60.3398
-61.3592
-60.9642
-67.5801
-137.117
-131.279
-15.522
-2.63834
736.429
310.453
58.2453
56.1428
24.791
22.1825
10.0033
9.09059
3.97102
3.58283
0.992581
0.788598
-0.757155
-0.882587
-1.58024
-1.92989
-8.13216
-8.32356
-5.97852
-5.82277
-4.8673
-4.78065
-4.05923
-3.98508
-3.44663
-3.4064
-2.75954
-3.06946
-9.63792
-9.73225
-4.62381
-4.58065
-9.39675
-9.37712
-4.63113
-4.89499
-14.4895
-14.7044
-9.25881
-8.8592
-5.1826
-5.35503
-13.5132
-13.655
-9.17547
-8.92081
-7.59129
-7.4987
-7.46102
-7.54738
-8.68234
-8.73521
-8.10197
-8.02601
-8.20354
-8.30964
-9.9193
-10.0383
-10.976
-11.1797
-15.1912
-15.7557
-20.9228
-21.3639
-24.0353
-24.3685
-29.7251
-30.3848
-39.212
-40.1528
-51.6335
-52.6341
-63.8159
-64.2734
-62.8357
-66.1934
-160.779
-158.15
-7.10586
-0.950895
795.281
536.614
13.08
13.2173
3.35242
2.75657
0.2061
-0.00539382
-1.32885
-1.43195
-2.15404
-2.20449
-2.73892
-2.78277
-2.88172
-3.28075
-11.1508
-11.346
-7.37303
-7.13183
-5.93059
-5.82896
-5.21822
-5.15817
-5.0263
-5.04767
-5.75783
-5.85014
-6.07872
-6.02389
-3.87582
-3.95783
-8.87608
-8.87497
-4.42534
-4.63026
-12.8785
-13.0332
-7.69041
-7.33852
-4.60023
-4.7637
-11.781
-11.8831
-7.52029
-7.29024
-6.18501
-6.08054
-4.53259
-4.80944
-12.8319
-12.9968
-8.77126
-8.53992
-6.4184
-6.83521
-18.4408
-18.6685
-11.0815
-11.6623
-31.8989
-32.4422
-24.5494
-24.2948
-25.138
-25.2756
-27.3432
-27.5594
-30.1176
-30.3272
-32.4746
-32.5726
-33.4044
-33.182
-29.9958
-28.5649
-1.46785
-0.229301
-0.0499701
-0.0114857
274.678
547.09
11.5251
11.8431
3.95194
2.61332
0.316409
-0.180035
-1.33006
-1.56577
-2.16667
-2.27179
-2.66602
-2.77574
-3.05761
-3.96788
-10.36
-10.8055
-7.68655
-7.15063
-6.08794
-5.84739
-5.28308
-5.12783
-4.91756
-4.96025
-5.61383
-5.86059
-6.26557
-6.17349
-4.45304
-4.59482
-8.26444
-8.24228
-4.85448
-5.33369
-11.9972
-12.3577
-8.15304
-7.39246
-5.24472
-5.57706
-10.934
-11.142
-7.79221
-7.30237
-6.36971
-6.15406
-5.06054
-5.65424
-11.8556
-12.2115
-9.02735
-8.56872
-7.08963
-7.99405
-17.0226
-17.5633
-12.196
-13.4788
-29.1735
-30.3533
-24.5326
-24.0304
-24.6933
-25.0006
-26.7138
-27.1946
-29.2903
-29.7475
-31.4519
-31.6348
-32.0764
-31.4857
-28.2218
-25.0259
-3.36921
-0.645535
-0.144277
-0.0332921
253.482
557.158
10.3657
10.7973
4.28938
2.50843
0.354713
-0.328525
-1.36784
-1.68497
-2.19912
-2.32753
-2.60449
-2.76181
-3.20837
-4.43574
-9.80707
-10.4076
-7.89675
-7.1905
-6.21241
-5.87878
-5.33157
-5.09969
-4.79871
-4.84839
-5.4861
-5.8647
-6.47231
-6.38822
-4.95576
-5.0907
-7.80048
-7.74421
-5.12893
-5.78974
-11.3681
-11.8647
-8.47791
-7.50189
-5.79001
-6.18944
-10.2929
-10.5433
-7.94973
-7.33222
-6.52573
-6.2627
-5.521
-6.27474
-11.1131
-11.5678
-9.17442
-8.63834
-7.66553
-8.82794
-15.944
-16.6945
-13.0445
-14.7189
-27.0288
-28.5444
-24.303
-23.7195
-24.2628
-24.6693
-26.1338
-26.7653
-28.5285
-29.118
-30.4902
-30.6866
-30.7896
-29.8963
-26.4451
-22.2253
-4.51326
-0.972874
-0.222972
-0.0517437
232.288
566.882
9.53389
10.0291
4.43777
2.41848
0.334219
-0.462757
-1.43449
-1.79629
-2.247
-2.37732
-2.54774
-2.73631
-3.32789
-4.73783
-9.44498
-10.1342
-8.03476
-7.24123
-6.31109
-5.91871
-5.36746
-5.07432
-4.66582
-4.71301
-5.36873
-5.85965
-6.70671
-6.65688
-5.39579
-5.48358
-7.44715
-7.3485
-5.27234
-6.0491
-10.9423
-11.5271
-8.70635
-7.64075
-6.25084
-6.65365
-9.80598
-10.0583
-8.02822
-7.36964
-6.66002
-6.3905
-5.92164
-6.73186
-10.546
-11.0381
-9.24721
-8.72544
-8.15603
-9.42368
-15.12
-16.0016
-13.68
-15.5335
-25.3158
-26.9657
-23.9272
-23.3635
-23.8378
-24.2957
-25.587
-26.2907
-27.8137
-28.4571
-29.5754
-29.7422
-29.5428
-28.4092
-24.6991
-19.9644
-5.09045
-1.1886
-0.278519
-0.0650291
211.095
576.303
8.98493
9.50436
4.44334
2.33116
0.262261
-0.589983
-1.52553
-1.90405
-2.3077
-2.42551
-2.49026
-2.69469
-3.41467
-4.90803
-9.2436
-9.97224
-8.12053
-7.29744
-6.38827
-5.96499
-5.39301
-5.05356
-4.51471
-4.55328
-5.25795
-5.84036
-6.97698
-6.97399
-5.78187
-5.80143
-7.17631
-7.03188
-5.30163
-6.14379
-10.6888
-11.3257
-8.86458
-7.79259
-6.63997
-7.00789
-9.43503
-9.66466
-8.05184
-7.4091
-6.7767
-6.52627
-6.27113
-7.06883
-10.1117
-10.5997
-9.26925
-8.81445
-8.57306
-9.84229
-14.4886
-15.437
-14.1485
-16.031
-23.9281
-25.5747
-23.4524
-22.966
-23.4135
-23.8889
-25.0638
-25.7834
-27.1342
-27.7773
-28.6988
-28.8124
-28.3333
-27.0253
-22.9941
-18.1092
-5.22875
-1.28465
-0.306202
-0.0718871
189.905
585.447
8.69286
9.20294
4.33101
2.24216
0.141666
-0.713857
-1.63884
-2.0108
-2.37982
-2.47581
-2.42719
-2.63244
-3.47051
-4.96454
-9.1865
-9.91353
-8.16515
-7.35708
-6.446
-6.01721
-5.40926
-5.04077
-4.34049
-4.36691
-5.15206
-5.79889
-7.29284
-7.33866
-6.11947
-6.06506
-6.96624
-6.7787
-5.22802
-6.09037
-10.5916
-11.2482
-8.96726
-7.94765
-6.96828
-7.27976
-9.15198
-9.3447
-8.03667
-7.44815
-6.87812
-6.66223
-6.57851
-7.316
-9.77971
-10.234
-9.25627
-8.89494
-8.92968
-10.1258
-14.0051
-14.9618
-14.4902
-16.2879
-22.7905
-24.3344
-22.9122
-22.5312
-22.9881
-23.4541
-24.5589
-25.2509
-26.4829
-27.0864
-27.8545
-27.9064
-27.1571
-25.7502
-21.3233
-16.5737
-5.00962
-1.26208
-0.304118
-0.0717053
168.717
594.323
8.64789
9.11685
4.1074
2.15366
-0.0286993
-0.834935
-1.77426
-2.11765
-2.46285
-2.53189
-2.35396
-2.54487
-3.50011
-4.91192
-9.26919
-9.95383
-8.17216
-7.42084
-6.48445
-6.0766
-5.41594
-5.04125
-4.13721
-4.15019
-5.0517
-5.72353
-7.66662
-7.75393
-6.41047
-6.29047
-6.79972
-6.58005
-5.05789
-5.89139
-10.6482
-11.2882
-9.01947
-8.10111
-7.24496
-7.4892
-8.93612
-9.08477
-7.99272
-7.48646
-6.96537
-6.79291
-6.85304
-7.49412
-9.52805
-9.9256
-9.21864
-8.95959
-9.23985
-10.3021
-13.6386
-14.5437
-14.7411
-16.3567
-21.8513
-23.2128
-22.3304
-22.063
-22.5624
-22.9937
-24.0705
-24.6967
-25.8568
-26.389
-27.0389
-27.0324
-26.0071
-24.596
-19.6655
-15.3108
-4.47782
-1.12793
-0.273009
-0.0645517
147.531
602.928
8.85562
9.24995
3.76162
2.07435
-0.254084
-0.950674
-1.9335
-2.22443
-2.55693
-2.59785
-2.26598
-2.42673
-3.51144
-4.74148
-9.49878
-10.0928
-8.13796
-7.492
-6.50175
-6.1461
-5.41117
-5.0629
-3.89724
-3.89792
-4.96052
-5.59733
-8.11463
-8.22643
-6.65254
-6.4907
-6.66235
-6.43348
-4.79353
-5.53549
-10.8694
-11.4446
-9.01768
-8.25208
-7.47763
-7.65053
-8.77219
-8.87447
-7.92535
-7.52537
-7.03868
-6.9143
-7.10435
-7.61653
-9.34186
-9.6614
-9.16311
-9.00268
-9.51875
-10.3873
-13.3693
-14.154
-14.9353
-16.2704
-21.0773
-22.181
-21.724
-21.564
-22.1394
-22.5076
-23.6002
-24.1213
-25.2559
-25.6869
-26.2496
-26.1993
-24.8726
-23.5826
-17.9846
-14.3071
-3.64671
-0.893989
-0.216039
-0.0511511
126.348
611.243
9.33799
9.61841
3.26384
2.02071
-0.544723
-1.05495
-2.12042
-2.32954
-2.66267
-2.67872
-2.15829
-2.27163
-3.51695
-4.42995
-9.89489
-10.3337
-8.05139
-7.57692
-6.49366
-6.23077
-5.39093
-5.11725
-3.61062
-3.60317
-4.88637
-5.3959
-8.65885
-8.76635
-6.83813
-6.67759
-6.541
-6.34337
-4.4339
-4.9959
-11.281
-11.7211
-8.94943
-8.4034
-7.6724
-7.77392
-8.64904
-8.70623
-7.83601
-7.56775
-7.0975
-7.02311
-7.34277
-7.69043
-9.21191
-9.42992
-9.09408
-9.01873
-9.78356
-10.3881
-13.1879
-13.7645
-15.1074
-16.0451
-20.4516
-21.2116
-21.1057
-21.0357
-21.7247
-21.9925
-23.1527
-23.5214
-24.6832
-24.9795
-25.4848
-25.4172
-23.7367
-22.7415
-16.2269
-13.5827
-2.4993
-0.577056
-0.138544
-0.0328106
105.166
619.231
10.136
10.2523
2.56162
2.01998
-0.917557
-1.13701
-2.34158
-2.42968
-2.78108
-2.78104
-2.02524
-2.07125
-3.53575
-3.93634
-10.4921
-10.6834
-7.89252
-7.6862
-6.45276
-6.33852
-5.34804
-5.22091
-3.26403
-3.2568
-4.84316
-5.08433
-9.32929
-9.38771
-6.953
-6.86353
-6.42209
-6.32172
-3.9754
-4.22738
-11.9264
-12.126
-8.79216
-8.56212
-7.83387
-7.86637
-8.5586
-8.57509
-7.72259
-7.61822
-7.14049
-7.11616
-7.58007
-7.71737
-9.1341
-9.2206
-9.01462
-9.00117
-10.0548
-10.301
-13.0954
-13.3443
-15.2957
-15.6812
-19.9717
-20.2769
-20.486
-20.477
-21.3269
-21.4417
-22.7369
-22.8897
-24.145
-24.2638
-24.743
-24.6996
-22.5734
-22.1213
-14.3144
-13.1959
-0.985444
-0.200774
-0.0477365
-0.0113015
83.9854
615.473
11.0609
11.2547
3.93413
3.3735
0.267851
0.0259191
-1.28448
-1.38953
-1.92733
-1.95138
-1.51953
-1.55274
-2.52505
-2.79623
-7.72192
-7.99229
-7.67557
-7.64061
-6.5311
-6.39023
-5.25451
-5.10762
-3.11838
-3.09636
-4.51266
-4.72525
-8.50709
-8.54924
-6.19712
-6.10174
-5.64494
-5.55513
-3.52673
-3.77653
-11.0382
-11.2537
-8.5213
-8.34015
-7.89687
-7.96354
-9.05341
-9.11297
-8.52879
-8.43807
-7.77937
-7.69931
-6.85284
-6.72857
-4.46223
-4.62327
-10.5696
-10.6392
-5.85041
-5.96606
-13.0229
-13.0913
-6.96529
-6.95873
-11.23
-12.0552
-26.2828
-26.7175
-21.798
-21.6529
-22.0115
-22.1853
-24.729
-25.1083
-28.9036
-29.3364
-30.9401
-30.7953
-19.0299
-17.4625
-1.6723
-0.380553
-0.0931429
-0.0222226
60.9436
606.729
10.4909
10.9614
4.80671
3.49701
0.731124
0.162615
-0.994738
-1.24435
-1.75185
-1.8217
-1.54316
-1.62382
-2.43891
-3.03822
-7.04064
-7.68905
-7.80732
-7.75672
-6.69916
-6.35509
-5.34457
-5.01716
-3.45527
-3.41037
-4.54256
-4.98943
-7.89028
-7.96289
-6.09053
-5.9091
-5.71437
-5.53718
-3.90728
-4.46732
-10.4017
-10.8845
-8.65704
-8.22611
-7.72572
-7.90517
-9.13521
-9.29843
-8.69664
-8.46694
-7.86002
-7.67365
-6.96283
-6.7046
-5.02927
-5.37807
-9.96959
-10.1377
-6.62516
-6.89064
-12.3312
-12.5048
-8.00311
-8.05712
-11.6864
-13.4882
-24.7119
-25.6787
-22.1211
-21.8567
-22.2327
-22.652
-24.9251
-25.8398
-29.3515
-30.4684
-32.5478
-32.5082
-24.0142
-20.2886
-4.43696
-1.10148
-0.270769
-0.0645552
88.4351
597.619
10.2666
10.9331
5.48553
3.67879
1.10652
0.322876
-0.741296
-1.08884
-1.59387
-1.70595
-1.55242
-1.66552
-2.3614
-3.14408
-6.49353
-7.40701
-7.94582
-7.9131
-6.83868
-6.3466
-5.40731
-4.97608
-3.73148
-3.67729
-4.59988
-5.15546
-7.38659
-7.45434
-5.91629
-5.71699
-5.78311
-5.57733
-4.20024
-4.94314
-9.98325
-10.6236
-8.72091
-8.11485
-7.52737
-7.80479
-9.25968
-9.5145
-8.84961
-8.51091
-7.92384
-7.66896
-7.05472
-6.73731
-5.51533
-5.96315
-9.54649
-9.78336
-7.24879
-7.60821
-11.8501
-12.1053
-8.85871
-9.01249
-12.216
-14.5443
-23.5513
-24.8207
-22.3126
-22.0349
-22.4522
-23.0445
-25.1756
-26.4675
-29.8952
-31.562
-34.2403
-34.5592
-28.8078
-23.5999
-6.70097
-1.72222
-0.423413
-0.100744
115.929
588.176
10.3498
11.1494
6.01875
3.89124
1.4104
0.494374
-0.516509
-0.927037
-1.45161
-1.60082
-1.55101
-1.6839
-2.28041
-3.14726
-6.04385
-7.13995
-8.10719
-8.11115
-6.9549
-6.35601
-5.44973
-4.96753
-3.96007
-3.90514
-4.67188
-5.25446
-6.96944
-7.01003
-5.6885
-5.51426
-5.86272
-5.66434
-4.40839
-5.24708
-9.74081
-10.4645
-8.73292
-8.00285
-7.29443
-7.65731
-9.43215
-9.76735
-8.98954
-8.56481
-7.97438
-7.67865
-7.13473
-6.80621
-5.93461
-6.42281
-9.25725
-9.5399
-7.75666
-8.17049
-11.5286
-11.8459
-9.57829
-9.84587
-12.7807
-15.3332
-22.7002
-24.1139
-22.4148
-22.1853
-22.6647
-23.3755
-25.4596
-27.0098
-30.5094
-32.6151
-36.0272
-36.8532
-33.5797
-27.3788
-8.48818
-2.19577
-0.537011
-0.12731
143.425
578.41
10.7243
11.603
6.43191
4.11786
1.65171
0.669687
-0.315722
-0.760659
-1.32436
-1.50365
-1.54229
-1.68374
-2.1886
-3.06926
-5.66619
-6.87805
-8.30708
-8.3556
-7.04883
-6.3777
-5.47519
-4.97999
-4.15056
-4.10012
-4.75124
-5.30816
-6.61926
-6.62019
-5.41483
-5.29062
-5.96421
-5.79364
-4.53276
-5.40481
-9.64918
-10.4036
-8.70487
-7.88999
-7.01863
-7.45335
-9.66222
-10.0647
-9.11534
-8.62534
-8.01313
-7.69826
-7.20614
-6.89683
-6.29949
-6.78862
-9.07009
-9.37907
-8.17665
-8.615
-11.3287
-11.6899
-10.1965
-10.5726
-13.3606
-15.9296
-22.0873
-23.5317
-22.4582
-22.3074
-22.8679
-23.6516
-25.7651
-27.4741
-31.1794
-33.6161
-37.9176
-39.3111
-38.4687
-31.6652
-9.77147
-2.48396
-0.600643
-0.14164
170.926
568.314
11.3931
12.2987
6.73086
4.35062
1.8337
0.845158
-0.13654
-0.589521
-1.21247
-1.4121
-1.52946
-1.66903
-2.08176
-2.9226
-5.34393
-6.60746
-8.56219
-8.65427
-7.11734
-6.40866
-5.48435
-5.00583
-4.30989
-4.26704
-4.83437
-5.33169
-6.32148
-6.27861
-5.0979
-5.03507
-6.09946
-5.96657
-4.5718
-5.42764
-9.69715
-10.4407
-8.64147
-7.77939
-6.69059
-7.17842
-9.96453
-10.4162
-9.22277
-8.69076
-8.03999
-7.72497
-7.27022
-6.99898
-6.62091
-7.08274
-8.96182
-9.2787
-8.53101
-8.96849
-11.2228
-11.6081
-10.7399
-11.2028
-13.9492
-16.3824
-21.6629
-23.0501
-22.4648
-22.4011
-23.0623
-23.8745
-26.0867
-27.8586
-31.9001
-34.5425
-39.9244
-41.8585
-43.5961
-36.5553
-10.4705
-2.55598
-0.607301
-0.142232
198.432
557.866
12.3785
13.2534
6.90237
4.58889
1.95458
1.02038
0.021507
-0.411575
-1.11751
-1.32383
-1.51573
-1.6434
-1.9578
-2.71271
-5.06797
-6.30921
-8.89181
-9.01809
-7.15272
-6.44824
-5.47569
-5.04035
-4.44309
-4.40955
-4.9203
-5.33552
-6.06502
-5.98254
-4.73626
-4.73443
-6.2826
-6.18996
-4.52083
-5.31393
-9.88615
-10.5797
-8.54058
-7.67785
-6.29949
-6.81156
-10.3602
-10.8334
-9.30374
-8.76093
-8.05342
-7.75727
-7.32697
-7.10539
-6.90874
-7.32018
-8.91604
-9.22091
-8.83796
-9.24932
-11.1918
-11.5764
-11.23
-11.7417
-14.5505
-16.7214
-21.3943
-22.6475
-22.4506
-22.4658
-23.2506
-24.0415
-26.4261
-28.1524
-32.6769
-35.3594
-42.0692
-44.4138
-49.0747
-42.2072
-10.4427
-2.38937
-0.554611
-0.128865
225.942
547.024
13.7236
14.4971
6.91243
4.84005
2.00749
1.1982
0.156935
-0.222706
-1.04253
-1.23614
-1.50456
-1.6103
-1.8162
-2.43881
-4.83658
-5.95731
-9.31968
-9.46159
-7.14166
-6.49855
-5.44553
-5.08136
-4.55375
-4.53029
-5.01006
-5.32678
-5.84103
-5.73302
-4.32484
-4.37179
-6.53138
-6.47642
-4.37136
-5.04906
-10.2303
-10.8279
-8.39264
-7.59694
-5.83277
-6.32324
-10.8789
-11.3308
-9.34524
-8.83769
-8.05039
-7.79493
-7.37538
-7.21082
-7.17225
-7.51023
-8.92191
-9.19063
-9.11315
-9.4689
-11.2231
-11.5739
-11.6859
-12.1887
-15.1772
-16.9603
-21.2625
-22.3029
-22.4278
-22.4998
-23.4388
-24.1447
-26.7918
-28.3343
-33.5275
-36.0152
-44.3886
-46.8765
-55.0145
-48.855
-9.46652
-1.97402
-0.445558
-0.102677
253.457
535.723
15.4963
16.0753
6.70206
5.12165
1.9795
1.38532
0.265908
-0.0162236
-0.99259
-1.14545
-1.4999
-1.57318
-1.65794
-2.0939
-4.65626
-5.51575
-9.87637
-10.0035
-7.06353
-6.56525
-5.38782
-5.1289
-4.64423
-4.6309
-5.10633
-5.31014
-5.64192
-5.53551
-3.85521
-3.92465
-6.86873
-6.84487
-4.11059
-4.60404
-10.7578
-11.1974
-8.17912
-7.55477
-5.27586
-5.67231
-11.5618
-11.9257
-9.32761
-8.92564
-8.0261
-7.83916
-7.41358
-7.3112
-7.42069
-7.65734
-8.97349
-9.1742
-9.371
-9.63254
-11.3104
-11.581
-12.1261
-12.5363
-15.8521
-17.0985
-21.2611
-21.9949
-22.4072
-22.4991
-23.6363
-24.1704
-27.2017
-28.3703
-34.4863
-36.4357
-46.9435
-49.1133
-61.5262
-56.8319
-7.21447
-1.32009
-0.28908
-0.0661301
280.975
523.871
17.7968
18.0516
6.18
5.46574
1.8496
1.59346
0.341396
0.218032
-0.97559
-1.04669
-1.50649
-1.5356
-1.48563
-1.66393
-4.54406
-4.93413
-10.6024
-10.6682
-6.88773
-6.65911
-5.29338
-5.18548
-4.71587
-4.71195
-5.21346
-5.28838
-5.46035
-5.40095
-3.3156
-3.36252
-7.3248
-7.32175
-3.7207
-3.9326
-11.5139
-11.7052
-7.86984
-7.57879
-4.61194
-4.80166
-12.4657
-12.639
-9.22215
-9.03349
-7.97329
-7.89293
-7.43885
-7.4031
-7.66405
-7.76127
-9.06969
-9.15794
-9.62627
-9.73953
-11.4541
-11.5772
-12.5717
-12.7677
-16.6099
-17.12
-21.3969
-21.6998
-22.3995
-22.4566
-23.8579
-24.0961
-27.6862
-28.2083
-35.6118
-36.5138
-49.8319
-50.9403
-68.7222
-66.6058
-3.2135
-0.471638
-0.100279
-0.0228272
308.495
489.525
12.8898
13.1472
5.74349
5.2441
1.30458
0.988932
-1.16891
-1.29662
-1.72776
-1.75627
-2.00156
-2.02668
-1.94488
-2.17879
-5.94735
-6.40095
-12.6499
-12.6511
-7.08691
-6.7484
-4.68874
-4.50548
-2.7587
-2.89346
-6.6171
-7.0431
-12.6613
-12.5744
-5.35277
-5.30013
-12.105
-12.2848
-9.81551
-9.80239
-9.75465
-9.67649
-7.67854
-7.44281
-5.2626
-5.78436
-18.9398
-19.2601
-12.4362
-12.0092
-9.66759
-9.44523
-6.82058
-7.2728
-21.5035
-22.0787
-19.0105
-18.8989
-16.8629
-16.6635
-15.3599
-15.192
-11.7321
-12.5842
-35.7048
-36.2708
-26.3084
-25.8647
-24.7416
-24.6954
-25.034
-25.0624
-25.5677
-25.6022
-26.2435
-26.2537
-26.9662
-26.8481
-25.2489
-26.8105
-71.7091
-70.7047
-3.16781
-0.422497
535.71
498.556
11.0827
11.6781
6.05408
4.96969
1.56522
0.836918
-0.993304
-1.28308
-1.65418
-1.71493
-1.90122
-1.97205
-2.07602
-2.64898
-5.99308
-6.98948
-11.7289
-11.7052
-7.35096
-6.61329
-4.85392
-4.44174
-3.05456
-3.39053
-6.67951
-7.61792
-11.8585
-11.6549
-6.09254
-5.94708
-10.9767
-11.357
-9.70623
-9.7665
-10.0325
-9.87359
-8.02325
-7.46434
-5.74946
-6.91746
-17.6062
-18.3395
-12.957
-12.0082
-9.97953
-9.4933
-7.54096
-8.46954
-19.3538
-20.679
-19.244
-19.1045
-17.2384
-16.7579
-15.6281
-15.3016
-12.9895
-14.8273
-32.7515
-33.9683
-26.4895
-25.566
-24.578
-24.4671
-24.7022
-24.7558
-25.132
-25.1924
-25.6263
-25.6035
-25.9133
-25.5848
-24.2608
-27.3385
-60.7856
-58.5977
-6.91178
-1.17189
502.256
507.192
9.64728
10.4578
6.1831
4.78809
1.71883
0.728996
-0.879298
-1.26628
-1.593
-1.66855
-1.80549
-1.91608
-2.18839
-3.00832
-6.13272
-7.42828
-10.9985
-10.9325
-7.47034
-6.51904
-4.9652
-4.417
-3.2815
-3.76948
-6.83594
-8.06064
-11.2334
-10.9498
-6.61563
-6.38702
-10.0343
-10.5105
-9.52849
-9.72237
-10.3274
-10.1383
-8.31631
-7.53211
-6.121
-7.66974
-16.6708
-17.6635
-13.3003
-12.0505
-10.2298
-9.60001
-8.1461
-9.26806
-17.5865
-19.3896
-19.4257
-19.3791
-17.5584
-16.8783
-15.8642
-15.4906
-14.0809
-16.4271
-30.4665
-32.0137
-26.4083
-25.2699
-24.3793
-24.225
-24.3776
-24.4364
-24.709
-24.7676
-25.0274
-24.9399
-24.8859
-24.3614
-23.0966
-26.6517
-51.2875
-48.4707
-8.81791
-1.73084
468.84
515.503
8.50372
9.441
6.19696
4.6735
1.78929
0.645837
-0.814121
-1.25186
-1.54184
-1.6197
-1.7108
-1.85363
-2.27885
-3.27546
-6.3455
-7.77608
-10.4135
-10.2957
-7.48927
-6.44889
-5.03626
-4.41575
-3.44348
-4.04528
-7.06603
-8.42544
-10.7465
-10.4067
-6.97449
-6.67192
-9.21879
-9.72228
-9.30372
-9.6618
-10.654
-10.4684
-8.56785
-7.62495
-6.37415
-8.12392
-16.0557
-17.2018
-13.5192
-12.1155
-10.4324
-9.73969
-8.6482
-9.77872
-16.0799
-18.171
-19.6106
-19.7246
-17.8329
-17.0121
-16.0747
-15.7211
-15.022
-17.5591
-28.6812
-30.3451
-26.1484
-24.964
-24.1511
-23.9706
-24.0568
-24.1083
-24.2946
-24.3348
-24.4424
-24.2751
-23.8773
-23.1677
-21.7396
-25.1218
-42.8876
-39.817
-9.42144
-2.06375
435.481
523.542
7.59536
8.59143
6.14204
4.61337
1.79015
0.57537
-0.789804
-1.24332
-1.49915
-1.5703
-1.61402
-1.77986
-2.34643
-3.45965
-6.62384
-8.07558
-9.9387
-9.76638
-7.43755
-6.39362
-5.07561
-4.42855
-3.5425
-4.22431
-7.36257
-8.75176
-10.3661
-9.98733
-7.20815
-6.84284
-8.48498
-8.97094
-9.04788
-9.57585
-11.0277
-10.8671
-8.78108
-7.73011
-6.50727
-8.33082
-15.712
-16.9332
-13.6468
-12.1918
-10.5954
-9.89532
-9.06142
-10.0826
-14.7416
-16.9784
-19.8487
-20.1505
-18.0645
-17.1505
-16.2618
-15.9654
-15.8338
-18.3476
-27.2742
-28.911
-25.768
-24.6431
-23.8977
-23.7056
-23.7373
-23.7749
-23.8859
-23.8993
-23.8684
-23.6194
-22.8811
-22.0026
-20.1903
-23.0164
-35.3211
-32.2564
-9.10349
-2.17038
402.19
531.346
6.88317
7.87973
6.05033
4.60506
1.72672
0.510953
-0.801919
-1.24267
-1.46382
-1.52197
-1.51234
-1.69006
-2.39213
-3.56179
-6.97065
-8.35861
-9.5453
-9.32332
-7.33442
-6.3493
-5.08813
-4.45091
-3.57879
-4.30507
-7.72906
-9.06906
-10.0654
-9.66393
-7.34526
-6.93345
-7.79742
-8.23595
-8.77399
-9.45295
-11.466
-11.3428
-8.95291
-7.84213
-6.51853
-8.31541
-15.6147
-16.8449
-13.7013
-12.2737
-10.7225
-10.0563
-9.40044
-10.2409
-13.5002
-15.7605
-20.1894
-20.6718
-18.2492
-17.2879
-16.4253
-16.2031
-16.5396
-18.8797
-26.1588
-27.6681
-25.3069
-24.3071
-23.6221
-23.4315
-23.4176
-23.4386
-23.4812
-23.4655
-23.3031
-22.9833
-21.8906
-20.8749
-18.4553
-20.5319
-28.3693
-25.4993
-8.13678
-2.0708
368.968
538.938
6.3423
7.28112
5.9433
4.65411
1.59682
0.450457
-0.848886
-1.25076
-1.43498
-1.47634
-1.40314
-1.57926
-2.41911
-3.57434
-7.39829
-8.64967
-9.20822
-8.95092
-7.19112
-6.31601
-5.07567
-4.48265
-3.55114
-4.27792
-8.17889
-9.40009
-9.82061
-9.41721
-7.40608
-6.97302
-7.12687
-7.49697
-8.49446
-9.27668
-11.9896
-11.9091
-9.07356
-7.96266
-6.40497
-8.07991
-15.7602
-16.9315
-13.6871
-12.3606
-10.8142
-10.2169
-9.67961
-10.3024
-12.2988
-14.4558
-20.688
-21.3093
-18.3755
-17.4213
-16.5631
-16.4185
-17.1654
-19.2142
-25.2742
-26.58
-24.7913
-23.9585
-23.3268
-23.1504
-23.0966
-23.1013
-23.0788
-23.0377
-22.744
-22.3781
-20.897
-19.8033
-16.5405
-17.817
-21.8459
-19.322
-6.71826
-1.79603
335.813
546.334
5.9604
6.77361
5.83436
4.77393
1.39051
0.396113
-0.931721
-1.26754
-1.41183
-1.43526
-1.28395
-1.44189
-2.43345
-3.48012
-7.9288
-8.96843
-8.90375
-8.63861
-7.01242
-6.29732
-5.03731
-4.52792
-3.45714
-4.12379
-8.73591
-9.76315
-9.60876
-9.2348
-7.40376
-6.98911
-6.44766
-6.7329
-8.22353
-9.02317
-12.625
-12.5856
-9.12523
-8.10106
-6.16209
-7.60418
-16.166
-17.1948
-13.5961
-12.4563
-10.868
-10.375
-9.91237
-10.309
-11.0909
-12.9882
-21.4111
-22.089
-18.4226
-17.5509
-16.6724
-16.5982
-17.739
-19.3883
-24.5798
-25.6157
-24.2375
-23.6018
-23.0132
-22.8644
-22.7731
-22.7652
-22.6771
-22.6199
-22.1879
-21.8175
-19.8879
-18.8185
-14.4442
-14.992
-15.5845
-13.5478
-4.99252
-1.38263
302.715
553.539
5.73745
6.33623
5.7303
4.98669
1.08867
0.355131
-1.05421
-1.29196
-1.39349
-1.40116
-1.15238
-1.27117
-2.44558
-3.24981
-8.59567
-9.33134
-8.6073
-8.38072
-6.79727
-6.30042
-4.96892
-4.59564
-3.29364
-3.81183
-9.43631
-10.1735
-9.40568
-9.11066
-7.34479
-7.01026
-5.73538
-5.9206
-7.98024
-8.65757
-13.4061
-13.399
-9.07945
-8.27605
-5.78397
-6.84366
-16.8732
-17.6432
-13.4068
-12.5699
-10.8779
-10.532
-10.1108
-10.3002
-9.83843
-11.2595
-22.4439
-23.0425
-18.358
-17.6808
-16.7495
-16.7293
-18.2923
-19.4207
-24.0516
-24.7479
-23.654
-23.2433
-22.682
-22.5761
-22.4463
-22.4322
-22.2741
-22.2171
-21.6293
-21.3193
-18.8443
-17.9659
-12.151
-12.1652
-9.42835
-8.03436
-3.069
-0.869527
269.661
560.548
5.68725
5.94706
5.63176
5.32565
0.660271
0.341198
-1.22355
-1.32181
-1.3789
-1.37731
-1.0061
-1.05821
-2.47251
-2.83782
-9.44693
-9.75263
-8.29093
-8.17711
-6.53864
-6.3369
-4.8622
-4.70051
-3.05733
-3.29562
-10.3322
-10.644
-9.18369
-9.04535
-7.22856
-7.06903
-4.96469
-5.03333
-7.79223
-8.12912
-14.3773
-14.3849
-8.89302
-8.51858
-5.26378
-5.72435
-17.9507
-18.2918
-13.0816
-12.7177
-10.834
-10.692
-10.2847
-10.3175
-8.51064
-9.14024
-23.9002
-24.2074
-18.133
-17.8209
-16.7902
-16.7971
-18.863
-19.3129
-23.6807
-23.9517
-23.0431
-22.8907
-22.3326
-22.2888
-22.1149
-22.105
-21.8672
-21.8355
-21.0596
-20.9077
-17.737
-17.3107
-9.62454
-9.44844
-3.21845
-2.66379
-1.03487
-0.296496
236.635
)
;

boundaryField
{
    F1_1
    {
        type            calculated;
        value           nonuniform List<scalar> 
80
(
201.474
228.032
65.775
20.6197
17.5219
7.39027
6.58587
3.03496
2.71811
0.893797
0.733727
-0.138879
-0.263952
-1.62648
-1.98106
-7.68233
-7.86095
-5.59496
-5.451
-4.8052
-4.72602
-3.94251
-3.83845
-2.37342
-2.36963
-3.84708
-4.20919
-10.3636
-10.5086
-7.48844
-7.3462
-6.81591
-6.70265
-4.22368
-4.55465
-14.096
-14.3502
-10.237
-9.96448
-9.14835
-9.18818
-10.1201
-10.1445
-9.03003
-8.87833
-7.59004
-7.42247
-4.85653
-5.05095
-12.2696
-12.4157
-8.77595
-8.5067
-5.31375
-5.48318
-12.5691
-12.6441
-6.66836
-6.67176
-10.9771
-11.8521
-26.9535
-27.4916
-23.4219
-23.4591
-25.8244
-26.268
-31.0246
-31.6539
-37.0132
-37.539
-39.2662
-39.4262
-38.0305
-37.6176
-8.00018
-6.07529
-2.33952
-0.669404
270.234
)
;
    }
    F1_2
    {
        type            calculated;