/*--------------------------------*- C++ -*----------------------------------*\
| =========                 |                                                 |
| \\      /  F ield         | OpenFOAM: The Open Source CFD Toolbox           |
|  \\    /   O peration     | Version:  5.x                                   |
|   \\  /    A nd           | Web:      www.OpenFOAM.org                      |
|    \\/     M anipulation  |                                                 |
\*---------------------------------------------------------------------------*/
FoamFile
{
    version     2.0;
    format      ascii;
    class       volScalarField;
    location    "1.1";
    object      gradTy;
}
// * * * * * * * * * * * * * * * * * * * * * * * * * * * * * * * * * * * * * //

dimensions      [0 -1 0 1 0 0 0];

internalField   nonuniform List<scalar> 
3200
(
314.81
-97.6318
-110.785
-36.4708
-53.7857
-31.6094
-38.6839
-30.1809
-33.4553
-30.3411
-31.2996
-30.9115
-31.0937
-32.81
-30.99
-38.527
-24.8273
-35.3213
-27.2427
-35.3824
-27.9758
-34.786
-28.7196
-33.8568
-31.4303
-36.4877
-30.5974
-41.5155
-22.3879
-35.6384
-23.0022
-34.0609
-24.5289
-33.8789
-30.1247
-44.8141
-19.6422
-38.4326
-22.4637
-36.6811
-20.6473
-35.6541
-21.09
-36.6305
-22.8409
-35.7673
-24.0142
-34.2931
-29.9928
-43.3072
-19.5448
-35.1242
-21.3153
-32.7686
-28.0955
-42.2265
-18.5819
-34.0197
-28.6659
-44.507
-31.3774
-61.1867
-11.026
-49.6063
-14.6495
-54.3296
-17.2091
-64.5136
-21.8678
-79.9871
-31.8322
-99.2597
-54.4533
-125.079
-87.1483
-155.553
-241.613
-277.421
-287.991
-290.583
255.307
-62.2207
-89.6649
-39.7448
-48.425
-33.0553
-36.6894
-30.8055
-32.6136
-30.4851
-31.0449
-30.8251
-31.0941
-32.2939
-31.2715
-36.1573
-27.0769
-33.8821
-28.7742
-34.0981
-29.3112
-33.7406
-29.8299
-33.269
-32.0192
-35.3645
-31.4839
-38.3825
-25.4253
-33.7011
-25.0248
-32.1892
-26.4666
-32.8356
-30.9521
-40.5221
-23.7677
-35.7988
-25.278
-34.1977
-23.0967
-32.7929
-23.9274
-34.2293
-25.3442
-33.7452
-26.1398
-33.063
-31.0989
-39.644
-23.1149
-32.8371
-23.7651
-31.436
-29.3186
-38.4904
-22.2634
-32.4085
-30.2588
-41.3146
-34.0093
-53.138
-18.7224
-43.2675
-20.9435
-47.1152
-24.1184
-55.7786
-30.1708
-69.6134
-41.8352
-88.49
-65.0979
-114.868
-97.4512
-154.849
-243.626
-278.433
-288.312
-290.688
208.506
-38.4125
-71.6389
-40.6741
-44.0257
-33.7405
-35.0749
-31.1215
-31.9284
-30.5207
-30.8205
-30.7184
-31.0564
-31.8657
-31.3157
-34.3453
-28.6901
-32.9184
-29.8874
-33.2172
-30.277
-33.0278
-30.6451
-32.8677
-32.4232
-34.5294
-31.9382
-36.0428
-27.6123
-32.4408
-26.4127
-30.8319
-27.9195
-32.1213
-31.3201
-37.282
-26.7406
-34.0658
-27.3135
-32.5139
-24.713
-30.6729
-25.9968
-32.5944
-27.1548
-32.3621
-27.683
-32.1872
-31.7835
-36.9825
-25.6338
-31.3005
-25.5441
-30.4938
-30.0891
-35.7691
-24.8891
-31.2881
-31.3225
-38.8556
-35.5831
-47.2304
-24.0598
-38.8029
-25.2974
-41.8675
-28.8415
-49.3347
-35.8723
-61.9294
-48.8619
-80.5234
-72.8175
-107.347
-104.763
-152.892
-247.799
-280.444
-288.935
-290.89
171.581
-23.1517
-56.1801
-40.2303
-40.1712
-33.9602
-33.6712
-31.2465
-31.3312
-30.4873
-30.6114
-30.5933
-30.9992
-31.4912
-31.2161
-32.8799
-29.9072
-32.2443
-30.7454
-32.5863
-31.0144
-32.5195
-31.2752
-32.5722
-32.7243
-33.8813
-32.1237
-34.2035
-29.268
-31.6139
-27.3817
-29.7669
-29.0868
-31.606
-31.4167
-34.701
-28.9978
-32.895
-28.8699
-31.3491
-25.7778
-28.9773
-27.6143
-31.44
-28.5384
-31.3734
-28.8578
-31.5066
-32.243
-34.9819
-27.4711
-30.2198
-26.8937
-29.7647
-30.6151
-33.7093
-26.8226
-30.4215
-32.0855
-36.8282
-36.5594
-42.7149
-27.8801
-35.4679
-28.4481
-37.8035
-32.2239
-44.2493
-39.9936
-55.8109
-54.1004
-74.1326
-78.8489
-101.312
-110.049
-149.065
-254.465
-283.423
-289.822
-291.172
142.446
-14.3588
-42.6802
-39.1505
-36.5625
-33.9426
-32.3526
-31.2707
-30.7706
-30.4148
-30.4075
-30.4507
-30.9379
-31.1469
-31.0383
-31.5995
-30.9113
-31.723
-31.4693
-32.0914
-31.628
-32.1206
-31.8031
-32.3219
-32.9846
-33.3491
-32.1552
-32.6441
-30.6318
-31.0495
-28.0855
-28.8238
-30.1256
-31.1985
-31.3737
-32.4788
-30.8704
-32.0403
-30.1654
-30.5057
-26.4911
-27.4636
-29.0236
-30.5539
-29.6919
-30.598
-29.8253
-30.9019
-32.6216
-33.3906
-28.8974
-29.3814
-27.9949
-29.1159
-31.0508
-32.0482
-28.3362
-29.6316
-32.7248
-35.0006
-37.2782
-39.0386
-30.8033
-32.717
-30.9436
-34.3368
-34.9022
-39.8153
-43.3122
-50.3941
-58.4697
-68.3552
-84.1715
-95.8267
-114.124
-142.584
-264.189
-287.305
-290.912
-291.508
119.583
-10.7051
-30.4542
-38.0329
-32.9548
-33.8836
-31.0134
-31.2714
-30.2041
-30.3281
-30.2015
-30.2902
-30.8877
-30.8151
-30.8336
-30.3688
-31.8553
-31.2442
-32.1578
-31.6396
-32.2033
-31.7539
-32.2973
-32.0657
-33.2566
-32.8791
-32.1191
-31.1847
-31.8982
-30.62
-28.6408
-27.858
-31.1732
-30.8266
-31.2932
-30.365
-32.6315
-31.3072
-31.372
-29.8363
-27.0046
-25.9261
-30.4337
-29.7632
-30.7744
-29.8895
-30.7186
-30.2712
-33.0381
-32.0095
-30.1243
-28.6176
-28.9954
-28.4342
-31.5238
-30.5751
-29.6492
-28.7696
-33.3966
-33.1729
-38.0176
-35.762
-33.3204
-30.1135
-33.2324
-30.9833
-37.4066
-35.4381
-46.4876
-44.9378
-62.767
-62.3409
-89.6608
-90.0764
-117.794
-132.378
-277.853
-291.969
-292.122
-291.868
101.932
-11.4731
-18.715
-37.4216
-29.107
-33.9767
-29.5492
-31.3252
-29.59
-30.2515
-29.987
-30.1095
-30.8643
-30.4798
-30.6484
-29.0602
-32.8833
-30.7046
-32.9039
-31.1448
-32.8192
-31.3476
-32.8226
-31.7527
-33.5916
-32.4245
-32.0901
-29.6594
-33.2444
-30.2188
-29.1485
-26.7284
-32.3675
-30.4224
-31.2687
-28.1235
-34.5365
-30.5188
-32.6429
-29.2188
-27.4483
-24.1653
-32.0512
-28.9055
-31.933
-29.1127
-31.6631
-29.5121
-33.6065
-30.6629
-31.3362
-27.7786
-30.0338
-27.6068
-32.1584
-29.1014
-30.9605
-27.6876
-34.2625
-31.1426
-39.0411
-32.493
-35.8682
-27.2571
-35.7361
-27.283
-40.2467
-30.5402
-50.1669
-38.7062
-67.7943
-55.2166
-96.2261
-83.2337
-121.988
-116.936
-296.772
-297.19
-293.349
-292.218
88.8164
-16.4877
-6.51755
-37.8915
-24.7322
-34.442
-27.8373
-31.5199
-28.8805
-30.2124
-29.7574
-29.904
-30.887
-30.1228
-30.5339
-27.5357
-34.1519
-29.9903
-33.8087
-30.5131
-33.5614
-30.824
-33.4503
-31.3239
-34.0473
-31.9371
-32.1456
-27.8941
-34.8557
-29.74
-29.7108
-25.2771
-33.8658
-29.9071
-31.4045
-25.5003
-36.8593
-29.4852
-34.1363
-28.5358
-27.953
-21.9584
-34.1106
-27.8015
-33.3261
-28.1217
-32.7964
-28.5038
-34.4571
-29.1722
-32.718
-26.7077
-31.26
-26.5007
-33.098
-27.4316
-32.4777
-26.2121
-35.5168
-28.672
-40.6429
-28.8275
-38.8958
-23.7173
-38.9171
-22.726
-43.9936
-24.4688
-55.0895
-30.8523
-74.4877
-45.9481
-104.951
-74.3203
-127.934
-94.0972
-322.866
-302.581
-294.466
-292.522
79.9132
-26.1136
7.33333
-40.1431
-19.4431
-35.5605
-25.7146
-31.9681
-28.0128
-30.2455
-29.5044
-29.6657
-30.9803
-29.7195
-30.5564
-25.6272
-35.8524
-28.9576
-34.9989
-29.6284
-34.5359
-30.0867
-34.2689
-30.7019
-34.6972
-31.3579
-32.3803
-25.6812
-36.9508
-29.0586
-30.4502
-23.3057
-35.8669
-29.1745
-31.8372
-22.1875
-39.9324
-27.9716
-36.0407
-27.6531
-28.6752
-19.0267
-36.9094
-26.2251
-35.1493
-26.7365
-34.2893
-27.0866
-35.7582
-27.3293
-34.483
-25.2153
-32.8596
-24.9414
-34.5291
-25.3341
-34.4482
-24.1147
-37.4179
-25.4495
-43.1968
-24.2872
-42.9337
-18.9628
-43.3541
-16.6708
-49.3722
-16.3914
-62.206
-20.2828
-84.0674
-33.177
-117.259
-62.0357
-137.376
-60.7527
-358.921
-307.483
-295.334
-292.746
75.2508
-41.3187
24.4207
-45.1224
-12.682
-37.7183
-22.9486
-32.8255
-26.8984
-30.3984
-29.2162
-29.382
-31.1774
-29.2331
-30.8105
-23.1136
-38.2385
-27.4084
-36.6465
-28.3336
-35.8856
-29.0051
-35.3985
-29.7785
-35.6415
-30.6052
-32.9249
-22.7505
-39.8136
-28.0069
-31.5321
-20.5472
-38.6392
-28.0689
-32.7636
-17.7801
-44.1949
-25.658
-38.6046
-26.3952
-29.8254
-14.9948
-40.8521
-23.8656
-37.6672
-24.7138
-36.3736
-25.0357
-37.7445
-24.8642
-36.9061
-23.0475
-35.0829
-22.6829
-36.7126
-22.5054
-37.1976
-21.0728
-40.3307
-21.0392
-47.2179
-18.2453
-48.6769
-12.2742
-49.8343
-8.24035
-57.3779
-5.16183
-72.8315
-5.48435
-98.2331
-15.0057
-135.139
-44.5269
-152.894
-12.4145
-408.957
-310.812
-295.818
-292.866
48.8539
58.4076
30.8345
42.6648
38.6834
40.8414
40.2543
38.8726
40.4863
37.4106
40.4943
36.6408
41.3215
36.7001
39.5026
28.3346
48.9453
34.5733
45.0637
34.5773
43.2703
34.4947
42.5115
34.8125
43.5682
35.5489
45.1319
35.4172
43.32
34.3399
37.1018
27.0027
44.202
34.2194
38.9798
25.5765
49.4108
33.4315
43.7864
33.3694
36.7611
23.8651
46.6145
32.1684
43.0688
32.2221
41.0216
31.7755
35.3772
21.7784
46.7118
30.5092
43.3521
30.5993
36.1321
16.7731
52.5892
29.388
39.811
7.29179
71.0034
29.8685
69.6438
32.2924
74.2321
34.6567
80.8961
37.8358
89.6392
43.245
100.276
52.4768
113.767
70.0328
131.156
110.556
106.97
106.182
105.999
105.958
48.4719
54.2511
34.9005
42.1508
39.5852
40.9101
40.3283
39.2945
40.1334
38.0293
39.908
37.4141
40.5802
37.5189
38.9469
31.744
45.6654
36.4361
43.0468
36.1428
41.6377
35.8936
41.0709
36.186
42.2089
37.1824
43.5676
37.1096
41.5996
35.288
36.1999
29.6237
41.5779
35.2775
38.06
29.4801
45.6117
35.3226
41.6743
34.5058
35.7254
27.3771
43.1659
34.0759
41.0187
33.866
39.3151
32.9551
34.3731
25.6286
42.967
32.7734
40.9512
32.2813
34.7155
22.3177
47.1995
32.1879
37.3849
16.9052
61.7355
36.3945
62.9672
39.2709
67.3432
42.3023
73.3904
46.2727
81.3359
52.3188
91.258
61.749
104.332
78.1775
122.085
109.875
106.858
106.158
105.993
105.956
47.8589
51.1001
37.9028
42.0298
40.3319
41.0556
40.421
39.642
39.8989
38.4893
39.4972
37.9617
40.0886
38.1588
38.7372
34.3091
43.3122
37.666
41.5712
37.2129
40.4554
36.8564
40.0335
37.1239
41.2922
38.3601
42.5177
38.3648
40.3121
35.9478
35.5983
31.5041
39.6847
35.973
37.5954
32.3959
42.8702
36.5488
40.1037
35.3074
35.073
29.9244
40.7132
35.3428
39.5331
35.0065
38.0816
33.8243
33.7761
28.4363
40.3242
34.3033
39.2249
33.5198
33.8929
26.3716
43.4061
34.1801
35.9863
23.9067
55.275
40.8444
58.3017
44.1789
62.5791
47.703
68.213
52.2225
75.5959
58.6744
84.9784
68.1375
97.6461
83.5197
115.26
108.827
106.653
106.112
105.982
105.953
47.1164
48.6068
40.2124
42.1422
40.9822
41.2559
40.52
39.9486
39.7315
38.8532
39.1886
38.3633
39.7597
38.6989
38.7282
36.3375
41.5456
38.5144
40.4267
37.9797
39.5474
37.5486
39.2402
37.7793
40.6602
39.2549
41.8009
39.3766
39.2775
36.4477
35.147
32.8941
38.2679
36.4557
37.4044
34.6855
40.8011
37.3806
38.8678
35.9271
34.6179
31.8348
38.9074
36.2279
38.3969
35.8436
37.142
34.5258
33.3914
30.5553
38.3982
35.3961
37.9241
34.5156
33.3865
29.4438
40.6635
35.7314
35.1435
29.1707
50.6467
44.0191
54.8998
47.7863
59.1463
51.6885
64.4959
56.5979
71.4678
63.3011
80.4245
72.672
92.706
87.0272
109.961
107.608
106.383
106.049
105.967
105.948
46.3144
46.5091
42.1093
42.3785
41.5754
41.4969
40.6127
40.2414
39.5909
39.1689
38.9268
38.6764
39.5296
39.1958
38.8165
38.0622
40.1089
39.1654
39.4569
38.5862
38.7823
38.0937
38.5733
38.2614
40.1999
39.9919
41.2833
40.2957
38.3527
36.8868
34.7343
33.9794
37.1388
36.8284
37.3604
36.622
39.1139
38.0164
37.8094
36.4819
34.2222
33.3514
37.4921
36.9195
37.4499
36.527
36.3594
35.1683
33.0751
32.2476
36.9065
36.2681
36.8612
35.4206
32.993
31.9098
38.5674
37.1092
34.5164
33.3369
47.1428
46.4936
52.2178
50.655
56.4664
54.8634
61.607
60.0627
68.2612
66.9162
76.8658
76.0951
88.7944
89.3901
105.673
106.344
106.077
105.976
105.949
105.943
45.5046
44.5953
43.8194
42.6577
42.1398
41.7702
40.685
40.5455
39.4413
39.4774
38.6655
38.9455
39.347
39.6946
38.9198
39.6751
38.7919
39.7672
38.5337
39.1502
38.0528
38.5921
37.9382
38.6537
39.8257
40.6691
40.857
41.2533
37.4088
37.3536
34.2658
34.9084
36.1487
37.1676
37.3674
38.4295
37.5704
38.6168
36.796
37.0742
33.771
34.6676
36.2656
37.5671
36.5612
37.1803
35.6178
35.8471
32.7083
33.7206
35.6267
37.0909
35.8797
36.3652
32.5458
34.0663
36.7959
38.5325
33.8329
36.9039
44.2172
48.7133
49.8274
53.2287
54.083
57.7046
59.0498
63.1378
65.4363
70.0795
73.7358
78.9793
85.3668
91.1255
102.01
105.117
105.765
105.901
105.931
105.937
44.7313
42.6761
45.545
42.9112
42.6981
42.0721
40.7194
40.888
39.246
39.8199
38.3605
39.2097
39.1665
40.2382
38.9619
41.3535
37.4005
40.4572
37.5365
39.7826
37.2578
39.1382
37.2483
39.0275
39.4645
41.3725
40.4222
42.3803
36.3133
37.9415
33.6479
35.8133
35.1674
37.5394
37.3398
40.3138
35.9506
39.3317
35.6985
37.8096
33.1517
35.9557
35.0507
38.3069
35.6073
37.9208
34.8045
36.6604
32.1753
35.1577
34.3645
38.0207
34.8303
37.4819
31.885
36.1744
35.0642
40.2131
32.8385
40.3011
41.4042
51.0682
47.3454
55.9043
51.589
60.6367
56.3827
66.2844
62.5177
73.2822
70.5423
81.8178
81.9645
92.6559
98.6583
103.989
105.473
105.829
105.913
105.932
44.04
40.5598
47.4905
43.0675
43.2727
42.4028
40.6926
41.3027
38.9618
40.2433
37.9627
39.5092
38.9411
40.8754
38.8569
43.2852
35.7284
41.386
36.3322
40.6056
36.2862
39.8347
36.4112
39.4547
39.0442
42.1898
39.8708
43.828
34.9096
38.7659
32.7714
36.8303
34.065
38.0136
37.1849
42.4911
34.0206
40.3269
34.3708
38.8154
32.2336
37.3918
33.669
39.2845
34.4526
38.8781
33.792
37.7271
31.3433
36.7455
32.9241
39.2239
33.5469
38.9283
30.8283
38.4981
33.0817
42.3945
31.2503
43.9524
38.2486
53.9583
44.3719
59.0946
48.5603
64.1008
53.1493
69.9777
59.0177
77.0251
66.7882
85.1014
78.1403
94.3738
95.3333
103.014
105.226
105.769
105.898
105.928
43.4879
38.0268
49.89
43.0385
43.8899
42.7666
40.5726
41.835
38.5322
40.8087
37.4114
39.8927
38.6151
41.6702
38.4935
45.6959
33.5271
42.7427
34.7543
41.7717
34.9993
40.8096
35.3149
40.0195
38.481
43.2251
39.0677
45.7901
32.9944
39.9838
31.4921
38.1196
32.6934
38.6785
36.7841
45.219
31.4989
41.812
32.6265
40.2617
30.8453
39.1826
31.9133
40.6795
32.9271
40.2153
32.418
39.206
30.0394
38.7018
31.0782
40.9058
31.8206
40.9133
29.1404
41.3449
30.5097
45.3937
28.7078
48.3395
34.236
57.86
40.4259
63.295
44.4883
68.6243
48.8046
74.7824
54.359
81.8978
61.8921
89.3961
73.3884
96.7028
91.7395
102.259
105.046
105.725
105.887
105.924
43.154
34.8006
53.0376
42.7009
44.5857
43.1728
40.3137
42.5492
37.8788
41.6005
36.6243
40.4261
38.1152
42.7136
37.7143
48.8807
30.4699
44.7869
32.5755
43.4887
33.2084
42.236
33.81
40.8334
37.6658
44.6159
37.8288
48.5323
30.2871
41.8202
29.6074
39.8905
30.8647
39.6577
35.9693
48.8323
28.0153
44.0763
30.2088
42.3894
28.7462
41.5969
29.5154
42.7345
30.7992
42.1552
30.4599
41.3223
28.0216
41.3088
28.5336
43.3435
29.3667
43.7325
26.4929
45.1126
26.9083
49.6551
24.7122
54.0757
28.714
63.4036
34.8673
69.1621
38.6984
74.9059
42.6278
81.4429
47.7817
88.6721
55.0956
95.4312
67.0637
100.163
87.5266
101.813
104.95
105.702
105.882
105.923
-47.5722
-37.7793
-55.3298
-42.2155
-45.252
-41.4894
-40.0466
-40.3362
-36.9081
-38.9709
-35.0505
-37.5829
-35.3798
-38.4815
-34.3782
-41.8323
-26.6344
-38.6824
-28.0083
-39.6286
-29.8826
-39.0782
-30.981
-37.8051
-34.7433
-41.2328
-34.8016
-44.5885
-27.8855
-38.2461
-27.2709
-36.2474
-28.0387
-35.6802
-32.2998
-43.9905
-24.5258
-39.7083
-26.3934
-38.5155
-24.7838
-38.1365
-25.3957
-39.8624
-27.173
-40.0376
-28.0952
-39.6276
-29.3396
-38.9595
-35.4953
-47.6645
-28.3196
-41.6773
-37.048
-52.3113
-28.7333
-45.2073
-40.3355
-57.0467
-44.2111
-74.0569
-25.7438
-62.5971
-29.9302
-64.736
-32.1051
-69.8765
-33.6333
-77.8748
-37.4395
-89.4293
-53.1668
-104.234
-105.049
-129.651
-135.596
-137.062
-137.415
-137.495
-47.9638
-41.306
-51.9354
-42.9141
-44.1784
-41.3876
-39.9851
-39.9028
-37.2691
-38.3994
-35.6018
-37.1723
-35.7663
-37.7362
-34.948
-39.4754
-28.8061
-36.549
-30.1573
-37.9114
-31.6952
-37.6932
-32.4593
-37.0355
-35.5247
-39.9402
-35.9609
-42.0912
-30.3583
-36.6167
-28.9542
-34.6929
-29.6451
-34.8039
-33.0126
-40.637
-27.738
-37.4864
-28.7361
-36.36
-26.8886
-35.5662
-27.9199
-37.5739
-29.5241
-37.9381
-30.2464
-37.7863
-31.2558
-37.83
-36.5213
-44.5294
-31.4056
-40.25
-38.3975
-48.4608
-32.5339
-43.5308
-42.001
-53.7996
-46.9314
-66.245
-33.2741
-56.7609
-35.847
-58.6711
-38.0504
-62.9669
-40.2832
-69.7628
-45.241
-80.8908
-61.742
-99.7106
-110.631
-130.398
-135.775
-137.106
-137.426
-137.499
-48.6215
-44.141
-49.3266
-43.2008
-43.2664
-41.2297
-39.8701
-39.5709
-37.4789
-37.9843
-35.9777
-36.88
-36.017
-37.1804
-35.2245
-37.7256
-30.2405
-34.9801
-31.7399
-36.7523
-33.0186
-36.7569
-33.5444
-36.5087
-36.0684
-38.9826
-36.715
-40.3077
-32.1108
-35.5434
-30.1007
-33.5692
-30.8424
-34.205
-33.3479
-38.1037
-30.0436
-36.0038
-30.4231
-34.8875
-28.2666
-33.6482
-29.7514
-35.9928
-31.2158
-36.4821
-31.7877
-36.5071
-32.6472
-37.0152
-37.1739
-42.2389
-33.6122
-39.2499
-39.2697
-45.6492
-35.2568
-42.3546
-43.1327
-51.2984
-48.6038
-60.5237
-38.5454
-52.7001
-40.0138
-54.3434
-42.1736
-57.9609
-44.8461
-63.8105
-50.6355
-74.544
-68.0325
-96.269
-115.86
-131.72
-136.116
-137.191
-137.447
-137.505
-49.4583
-46.5891
-47.17
-43.2394
-42.4381
-41.0441
-39.7121
-39.3101
-37.5843
-37.6691
-36.2367
-36.6576
-36.186
-36.7487
-35.3221
-36.3746
-31.1854
-33.7298
-32.9917
-35.9424
-34.0425
-36.0979
-34.3818
-36.1175
-36.4772
-38.2316
-37.234
-38.9951
-33.3974
-34.8244
-30.8901
-32.6925
-31.7956
-33.7741
-33.4582
-36.0824
-31.7878
-34.9821
-31.7076
-33.8578
-29.1639
-32.1006
-31.1766
-34.8517
-32.5052
-35.4239
-32.9517
-35.5704
-33.7088
-36.368
-37.6296
-40.4954
-35.2475
-38.4739
-39.8868
-43.5078
-37.2795
-41.4307
-43.9683
-49.2311
-49.6909
-56.1578
-42.3709
-49.7125
-43.0993
-51.0751
-45.1781
-54.1105
-48.1256
-59.1435
-54.5464
-69.4139
-72.933
-93.1732
-121.237
-133.5
-136.59
-137.309
-137.476
-137.513
-50.4098
-48.899
-45.1937
-43.1526
-41.6331
-40.8557
-39.5166
-39.1018
-37.6168
-37.4142
-36.4211
-36.4706
-36.3133
-36.3963
-35.3201
-35.2729
-31.8204
-32.6105
-34.0955
-35.3261
-34.9077
-35.5894
-35.0808
-35.7808
-36.8299
-37.5903
-37.6423
-37.9765
-34.4026
-34.3194
-31.4496
-31.9235
-32.6333
-33.4346
-33.4503
-34.3375
-33.232
-34.2188
-32.7748
-33.1015
-29.7556
-30.7071
-32.4175
-33.9512
-33.5836
-34.5809
-33.9117
-34.8125
-34.5891
-35.7764
-38.0207
-39.076
-36.5435
-37.77
-40.4152
-41.76
-38.8865
-40.5708
-44.6945
-47.3555
-50.5374
-52.6017
-45.3509
-47.2826
-45.601
-48.3615
-47.5892
-50.8566
-50.7248
-55.1009
-57.6786
-64.7377
-77.1646
-89.7645
-127.247
-135.647
-137.158
-137.448
-137.51
-137.523
-51.4216
-51.2966
-43.1506
-43.0449
-40.7983
-40.6897
-39.284
-38.9362
-37.5978
-37.1908
-36.5636
-36.2917
-36.4308
-36.09
-35.2767
-34.3073
-32.2857
-31.4631
-35.2093
-34.7756
-35.7287
-35.1283
-35.7312
-35.4301
-37.1939
-36.9772
-38.0392
-37.1141
-35.268
-33.9258
-31.8752
-31.1448
-33.4671
-33.1264
-33.4075
-32.6721
-34.5924
-33.5526
-33.7709
-32.4919
-30.1752
-29.283
-33.6653
-33.1265
-34.6073
-33.8044
-34.8087
-34.0995
-35.4129
-35.1423
-38.4592
-37.8
-37.6889
-37.0092
-40.9955
-40.1808
-40.3112
-39.6133
-45.479
-45.4589
-51.4284
-49.418
-47.9634
-44.9972
-47.9249
-45.7891
-49.8385
-47.7386
-53.1436
-51.1303
-60.6315
-59.8467
-81.3893
-85.3604
-134.42
-138.07
-137.776
-137.597
-137.546
-137.534
-52.4385
-54.015
-40.786
-43.0228
-39.8781
-40.5756
-39.0091
-38.8104
-37.5418
-36.9763
-36.6921
-36.0965
-36.5676
-35.8028
-35.2398
-33.3839
-32.7031
-30.1332
-36.4905
-34.1698
-36.6121
-34.6192
-36.418
-34.9968
-37.6373
-36.3131
-38.5157
-36.2886
-36.1134
-33.5606
-32.2481
-30.2442
-34.4076
-32.7935
-33.4054
-30.9005
-36.0712
-32.8362
-34.8271
-31.9239
-30.538
-27.6481
-35.11
-32.2212
-35.7224
-32.9558
-35.7744
-33.3056
-36.3001
-34.3648
-39.0568
-36.5022
-38.8573
-36.0619
-41.7679
-38.5639
-41.769
-38.3933
-46.4991
-43.3229
-52.6388
-46.2122
-50.6365
-42.4761
-50.4515
-42.9694
-52.3339
-44.3205
-55.8592
-46.6991
-63.9959
-54.0627
-86.3168
-79.1529
-143.409
-140.651
-138.389
-137.741
-137.58
-137.543
-53.3923
-57.3258
-37.8029
-43.2162
-38.8045
-40.5524
-38.6799
-38.7277
-37.4579
-36.7509
-36.8333
-35.859
-36.7542
-35.5079
-35.2549
-32.4138
-33.1964
-28.4465
-38.1192
-33.3738
-37.6732
-33.9588
-37.2339
-34.4015
-38.2396
-35.5083
-39.1697
-35.3814
-37.0542
-33.1462
-32.649
-29.0973
-35.5797
-32.3718
-33.5284
-28.8224
-37.8867
-31.9111
-36.0794
-31.2957
-30.9613
-25.5994
-36.9692
-31.0606
-37.0886
-31.8841
-36.9519
-32.2936
-37.385
-33.3226
-39.9447
-35.0084
-40.232
-34.7749
-42.8972
-36.6911
-43.4905
-36.7144
-47.9708
-40.6875
-54.4792
-42.5728
-53.8133
-39.3099
-53.5966
-39.4761
-55.5248
-40.1205
-59.4029
-41.2098
-68.4496
-46.5913
-92.8212
-70.0885
-155.079
-143.212
-138.937
-137.866
-137.61
-137.552
-54.1889
-61.5751
-33.8227
-43.8029
-37.4849
-40.6745
-38.2744
-38.6982
-37.3521
-36.4945
-37.0174
-35.5473
-37.027
-35.1738
-35.3742
-31.2994
-33.9116
-26.1835
-40.3251
-32.2166
-39.0555
-33.0194
-38.2947
-33.54
-39.1053
-34.4483
-40.1223
-34.2563
-38.2189
-32.596
-33.1727
-27.5496
-37.1399
-31.7762
-33.8866
-26.194
-40.3044
-30.5808
-37.6904
-30.4901
-31.5863
-22.8822
-39.5201
-29.4232
-38.9046
-30.4022
-38.5191
-30.8922
-38.8365
-31.8537
-41.2955
-33.1088
-42.0345
-32.9454
-44.6001
-34.2985
-45.7555
-34.3148
-50.1847
-37.2097
-57.3481
-38.008
-58.0204
-34.9926
-57.8785
-34.7765
-59.9741
-34.5335
-64.446
-33.9035
-74.8675
-36.3965
-102.084
-56.7153
-170.623
-145.469
-139.357
-137.957
-137.631
-137.558
-54.6903
-67.2302
-28.3336
-45.0421
-35.7856
-41.0207
-37.7565
-38.7402
-37.2274
-36.1835
-37.2819
-35.1182
-37.4339
-34.7583
-35.6651
-29.9182
-35.0411
-23.0464
-43.4218
-30.4622
-40.9534
-31.6283
-39.7574
-32.2664
-40.3806
-32.9759
-41.5373
-32.7388
-39.7678
-31.7984
-33.9452
-25.3941
-39.299
-30.8824
-34.6375
-22.6942
-43.6762
-28.578
-39.8745
-29.3533
-32.604
-19.1519
-43.1411
-27.0034
-41.4408
-28.2562
-40.7168
-28.8687
-40.8859
-29.7284
-43.3522
-30.5255
-44.5583
-30.2867
-47.182
-31.0364
-48.9372
-30.8235
-53.553
-32.4081
-61.7968
-31.8697
-63.9497
-28.8393
-64.0006
-28.1454
-66.4495
-26.7327
-71.9076
-23.7371
-84.463
-22.0355
-115.789
-36.9711
-191.729
-146.965
-139.589
-138.006
-137.642
-137.561
42.0305
50.7474
21.5426
34.5241
26.0293
31.0919
29.3605
29.2033
31.5226
29.278
32.3389
29.6481
33.3864
30.2158
32.0119
24.807
32.2175
17.7626
42.6765
28.3345
38.9909
30.0298
36.9639
30.9799
33.6289
25.2913
33.6643
18.5048
42.8338
29.1263
34.0023
21.2853
46.6107
31.093
47.2124
31.4589
44.4398
29.8718
40.6402
30.0454
35.2312
16.1876
51.1346
26.8227
44.6479
27.215
41.1047
27.2148
33.2855
12.4916
57.5132
27.2176
54.5869
25.5469
50.4647
24.8237
47.5551
24.386
34.119
-2.49948
68.163
22.6309
64.4492
25.7533
65.8698
27.9591
69.2501
30.9293
73.7008
34.9059
79.9988
41.2676
90.6943
54.196
99.9431
40.2483
218.358
174.625
167.96
166.653
41.6821
46.6506
25.4696
33.2036
27.6676
30.9236
29.7389
29.6239
31.187
29.7756
31.8608
30.2143
32.8412
30.7673
31.6236
26.6197
30.6968
21.483
38.9537
30.0758
37.0366
31.2225
35.6543
31.6649
33.0403
27.2848
31.9461
22.1971
39.0857
30.32
32.7715
24.8856
43.125
33.7572
44.5601
34.1573
41.6965
31.8481
38.5077
31.4016
34.2156
21.9746
45.5609
29.9577
41.2404
29.7512
38.4295
28.9772
31.8019
19.0009
51.3867
32.4462
49.3108
30.0453
45.833
28.9713
43.3113
27.4781
31.5675
8.26365
57.759
29.5492
57.26
32.5229
59.0715
34.8748
62.3535
38.0049
66.6469
42.1777
72.7273
48.7464
83.129
61.1795
93.8903
61.9732
195.998
173.143
167.748
166.602
41.1352
43.6002
28.2404
32.4144
28.9548
30.9335
30.0752
29.9781
30.9711
30.1342
31.5328
30.6103
32.4849
31.2024
31.4708
28.07
29.7087
24.1371
36.2859
31.1846
35.5943
32.0065
34.6826
32.1365
32.738
28.8628
30.8054
24.8252
36.3651
31.0662
31.9553
27.442
40.7449
35.6158
42.7574
36.1393
39.65
33.1652
36.927
32.3622
33.8035
26.3299
41.5562
32.0185
38.7451
31.4819
36.4808
30.2499
30.9446
23.704
47.3145
36.2439
45.4812
33.1429
42.5086
31.8722
40.2756
29.7747
30.113
16.1161
50.4646
34.2321
52.1701
37.2423
54.3043
39.7249
57.5313
42.9623
61.7187
47.2501
67.6383
53.8921
77.8184
65.978
90.4241
77.0617
179.914
170.965
167.366
166.506
40.4899
41.2631
30.2303
31.931
30.025
31.0574
30.3816
30.2893
30.8291
30.404
31.2983
30.8953
32.2557
31.5763
31.4655
29.3197
29.0099
26.0831
34.3089
31.9138
34.4728
32.5409
33.9208
32.4832
32.6158
30.209
29.9826
26.7535
34.3189
31.5659
31.3563
29.2869
39.103
36.9847
41.5061
37.7173
38.0044
34.0736
35.6805
33.0836
33.7492
29.7782
38.543
33.43
36.8104
32.7232
34.9825
31.2467
30.4059
27.1742
44.6306
39.2304
42.5157
35.3734
39.9853
34.0126
37.9973
31.6387
29.233
22.0359
45.1946
37.5492
48.3959
40.6833
50.8039
43.2806
54.0052
46.5878
58.1207
50.9294
63.916
57.532
73.9397
69.3263
88.4714
87.5029
168.304
168.574
166.876
166.376
39.8139
39.3985
31.7111
31.5922
30.9779
31.25
30.665
30.5756
30.7261
30.6216
31.1162
31.1102
32.1085
31.928
31.5421
30.4964
28.4163
27.5837
32.7574
32.4455
33.5316
32.9435
33.2723
32.7677
32.5958
31.4687
29.2806
28.2506
32.6862
31.9646
30.8324
30.657
37.9392
38.0886
40.5879
39.1329
36.5282
34.7612
34.6029
33.6753
33.881
32.7178
36.0858
34.5024
35.1752
33.7114
33.7247
32.1283
29.9635
29.8176
42.8618
41.8702
39.968
37.1345
37.8863
35.7554
36.1334
33.3454
28.5454
26.7421
41.1574
40.1273
45.3649
43.4116
48.01
46.1071
51.2056
49.456
55.2725
53.8023
60.9692
60.2611
70.9025
71.725
87.3241
94.674
159.915
166.263
166.339
166.227
39.1545
37.8249
32.8892
31.2733
31.8955
31.477
30.9288
30.8525
30.6334
30.8153
30.9543
31.2851
32.0087
32.2881
31.6453
31.7147
27.7731
28.8443
31.4255
32.9216
32.6576
33.3096
32.6574
33.0391
32.6142
32.7711
28.5326
29.5294
31.2601
32.38
30.2705
31.729
37.061
39.0989
39.8282
40.5948
35.0187
35.3847
33.5563
34.2219
34.0678
35.4765
33.8268
35.4848
33.6258
34.6408
32.5315
33.0331
29.4406
31.9337
41.6547
44.5467
37.4579
38.7524
35.9027
37.3982
34.3964
35.1328
27.7383
30.7999
37.7383
42.455
42.6217
45.8782
45.4764
48.6539
48.6802
52.0219
52.716
56.33
58.3378
62.5365
68.2585
73.5329
86.507
99.5299
153.883
164.202
165.809
166.074
38.5484
36.3954
33.9345
30.8648
32.8547
31.7092
31.1736
31.135
30.5246
31.0106
30.7846
31.4442
31.9265
32.685
31.7199
33.0933
26.9291
30.0442
30.1368
33.4678
31.7468
33.7277
32.0009
33.3426
32.6092
34.2491
27.5749
30.7786
29.8581
32.9243
29.5656
32.646
36.3144
40.1612
39.0667
42.3101
33.2714
36.0958
32.4098
34.8011
34.1919
38.3573
31.4354
36.6077
31.9612
35.695
31.2337
34.1013
28.6741
33.7605
40.7206
47.6222
34.6123
40.5359
33.7452
39.2206
32.5096
37.2453
26.5127
34.7024
34.4079
44.9646
39.7548
48.4909
42.7994
51.3265
46.022
54.6934
50.0425
58.9218
55.6184
64.7507
65.6321
75.0326
85.6877
102.732
149.612
162.49
165.333
165.931
38.0282
34.9781
35.004
30.2537
33.939
31.9166
31.3983
31.4399
30.3716
31.234
30.579
31.6099
31.8328
33.1503
31.7005
34.7729
25.7135
31.3646
28.7181
34.2156
30.6874
34.2936
31.2211
33.7286
32.5086
36.059
26.2215
32.1922
28.2962
33.725
28.6026
33.5388
35.56
41.4206
38.1311
44.5162
31.0489
37.0667
31.0195
35.4997
34.1244
41.6809
28.5595
38.1227
29.9607
37.0763
29.6421
35.5007
27.4864
35.5117
39.7881
51.4935
31.0086
42.8273
31.0964
41.5298
30.1644
39.9758
24.5295
38.9436
30.6427
48.1041
36.3293
51.6801
39.553
54.5517
42.8041
57.8972
46.8272
62.0002
52.401
67.2943
62.6642
76.4814
84.6122
104.741
146.7
161.179
164.946
165.811
37.6299
33.4375
36.2641
29.3047
35.2511
32.0633
31.5999
31.7888
30.1408
31.5174
30.3054
31.8072
31.6947
33.7256
31.4994
36.9371
23.9087
33.016
26.9728
35.3236
29.3417
35.1257
30.2173
34.2627
32.2163
38.4036
24.2349
33.9995
26.3602
34.9468
27.2362
34.5472
34.651
43.045
36.8075
47.5153
28.046
38.5191
29.207
36.4315
33.6986
45.8306
24.7752
40.3456
27.348
39.0385
27.5178
37.4539
25.656
37.4117
38.5574
56.6513
26.1117
46.0597
27.5599
44.71
26.971
43.7156
21.3509
44.0924
25.8461
52.412
31.8178
55.9673
35.2206
58.8456
38.5114
62.1464
42.5609
66.0684
48.2027
70.6177
58.9573
78.1565
83.0556
105.874
144.886
160.294
164.674
165.725
37.3989
31.6157
37.9152
27.839
36.9281
32.1005
31.7748
32.2103
29.7882
31.9036
29.9224
32.0683
31.4699
34.4703
30.9908
39.8389
21.2175
35.2725
24.6508
37.0038
27.5244
36.3844
28.8542
35.0394
31.5936
41.5612
21.2898
36.5018
23.7741
36.8193
25.2678
35.8427
33.4093
45.2535
34.8049
51.7202
23.8441
40.7617
26.7319
37.7603
32.6769
51.3066
19.5246
43.71
23.7466
41.928
24.5338
40.2753
22.8823
39.7349
36.6475
63.7533
19.1941
50.8287
22.5962
49.2844
22.397
49.0185
16.3667
50.8794
19.2556
58.605
25.5153
62.0491
29.1119
64.8967
32.4587
68.1231
36.5697
71.7902
42.3918
75.3028
54.0147
80.4023
80.7808
106.359
144.015
159.85
164.534
165.68
)
;

boundaryField
{
    F1_1
    {
        type            calculated;
        value           nonuniform List<scalar> 
80
(
348.142
-118.69
-122.179
-34.1085
-56.7679
-30.6538
-39.8007
-29.7746
-33.9254
-30.2364
-31.4368
-30.9492
-31.0814
-33.0953
-30.7761
-39.8816
-23.5089
-36.187
-26.3487
-36.1477
-27.1951
-35.4104
-28.0749
-34.2091
-31.0778
-37.1362
-30.0218
-43.3224
-20.6105
-36.8123
-21.8004
-35.1573
-23.4105
-34.5021
-29.5683
-47.2793
-17.2284
-40.0244
-20.818
-38.1642
-19.1728
-37.3156
-19.434
-38.0643
-21.3775
-36.9737
-22.775
-35.0198
-29.3056
-45.4388
-17.443
-36.4986
-19.8877
-33.5582
-27.3404
-44.3994
-16.4245
-34.9824
-27.7043
-46.3302
-29.7297
-65.8551
-6.46557
-53.3531
-10.9104
-58.5419
-13.0856
-69.5884
-16.9186
-86.0077
-25.9163
-105.521
-48.2238
-131.028
-81.1152
-155.662
-241.119
-277.167
-287.909
-290.556
)
;
    }
    F1_2
    {
        type            calculated;
        value           nonuniform List<scalar> 
80
(
43.0533
32.9751
54.8401
42.4368
44.9584
43.3879
40.1429
42.9614
37.4847
42.0653
36.1599
40.7397
37.8111
43.311
37.1975
50.7091
28.6802
46.0189
31.3028
44.5152
32.1595
43.0873
32.9337
41.3188
37.1795
45.4199
37.0735
50.1371
28.6944
42.9264
28.4838
40.9263
29.8093
40.2444
35.4336
50.9083
25.9796
45.4456
28.7939
43.6591
27.4835
42.9986
28.1175
43.9624
29.5509
43.3084
29.3024
42.5732
26.7987
42.8155
27.0447
44.7917
27.9162
45.3941
24.8809
47.2838
24.7872
52.1668
22.278
57.3683
25.4826
66.677
31.5923
72.6073
35.2763
78.5872
38.9773
85.3446
43.9038
92.6459
51.1131
98.9883
63.4161
102.249
85.2166
101.681
104.926
105.696
105.88
105.922
)
;
    }
    F1_3
    {
        type            calculated;
        value           nonuniform List<scalar> 
80
(
-47.4557
-35.8003
-57.2702
-41.7394
-45.8405
-41.5224
-40.0623
-40.5829
-36.6828
-39.3042
-34.7225
-37.825
-35.1448
-38.9114
-34.0029
-43.1931
-25.3281
-39.9258
-26.7583
-40.657
-28.8263
-39.9076
-30.1225
-38.2661
-34.2783
-41.9815
-34.0959
-46.051
-26.4318
-39.2298
-26.2686
-37.1588
-27.1097
-36.2039
-31.8265
-45.9165
-22.6432
-41.0447
-25.0211
-39.7995
-23.5135
-39.6251
-23.9194
-41.2223
-25.7953
-41.2839
-26.8333
-40.7206
-28.2221
-39.6241
-34.8633
-49.4861
-26.5123
-42.5273
-36.2215
-54.5495
-26.5092
-46.2066
-39.3352
-58.9015
-42.5217
-78.5923
-21.2958
-66.0616