/*--------------------------------*- C++ -*----------------------------------*\
| =========                 |                                                 |
| \\      /  F ield         | OpenFOAM: The Open Source CFD Toolbox           |
|  \\    /   O peration     | Version:  5.x                                   |
|   \\  /    A nd           | Web:      www.OpenFOAM.org                      |
|    \\/     M anipulation  |                                                 |
\*---------------------------------------------------------------------------*/
FoamFile
{
    version     2.0;
    format      ascii;
    class       volScalarField;
    location    "1.1";
    object      T;
}
// * * * * * * * * * * * * * * * * * * * * * * * * * * * * * * * * * * * * * //

dimensions      [0 0 0 1 0 0 0];

internalField   nonuniform List<scalar> 
3200
(
1.74071
18.4067
24.5439
24.9842
26.6058
26.7364
27.3449
27.395
27.6484
27.6668
27.7377
27.7402
27.7239
27.7138
27.5612
27.5157
26.793
26.7296
26.2335
26.1845
25.753
25.7119
25.3587
25.328
25.1214
25.0911
24.7367
24.6702
23.7003
23.6193
22.9515
22.8847
22.2699
22.2144
21.8475
21.7589
20.4379
20.3239
19.4142
19.3275
18.4994
18.4087
17.4874
17.3942
16.5844
16.5064
15.8254
15.7641
15.3397
15.259
14.1127
14.0175
13.2351
13.1668
12.7038
12.6185
11.4469
11.3541
10.78
10.6869
9.68231
9.50168
6.98696
6.75252
4.64477
4.40661
2.06233
1.77981
-1.04013
-1.38558
-4.74145
-5.13947
-8.66807
-9.08209
-12.4711
-12.8439
-13.2711
-13.4514
-13.5051
-13.5183
4.55549
17.641
23.55
24.5959
26.0978
26.4108
26.9692
27.0891
27.3185
27.3624
27.4261
27.4314
27.4128
27.3885
27.2492
27.144
26.5315
26.385
25.9521
25.8383
25.4654
25.3703
25.0651
24.993
24.8035
24.7327
24.4249
24.2731
23.4587
23.2747
22.7094
22.555
22.0134
21.8819
21.5407
21.3355
20.2173
19.9555
19.1731
18.9755
18.2782
18.0687
17.2599
17.0422
16.3413
16.1608
15.5728
15.4285
15.0329
14.8473
13.8963
13.68
13.0077
12.847
12.4153
12.2179
11.2395
11.0235
10.4837
10.2601
9.35206
8.9365
6.83109
6.29392
4.46088
3.90544
1.849
1.18543
-1.3083
-2.12524
-5.11893
-6.06946
-9.2749
-10.2734
-13.4029
-14.3983
-15.6922
-16.2281
-16.3858
-16.4244
6.84685
17.1623
22.7506
24.1893
25.6373
26.0753
26.6111
26.7789
26.9961
27.0571
27.1169
27.1237
27.102
27.0679
26.9358
26.7925
26.2514
26.0519
25.658
25.5025
25.1667
25.0371
24.7621
24.6627
24.481
24.3838
24.107
23.9025
23.1918
22.9453
22.451
22.2409
21.7405
21.5577
21.2285
20.9485
19.9626
19.608
18.9086
18.6435
18.0374
17.7528
17.0088
16.7096
16.0775
15.8315
15.3026
15.1029
14.7177
14.4662
13.6504
13.3607
12.7598
12.5381
12.1174
11.8487
11.0016
10.7059
10.1748
9.8606
9.00212
8.43892
6.61251
5.88717
4.2259
3.46431
1.57996
0.66424
-1.64355
-2.77785
-5.57816
-6.90927
-9.97003
-11.3795
-14.4201
-15.9408
-18.1437
-19.02
-19.2713
-19.3321
8.7256
16.8727
22.1172
23.7824
25.2173
25.736
26.2677
26.4667
26.6799
26.7519
26.8097
26.8171
26.7917
26.7512
26.6229
26.4571
25.9577
25.7267
25.3544
25.174
24.8599
24.7097
24.4522
24.3356
24.1551
24.0421
23.7862
23.5522
22.9064
22.6258
22.1812
21.9384
21.455
21.2394
20.9143
20.5898
19.6825
19.2742
18.6268
18.3252
17.7839
17.4553
16.74
16.3904
15.7982
15.5135
15.0192
14.7847
14.3972
14.1076
13.3836
13.054
12.4968
12.2371
11.8135
11.5026
10.7417
10.3977
9.8573
9.48294
8.6404
7.99189
6.3499
5.51787
3.95493
3.06809
1.27217
0.198731
-2.02575
-3.36383
-6.09617
-7.67993
-10.7312
-12.4203
-15.4982
-17.4561
-20.6482
-21.837
-22.1645
-22.2422
10.2785
16.6993
21.627
23.3847
24.8339
25.3961
25.9377
26.154
26.3695
26.4474
26.5046
26.5118
26.482
26.4381
26.3115
26.1349
25.6533
25.4071
25.0431
24.8508
24.5465
24.3867
24.1366
24.0112
23.8265
23.7062
23.4645
23.2184
22.6064
22.313
21.9033
21.6456
21.1588
20.9256
20.6001
20.2545
19.3826
18.9501
18.3313
18.0165
17.5219
17.1733
16.4565
16.0808
15.5067
15.204
14.7254
14.4727
14.0729
13.7665
13.101
12.7563
12.222
11.9428
11.5051
11.1745
10.4651
10.0975
9.53314
9.12404
8.27094
7.58463
6.05491
5.17781
3.65694
2.70824
0.935482
-0.220746
-2.44342
-3.89406
-6.66016
-8.39192
-11.547
-13.4057
-16.6211
-18.9221
-23.2329
-24.6885
-25.0678
-25.1555
11.5745
16.5856
21.2636
22.9994
24.486
25.0571
25.6207
25.8413
26.0645
26.1436
26.2016
26.2081
26.1729
26.1283
26.0021
25.8251
25.3395
25.0922
24.725
24.5321
24.2273
24.0673
23.8161
23.6892
23.4954
23.3751
23.1431
22.8993
22.2938
22.0048
21.6195
21.3619
20.8525
20.6155
20.2868
19.9402
19.0651
18.6334
18.0235
17.7151
17.2541
16.906
16.1595
15.7793
15.2044
14.9016
14.4227
14.1667
13.7448
13.4398
12.8057
12.4663
11.9369
11.6548
11.1925
10.8616
10.175
9.80511
9.2028
8.78293
7.89483
7.21112
5.73383
4.86353
3.33606
2.38135
0.574128
-0.597576
-2.89199
-4.37171
-7.26557
-9.04703
-12.4147
-14.3369
-17.7807
-20.3078
-25.932
-27.5831
-27.9828
-28.0724
12.6701
16.4852
21.0179
22.6241
24.1748
24.7184
25.3174
25.5285
25.7654
25.8408
25.9006
25.906
25.8642
25.8218
25.6948
25.5276
25.0162
24.7822
24.3999
24.218
23.9024
23.7516
23.4907
23.3699
23.1614
23.0486
22.8221
22.5947
21.9685
21.7006
21.3305
21.0884
20.5353
20.309
19.9743
19.6472
18.73
18.3239
17.7038
17.4198
16.9818
16.6547
15.8479
15.4856
14.8912
14.6062
14.111
13.8673
13.4121
13.1263
12.4985
12.184
11.6421
11.3741
10.8746
10.563
9.87215
9.52208
8.86521
8.46058
7.51059
6.86939
5.3885
4.57554
2.99229
2.08857
0.18735
-0.929509
-3.37317
-4.79282
-7.9155
-9.63874
-13.3402
-15.2072
-18.977
-21.5697
-28.79
-30.5279
-30.9102
-30.9929
13.6132
16.3561
20.8893
22.251
23.9039
24.3776
25.0297
25.2148
25.4727
25.5386
25.6018
25.6059
25.5556
25.5187
25.3891
25.2439
24.6818
24.4781
24.0669
23.9093
23.5709
23.4404
23.1597
23.0541
22.8236
22.7266
22.5013
22.3061
21.6289
21.4005
21.0365
20.8273
20.2051
20.007
19.6614
19.3778
18.3744
18.023
17.3707
17.1307
16.7051
16.4227
15.5185
15.2012
14.5657
14.3193
13.7894
13.5764
13.0727
12.8266
12.1789
11.9108
11.3363
11.1027
10.5493
10.2796
9.55575
9.25135
8.51755
8.16008
7.11401
6.56126
5.01647
4.31838
2.62134
1.83569
-0.230806
-1.20838
-3.89533
-5.14583
-8.62145
-10.1514
-14.3392
-16.0015
-20.2204
-22.6465
-31.8674
-33.5269
-33.8497
-33.9167
14.4465
16.1554
20.8875
21.8662
23.6802
24.0296
24.7606
24.8981
25.1878
25.2366
25.3054
25.3079
25.2465
25.2193
25.0841
24.9769
24.3332
24.1824
23.7238
23.6077
23.2312
23.1351
22.8217
22.7434
22.4804
22.4098
22.1792
22.0369
21.2714
21.1058
20.7363
20.5829
19.858
19.7109
19.3462
19.1372
17.9928
17.7342
17.0211
16.8491
16.4227
16.2156
15.1656
14.9295
14.2247
14.0438
13.4551
13.2972
12.723
12.5429
11.8442
11.6498
11.0169
10.8441
10.2127
10.0144
9.2226
8.99783
8.15487
7.88714
6.69773
6.29284
4.61058
4.1012
2.21395
1.63405
-0.692522
-1.41888
-4.47496
-5.40987
-9.40526
-10.5577
-15.4392
-16.6936
-21.5357
-23.4516
-35.2473
-36.5795
-36.7995
-36.8433
15.2114
15.8338
21.036
21.4481
23.515
23.6664
24.5154
24.5754
24.9125
24.9337
25.0117
25.0126
24.936
24.9243
24.778
24.7313
23.9648
23.899
23.3669
23.3167
22.8802
22.8386
22.4743
22.4401
22.1296
22.0995
21.8537
21.7925
20.8899
20.8193
20.4275
20.3612
19.4878
19.4235
19.0247
18.934
17.5757
17.4636
16.6499
16.5777
16.1316
16.0422
14.7803
14.6767
13.8627
13.7846
13.1036
13.0347
12.3575
12.28
11.4893
11.4065
10.6791
10.6039
9.85872
9.77289
8.86679
8.76906
7.76919
7.65109
6.25008
6.07552
4.15779
3.93913
1.75426
1.50228
-1.21825
-1.53621
-5.13945
-5.55149
-10.3028
-10.8149
-16.6844
-17.2422
-22.968
-23.8616
-39.0458
-39.6766
-39.7564
-39.7717
26.8011
26.8602
28.1091
28.182
28.4444
28.4576
28.465
28.4571
28.3321
28.3139
28.1167
28.0934
27.8428
27.8152
27.5546
27.4871
26.4396
26.3525
25.7023
25.6393
25.1092
25.0564
24.5874
24.5406
24.0848
24.0358
23.509
23.4508
22.9011
22.8484
22.5135
22.4526
21.6259
21.5651
21.1834
21.1021
19.8955
19.7988
19.1265
19.0649
18.6665
18.5886
17.4884
17.4003
16.7363
16.6712
16.1178
16.0632
15.6646
15.5822
14.3814
14.2826
13.5043
13.4286
12.8624
12.745
11.0183
10.8782
9.91018
9.71195
6.72029
6.46773
4.26536
4.03825
1.75155
1.51069
-0.982763
-1.24524
-3.99453
-4.27796
-7.24198
-7.53522
-10.5824
-10.8534
-13.582
-13.7099
-13.7288
-13.7328
-13.7338
-13.734
27.2885
27.4205
28.441
28.6048
28.8362
28.8661
28.8678
28.8481
28.7348
28.6916
28.5182
28.4644
28.2516
28.1868
27.9458
27.79
26.9098
26.7095
26.1412
25.9944
25.5324
25.4097
25.0041
24.8969
24.5123
24.4009
23.9509
23.8148
23.3244
23.1975
22.8791
22.738
22.0526
21.9137
21.5672
21.3804
20.3674
20.1446
19.5521
19.4054
19.0277
18.8477
17.9343
17.7335
17.155
17.0032
16.5181
16.3878
16.012
15.8224
14.8265
14.6012
13.9237
13.7444
13.2148
12.945
11.5125
11.1886
10.2929
9.84074
7.37555
6.80541
4.92229
4.40237
2.45296
1.90231
-0.218421
-0.817148
-3.14745
-3.7919
-6.29264
-6.95538
-9.50028
-10.1039
-12.3225
-12.6065
-12.6594
-12.6711
-12.6738
-12.6744
27.7706
27.9452
28.8072
29.025
29.2361
29.2758
29.2716
29.243
29.1348
29.0745
28.9149
28.8417
28.6544
28.5655
28.3336
28.122
27.3529
27.0812
26.5632
26.3621
25.942
25.7743
25.4088
25.2643
24.9289
24.7795
24.3803
24.193
23.7331
23.5542
23.2375
23.0451
22.4575
22.2707
21.9446
21.6917
20.8078
20.5052
19.96
19.755
19.381
19.1361
18.3517
18.0818
17.5567
17.3485
16.9041
16.7223
16.352
16.0948
15.2407
14.938
14.3233
14.0742
13.5567
13.1914
11.9623
11.5219
10.6579
10.0501
7.955
7.19562
5.5247
4.82367
3.09842
2.35674
0.485045
-0.319789
-2.36781
-3.23159
-5.41682
-6.30025
-8.49579
-9.28988
-11.1403
-11.5124
-11.5916
-11.6097
-11.6139
-11.6149
28.2457
28.4425
29.1991
29.4454
29.6428
29.6873
29.6763
29.641
29.5328
29.4614
29.3081
29.2236
29.0533
28.95
28.7206
28.4762
27.7761
27.4628
26.9726
26.7387
26.3415
26.1468
25.8047
25.6394
25.3381
25.1681
24.8013
24.5821
24.1306
23.9164
23.591
23.368
22.8463
22.6332
22.3191
22.0283
21.2248
20.8756
20.3542
20.1115
19.7291
19.4461
18.7485
18.4403
17.9457
17.7033
17.2797
17.0643
16.6875
16.3911
15.6329
15.2873
14.7082
14.4148
13.8926
13.4724
12.3806
11.8722
11.0126
10.3189
8.48105
7.6223
6.08833
5.28595
3.70454
2.85637
1.14584
0.227302
-1.63553
-2.61841
-4.59308
-5.59263
-7.54736
-8.43355
-10.0173
-10.43
-10.5263
-10.5489
-10.5542
-10.5554
28.7129
28.9174
29.6114
29.8678
30.0557
30.1009
30.082
30.0419
29.9294
29.8515
29.6986
29.609
29.4496
29.3395
29.1081
28.8487
28.1838
27.8515
27.3717
27.1217
26.7329
26.5252
26.1936
26.0199
25.7421
25.5646
25.2163
24.9805
24.5186
24.2831
23.9405
23.703
23.2228
22.9998
22.6927
22.3854
21.6238
21.2528
20.7373
20.4736
20.0733
19.7728
19.1298
18.8063
18.3246
18.0654
17.647
17.4128
17.0199
16.7059
16.0087
15.6459
15.0818
14.7645
14.2245
13.7803
12.7756
12.2366
11.3607
10.6335
8.96794
8.076
6.6227
5.7794
4.28135
3.39051
1.77496
0.81217
-0.938453
-1.96556
-3.80833
-4.8468
-6.64167
-7.54933
-8.94108
-9.36025
-9.46396
-9.48871
-9.49458
-9.4959
29.172
29.3727
30.0413
30.293
30.4744
30.5172
30.4885
30.4458
30.3246
30.2447
30.0867
29.9971
29.8439
29.7339
29.4969
29.2374
28.5782
28.2461
27.7617
27.5104
27.1171
26.9087
26.5762
26.4046
26.1421
25.9679
25.6269
25.388
24.8977
24.6541
24.2857
24.0476
23.5891
23.3698
23.0663
22.7607
22.0071
21.6359
21.1104
20.8411
20.4136
20.1132
19.4984
19.1787
18.6947
18.4339
18.0069
17.7677
17.349
17.0361
16.3711
16.0127
15.4454
15.1232
14.5525
14.1106
13.152
12.6144
11.703
10.9856
9.4239
8.55217
7.13268
6.29905
4.83387
3.95364
2.37798
1.42856
-0.27031
-1.28009
-3.05576
-4.07073
-5.77147
-6.64575
-7.9038
-8.30312
-8.40476
-8.42933
-8.43518
-8.4365
29.623
29.8093
30.4878
30.721
30.8985
30.9363
30.8957
30.8528
30.7182
30.6411
30.472
30.3879
30.2366
30.1334
29.8865
29.6422
28.9596
28.6468
28.1424
27.9047
27.494
27.2971
26.9524
26.793
26.5387
26.3779
26.0335
25.8056
25.2668
25.0302
24.6258
24.4011
23.9458
23.7431
23.44
23.154
22.3752
22.0252
21.4732
21.2151
20.7488
20.4661
19.8551
19.5577
19.0559
18.809
18.3593
18.1297
17.674
17.3803
16.7212
16.3878
15.7994
15.4918
14.8754
14.4616
13.5115
13.0072
12.0374
11.3715
9.85228
9.05027
7.61925
6.84397
5.36301
4.5446
2.95596
2.07493
0.370273
-0.563974
-2.33362
-3.26722
-4.93433
-5.72682
-6.90088
-7.25791
-7.34866
-7.3707
-7.37596
-7.37715
30.0666
30.2262
30.9522
31.1512
31.3283
31.3586
31.3029
31.2636
31.1096
31.0411
30.8539
30.7813
30.6273
30.5387
30.2761
30.0645
29.3262
29.0552
28.5125
28.306
27.8623
27.6914
27.3212
27.1851
26.9314
26.7953
26.4354
26.2356
25.6239
25.413
24.9587
24.7639
24.2924
24.1206
23.8131
23.567
22.7261
22.4225
21.8244
21.5973
21.0766
20.8323
20.1994
19.9448
19.4069
19.1923
18.703
18.5009
17.9925
17.7392
17.0584
16.7731
16.1421
15.8728
15.1902
14.8341
13.8532
13.4187
12.3597
11.7916
10.252
9.57354
8.07959
7.41713
5.86565
5.16638
3.50564
2.75424
0.980044
0.185557
-1.64492
-2.43437
-4.13218
-4.79263
-5.93064
-6.22334
-6.29531
-6.31274
-6.31691
-6.31786
30.5038
30.6205
31.4376
31.5823
31.764
31.7844
31.7095
31.6789
31.4975
31.4459
31.2312
31.1781
31.0154
30.9509
30.6637
30.5079
29.6742
29.4745
28.8691
28.7169
28.2197
28.0938
27.6806
27.5821
27.3195
27.2217
26.8309
26.6821
25.965
25.8055
25.2812
25.1377
24.6271
24.5034
24.1837
24.0038
23.0556
22.8317
22.1607
21.9914
21.3934
21.214
20.5285
20.3434
19.7449
19.5866
19.0352
18.8843
18.3009
18.1152
17.3797
17.1722
16.4703
16.2704
15.4919
15.2316
14.1731
13.8551
12.6624
12.2506
10.6173
10.1294
8.50668
8.02586
6.33421
5.82662
4.01894
3.47448
1.55063
0.976529
-0.997854
-1.56519
-3.37152
-3.83934
-4.99421
-5.19762
-5.24414
-5.25532
-5.258
-5.2586
30.9364
30.9867
31.95
32.012
32.2061
32.214
32.1144
32.1003
31.8802
31.8573
31.6021
31.5792
31.3996
31.3721
31.046
30.9784
29.9968
29.9101
29.2075
29.1415
28.5623
28.5076
28.0275
27.9855
27.7011
27.6599
27.2167
27.1514
26.2838
26.2126
25.5885
25.5263
24.9463
24.8941
24.5488
24.4714
23.3561
23.2588
22.4769
22.4026
21.6935
21.6159
20.8377
20.7584
20.0654
19.9966
19.3513
19.285
18.5933
18.5133
17.6799
17.5912
16.7785
16.6911
15.773
15.661
14.4634
14.3265
12.9339
12.7584
10.9367
10.7307
8.88811
8.68303
6.75542
6.53886
4.48173
4.24989
2.06722
1.82351
-0.407074
-0.64645
-2.66441
-2.85858
-4.09585
-4.17817
-4.19439
-4.19824
-4.19917
-4.19937
30.7445
30.8028
31.8506
31.9283
32.244
32.2656
32.2708
32.2682
32.1424
32.1293
31.9496
31.9341
31.7977
31.7788
31.5452
31.4992
30.773
30.7
30.0054
29.9359
29.3523
29.2969
28.8269
28.7861
28.515
28.4765
28.0638
28.004
27.2131
27.1491
26.5933
26.5389
26.0288
25.9834
25.6762
25.6057
24.5724
24.4804
23.7202
23.6463
22.9305
22.85
22.0252
21.9387
21.1723
21.0949
20.3944
20.3249
19.7091
19.6521
19.2629
19.1898
18.2059
18.1258
17.6209
17.5292
16.3186
16.2201
15.6221
15.5242
14.4991
14.3187
11.8708
11.647
9.69099
9.48167
7.48984
7.26313
5.01694
4.7523
2.12657
1.81866
-0.96744
-1.26086
-2.87043
-3.00711
-3.03766
-3.04517
-3.04698
-3.04739
30.2676
30.4052
31.3167
31.5014
31.7974
31.8511
31.8705
31.8673
31.771
31.7429
31.5958
31.5607
31.4415
31.3983
31.1976
31.0945
30.4936
30.3256
29.7128
29.5499
29.0429
28.9144
28.5085
28.4127
28.1629
28.0717
27.7087
27.5727
26.9197
26.7764
26.3106
26.1855
25.7392
25.6318
25.3484
25.1851
24.3083
24.0966
23.4426
23.274
22.67
22.4835
21.7565
21.5537
20.8868
20.707
20.1008
19.9396
19.4045
19.2691
18.9016
18.7313
17.9046
17.7176
17.2421
17.0285
16.009
15.778
15.2087
14.9723
14.0401
13.6235
11.5689
11.0556
9.35675
8.86996
7.13348
6.60476
4.64097
4.02078
1.70582
0.973934
-1.54896
-2.27688
-3.95038
-4.30575
-4.39408
-4.41589
-4.42116
-4.42235
29.7852
29.9767
30.8119
31.07
31.3605
31.4379
31.4711
31.4702
31.397
31.3613
31.2376
31.1907
31.0824
31.0241
30.8462
30.7097
30.1969
29.969
29.4023
29.1777
28.7184
28.543
28.1777
28.0454
27.8045
27.6777
27.3445
27.1622
26.6059
26.4167
26.0143
25.845
25.4359
25.2873
25.0159
24.793
24.0176
23.7306
23.1455
22.9191
22.3928
22.1387
21.4668
21.1872
20.5818
20.3361
19.7895
19.5692
19.084
18.8955
18.5325
18.2992
17.5778
17.3208
16.8529
16.56
15.6679
15.3495
14.782
14.4482
13.5604
12.9938
11.2053
10.5117
8.97405
8.30824
6.72883
6.00379
4.21127
3.35705
1.22175
0.200848
-2.20228
-3.25508
-5.08306
-5.61506
-5.75316
-5.78729
-5.7955
-5.79736
29.2952
29.5224
30.3302
30.6373
30.9321
31.0265
31.0731
31.0759
31.0215
30.9832
30.8763
30.8231
30.7212
30.6547
30.4932
30.34
29.8888
29.626
29.078
28.8149
28.3826
28.1793
27.8376
27.6825
27.4416
27.292
26.9744
26.7666
26.2774
26.0656
25.7086
25.5141
25.1223
24.9477
24.6815
24.423
23.7074
23.3766
22.8341
22.5763
22.1047
21.8105
21.1615
20.8338
20.2625
19.9773
19.4651
19.2095
18.7516
18.5288
18.1581
17.8866
17.2324
16.9326
16.4567
16.1155
15.3039
14.9309
14.346
13.9463
13.068
12.413
10.798
10.0016
8.55648
7.78309
6.29001
5.44554
3.74405
2.74457
0.693112
-0.516946
-2.90961
-4.20226
-6.26758
-6.94014
-7.1164
-7.15971
-7.1701
-7.17244
28.7961
29.0449
29.8685
30.2052
30.5117
30.617
30.6769
30.684
30.6453
30.6079
30.5129
30.4575
30.3586
30.2891
30.1398
29.9822
29.5732
29.2944
28.7424
28.4589
28.0376
27.8211
27.49
27.3231
27.075
26.9131
26.5999
26.3823
25.9379
25.7202
25.3965
25.1912
24.8
24.6118
24.3468
24.0713
23.3818
23.031
22.5114
22.242
21.8095
21.4966
20.8433
20.4902
19.9317
19.6276
19.1304
18.8578
18.4098
18.1681
17.7799
17.4893
16.8729
16.5514
16.0552
15.6899
14.9223
14.5209
13.9027
13.4636
12.5666
11.8707
10.3579
9.51749
8.11206
7.28674
5.82527
4.92158
3.24876
2.17418
0.130824
-1.18743
-3.66094
-5.11854
-7.50781
-8.28506
-8.48495
-8.53346
-8.54502
-8.54762
28.287
28.5444
29.4263
29.7743
30.0994
30.2093
30.2828
30.2939
30.2691
30.2349
30.1479
30.0937
29.9949
29.9268
29.7867
29.6345
29.2524
28.9738
28.3961
28.1084
27.6844
27.4675
27.136
26.9669
26.705
26.5402
26.2215
26.007
25.5894
25.3792
25.0796
24.8757
24.4697
24.279
24.0125
23.7363
23.0428
22.6922
22.1786
21.9142
21.5096
21.1964
20.5131
20.1548
19.5908
19.2857
18.7868
18.5132
18.0598
17.8133
17.3977
17.105
16.5015
16.1772
15.6484
15.2803
14.5261
14.1195
13.4522
12.9992
12.0572
11.361
9.89094
9.05597
7.64446
6.81586
5.33823
4.42841
2.72955
1.64255
-0.46046
-1.8117
-4.4529
-5.99755
-8.81252
-9.65308
-9.85957
-9.90868
-9.9203
-9.92291
27.7676
28.019
29.0055
29.3443
29.6957
29.8032
29.8912
29.9052
29.8933
29.8641
29.7816
29.7317
29.63
29.5673
29.4342
29.2961
28.9274
28.6652
28.0383
27.7633
27.323
27.1185
26.7754
26.6145
26.3311
26.1735
25.8391
25.64
25.2326
25.0417
24.759
24.5683
24.1307
23.9493
23.6786
23.4179
22.69
22.3599
21.8359
21.5921
21.206
20.911
20.17
19.8276
19.2396
18.9515
18.4342
18.1758
17.7016
17.4653
17.0107
16.7333
16.1191
15.8112
15.2353
14.8862
14.1161
13.7286
12.9931
12.5544
11.538
10.8823
9.39862
8.61754
7.15356
6.37096
4.8285
3.96681
2.18589
1.15157
-1.08181
-2.38437
-5.28873
-6.82575
-10.1962
-11.0465
-11.2405
-11.2854
-11.2959
-11.2983
27.2382
27.4641
28.6106
28.9138
29.3018
29.3978
29.5026
29.5177
29.5183
29.4954
29.414
29.3718
29.2636
29.2107
29.082
28.9669
28.5983
28.3711
27.6663
27.425
26.9522
26.7751
26.4076
26.267
25.9522
25.814
25.4512
25.2813
24.8671
24.708
24.4346
24.2708
23.7815
23.6231
23.3444
23.1182
22.3213
22.0355
21.4821
21.2758
20.8988
20.6434
19.8109
19.5104
18.8764
18.6266
18.0713
17.8471
17.3338
17.126
16.6166
16.375
15.7244
15.4559
14.8131
14.509
13.6908
13.3516
12.5222
12.1328
11.0045
10.4367
8.87821
8.20645
6.63543
5.95647
4.29155
3.542
1.61237
0.708566
-1.74038
-2.89295
-6.17924
-7.58061
-11.6807
-12.4661
-12.6273
-12.6635
-12.6719
-12.6738
26.6998
26.8724
28.2494
28.48
28.9196
28.9921
29.1176
29.1307
29.1442
29.1291
29.0449
29.0145
28.8949
28.8572
28.7291
28.6478
28.2635
28.0962
27.2759
27.0959
26.5695
26.4393
26.0307
25.9265
25.5663
25.4634
25.0557
24.9324
24.4915
24.3788
24.106
23.9863
23.4191
23.3018
23.008
22.8414
21.9323
21.7217
21.1143
20.9662
20.5868
20.399
19.4306
19.2064
18.4978
18.3139
17.6952
17.53
16.9539
16.7988
16.2118
16.0331
15.3144
15.1157
14.3773
14.1524
13.2463
12.9943
12.0337
11.7407
10.4485
10.0308
8.32235
7.83135
6.08163
5.58144
3.718
3.1644
0.99783
0.327375
-2.4508
-3.31619
-7.14515
-8.22752
-13.2978
-13.9107
-14.0192
-14.0427
-14.0481
-14.0493
26.1545
26.2326
27.9341
28.0378
28.5521
28.5843
28.7371
28.7437
28.7712
28.7655
28.6737
28.6608
28.523
28.5073
28.3745
28.3409
27.9201
27.8475
26.8598
26.7806
26.1711
26.1147
25.6417
25.5962
25.1701
25.125
24.6488
24.5961
24.1027
24.0561
23.7712
23.7198
23.0387
22.9876
22.6666
22.5944
21.5152
21.4238
20.7283
20.666
20.2671
20.1858
19.0205
18.9219
18.0983
18.0185
17.301
17.2293
16.5571
16.4889
15.7907
15.7128
14.8837
14.797
13.9211
13.8231
12.7757
12.6653
11.5185
11.3886
9.8575
9.67658
7.7178
7.5066
5.47786
5.26094
3.09207
2.85133
0.323451
0.030497
-3.23773
-3.62088
-8.22092
-8.71491
-15.0931
-15.3755
-15.4145
-15.4227
-15.4245
-15.4249
24.4488
24.5037
25.7378
25.8184
26.3122
26.3428
26.4426
26.4417
26.3257
26.312
26.153
26.1364
25.9528
25.9337
25.7583
25.7159
25.1636
25.0758
23.8986
23.8107
23.1899
23.1358
22.721
22.6853
22.4452
22.3959
21.7834
21.6916
20.5173
20.4342
19.982
19.9042
18.7715
18.6757
17.79
17.6954
16.8145
16.7278
16.0467
15.9835
15.5204
15.4051
13.6264
13.4791
12.3828
12.2781
11.416
11.3336
10.734
10.6063
8.58363
8.39847
6.68258
6.50858
4.9963
4.84223
3.46031
3.32303
2.2871
2.06461
-1.28339
-1.56247
-3.91423
-4.14893
-6.38839
-6.61847
-8.89179
-9.12471
-11.4486
-11.6849
-14.0729
-14.3103
-16.7695
-16.9951
-19.2944
-19.6761
-26.4653
-26.7466
-26.7821
-26.7889
24.8681
24.9876
25.9763
26.1554
26.5817
26.6523
26.7382
26.736
26.6389
26.6077
26.4735
26.4362
26.2834
26.239
26.0758
25.9741
25.4765
25.2752
24.3036
24.1047
23.5685
23.4433
23.0831
22.9992
22.7776
22.6601
22.1097
21.8983
20.9238
20.7328
20.3146
20.1381
19.2169
19.0024
18.2463
18.0258
17.243
17.0384
16.4407
16.292
15.8658
15.6002
14.1051
13.7663
12.8095
12.5654
11.8115
11.6161
11.0574
10.7692
9.12202
8.70127
7.19762
6.79082
5.47378
5.11503
3.91097
3.58487
2.61202
2.10213
-0.663135
-1.2947
-3.31208
-3.8513
-5.76988
-6.29801
-8.2401
-8.77359
-10.7533
-11.2928
-13.3159
-13.8532
-15.9073
-16.4117
-18.3333
-19.1455
-24.4119
-25.0053
-25.1031
-25.1225
25.2825
25.4367
26.2472
26.4825
26.8655
26.9613
27.0374
27.0342
26.9495
26.9076
26.7902
26.7407
26.6096
26.5491
26.3908
26.2483
25.7775
25.5054
24.6777
24.4122
23.9306
23.7603
23.4341
23.3186
23.106
22.9416
22.4224
22.1356
21.299
21.0406
20.6375
20.4019
19.634
19.3508
18.6812
18.3786
17.6484
17.3648
16.8168
16.6115
16.2047
15.8446
14.5376
14.0782
13.2076
12.8732
12.1846
11.9132
11.37
10.9864
9.61137
9.0474
7.6688
7.10949
5.91296
5.42166
4.32653
3.87259
2.91844
2.22989
-0.128208
-0.971481
-2.76903
-3.49847
-5.20696
-5.92098
-7.64472
-8.36461
-10.1156
-10.8414
-12.6184
-13.3354
-15.107
-15.7715
-17.4166
-18.4367
-22.5454
-23.2838
-23.4272
-23.4568
25.6908
25.8596
26.5411
26.8037
27.1608
27.271
27.3398
27.3356
27.2583
27.2104
27.1042
27.0484
26.9331
26.8631
26.7052
26.5355
26.0706
25.7579
25.0293
24.7284
24.2804
24.0835
23.7767
23.6419
23.4324
23.2374
22.7258
22.3948
21.6511
21.3541
20.9537
20.687
20.0318
19.7147
19.1014
18.7485
18.036
17.7017
17.1793
16.9392
16.5418
16.1268
14.9363
14.4066
13.5844
13.1951
12.5411
12.2211
11.6763
11.2432
10.0683
9.42614
8.10724
7.45368
6.32395
5.75247
4.71648
4.18036
3.21428
2.42445
0.346158
-0.610059
-2.26868
-3.10645
-4.68379
-5.50352
-7.08947
-7.91435
-9.51892
-10.3478
-11.9632
-12.7753
-14.3509
-15.0921
-16.5249
-17.6043
-20.8136
-21.586
-21.7558
-21.7924
26.0923
26.2619
26.8518
27.1211
27.466
27.5824
27.645
27.64
27.5661
27.5156
27.4161
27.3586
27.2547
27.1806
27.0201
26.8346
26.3577
26.0271
25.3638
25.0505
24.6201
24.4111
24.1125
23.9682
23.7583
23.5458
23.022
22.6706
21.9854
21.6719
21.2646
20.9876
20.4161
20.0905
19.5113
19.1329
18.4085
18.0462
17.5304
17.2732
16.8797
16.4401
15.3085
14.7468
13.9438
13.5276
12.8843
12.5381
11.9781
11.5298
10.504
9.832
8.51911
7.81696
6.71266
6.10191
5.08648
4.50537
3.5031
2.6706
0.775683
-0.220498
-1.80111
-2.68481
-4.19088
-5.05536
-6.56462
-7.43286
-8.95321
-9.82279
-11.34
-12.1847
-13.6282
-14.385
-15.6472
-16.6866
-19.1793
-19.9123
-20.0896
-20.1293
26.487
26.6475
27.1753
27.4355
27.7804
27.896
27.9531
27.9471
27.8729
27.8228
27.7265
27.6706
27.5752
27.5016
27.336
27.1455
26.639
26.3096
25.6844
25.3773
24.951
24.7423
24.4422
24.2972
24.0843
23.8667
23.3114
22.9598
22.3049
21.9934
21.5703
21.3001
20.7906
20.4765
19.9132
19.5312
18.7666
18.3969
17.8713
17.6127
17.2195
16.7812
15.658
15.0967
14.2879
13.8693
13.2156
12.8637
12.2756
11.8396
10.9255
10.2635
8.9066
8.19637
7.08168
6.46758
5.43915
4.84727
3.78519
2.9593
1.16931
0.192488
-1.36138
-2.23822
-3.72359
-4.58137
-6.06536
-6.92523
-8.41347
-9.27178
-10.7438
-11.5701
-12.9328
-13.6576
-14.7784
-15.7108
-17.6153
-18.2607
-18.429
-18.4678
26.8754
27.0184
27.5096
27.7466
28.1039
28.212
28.2636
28.257
28.1787
28.1319
28.0352
27.9843
27.8949
27.8264
27.653
27.4689
26.9132
26.604
25.9924
25.7089
25.2732
25.0773
24.7657
24.629
24.4106
24.2012
23.5927
23.2612
22.6106
22.3195
21.87
21.6222
21.1573
20.8725
20.3079
19.9448
19.1089
18.7539
18.2016
17.9577
17.5611
17.1497
15.985
15.4565
14.6163
14.2204
13.5349
13.1988
12.567
12.1685
11.3371
10.7229
9.26827
8.59201
7.43072
6.84987
5.77441
5.20802
4.05787
3.2866
1.53045
0.628603
-0.94868
-1.76724
-3.28136
-4.08229
-5.59101
-6.39242
-7.89889
-8.69618
-10.1733
-10.934
-12.263
-12.9143
-13.917
-14.696
-16.1016
-16.6282
-16.7735
-16.8078
27.258
27.3754
27.854
28.0528
28.4375
28.5302
28.5765
28.5698
28.4834
28.4431
28.3422
28.2995
28.2138
28.1553
27.9704
27.8073
27.1776
26.9105
26.2872
26.0466
25.5859
25.4169
25.0822
24.9641
24.7365
24.5517
23.8629
23.5754
22.902
22.6519
22.1616
21.953
21.5169
21.2797
20.6945
20.3774
19.432
19.1188
18.5195
18.3087
17.9033
17.5483
16.2867
15.8288
14.9271
14.5832
13.8403
13.5457
12.849
12.5148
11.74
11.216
9.59885
9.00709
7.75658
7.25199
6.08934
5.59217
4.31544
3.65334
1.85746
1.09178
-0.566285
-1.2684
-2.8676
-3.55484
-5.14492
-5.83136
-7.41262
-8.09335
-9.63141
-10.2751
-11.6202
-12.1569
-13.0646
-13.6562
-14.6231
-15.0109
-15.1223
-15.1492
27.6359
27.718
28.2097
28.3516
28.7827
28.8503
28.8916
28.8858
28.7862
28.7566
28.6468
28.6165
28.5316
28.4894
28.287
28.1644
27.4274
27.2313
26.5667
26.3932
25.887
25.7632
25.3901
25.3036
25.0607
24.9224
24.1171
23.9051
23.1765
22.994
22.4421
22.293
21.8685
21.7009
21.0705
20.8352
19.7299
19.4953
18.8219
18.6676
18.2435
17.9833
16.5562
16.219
15.2155
14.962
14.1278
13.9088
13.1167
12.8788
12.1328
11.7528
9.88844
9.44855
8.05265
7.68047
6.37769
6.00754
4.54846
4.06547
2.1433
1.59068
-0.222093
-0.733642
-2.4903
-2.99125
-4.73493
-5.23447
-6.96235
-7.45618
-9.12527
-9.58811
-11.0097
-11.3847
-12.2248
-12.6012
-13.1676
-13.4047
-13.4745
-13.4916
28.0106
28.0442
28.5793
28.6389
29.1425
29.1715
29.2085
29.2056
29.0862
29.0734
28.9483
28.9357
28.8477
28.8299
28.6004
28.5461
27.6557
27.5708
26.8266
26.7531
26.1728
26.1194
25.6865
25.6494
25.3808
25.3198
24.3476
24.2554
23.4292
23.3509
22.7064
22.644
22.2099
22.1406
21.4307
21.3277
19.9929
19.8892
19.1036
19.0374
18.5773
18.4649
16.7822
16.6358
15.474
15.364
14.3906
14.2948
13.3622
13.263
12.5111
12.349
10.1211
9.92828
8.30778
8.14619
6.62876
6.46649
4.74246
4.53519
2.37438
2.14002
0.0700714
-0.149056
-2.16319
-2.37793
-4.37469
-4.58843
-6.56141
-6.77198
-8.66736
-8.86274
-10.4411
-10.5938
-11.4035
-11.5387
-11.7254
-11.805
-11.8288
-11.8347
)
;

boundaryField
{
    F1_1
    {
        type            fixedValue;
        value           nonuniform List<scalar> 
80
(
0
19.0002
25.1548
25.1548
26.8897
26.8897
27.5439
27.5439
27.818
27.818
27.8949
27.8949
27.8793
27.8793
27.7151
27.7151
26.9105
26.9105
26.3652
26.3652
25.8889
25.8889
25.4991
25.4991
25.2768
25.2768
24.8868
24.8868
23.8034
23.8034
23.0605
23.0605
22.3869
22.3869
21.9953
21.9953
20.524
20.524
19.5183
19.5183
18.5952
18.5952
17.5845
17.5845
16.6912
16.6912
15.9392
15.9392
15.4862
15.4862
14.2
14.2
13.3346
13.3346
12.8405
12.8405
11.529
11.529
10.9185
10.9185
9.83096
9.83096
7.01929
7.01929
4.69932
4.69932
2.12776
2.12776
-0.955539
-0.955539
-4.61187
-4.61187
-8.42695
-8.42695
-12.0655
-12.0655
-12.0655
-12.0655
-12.0655
-12.0655
)
;
    }
    F1_2
    {
        type            fixedValue;
        value           nonuniform List<scalar> 
80
(
31.1516
31.1516
32.2242
32.2242
32.4309
32.4309
32.3151
32.3151
32.0676
32.0676
31.7829
31.7829
31.5886
31.5886
31.232
31.232
30.1402
30.1402
29.3641
29.3641
28.7231
28.7231
28.1921
28.1921
27.887
27.887
27.4021
27.4021
26.4273
26.4273
25.7309
25.7309
25.0953
25.0953
24.7259
24.7259
23.486
23.486
22.6209
22.6209
21.8309
21.8309
20.9782
20.9782
20.2131
20.2131
19.4979
19.4979
18.7273
18.7273
17.8152
17.8152
16.918
16.918
15.8974
15.8974
14.5874
14.5874
13.0453
13.0453
11.0641
11.0641
9.04607
9.04607
6.9318
6.9318
4.67661
4.67661
2.28674
2.28674
-0.151508
-0.151508
-2.34733
-2.34733
-3.66976
-3.66976
-3.66976
-3.66976
-3.66976
-3.66976
)
;
    }
    F1_3
    {
        type            fixedValue;
        value           nonuniform List<scalar> 
80
(
30.9818
30.9818
32.137
32.137
32.4732
32.4732
32.4711
32.4711
32.3258
32.3258
32.1232
32.1232
31.9734
31.9734
31.7152
31.7152
30.8996
30.8996
30.1392
30.1392
29.4964
29.4964
28.9775
28.9775
28.6864
28.6864
28.2342
28.2342
27.3452
27.3452
26.7247
26.7247
26.1644
26.1644
25.8353
25.8353
24.6856
24.6856
23.8453
23.8453
23.0481
23.0481
22.1448
22.1448
21.3013
21.3013
20.5286
20.5286
19.8502
19.8502
19.4372
19.4372
18.3385
18.3385
17.802
17.802
16.4511
16.4511
15.8187
15.8187
14.7117
14.7117
11.9773
11.9773
9.82317
9.82317
7.63271
7.63271
5.16529
5.16529
2.29059
2.29059
-0.726533
-0.726533
-2.35991
-2.35991
-2.35991
-2.35991
-2.35991
-2.35991
)
;
    }
    F1_4
    {
        type            fixedValue;
        value           nonuniform List<scalar> 
80
(
28.1973
28.1973
28.7737
28.7737
29.3319
29.3319
29.3678
29.3678
29.234
29.234
29.0968
29.0968
29.0043
29.0043
28.7536
28.7536
27.7538
27.7538
26.9432
26.9432
26.3051
26.3051
25.8269
25.8269
25.5367
25.5367
24.4452
24.4452
23.5406
23.5406
22.8269
22.8269
22.3733
22.3733
21.5986
21.5986
20.0999
20.0999
19.2301
19.2301
18.7372
18.7372
16.8645
16.8645
15.5823
15.5823
14.5045
14.5045
13.4682
13.4682
12.6884
12.6884
10.1967
10.1967
8.40618
8.40618
6.7272
6.7272
4.80913
4.80913
2.4514
2.4514
0.179142
0.179142
-2.03563
-2.03563
-4.23022
-4.23022
-6.39618
-6.39618
-8.4724
-8.4724
-10.1852
-10.1852
-11.0063
-11.0063
-11.0063
-11.0063
-11.0063
-11.0063
)
;
    }
    F2_1
    {
        type            fixedValue;
        value           nonuniform List<scalar> 
80
(
15.5814
15.5814
21.206
21.206
23.4708
23.4708
24.4085
24.4085
24.7811
24.7811
24.8664
24.8664
24.7795
24.7795
24.6229
24.6229
23.7666
23.7666
23.1789
23.1789
22.6968
22.6968
22.294