/*--------------------------------*- C++ -*----------------------------------*\
| =========                 |                                                 |
| \\      /  F ield         | OpenFOAM: The Open Source CFD Toolbox           |
|  \\    /   O peration     | Version:  5.x                                   |
|   \\  /    A nd           | Web:      www.OpenFOAM.org                      |
|    \\/     M anipulation  |                                                 |
\*---------------------------------------------------------------------------*/
FoamFile
{
    version     2.0;
    format      ascii;
    class       volScalarField;
    location    "5.8";
    object      T;
}
// * * * * * * * * * * * * * * * * * * * * * * * * * * * * * * * * * * * * * //

dimensions      [0 0 0 1 0 0 0];

internalField   nonuniform List<scalar> 
6300
(
15.3773
26.1165
36.8092
47.4243
57.9306
68.2964
78.4901
88.48
98.2345
107.723
116.915
125.782
134.3
142.445
150.2
15.3925
26.1619
36.8851
47.5309
58.068
68.4649
78.6897
88.7105
98.4954
108.013
117.232
126.125
134.664
142.827
150.594
15.4227
26.2527
37.0367
47.7438
58.3427
68.8018
79.0891
89.1721
99.0182
108.595
117.87
126.814
135.398
143.596
151.389
15.4679
26.3885
37.2636
48.0626
58.7542
69.307
79.6884
89.8656
99.8048
109.472
118.834
127.856
136.509
144.763
152.596
15.5279
26.5688
37.565
48.4862
59.3017
69.9797
80.4878
90.7921
100.858
110.649
120.129
129.261
138.01
146.343
154.233
15.6025
26.7929
37.9397
49.0133
59.9834
70.8187
81.4865
91.9523
102.18
112.131
121.765
131.042
139.919
148.357
156.324
15.6912
27.0595
38.3858
49.6415
60.797
71.8216
82.6827
93.3456
103.773
113.923
123.753
133.214
142.258
150.835
158.903
15.7935
27.3672
38.9009
50.3673
61.7383
72.984
84.0727
94.9697
105.636
116.03
126.101
135.796
145.055
153.815
162.018
15.9087
27.7137
39.4814
51.1862
62.8016
74.2997
85.6499
96.8186
107.768
118.452
128.82
138.807
148.342
157.342
165.726
16.0359
28.0965
40.1229
52.0919
63.9792
75.7592
87.4039
98.882
110.157
121.185
131.91
142.263
152.155
161.477
170.111
16.1742
28.5124
40.8201
53.0767
65.2608
77.3499
89.3197
101.143
112.788
124.213
135.366
146.172
156.528
166.291
175.283
16.3221
28.9576
41.5666
54.1313
66.6339
79.0557
91.3773
103.577
115.631
127.507
139.16
150.523
161.484
171.866
181.4
16.4785
29.428
42.3553
55.2456
68.0844
80.8576
93.5513
106.152
118.646
131.016
143.237
155.266
167.011
178.28
188.69
16.6419
29.9196
43.1791
56.4085
69.5969
82.7345
95.8133
108.828
121.778
134.665
147.499
160.285
173.005
185.543
197.475
16.8111
30.4283
44.0309
57.6097
71.1567
84.6657
98.1339
111.563
124.964
138.361
151.8
165.36
179.17
193.402
208.073
156.938
162.78
168.335
173.605
178.595
183.31
187.761
191.959
195.916
199.647
203.167
206.492
209.638
212.621
215.459
218.167
220.761
223.256
225.668
228.011
230.297
232.541
234.752
236.943
239.122
241.297
243.476
245.664
247.864
250.081
252.314
254.563
256.828
259.106
261.395
263.691
265.989
268.286
270.575
272.853
275.113
277.349
279.554
281.723
283.848
285.923
287.942
289.9
291.79
293.609
295.351
297.011
298.586
300.071
301.46
302.749
303.932
305.003
305.957
306.786
307.486
308.047
308.465
308.73
308.834
308.77
308.526
308.093
307.459
306.611
305.535
304.217
302.641
300.79
298.647
296.194
293.413
290.285
286.791
282.912
278.629
273.925
268.783
263.187
257.124
250.583
243.557
236.041
228.035
219.543
157.34
163.183
168.735
173.999
178.978
183.681
188.115
192.294
196.231
199.94
203.436
206.738
209.859
212.819
215.633
218.318
220.889
223.363
225.755
228.078
230.346
232.573
234.769
236.946
239.113
241.278
243.449
245.631
247.828
250.042
252.275
254.526
256.794
259.076
261.37
263.672
265.976
268.28
270.577
272.863
275.132
277.376
279.591
281.769
283.903
285.987
288.015
289.98
291.877
293.703
295.451
297.118
298.699
300.191
301.587
302.884
304.075
305.155
306.118
306.957
307.666
308.238
308.666
308.943
309.06
309.01
308.782
308.366
307.75
306.921
305.867
304.572
303.019
301.193
299.076
296.65
293.897
290.796
287.329
283.477
279.22
274.541
269.421
263.845
257.798
251.268
244.248
236.733
228.722
220.219
158.148
163.994
169.542
174.792
179.751
184.426
188.827
192.967
196.862
200.526
203.976
207.229
210.302
213.214
215.981
218.619
221.146
223.576
225.926
228.21
230.442
232.634
234.8
236.949
239.092
241.237
243.392
245.562
247.751
249.962
252.195
254.45
256.724
259.015
261.319
263.632
265.95
268.267
270.58
272.882
275.168
277.431
279.665
281.862
284.014
286.116
288.16
290.14
292.052
293.89
295.651
297.331
298.925
300.43
301.841
303.154
304.361
305.459
306.44
307.297
308.026
308.618
309.068
309.368
309.511
309.488
309.291
308.908
308.329
307.54
306.529
305.279
303.775
301.999
299.934
297.562
294.863
291.817
288.406
284.609
280.405
275.776
270.702
265.166
259.151
252.646
245.64
238.127
230.105
221.579
159.375
165.227
170.766
175.996
180.922
185.553
189.902
193.984
197.813
201.408
204.786
207.966
210.967
213.805
216.5
219.069
221.527
223.893
226.18
228.405
230.581
232.722
234.84
236.947
239.053
241.168
243.298
245.451
247.629
249.835
252.069
254.33
256.615
258.919
261.239
263.57
265.907
268.246
270.582
272.909
275.222
277.513
279.776
282.002
284.183
286.311
288.38
290.383
292.315
294.172
295.951
297.649
299.262
300.787
302.221
303.556
304.789
305.913
306.921
307.807
308.564
309.187
309.668
310.002
310.182
310.201
310.048
309.716
309.192
308.463
307.516
306.335
304.904
303.204
301.218
298.927
296.311
293.35
290.023
286.309
282.187
277.635
272.633
267.16
261.198
254.731
247.748
240.239
232.203
223.642
161.04
166.899
172.427
177.627
182.507
187.077
191.353
195.351
199.09
202.59
205.87
208.951
211.851
214.591
217.189
219.663
222.03
224.308
226.511
228.656
230.757
232.828
234.882
236.932
238.989
241.062
243.159
245.288
247.452
249.653
251.891
254.162
256.462
258.786
261.129
263.484
265.847
268.214
270.58
272.941
275.29
277.62
279.923
282.19
284.411
286.576
288.678
290.711
292.669
294.55
296.351
298.071
299.709
301.26
302.723
304.09
305.357
306.516
307.56
308.483
309.279
309.94
310.463
310.841
311.069
311.141
311.048
310.782
310.331
309.683
308.823
307.735
306.401
304.804
302.925
300.743
298.239
295.393
292.181
288.582
284.572
280.129
275.227
269.843
263.957
257.547
250.598
243.098
235.043
226.435
163.17
169.038
174.55
179.709
184.526
189.014
193.192
197.08
200.701
204.076
207.229
210.182
212.954
215.569
218.043
220.398
222.649
224.816
226.913
228.956
230.962
232.944
234.917
236.894
238.886
240.906
242.961
245.06
247.208
249.404
251.649
253.936
256.26
258.612
260.984
263.371
265.767
268.167
270.571
272.973
275.368
277.749
280.107
282.429
284.702
286.916
289.06
291.129
293.117
295.024
296.851
298.596
300.261
301.845
303.343
304.751
306.062
307.267
308.357
309.327
310.168
310.876
311.448
311.878
312.164
312.3
312.28
312.096
311.738
311.191
310.441
309.471
308.261
306.794
305.049
303.006
300.645
297.944
294.88
291.429
287.567
283.266
278.498
273.237
267.454
261.124
254.226
246.743
238.668
229.999
165.801
171.682
177.171
182.275
187.007
191.386
195.436
199.183
202.652
205.871
208.865
211.658
214.274
216.734
219.058
221.267
223.379
225.41
227.377
229.298
231.187
233.061
234.933
236.818
238.731
240.683
242.686
244.749
246.877
249.071
251.329
253.643
256.002
258.392
260.804
263.229
265.662
268.102
270.547
272.998
275.451
277.897
280.325
282.72
285.063
287.338
289.535
291.645
293.665
295.599
297.449
299.219
300.914
302.534
304.076
305.535
306.901
308.163
309.311
310.336
311.231
311.992
312.617
313.105
313.455
313.665
313.73
313.644
313.396
312.974
312.359
311.533
310.475
309.166
307.585
305.711
303.523
301
298.119
294.854
291.177
287.058
282.465
277.365
271.723
265.505
258.682
251.229
243.132
234.389
168.983
174.879
180.337
185.365
189.984
194.221
198.106
201.672
204.953
207.978
210.777
213.378
215.805
218.081
220.227
222.264
224.21
226.082
227.897
229.671
231.422
233.165
234.915
236.69
238.504
240.373
242.311
244.329
246.436
248.633
250.915
253.271
255.682
258.127
260.59
263.06
265.533
268.011
270.501
273.005
275.525
278.054
280.577
283.068
285.504
287.859
290.117
292.271
294.322
296.277
298.144
299.935
301.658
303.317
304.913
306.435
307.872
309.207
310.425
311.514
312.468
313.285
313.966
314.514
314.931
315.22
315.38
315.407
315.29
315.015
314.562
313.91
313.034
311.912
310.524
308.849
306.867
304.556
301.894
298.854
295.406
291.517
287.148
282.259
276.805
270.743
264.029
256.628
248.514
239.681
172.784
178.698
184.11
189.034
193.501
197.55
201.223
204.562
207.608
210.398
212.963
215.335
217.54
219.602
221.541
223.379
225.134
226.822
228.46
230.066
231.655
233.244
234.849
236.49
238.183
239.949
241.805
243.768
245.85
248.056
250.381
252.805
255.297
257.822
260.352
262.871
265.381
267.89
270.416
272.974
275.572
278.206
280.855
283.482
286.043
288.501
290.833
293.031
295.102
297.062
298.932
300.73
302.475
304.176
305.836
307.441
308.972
310.402
311.706
312.869
313.886
314.757
315.489
316.092
316.574
316.944
317.206
317.358
317.393
317.294
317.036
316.591
315.929
315.025
313.859
312.412
310.666
308.601
306.196
303.425
300.255
296.649
292.564
287.949
282.749
276.904
270.352
263.037
254.919
245.98
177.295
183.232
188.574
193.35
197.609
201.409
204.808
207.863
210.621
213.127
215.416
217.521
219.469
221.285
222.989
224.602
226.14
227.62
229.059
230.471
231.874
233.284
234.72
236.2
237.746
239.381
241.131
243.021
245.071
247.295
249.689
252.225
254.849
257.495
260.113
262.682
265.212
267.729
270.269
272.868
275.55
278.32
281.149
283.974
286.716
289.309
291.723
293.955
296.025
297.962
299.804
301.586
303.337
305.079
306.818
308.538
310.201
311.759
313.172
314.418
315.495
316.41
317.181
317.825
318.361
318.805
319.17
319.46
319.671
319.784
319.763
319.566
319.154
318.499
317.582
316.388
314.906
313.119
311.01
308.552
305.714
302.455
298.726
294.467
289.608
284.067
277.757
270.59
262.494
253.43
182.65
188.612
193.843
198.399
202.366
205.832
208.879
211.577
213.986
216.154
218.121
219.919
221.576
223.115
224.556
225.917
227.215
228.465
229.68
230.877
232.069
233.275
234.511
235.8
237.165
238.634
240.243
242.027
244.027
246.274
248.778
251.503
254.354
257.192
259.927
262.536
265.047
267.519
270.022
272.625
275.387
278.333
281.431
284.569
287.584
290.36
292.859
295.097
297.119
298.983
300.747
302.467
304.195
305.969
307.809
309.697
311.564
313.308
314.86
316.194
317.317
318.254
319.036
319.695
320.262
320.763
321.223
321.659
322.074
322.446
322.724
322.832
322.711
322.332
321.684
320.763
319.565
318.085
316.307
314.209
311.762
308.921
305.635
301.833
297.431
292.322
286.379
279.465
271.449
262.243
189.053
195.035
200.07
204.286
207.832
210.846
213.438
215.696
217.686
219.459
221.056
222.508
223.839
225.073
226.225
227.312
228.347
229.344
230.316
231.274
232.233
233.207
234.215
235.277
236.418
237.674
239.086
240.71
242.614
244.869
247.532
250.587
253.863
257.024
259.907
262.513
264.923
267.25
269.614
272.139
274.943
278.112
281.638
285.327
288.779
291.792
294.353
296.531
298.425
300.131
301.735
303.321
304.967
306.747
308.716
310.868
313.084
315.117
316.845
318.255
319.388
320.303
321.051
321.681
322.238
322.761
323.292
323.869
324.518
325.228
325.913
326.408
326.622
326.535
326.161
325.517
324.615
323.461
322.046
320.354
318.357
316.013
313.268
310.047
306.256
301.76
296.385
289.913
282.101
272.749
196.851
202.809
207.466
211.124
214.053
216.455
218.467
220.188
221.685
223.006
224.187
225.255
226.232
227.133
227.974
228.767
229.521
230.247
230.956
231.656
232.36
233.078
233.827
234.624
235.494
236.473
237.61
238.976
240.678
242.863
245.709
249.337
253.524
257.241
260.272
262.757
264.904
266.911
268.959
271.236
273.957
277.358
281.596
286.411
290.587
293.861
296.379
298.359
299.987
301.406
302.733
304.07
305.529
307.237
309.339
311.93
314.849
317.349
319.268
320.694
321.759
322.572
323.216
323.756
324.244
324.731
325.278
325.958
326.856
328.026
329.359
330.37
330.946
331.135
331.008
330.622
330.012
329.193
328.166
326.921
325.433
323.666
321.567
319.066
316.077
312.449
307.956
302.272
294.956
285.514
206.741
212.447
216.287
218.999
221.023
222.61
223.903
224.99
225.923
226.741
227.467
228.122
228.719
229.268
229.78
230.262
230.721
231.163
231.594
232.021
232.451
232.892
233.354
233.851
234.401
235.032
235.789
236.746
238.033
239.89
242.745
247.267
253.846
258.428
261.409
263.472
265.073
266.497
267.957
269.677
271.976
275.384
280.704
288.399
293.679
297.002
299.163
300.675
301.83
302.799
303.697
304.627
305.712
307.144
309.242
312.5
317.199
320.4
322.384
323.637
324.472
325.064
325.515
325.888
326.231
326.596
327.052
327.715
328.784
330.571
333.25
334.938
335.81
336.17
336.21
336.033
335.69
335.205
334.583
333.819
332.894
331.779
330.425
328.771
326.8
324.366
321.226
316.964
310.854
301.687
220.532
224.758
226.722
227.85
228.609
229.175
229.625
229.998
230.316
230.593
230.838
231.059
231.259
231.444
231.616
231.778
231.932
232.08
232.225
232.368
232.513
232.662
232.818
232.987
233.176
233.396
233.666
234.025
234.555
235.465
237.364
242.223
257.027
261.908
263.852
264.836
265.481
266.015
266.566
267.267
268.382
270.64
276.377
293.848
299.571
301.798
302.865
303.489
303.925
304.275
304.598
304.943
305.381
306.071
307.458
310.976
321.688
325.186
326.534
327.164
327.515
327.743
327.908
328.043
328.169
328.311
328.51
328.867
329.662
331.811
338.548
340.664
341.392
341.646
341.705
341.663
341.555
341.395
341.187
340.929
340.611
340.217
339.698
338.915
338.17
337.283
336.093
334.302
331.139
324.258
209.676
198.244
186.173
173.501
160.269
146.524
132.317
117.697
102.717
87.4279
71.8794
56.1211
40.201
24.1662
8.06299
210.333
198.872
186.765
174.05
160.773
146.979
132.722
118.051
103.021
87.6821
72.0852
56.2797
40.3134
24.2333
8.0853
211.654
200.134
187.954
175.154
161.783
147.891
133.531
118.759
103.628
88.1894
72.4957
56.5958
40.5374
24.367
8.12973
213.657
202.045
189.751
176.82
163.305
149.261
134.747
119.82
104.535
88.9474
73.1083
57.0672
40.8713
24.5661
8.1959
216.367
204.628
192.174
179.06
165.346
151.094
136.368
121.231
105.74
89.9519
73.919
57.6903
41.3122
24.8289
8.28321
219.822
207.913
195.248
181.891
167.915
153.392
138.394
122.988
107.236
91.1965
74.9215
58.4597
41.856
25.1528
8.39078
224.072
211.942
199.001
185.332
171.022
156.157
140.82
125.083
109.014
92.6714
76.1068
59.3677
42.4969
25.5343
8.51742
229.186
216.769
203.472
189.403
174.673
159.386
143.637
127.505
111.061
94.3627
77.4624
60.4041
43.2275
25.9687
8.66156
235.256
222.463
208.704
194.126
178.872
163.07
146.828
130.232
113.354
96.2513
78.9717
61.5555
44.0379
26.4501
8.82123
242.406
229.112
214.744
199.513
183.608
167.185
150.364
133.234
115.866
98.3115
80.6133
62.8051
44.916
26.9713
8.99399
250.812
236.822
221.634
205.561
188.853
171.69
154.199
136.468
118.557
100.51
82.3602
64.1323
45.8474
27.5235
9.177
260.725
245.717
229.398
212.235
194.541
176.513
158.267
139.874
121.378
102.807
84.1805
65.5129
46.8152
28.0971
9.36701
272.512
255.911
237.993
219.426
200.555
181.544
162.473
143.375
124.266
105.153
86.0374
66.9199
47.8011
28.6811
9.56046
286.704
267.406
247.223
226.91
206.695
186.627
166.696
146.879
127.153
107.496
87.8912
68.3247
48.7855
29.2644
9.75367
303.831
279.772
256.57
234.283
212.679
191.562
170.796
150.285
129.963
109.781
89.7019
69.6986
49.7492
29.8358
9.94301
16.9703
30.9069
44.8316
58.7373
72.6178
86.4694
100.292
114.091
127.883
141.704
155.622
169.773
184.426
200.192
218.765
17.1176
31.3494
45.5714
59.7777
73.9636
88.1261
102.266
116.389
130.511
144.669
158.931
173.43
188.424
204.406
222.251
17.2668
31.7977
46.3206
60.8304
75.323
89.7955
104.247
118.682
133.11
147.556
162.067
176.736
191.728
207.319
223.839
17.4177
32.2508
47.0773
61.8929
76.6936
91.4758
106.237
120.975
135.692
150.392
165.088
179.809
194.609
209.578
224.812
17.5698
32.7076
47.8401
62.9636
78.0741
93.1674
108.238
123.279
138.28
153.225
168.086
182.82
197.364
211.646
225.631
17.7228
33.1672
48.6076
64.0411
79.4639
94.8711
110.256
125.606
140.902
156.109
171.165
185.956
200.294
213.91
226.563
17.8765
33.6287
49.3784
65.1237
80.8615
96.5871
112.293
127.965
143.58
159.093
174.42
189.398
203.719
216.833
227.981
18.0303
34.0908
50.1508
66.2093
82.2646
98.3132
114.349
130.359
146.323
162.201
177.911
193.289
207.972
221.114
230.805
18.1839
34.5524
50.9225
67.2949
83.6694
100.045
116.417
132.78
149.121
165.417
181.625
197.656
213.287
227.781
237.949
18.3368
35.0119
51.691
68.3766
85.0706
101.774
118.488
135.212
151.945
168.689
185.454
202.292
219.384
237.442
259.667
18.4885
35.4676
52.4534
69.4501
86.462
103.493
120.548
137.632
154.755
171.938
189.227
206.744
224.801
244.2
266.85
18.6382
35.9177
53.2065
70.5107
87.8368
105.191
122.582
140.019
157.518
175.105
192.833
210.813
229.278
248.691
269.771
18.7855
36.3604
53.9472
71.5538
89.1885
106.86
124.58
142.359
160.214
178.169
196.258
214.536
233.086
252.015
271.396
18.9297
36.7939
54.6724
72.5747
90.5112
108.493
126.531
144.64
162.835
181.131
199.543
218.062
236.623
255.016
272.802
19.0704
37.2166
55.3792
73.5696
91.7994
110.081
128.428
146.855
165.378
184.008
202.745
221.55
240.267
258.426
274.837
19.2069
37.6267
56.065
74.5344
93.0481
111.62
130.265
149
167.84
186.802
205.892
225.091
244.289
263.04
279.371
19.3388
38.023
56.7274
75.466
94.2531
113.104
132.035
151.064
170.212
189.5
208.956
228.623
248.611
269.325
292.644
19.4657
38.4042
57.3644
76.3613
95.4102
114.528
133.731
153.041
172.48
192.074
211.865
231.924
252.42
273.791
297.126
19.5872
38.7692
57.9741
77.2178
96.5164
115.887
135.349
154.923
174.632
194.505
214.579
234.912
255.611
276.881
299.051
19.7031
39.1172
58.5552
78.0334
97.5688
117.179
136.884
156.705
176.664
196.788
217.104
237.637
258.396
279.337
300.283
19.8131
39.4475
59.1064
78.8066
98.5655
118.401
138.334
158.384
178.575
198.931
219.47
240.195
261.045
281.777
301.687
19.9171
39.7596
59.6271
79.5364
99.5052
119.552
139.696
159.96
180.366
200.938
221.698
242.656
263.767
284.777
304.492
20.015
40.0534
60.1168
80.2222
100.387
120.63
140.971
161.431
182.034
202.807
223.781
245.001
266.547
288.666
312.457
20.1068
40.3287
60.5754
80.8638
101.211
121.636
142.157
162.796
183.577
204.528
225.686
247.11
268.918
291.383
315.143
20.1925
40.5856
61.0032
81.4617
101.978
122.57
143.256
164.057
184.995
206.097
227.396
248.943
270.823
293.189
316.259
20.2722
40.8245
61.4006
82.0165
102.689
123.434
144.271
165.217
186.293
207.522
228.926
250.535
272.381
294.494
316.877
20.346
41.0457
61.7684
82.5295
103.345
124.231
145.203
166.28
187.478
208.816
230.305
251.953
273.742
295.601
317.375
20.4142
41.2498
62.1075
83.0021
103.949
124.962
146.058
167.252
188.56
209.995
231.566
253.264
275.044
296.755
318.025
20.4768
41.4375
62.4191
83.4359
104.502
125.631
146.839
168.139
189.546
211.073
232.728
254.509
276.382
298.204
319.379
20.5343
41.6094
62.7045
83.8327
105.007
126.242
147.55
168.946
190.443
212.054
233.795
255.681
277.743
300.092
323.251
20.5867
41.7664
62.9648
84.1944
105.468
126.797
148.196
169.676
191.252
212.938
234.752
256.72
278.895
301.406
324.554
20.6345
41.9092
63.2015
84.5229
105.885
127.3
148.778
170.333
191.978
213.725
235.592
257.605
279.804
302.264
325.088
20.6778
42.0388
63.4161
84.8204
106.262
127.753
149.303
170.923
192.625
214.421
236.323
258.35
280.522
302.86
325.369
20.717
42.1559
63.6099
85.0888
106.602
128.161
149.773
171.449
193.2
215.033
236.96
258.986
281.113
303.324
325.57
20.7523
42.2615
63.7845
85.3303
106.908
128.526
150.193
171.918
193.709
215.574
237.518
259.542
281.634
303.753
325.788
20.7841
42.3565
63.9413
85.547
107.181
128.853
150.568
172.335
194.161
216.052
238.011
260.04
282.127
304.23
326.179
20.8126
42.4416
64.0819
85.7409
107.426
129.144
150.901
172.705
194.561
216.474
238.449
260.488
282.598
304.801
327.226
20.8381
42.5177
64.2074
85.9141
107.644
129.403
151.197
173.033
194.914
216.846
238.832
260.878
282.994
305.207
327.59
20.8609
42.5856
64.3195
86.0683
107.838
129.633
151.46
173.322
195.225
217.171
239.165
261.21
283.312
305.485
327.749
20.8811
42.6461
64.4192
86.2055
108.01
129.838
151.692
173.578
195.499
217.457
239.454
261.492
283.57
305.689
327.84
20.8992
42.7
64.5078
86.3274
108.163
130.019
151.898
173.804
195.74
217.707
239.706
261.736
283.791
305.858
327.912
20.9152
42.7478
64.5866
86.4355
108.298
130.179
152.079
174.003
195.952
217.928
239.929
261.954
283.993
306.025
327.999
20.9295
42.7902
64.6564
86.5313
108.418
130.32
152.239
174.179
196.139
218.122
240.127
262.152
284.19
306.22
328.167
20.9421
42.8279
64.7182
86.6162
108.524
130.445
152.381
174.333
196.304
218.294
240.304
262.333
284.382
306.461
328.628
20.9533
42.8612
64.7731
86.6914
108.618
130.556
152.506
174.47
196.45
218.446
240.459
262.49
284.544
306.632
328.786
20.9632
42.8909
64.8218
86.758
108.701
130.654
152.616
174.59
196.577
218.578
240.592
262.623
284.673
306.747
328.853
20.9721
42.9172
64.865
86.8171
108.775
130.74
152.713
174.696
196.689
218.693
240.708
262.735
284.775
306.828
328.891
20.98
42.9407
64.9035
86.8697
108.841
130.817
152.799
174.789
196.787
218.792
240.806
262.829
284.858
306.892
328.92
20.987
42.9617
64.938
86.9168
108.899
130.885
152.876
174.872
196.873
218.88
240.892
262.909
284.93
306.95
328.955
20.9934
42.9806
64.969
86.9591
108.951
130.946
152.944
174.945
196.949
218.956
240.966
262.979
284.993
307.009
329.032
20.9992
42.9979
64.9972
86.9975
108.999
131.002
153.006
175.011
197.017
219.024
241.032
263.039
285.046
307.053
329.062
21.0045
43.0137
65.0231
87.0328
109.043
131.053
153.062
175.071
197.079
219.086
241.09
263.092
285.091
307.086
329.077
21.0095
43.0285
65.0472
87.0656
109.083
131.1
153.114
175.127
197.136
219.142
241.143
263.14
285.13
307.113
329.088
21.0142
43.0425
65.0702
87.0968
109.122
131.145
153.164
175.179
197.19
219.195
241.193
263.184
285.165
307.137
329.097
21.0188
43.056
65.0923
87.127
109.159
131.188
153.212
175.231
197.243
219.247
241.242
263.226
285.2
307.16
329.105
21.0232
43.0693
65.1141
87.1567
109.196
131.231
153.26
175.282
197.296
219.299
241.291
263.27
285.235
307.185
329.117
21.0277
43.0826
65.1359
87.1867
109.233
131.275
153.309
175.335
197.35
219.353
241.342
263.316
285.273
307.213
329.139
21.0322
43.0961
65.1582
87.2173
109.272
131.32
153.36
175.39
197.408
219.412
241.399
263.367
285.315
307.243
329.153
21.0369
43.1101
65.1813
87.2491
109.312
131.368
153.415
175.45
197.471
219.476
241.462
263.425
285.364
307.277
329.166
21.0417
43.1246
65.2053
87.2825
109.354
131.419
153.473
175.515
197.541
219.549
241.534
263.493
285.423
307.32
329.183
21.0468
43.1397
65.2306
87.3178
109.399
131.473
153.537
175.586
197.619
219.632
241.619
263.576
285.498
307.379
329.209
21.0521
43.1556
65.2571
87.3551
109.448
131.532
153.606
175.666
197.707
219.727
241.718
263.677
285.596
307.464
329.259
21.0576
43.1721
65.2849
87.3944
109.499
131.595
153.682
175.753
197.806
219.836
241.835
263.8
285.723
307.594
329.374
21.0632
43.1892
65.3137
87.4355
109.553
131.663
153.764
175.85
197.918
219.961
241.972
263.945
285.879
307.781
329.705
21.0689
43.2065
65.3432
87.4781
109.61
131.735
153.852
175.957
198.042
220.102
242.129
264.113
286.05
307.946
329.835
21.0746
43.2239
65.3729
87.5213
109.668
131.811
153.947
176.072
198.18
220.263
242.31
264.308
286.244
308.11
329.916
21.0801
43.2406
65.4019
87.5642
109.727
131.888
154.046
176.196
198.332
220.444
242.52
264.541
286.481
308.31
330.006
21.0852
43.2562
65.4292
87.6052
109.784
131.966
154.147
176.326
198.495
220.646
242.764
264.825
286.79
308.595
330.154
21.0895
43.2697
65.4534
87.6425
109.838
132.04
154.248
176.459
198.668
220.867
243.042
265.17
287.205
309.046
330.469
21.0928
43.2802
65.4729
87.6738
109.885
132.109
154.344
176.59
198.844
221.1
243.348
265.575
287.749
309.782
331.295
21.0947
43.2865
65.4856
87.6963
109.922
132.166
154.43
176.713
199.015
221.334
243.665
266.011
288.387
310.872
333.841
21.0947
43.2872
65.4893
87.7067
109.945
132.208
154.499
176.82
199.172
221.554
243.968
266.422
288.944
311.621
334.672
21.0922
43.2807
65.4813
87.7014
109.948
132.228
154.544
176.902
199.303
221.749
244.239
266.78
289.388
312.104
335.003
21.0868
43.2653
65.4587
87.6763
109.927
132.219
154.559
176.952
199.401
221.908
244.472
267.088
289.752
312.455
335.186
21.0777
43.239
65.4182
87.6269
109.876
132.175
154.534
176.959
199.455
222.024
244.663
267.359
290.084
312.782
335.357
21.0642
43.1998
65.3565
87.5481
109.788
132.088
154.46
176.914
199.455
222.089
244.81
267.605
290.431
313.189
335.647
21.0457
43.1453
65.2696
87.4346
109.656
131.949
154.328
176.804
199.389
222.089
244.903
267.825
290.822
313.798
336.38
21.0213
43.0733
65.1535
87.2806
109.473
131.748
154.125
176.617
199.24
222.005
244.919
267.988
291.222
314.676
338.656
20.9902
42.9812
65.004
87.08
109.23
131.476
153.838
176.336
198.989
221.813
244.823
268.032
291.466
315.185
339.351
20.9516
42.8665
64.8168
86.8266
108.92
131.121
153.455
175.946
198.617
221.49
244.584
267.917
291.506
315.379
339.563
20.9046
42.7266
64.5876
86.514
108.533
130.672
152.96
175.427
198.101
221.01
244.176
267.619
291.346
315.351
339.597
20.8485
42.5593
64.3122
86.1359
108.061
130.117
152.34
174.762
197.42
220.347
243.574
267.12
290.988
315.153
339.542
20.7825
42.3623
63.9867
85.6867
107.495
129.446
151.578
173.931
196.549
219.474
242.745
266.393
290.421
314.795
339.421
20.7062
42.1339
63.6081
85.1613
106.828
128.647
150.66
172.915
195.461
218.356
241.653
265.397
289.609
314.257
339.232
20.619
41.8726
63.1737
84.5557
106.055
127.712
149.573
171.692
194.13
216.956
240.246
264.073
288.489
313.489
338.954
20.5209
41.5781
62.6824
83.8675
105.17
126.633
148.305
170.246
192.525
215.23
238.463
262.336
286.961
312.393
338.541
20.4118
41.2503
62.1343
83.0964
104.173
125.407
146.849
168.561
190.623
213.136
236.231
260.074
284.866
310.797
337.895
20.2922
40.8906
61.5312
82.2447
103.066
124.035
145.203
166.632
188.405
210.634
233.475
257.15
281.977
308.385
336.778
20.1629
40.501
60.8767
81.3172
101.854
122.524
143.373
164.461
185.868
207.705
230.137
253.422
277.987
304.591
334.537
20.0249
40.085
60.1764
80.322
100.548
120.886
141.375
162.066
183.029
204.36
226.205
248.801
272.577
298.473
329.137
321.145
290.307
264.287
240.404
217.706
195.755
174.311
153.227
132.404
111.775
91.2877
70.9052
50.5972
30.3392
10.1099
326.615
296.527
269.807
245.137
221.749
199.207
177.25
155.713
134.485
113.484
92.6534
71.9477
51.3316
30.7759
10.2548
328.893
300.397
273.894
248.971
225.196
202.244
179.891
157.98
136.401
115.071
93.9286
72.9253
52.0223
31.1873
10.3915
330.035
302.873
276.872
252
228.062
204.858
182.218
160.012
138.14
116.524
95.1036
73.8304
52.6641
31.5704
10.5188
330.704
304.53
279.055
254.369
230.411
207.071
184.236
161.805
139.695
117.836
96.1729
74.6585
53.2534
31.923
10.6362
331.139
305.69
280.68
256.223
232.322
208.927
185.967
163.37
141.069
119.008
97.1352
75.4081
53.789
32.2444
10.7433
331.444
306.534
281.911
257.681
233.873
210.472
187.438
164.722
142.273
120.044
97.9927
76.0798
54.2709
32.5343
10.8401
331.668
307.166
282.859
258.835
235.133
211.755
188.682
165.882
143.318
120.953
98.7501
76.6766
54.7008
32.7935
10.9267
331.837
307.65
283.599
259.755
236.158
212.819
189.73
166.872
144.22
121.744
99.4141
77.2026
55.0812
33.0235
11.0037
331.968
308.028
284.185
260.495
236.995
213.7
190.61
167.714
144.994
122.428
99.9925
77.663
55.4155
33.2261
11.0715
332.071
308.328
284.653
261.093
237.68
214.43
191.347
168.426
145.655
123.017
100.493
78.0637
55.7073
33.4034
11.131
332.154
308.567
285.03
261.58
238.244
215.037
191.966
169.029
146.219
123.522
100.925
78.4105
55.9608
33.5577
11.1828
332.22
308.761
285.337
261.978
238.708
215.541
192.484
169.537
146.697
123.954
101.296
78.7095
56.1799
33.6913
11.2277
332.273
308.918
285.587
262.305
239.091
215.96
192.917
169.966
147.103
124.321
101.613
78.966
56.3684
33.8065
11.2664
332.317
309.046
285.792
262.574
239.409
216.309
193.28
170.326
147.446
124.634
101.883
79.1855
56.53
33.9054
11.2997
332.353
309.152
285.961
262.796
239.672
216.599
193.584
170.63
147.735
124.899
102.113
79.3727
56.6682
33.9901
11.3282
332.383
309.239
286.1
262.98
239.891
216.842
193.839
170.885
147.98
125.123
102.309
79.532
56.7859
34.0623
11.3525
332.407
309.311
286.216
263.133
240.073
217.044
194.052
171.099
148.186
125.312
102.474
79.6671
56.8859
34.1237
11.3733
332.427
309.37
286.311
263.26
240.225
217.213
194.23
171.278
148.359
125.472
102.614
79.7815
56.9707
34.1759
11.3908
332.444
309.42
286.391
263.365
240.351
217.354
194.379
171.429
148.505
125.606
102.731
79.8781
57.0424
34.22
11.4057
332.458
309.461
286.457
263.453
240.456
217.472
194.504
171.555
148.627
125.719
102.831
79.9596
57.1029
34.2572
11.4183
332.469
309.495
286.511
263.526
240.544
217.57
194.608
171.661
148.729
125.814
102.914
80.028
57.1538
34.2886
11.4289
332.479
309.523
286.557
263.586
240.616
217.652
194.695
171.748
148.814
125.893
102.984
80.0853
57.1965
34.3149
11.4378
332.487
309.546
286.594
263.636
240.677
217.719
194.767
171.821
148.885
125.959
103.042
80.1332
57.2321
34.3368
11.4452
332.493
309.565
286.625
263.677
240.726
217.775
194.826
171.882
148.944
126.014
103.09
80.1728
57.2617
34.3551
11.4513
332.499
309.581
286.65
263.711
240.767
217.82
194.875
171.931
148.992
126.058
103.129
80.2055
57.286
34.3701
11.4564
332.503
309.593
286.671
263.738
240.8
217.857
194.914
171.972
149.032
126.095
103.162
80.2322
57.3059
34.3824
11.4606
332.506
309.603
286.687
263.76
240.826
217.887
194.945
172.004
149.063
126.124
103.188
80.2535
57.3219
34.3922
11.4639
332.509
309.611
286.699
263.777
240.846
217.91
194.97
172.029
149.088
126.147
103.208
80.2703
57.3344
34.4
11.4665
332.511
309.617
286.708
263.789
240.861
217.927
194.988
172.047
149.106
126.164
103.223
80.2829
57.3438
34.4058
11.4685
332.512
309.62
286.715
263.797
240.871
217.938
195.001
172.06
149.119
126.176
103.234
80.2918
57.3505
34.41
11.4699
332.513
309.622
286.718
263.801
240.876
217.944
195.008
172.068
149.126
126.184
103.24
80.2974
57.3547
34.4126
11.4708
332.513
309.623
286.718
263.802
240.877
217.946
195.01
172.07
149.129
126.186
103.243
80.2997
57.3565
34.4137
11.4712
332.512
309.621
286.716
263.799
240.874
217.943
195.007
172.068
149.127
126.185
103.242
80.2989
57.3561
34.4135
11.4711
332.511
309.617
286.71
263.792
240.866
217.934
194.998
172.06
149.12
126.179
103.237
80.2952
57.3535
34.4119
11.4706
332.509
309.611
286.701
263.78
240.853
217.92
194.985
172.047
149.108
126.168
103.229
80.2886
57.3487
34.4091
11.4697
332.506
309.603
286.688