/*--------------------------------*- C++ -*----------------------------------*\
| =========                 |                                                 |
| \\      /  F ield         | OpenFOAM: The Open Source CFD Toolbox           |
|  \\    /   O peration     | Version:  5.x                                   |
|   \\  /    A nd           | Web:      www.OpenFOAM.org                      |
|    \\/     M anipulation  |                                                 |
\*---------------------------------------------------------------------------*/
FoamFile
{
    version     2.0;
    format      ascii;
    class       volScalarField;
    location    "7.5";
    object      gradTy;
}
// * * * * * * * * * * * * * * * * * * * * * * * * * * * * * * * * * * * * * //

dimensions      [0 -1 0 1 0 0 0];

internalField   nonuniform List<scalar> 
6300
(
1243.76
1730.58
2215.27
2696.42
3172.6
3642.37
4104.29
4556.93
4998.87
5428.7
5845.08
6246.76
6632.57
7001.53
7352.85
1.04916
3.14989
5.25744
7.37467
9.50177
11.6349
13.765
15.8757
17.9424
19.9309
21.797
23.488
24.9452
26.1092
26.9265
1.74586
5.24219
8.75157
12.28
15.8294
19.3949
22.9629
26.5082
29.9907
33.3536
36.5223
39.4055
41.9001
43.8997
45.3067
2.43789
7.32124
12.2263
17.1642
22.1403
27.1517
32.1831
37.2027
42.1577
46.9697
51.5321
55.7105
59.3487
62.2811
64.3528
3.12228
9.37835
15.6679
22.0095
28.4154
34.8878
41.414
47.9607
54.4664
60.8339
66.9243
72.5541
77.501
81.5208
84.3774
3.79504
11.4017
19.0571
26.79
34.6232
42.5689
50.6233
58.7584
66.9116
74.9734
82.7748
90.0781
96.578
101.921
105.75
4.45109
13.376
22.3681
31.4695
40.7175
50.1402
59.7504
69.5361
79.446
89.3709
99.1207
108.402
116.808
123.831
128.927
5.0844
15.2826
25.5691
36.0016
46.6359
57.5224
68.7004
80.1875
91.963
103.94
115.931
127.599
138.417
147.665
154.496
5.68809
17.1007
28.6232
40.3309
52.3008
64.6115
77.3389
90.548
104.275
118.493
133.061
147.639
161.592
173.911
183.258
6.25517
18.8083
31.4915
44.3966
57.6233
71.2817
85.4933
100.388
116.091
132.692
150.176
168.3
186.395
203.123
216.354
6.77925
20.3854
34.137
48.1395
62.5125
77.3966
92.9619
109.416
127.006
146.004
166.647
188.986
212.559
235.827
255.487
7.25551
21.8165
36.5305
51.5106
66.8888
82.8278
99.5388
117.304
136.509
157.665
181.416
208.431
239.023
272.13
303.254
7.68163
23.094
38.6569
54.4821
70.702
87.4845
105.058
123.75
144.055
166.727
192.915
224.293
262.963
310.406
363.285
8.05844
24.2204
40.5198
57.0575
73.9506
91.3476
109.454
128.58
149.23
172.266
199.22
232.855
278.121
343.237
437.441
8.38999
25.2085
42.1435
59.2758
76.6932
94.4985
112.827
131.882
152.014
173.884
198.838
229.778
273.417
346.968
501.495
7658.2
7922.96
8174.85
8413.96
8640.51
8854.84
9057.4
9248.74
9429.47
9600.27
9761.88
9915.04
10060.5
10199.1
10331.6
10458.7
10581.3
10700
10815.6
10928.7
11040.1
11150.2
11259.7
11369.1
11478.9
11589.4
11701
11813.9
11928.4
12044.5
12162.4
12281.9
12403.1
12525.7
12649.6
12774.7
12900.6
13027.1
13154
13280.9
13407.5
13533.5
13658.4
13781.9
13903.7
14023.2
14140.2
14254.4
14365.4
14472.9
14576.7
14676.6
14772.2
14863.3
14949.7
15031.1
15107.1
15177.4
15241.8
15299.8
15351.1
15395.4
15432.2
15461.3
15482.1
15494.2
15497.1
15490.3
15473.1
15444.9
15405
15352.5
15286.6
15206.5
15111.2
14999.8
14871.3
14724.7
14559
14373.2
14166.3
13937.3
13685.3
13409.5
13109.1
12783.5
12432.3
12055.2
11652.1
11223.4
27.3203
27.3953
27.1853
26.6991
25.9555
24.9807
23.8065
22.4674
20.998
19.4315
17.7982
16.1249
14.4346
12.7467
11.0772
9.43958
7.8454
6.30494
4.82794
3.42418
2.10397
0.878397
-0.24063
-1.24065
-2.10929
-2.83516
-3.40919
-3.82594
-4.08491
-4.19135
-4.15628
-3.9955
-3.7275
-3.37081
-2.94122
-2.44986
-1.90263
-1.30114
-0.645068
0.0648704
0.824088
1.6223
2.44333
3.26674
4.07097
4.83712
5.55239
6.21229
6.82108
7.39063
7.93783
8.48145
9.03878
9.62298
10.2415
10.8958
11.5828
12.2967
13.0324
13.7877
14.5653
15.3734
16.2253
17.1379
18.1294
19.2175
20.4169
21.7379
23.185
24.7569
26.4477
28.2475
30.1444
32.1258
34.1787
36.2899
38.4446
40.6252
42.8089
44.9665
47.0606
49.0451
50.8657
52.4613
53.7672
54.7192
55.2586
55.3378
54.9252
54.0091
45.9849
46.1128
45.7485
44.9084
43.6268
41.9515
39.9398
37.6526
35.1506
32.4913
29.7264
26.9009
24.0529
21.2139
18.4098
15.662
12.9886
10.4055
7.92818
5.57211
3.35404
1.29241
-0.592492
-2.27893
-3.74473
-4.96895
-5.93427
-6.6296
-7.05282
-7.21266
-7.12911
-6.83172
-6.35565
-5.73603
-5.0023
-4.17391
-3.25912
-2.25699
-1.16224
0.0284239
1.31023
2.66633
4.06717
5.47374
6.8441
8.14132
9.34059
10.4336
11.4295
12.3518
13.2341
14.1126
15.0205
15.9823
17.0106
18.1062
19.2599
20.4578
21.6872
22.9417
24.2246
25.5504
26.9434
28.435
30.0594
31.8495
33.8324
36.0267
38.4402
41.0698
43.9033
46.9218
50.1036
53.4265
56.8694
60.4116
64.0313
67.7019
71.3884
75.0442
78.6081
82.0025
85.1342
87.8968
90.1757
91.8558
92.8305
93.0126
92.3434
90.8006
65.3523
65.5382
64.996
63.7527
61.8639
59.4062
56.4689
53.146
49.529
45.7026
41.7413
37.7089
33.6579
29.6307
25.6615
21.7777
18.002
14.3545
10.8545
7.52208
4.37968
1.45286
-1.22915
-3.63388
-5.7269
-7.47441
-8.84689
-9.82384
-10.3987
-10.5831
-10.4085
-9.92395
-9.18917
-8.2643
-7.19839
-6.02113
-4.74016
-3.345
-1.81633
-0.138133
1.69048
3.64701
5.68381
7.73393
9.72359
11.5876
13.2827
14.7959
16.1445
17.3717
18.5365
19.7022
20.9254
22.2465
23.6839
25.2336
26.874
28.5744
30.3068
32.0555
33.8228
35.6312
37.5202
39.5415
41.7515
44.2041
46.9438
50.0002
53.3845
57.0895
61.0925
65.3611
69.8595
74.5543
79.4165
84.4214
89.5442
94.7547
100.011
105.253
110.398
115.337
119.933
124.027
127.445
130.006
131.542
131.911
131.017
128.822
85.7573
86.0087
85.2494
83.5231
80.9166
77.5477
73.5496
69.0589
64.205
59.1039
53.8549
48.54
43.2249
37.9607
32.787
27.7345
22.8277
18.0881
13.5366
9.19578
5.0923
1.2583
-2.26755
-5.44004
-8.20893
-10.5222
-12.3313
-13.5992
-14.3091
-14.4728
-14.1366
-13.3787
-12.2987
-10.998
-9.55723
-8.02013
-6.38813
-4.62785
-2.68841
-0.524017
1.88368
4.50917
7.27825
10.0781
12.7809
15.2737
17.4838
19.3916
21.0311
22.4782
23.8341
25.2055
26.6858
28.3394
30.1915
32.2269
34.3977
36.641
38.8992
41.1384
43.3579
45.5916
47.9024
50.372
53.0898
56.1409
59.5948
63.4969
67.8623
72.6752
77.8944
83.4643
89.3276
95.4356
101.753
108.256
114.925
121.736
128.648
135.596
142.48
149.158
155.447
161.125
165.94
169.626
171.927
172.623
171.56
168.672
107.604
107.932
106.892
104.557
101.064
96.592
91.3369
85.4921
79.2341
72.7151
66.0603
59.3686
52.7156
46.1577
39.7357
33.4792
27.4106
21.5491
15.9135
10.5261
5.4154
0.618642
-3.81597
-7.82851
-11.3481
-14.2967
-16.596
-18.1791
-19.0066
-19.0834
-18.4726
-17.2981
-15.7271
-13.9342
-12.0558
-10.1568
-8.2219
-6.16981
-3.88561
-1.26149
1.7619
5.16307
8.8268
12.5603
16.1388
19.3652
22.118
24.3719
26.1926
27.7139
29.1072
30.5498
32.1945
34.1441
36.433
39.0226
41.8147
44.6834
47.5164
50.247
52.8698
55.4384
58.0529
60.8421
63.9453
67.4943
71.5971
76.323
81.692
87.672
94.1876
101.141
108.439
116.011
123.818
131.846
140.097
148.565
157.229
166.027
174.851
183.532
191.835
199.46
206.054
211.234
214.616
215.861
214.721
211.086
131.4
131.819
130.397
127.256
122.618
116.76
109.97
102.517
94.6365
86.5196
78.3163
70.1388
62.0673
54.157
46.444
38.9513
31.694
24.6833
17.9319
11.4571
5.28556
-0.543182
-5.97273
-10.9272
-15.31
-19.0065
-21.892
-23.8473
-24.7854
-24.6841
-23.6207
-21.7884
-19.4754
-16.994
-14.5842
-12.3457
-10.2248
-8.04647
-5.57276
-2.57446
1.09553
5.43817
10.274
15.2647
20.0026
24.1376
27.4694
29.9748
31.7841
33.1327
34.3082
35.6017
37.2627
39.4586
42.2399
45.5252
49.1194
52.7756
56.279
59.5089
62.4576
65.217
67.9498
70.8581
74.1566
78.048
82.6997
88.2205
94.6392
101.894
109.847
118.319
127.152
136.244
145.559
155.114
164.95
175.11
185.61
196.415
207.423
218.446
229.193
239.273
248.199
255.424
260.375
262.526
261.47
257.01
157.826
158.354
156.372
152.105
145.925
138.267
129.554
120.157
110.378
100.448
90.5355
80.7568
71.1876
61.8729
52.8361
44.086
35.6234
27.4461
19.5539
11.9537
4.66438
-2.27732
-8.81096
-14.8461
-20.2571
-24.8813
-28.524
-30.9773
-32.0575
-31.6671
-29.8726
-26.9677
-23.4629
-19.9477
-16.8627
-14.362
-12.3076
-10.3455
-8.01242
-4.85173
-0.536511
5.00594
11.501
18.3358
24.7372
30.0691
34.0131
36.5824
38.0414
38.803
39.3417
40.1268
41.5635
43.9326
47.3236
51.5852
56.3373
61.0899
65.4377
69.1778
72.32
75.0361
77.5956
80.3139
83.5159
87.5085
92.5525
98.8265
106.383
115.114
124.758
134.978
145.493
156.156
166.956
177.974
189.336
201.166
213.549
226.508
239.973
253.753
267.51
280.742
292.793
302.884
310.165
313.805
313.118
307.73
187.848
188.496
185.636
179.704
171.358
161.29
150.12
138.344
126.334
114.349
102.56
91.072
79.9406
69.1883
58.8151
48.8069
39.1425
29.7989
20.7563
12.0036
3.5441
-4.5974
-12.3652
-19.6618
-26.3351
-32.167
-36.8666
-40.082
-41.4446
-40.6694
-37.7213
-33.0084
-27.4628
-22.2797
-18.2978
-15.7335
-14.2554
-13.1768
-11.6419
-8.78969
-3.93397
3.20362
12.2407
22.0324
31.0132
38.0008
42.5376
44.7901
45.304
44.7952
44.0217
43.7145
44.5229
46.936
51.1546
56.9401
63.5553
69.9881
75.4724
79.7082
82.7966
85.0812
87.0132
89.0737
91.737
95.4551
100.634
107.585
116.435
127.019
138.839
151.21
163.619
175.871
188.036
200.337
213.047
226.42
240.656
255.871
272.066
289.09
306.577
323.908
340.206
354.382
365.192
371.31
371.529
365.092
222.942
223.683
219.316
210.776
199.264
185.895
171.551
156.863
142.247
127.96
114.145
100.867
88.1416
75.9523
64.2632
53.0278
42.195
31.7137
21.5372
11.6277
1.96226
-7.45896
-16.6011
-25.3777
-33.6277
-41.0855
-47.3488
-51.8571
-53.9124
-52.803
-48.1134
-40.2504
-30.9435
-22.8848
-17.6941
-15.5439
-15.6308
-16.6681
-17.1717
-15.6161
-10.621
-1.33774
11.8896
26.8926
40.1549
49.457
54.3466
55.4965
54.0345
51.1634
48.0252
45.6902
45.1662
47.3343
52.7238
61.0944
71.03
80.2463
87.2987
91.8846
94.4247
95.6273
96.2394
96.9584
98.4325
101.291
106.157
113.603
123.982
137.138
152.118
167.38
181.964
195.7
208.909
222.102
235.792
250.421
266.342
283.808
302.956
323.746
345.854
368.55
390.657
410.716
426.96
437.294
439.509
431.932
265.586
266.216
258.998
246.118
229.835
211.897
193.474
175.273
157.683
140.89
124.954
109.864
95.5689
81.9943
69.0567
56.6682
44.741
33.1897
21.9339
10.9008
0.0296295
-10.7212
-21.3619
-31.8504
-42.0591
-51.7218
-60.3559
-67.162
-70.9346
-70.0897
-63.0728
-49.5695
-32.6247
-19.3584
-12.711
-12.1314
-15.6364
-20.9264
-25.665
-27.3937
-23.4812
-11.5572
8.98258
34.26
54.9995
67.2671
71.5407
69.9637
64.7939
57.9166
50.8725
45.0584
41.9332
43.0941
50.0004
62.9952
79.5405
93.6199
102.676
107.006
107.978
107.023
105.311
103.755
103.134
104.234
107.966
115.395
127.527
144.628
164.99
184.522
201.528
216.282
229.803
243.148
257.18
272.558
289.796
309.318
331.475
356.495
384.277
414.033
444.05
472.531
497.229
514.959
521.576
513.055
320.534
320.044
306.822
286.353
262.782
238.59
215.069
192.797
171.968
152.581
134.541
117.715
101.956
87.1173
73.0581
59.6434
46.7449
34.2398
22.0099
9.94112
-2.07557
-14.1412
-26.3404
-38.7243
-51.2749
-63.8373
-75.9925
-86.8327
-94.6032
-96.2612
-87.3702
-63.8421
-29.0073
-6.29925
1.01081
-2.83576
-13.0707
-25.9773
-38.4912
-47.2933
-47.8763
-34.1822
-0.745914
48.1621
82.0434
96.5877
97.159
89.6037
78.0112
64.9096
51.9483
40.5546
32.5285
30.5804
38.5098
59.7829
91.6011
114.226
124.859
126.961
124.304
119.508
114.156
109.204
105.356
103.385
104.45
110.411
123.918
147.417
179.053
205.3
224.329
238.637
250.947
263.199
276.623
292.011
309.957
331.023
355.866
385.26
419.847
459.128
499.644
539.781
577.522
608.612
625.43
617.657
398.797
392.194
365.075
331.044
296.614
264.312
234.858
208.235
184.169
162.325
142.375
124.023
107.012
91.1137
76.1275
61.8718
48.1792
34.8908
21.8513
8.90449
-4.11196
-17.37
-31.0541
-45.3587
-60.4737
-76.5389
-93.5224
-110.923
-127.073
-137.622
-132.744
-94.3961
-7.92842
28.9316
30.7965
15.6577
-6.65918
-31.5943
-56.6631
-79.029
-92.831
-85.2369
-32.7555
83.6995
136.929
146.025
134.476
115.054
93.3982
71.697
50.7636
31.1986
14.3685
3.84047
7.80106
41.3823
116.896
152.094
159.32
153.767
143.705
132.788
122.421
113.059
104.869
98.1587
93.8805
94.5559
105.914
138.486
200.868
236.465
253.92
263.861
272.165
281.553
293.227
307.773
325.614
347.28
373.689
406.535
448.642
502.432
555.767
610.465
667.373
722.796
764.678
766.999
533.043
493.873
433.27
376.301
327.369
285.926
250.562
219.983
193.168
169.338
147.902
128.399
110.463
93.7952
78.1437
63.2887
49.0312
35.1834
21.5601
7.96901
-5.79906
-19.9837
-34.8721
-50.8235
-68.3014
-87.9145
-110.448
-136.81
-167.601
-201.194
-226.31
-194.238
84.5871
114.556
85.0683
44.4881
3.52412
-37.0169
-78.724
-123.093
-168.592
-200.926
-156.884
210.281
255.365
225.191
183.126
143.719
108.85
77.3789
47.6087
17.9056
-12.865
-43.7614
-65.5597
-37.4006
200.246
230.242
212.182
187.063
164.334
145.277
129.237
115.224
102.253
89.4297
76.1772
63.3173
57.3618
86.6255
261.252
293.749
294.327
291.439
291.818
296.609
305.689
318.784
335.754
356.701
382.237
414.463
460.603
546.381
609.915
677.953
759.346
856.461
960.876
1024.1
848.83
626.399
496.218
409.971
347.33
298.775
259.369
226.305
197.859
172.899
150.64
130.513
112.083
95.0096
79.0098
63.8423
49.2907
35.1511
21.2209
7.28734
-6.88701
-21.584
-37.1592
-54.0892
-73.0533
-95.0832
-121.857
-156.318
-204.09
-276.966
-402.223
-649.4
535.453
285.793
155.31
73.8694
13.0974
-40.7603
-96.9503
-165.529
-263.308
-426.59
-746.309
800.654
482.165
321.474
227.945
165.843
119.408
80.6082
44.3554
6.1483
-39.9179
-104.464
-210.858
-417.845
582.607
377.583
275.203
216.911
179.674
153.415
133.133
115.884
99.4199
81.3161
57.9054
22.1339
-41.9087
-174.56
526.294
396.989
339.717
314.304
305.109
305.483
312.359
324.206
340.157
359.505
381.138
402.345
415.473
622.345
657.558
726.192
828.658
979.591
1216.36
1630.87
10724
10143.9
9529.97
8884.29
8209.12
7506.96
6780.46
6032.33
5265.3
4482.07
3685.29
2877.55
2061.37
1239.2
413.462
52.4587
50.1066
47.1846
43.8078
40.0997
36.1796
32.1519
28.1003
24.0855
20.1465
16.3024
12.5563
8.89834
5.30963
1.76486
88.1621
84.1417
79.145
73.3799
67.0678
60.4186
53.6131
46.7929
40.0586
33.4723
27.0621
20.8293
14.7538
8.80069
2.92476
125.005
119.15
111.871
103.496
94.3707
84.8123
75.0874
65.3985
55.8833
46.6217
37.6446
28.945
20.487
12.2145
4.0583
163.533
155.578
145.688
134.36
122.103
109.369
96.5228
83.8279
71.4529
59.4855
47.9493
36.819
26.0346
15.5121
5.15229
204.401
193.937
180.936
166.148
150.307
134.035
117.803
101.934
86.6119
71.9163
57.8468
44.3465
31.3201
18.6469
6.19118
248.437
234.829
217.965
198.986
178.938
158.655
138.719
119.489
101.141
83.7181
67.1732
51.3992
36.2519
21.5643
7.15673
296.726
278.972
257.107
232.888
207.802
182.925
158.927
136.16
114.741
94.6387
75.7261
57.8237
40.7231
24.2012
8.0282
350.759
327.218
298.599
267.651
236.452
206.31
177.903
151.479
127.023
104.367
83.2664
63.4447
44.6146
26.4887
8.78299
412.68
380.531
342.406
302.655
264.038
227.952
194.888
164.828
137.503
112.537
89.5254
68.0723
47.8007
28.3552
9.3979
485.738
439.809
387.831
336.515
289.087
246.565
208.863
175.438
145.62
118.748
94.2235
71.5166
50.1596
29.7329
9.85114
574.913
505.13
432.585
366.481
309.222
260.354
218.555
182.436
150.786
122.608
97.1012
73.6092
51.5868
30.5649
10.1247
687.223
573.193
470.883
387.591
320.959
267.064
222.561
184.962
152.474
123.795
97.961
74.23
52.012
30.8147
10.2072
826.517
629.524
490.145
392.031
319.948
264.374
219.658
182.373
150.349
122.135
96.7144
73.336
51.4155
30.4738
10.0964
947.236
628.225
468.131
370.431
302.421
250.818
209.316
174.519
144.408
117.677
93.4229
70.9822
49.8389
29.5681
9.80111
8.66109
26.0151
43.4634
61.0652
78.874
96.9358
115.29
133.976
153.061
172.708
193.363
216.199
244.21
284.947
357.367
8.88292
26.6752
44.544
62.5302
80.6571
98.9181
117.259
135.548
153.534
170.779
186.533
199.445
206.516
198.559
138.954
9.08624
27.2818
45.5423
63.8963
82.3452
100.843
119.261
137.327
154.52
169.881
181.672
186.742
179.254
148.033
72.1363
9.27341
27.8428
46.475
65.1951
83.9976
102.821
121.505
139.71
156.776
171.458
181.474
182.756
168.47
128.529
52.8002
9.44482
28.3596
47.3458
66.4356
85.6337
104.894
124.079
142.882
160.683
176.273
187.337
189.579
175.498
133.874
54.2075
9.59862
28.8266
48.1438
67.5996
87.2249
107.017
126.915
146.746
166.123
184.226
199.324
207.732
201.649
165.635
75.5778
9.73097
29.2311
48.8448
68.6446
88.6982
109.065
129.796
150.923
172.444
194.262
215.955
235.944
248.583
234.922
139.376
9.83668
29.5563
49.4157
69.5121
89.9516
110.859
132.4
154.823
178.556
204.381
233.765
269.254
313.778
361.069
330.399
9.91017
29.7841
49.8212
70.1401
90.8783
112.211
134.387
157.812
183.212
212.024
247.332
296.285
377.043
541.35
959.003
9.94634
29.8981
50.0303
70.4758
91.3905
112.974
135.506
159.426
185.494
215.153
251.418
301.224
382.282
545.687
960.786
9.9414
29.8863
50.0211
70.4845
91.4368
113.075
135.658
159.547
185.279
213.689
246.097
284.455
330.328
375.227
336.45
9.89317
29.7423
49.7829
70.1526
91.0053
112.518
134.899
158.384
183.202
209.445
236.638
262.462
279.045
262.868
152.473
9.80117
29.465
49.3154
69.4842
90.1135
111.357
133.372
156.292
180.132
204.537
228.127
246.881
250.508
215.932
103.597
9.66633
29.0575
48.6259
68.4948
88.7938
109.657
131.215
153.559
176.666
200.191
222.97
241.802
248.495
222.992
120.595
9.49068
28.5265
47.727
67.2056
87.0806
107.474
128.508
150.294
172.907
196.36
220.55
245.148
268.837
283.445
233.976
9.27705
27.8807
46.6341
65.64
85.0056
104.844
125.278
146.45
168.563
192.015
217.842
249.121
295.481
388.392
637.967
9.02883
27.1305
45.365
63.8234
82.6008
101.799
121.533
141.951
163.285
186.016
211.344
242.616
289.794
384.537
636.676
8.74991
26.2877
43.9398
61.7843
79.9022
98.3797
117.312
136.813
157.035
178.21
200.714
225.062
251.07
271.374
230.09
8.4445
25.365
42.3802
59.5542
76.9525
94.6427
112.694
131.172
150.121
169.479
188.802
206.352
216.302
200.976
114.401
8.11709
24.3761
40.7096
57.1673
73.7989
90.6533
107.777
125.202
142.92
160.768
178.117
192.916
199.083
180.052
97.4803
7.77233
23.3351
38.9522
54.6588
70.4892
86.4756
102.648
119.028
135.625
152.403
169.199
185.472
199.36
203.251
158.606
7.41484
22.2562
37.1319
52.0635
67.07
82.1677
97.3717
112.701
128.203
144.022
160.642
179.68
206.576
260.153
409.01
7.04914
21.1529
35.2723
49.4153
63.5862
77.7847
92.007
106.254
120.558
135.082
150.403
168.428
195.26
250.885
405.091
6.67954
20.0384
33.3957
46.7469
60.0822
73.3838
86.6238
99.7638
112.76
125.585
138.285
151.059
163.946
173.153
145.119
6.30997
18.9248
31.5228
44.0889
56.6005
69.0243
81.3087
93.3724
105.078
116.172
126.115
133.607
135.186
121.279
67.2319
5.94389
17.8224
29.6717
41.4678
53.1789
64.7604
76.1455
87.228
97.8205
107.557
115.644
120.259
117.177
97.2798
45.1885
5.58415
16.74
27.857
38.9051
49.8464
60.6315
71.1912
81.4222
91.1558
100.084
107.581
112.255
110.844
95.6356
49.7316
5.233
15.6842
26.0899
36.4157
46.6216
56.6582
66.4638
75.9604
85.0486
93.6046
101.478
108.475
114.089
115.306
91.4678
4.89203
14.6598
24.3776
34.0091
43.5135
52.8442
61.95
70.7808
79.3096
87.597
95.9824
105.652
120.387
152.375
243.687
4.56232
13.6698
22.7249
31.6903
40.5252
49.1854
57.6259
65.8098
73.7369
81.5196
89.5934
99.3097
114.701
148.245
242.125
4.24447
12.7159
21.1341
29.4614
37.6574
45.6784
53.4788
61.016
68.2632
75.2387
82.0622
89.0245
96.4081
102.212
86.3994
3.9387
11.7987
19.6059
27.3232
34.9105
42.3237
49.5135
56.4224
62.977
69.0618
74.433
78.4453
79.2101
71.1889
39.6901
3.64495
10.918
18.1398
25.2747
32.2836
39.1233
45.7423
52.0738
58.016
63.3791
67.7462
70.1198
68.1121
56.4684
26.231
3.36283
10.0725
16.7339
23.3131
29.7737
36.0753
42.1696
47.9944
53.4558
58.387
62.4423
64.8357
63.7046
54.659
28.2054
3.09173
9.26044
15.3846
21.4332
27.3737
33.1703
38.7833
44.1662
49.2628
54.0018
58.2911
61.9977
64.7921
64.9374
50.9829
2.8308
8.4791
14.0873
19.628
25.0728
30.3921
35.5558
40.5359
45.3168
49.9277
54.5435
59.7919
67.7179
85.006
134.878
2.57903
7.72538
12.8366
17.8889
22.8584
27.7212
32.455
37.043
41.4877
45.849
50.3553
55.7251
64.1409
82.445
133.919
2.33531
6.99588
11.6263
16.2067
20.7173
25.1392
29.4544
33.6486
37.7153
41.6684
45.5663
49.5417
53.6955
56.848
47.883
2.0985
6.28707
10.4505
14.5724
18.6373
22.6303
26.537
30.3416
34.0207
37.5249
40.7222
43.233
43.9442
39.6646
22.1249
1.86748
5.59552
9.30306
12.9773
16.6065
20.1806
23.6895
27.1206
30.4465
33.5931
36.3535
38.1727
37.6574
31.6885
14.9151
1.64118
4.91797
8.17839
11.4128
14.6134
17.7751
20.8951
23.9717
26.9957
29.9282
32.6369
34.7324
35.1564
31.2145
16.7719
1.41868
4.25154
7.07139
9.87121
12.6467
15.3976
18.13
20.858
23.6071
26.4173
29.3448
32.4512
35.6858
38.0313
31.8928
1.19922
3.59391
5.97789
8.34595
10.6962
13.0322
15.3668
17.7284
20.1748
22.8235
25.9271
30.0792
36.8307
50.7378
87.0451
0.982286
2.94346
4.895
6.83246
8.7548
10.6669
12.5837
14.5386
16.6007
18.9123
21.7794
25.9003
33.0045
47.886
85.9378
0.767621
2.29943
3.82144
5.32883
6.81972
8.29722
9.77289
11.2732
12.8518
14.6137
16.7593
19.6477
23.7754
28.9409
28.2448
0.555245
1.66193
2.75757
3.83601
4.89309
5.92778
6.94379
7.95201
8.97414
10.0469
11.2216
12.5324
13.8234
14.0642
9.29548
0.345412
1.03181
1.70514
2.35732
2.98111
3.57022
4.1188
4.61973
5.05971
5.40751
5.58752
5.42888
4.59863
2.66463
-0.055997
0.138548
0.410467
0.666897
0.897616
1.09228
1.23964
1.32555
1.32823
1.20762
0.882758
0.186576
-1.21038
-3.86178
-8.19065
-11.3756
-0.064826
-0.200448
-0.354037
-0.537813
-0.764705
-1.04949
-1.41132
-1.87928
-2.50445
-3.38612
-4.72985
-6.98091
-11.1598
-19.8428
-40.7086
-0.264166
-0.799228
-1.35458
-1.94411
-2.58253
-3.28638
-4.07597
-4.97932
-6.04033
-7.33629
-9.01841
-11.4153
-15.3326
-23.0382
-41.9793
-0.458949
-1.38428
-2.33198
-3.3173
-4.35603
-5.46509
-6.66318
-7.97164
-9.41506
-11.0206
-12.813
-14.7964
-16.8776
-18.4348
-15.616
-0.648693
-1.95416
-3.28391
-4.65428
-6.08186
-7.58341
-9.17542
-10.8721
-12.6793
-14.5775
-16.4775
-18.1123
-18.7894
-16.873
-8.98604
-0.832956
-2.50756
-4.20827
-5.95249
-7.75755
-9.64044
-11.6168
-13.6978
-15.8826
-18.1356
-20.3288
-22.0962
-22.5048
-19.4598
-9.3609
-1.01132
-3.04326
-5.10312
-7.20942
-9.3805
-11.6342
-13.9872
-16.4537
-19.041
-21.738
-24.4786
-27.0265
-28.6216
-26.9476
-15.7251
-1.18335
-3.55999
-5.96643
-8.42241
-10.9474
-13.5606
-16.2809
-19.1279
-22.1257
-25.313
-28.7652
-32.6221
-37.012
-41.0696
-36.1379
-1.34863
-4.05649
-6.79611
-9.58854
-12.4545
-15.4145
-18.4887
-21.6998
-25.0815
-28.7072
-32.7741
-37.8514
-45.6375
-61.4386
-103.322
-1.5067
-4.53139
-7.58991
-10.7047
-13.8979
-17.1908
-20.6036
-24.1556
-27.8709
-31.7984
-36.0847
-41.204
-48.7019
-63.7018
-104.187
-1.6571
-4.98329
-8.34546
-11.7676
-15.2735
-18.8858
-22.624
-26.5008
-30.5157
-34.6439
-38.8208
-42.9092
-46.5618
-48.2739
-38.9639
-1.79935
-5.41071
-9.06021
-12.7736
-16.577
-20.4954
-24.5505
-28.7529
-33.0849
-37.4594
-41.6223
-44.9215
-45.774
-40.5052
-21.3967
-1.93297
-5.81217
-9.73144
-13.7185
-17.8022
-22.0123
-26.3773
-30.9178
-35.6277
-40.4255
-45.0276
-48.6371
-49.2417
-42.3513
-20.2794
-2.05757
-6.18634
-10.3565
-14.5975
-18.9413
-23.4238
-28.0849
-32.968
-38.1129
-43.5313
-49.1266
-54.4439
-57.9187
-54.7441
-32.002
-2.17289
-6.53231
-10.9334
-15.4064
-19.9859
-24.7133
-29.641
-34.8395
-40.4117
-46.5183
-53.4229
-61.5353
-71.2184
-80.7302
-72.3815
-2.27893
-6.84993
-11.4612
-16.1428
-20.9297
-25.8661
-31.0116
-36.4548
-42.3432
-48.9554
-56.8849
-67.5416
-84.6431
-119.126
-207.499
-2.37602
-7.14012
-11.9413
-16.8074
-21.7716
-26.8761
-32.1783
-37.764
-43.7757
-50.4822
-58.458
-69.0781
-86.0045
-120.108
-207.869
-2.46493
-7.40515
-12.3773
-17.4054
-22.5181
-27.7511
-33.151
-38.7806
-44.7294
-51.1321
-58.1997
-66.241
-75.4447
-83.8369
-73.5799
-2.54684
-7.64861
-12.7753
-17.946
-23.1829
-28.5128
-33.9671
-39.5789
-45.3717
-51.3247
-57.2705
-62.6023
-65.4547
-60.5238
-34.3682
-2.62333
-7.87532
-13.1439
-18.442
-23.785
-29.1906
-34.6769
-40.2549
-45.9065
-51.5268
-56.7728
-60.6907
-60.8755
-51.9552
-24.7293
-2.69629
-8.09108
-13.493
-18.9084
-24.3456
-29.8147
-35.3259
-40.883
-46.467
-51.9933
-57.2021
-61.377
-62.6246
-56.1034
-30.5321
-2.76791
-8.30247
-13.8338
-19.3611
-24.8859
-30.412
-35.946
-41.496
-47.0717
-52.6848
-58.3544
-64.1018
-69.7743
-73.486
-60.9855
-2.84058
-8.51671
-14.1782
-19.8169
-25.4271
-31.0064
-36.5578
-42.0946
-47.6543
-53.3417
-59.4576
-66.8848
-78.2921
-102.134
-167.466
-2.91693
-8.74166
-14.5395
-20.2941
-25.9917
-31.6224
-37.1826
-42.6806
-48.1521
-53.7057
-59.6552
-66.91
-78.1821
-101.98
-167.391
-2.99979
-8.98583
-14.9317
-20.8122
-26.6045
-32.2897
-37.8534
-43.2882
-48.5967
-53.7995
-58.9514
-64.1514
-69.381
-72.9376
-60.7079
-3.09223
-9.2584
-15.3702
-21.3928
-27.2937
-33.0437
-38.6165
-43.9867
-49.1184
-53.9333
-58.2193
-61.3781
-61.7482
-54.8651
-29.855
-3.1975
-9.56922
-15.8714
-22.0591
-28.0895
-33.9229
-39.5231
-44.8539
-49.8636
-54.4388
-58.2749
-60.5466
-59.1582
-49.3862
-23.1021
-3.3191
-9.92874
-16.453
-22.8359
-29.0236
-34.966
-40.6195
-45.9471
-50.9141
-55.4618
-59.4215
-62.2621
-62.3955
-55.3787
-30.185
-3.46066
-10.348
-17.1334
-23.7493
-30.1294
-36.2119
-41.9445
-47.2936
-52.2591
-56.8971
-61.3499
-65.8633
-70.6039
-73.9997
-61.6992
-3.62593
-10.8384
-17.9322
-24.8273
-31.4432
-37.7025
-43.5379
-48.9091
-53.835
-58.4649
-63.2405
-69.3124
-79.7529
-103.529
-170.371
-3.81865
-11.4114
-18.8697
-26.1001
-33.006
-39.4889
-45.4557
-50.836
-55.6193
-59.9353
-64.2349
-69.7336
-79.6488
-103.161
-170.16
-4.04233
-12.0782
-19.9657
-27.5991
-34.8637
-41.6351
-47.7823
-53.1794
-57.7305
-61.4206
-64.4006
-67.0929
-70.1096
-72.6042
-60.8774
-4.29995
-12.8483
-21.2385
-29.3547
-37.0647
-44.2158
-50.6314
-56.1119
-60.4417
-63.4017
-64.7695
-64.2312
-60.9385
-51.9305
-28.0103
-4.59342
-13.7281
-22.702
-31.3926
-39.6544
-47.3083
-54.131
-59.8447
-64.1057
-66.4907
-66.4647
-63.2852
-55.7403
-41.6165
-17.4378
-4.9231
-14.7198
-24.3623
-33.7286
-42.6667
-50.9784
-58.4016
-64.5872
-69.0734
-71.2552
-70.3516
-65.3728
-55.1129
-38.2872
-14.2947
-5.28716
-15.8185
-26.2142
-36.3621
-46.114
-55.2658
-63.5317
-70.5101
-75.6418
-78.163
-77.0692
-71.1291
-59.0461
-39.9361
-14.3445
-5.68108
-17.0111
-28.2382
-39.2705
-49.9778
-60.1682
-69.5556
-77.7153
-84.0228
-87.5811
-87.1519
-81.1516
-67.8594
-46.0865
-16.5453
-6.09723
-18.2751
-30.3972
-42.4043
-54.2003
-65.6276
-76.4314
-86.2055
-94.3119
-99.7676
-101.102
-96.2371
-82.5615
-57.6309
-21.2108
-6.52478
-19.5777
-32.6356
-45.6841
-58.6781
-71.5191
-84.021
-95.8522
-106.44
-114.814
-119.356
-117.439
-105.078
-77.1531
-30.0437
-6.94989
-20.8764
-34.88
-49.0012
-63.2611
-77.6449
-92.0748
-106.36
-120.103
-132.52
-142.092
-145.891
-138.4
-109.996
-47.8885
-7.35635
-22.1212
-37.042
-52.2211
-67.7567
-83.7369
-100.227
-117.242
-134.683
-152.197
-168.832
-182.181
-186.239
-166.239
-89.1147
-7.72646
-23.2572
-39.0239
-55.1924
-71.9422
-89.4728
-108.012
-127.824
-149.209
-172.482
-197.848
-224.917
-250.782
-262.143
-200.551
-8.04239
-24.229
-40.7261
-57.759
-75.5837
-94.5057
-114.91
-137.308
-162.418
-191.308
-225.676
-268.479
-325.389
-408.698
-547.751
668.198
498.596
396.078
325.592
272.442
229.814
194.14
163.342
136.094
111.489
88.8678
67.7252
47.6545
28.3115
9.39094
244.22
318.47
303.476
270.794
236.845
205.26
176.54
150.421
126.486
104.327
83.5831
63.9363
45.107
26.843
8.91117
107.871
200.313
223.152
216.871
199.602
178.713
157.131
135.98
115.641
96.1812
77.5349
59.5784
42.166
25.1436
8.35522
57.1455
130.488
163.047
170.574
164.867
152.645
137.421
120.973
104.183
87.4687
71.0061
54.8419
38.9536
23.2813
7.74499
34.8556
88.9805
120.322
133.464
134.654
128.659
118.556
106.2
92.6701
78.5799
64.2688
49.9127
35.5905
21.3241
7.10249
23.3888
63.2939
90.2317
104.653
109.427
107.522
101.255
92.2415
81.5444
69.8431
57.5617
44.959
32.188
19.3356
6.4483
16.6943
46.6109
68.8318
82.5399
88.837
89.4122
85.8598
79.4499
71.1145
61.5078
51.0767
40.1213
28.8416
17.3708
5.80051
12.4104
35.2715
53.3422
65.5715
72.2184
74.1671
72.4471
67.9937
61.5661
53.744
44.9548
35.5083
25.6274
15.4748
5.17397
9.4871
27.258
41.9081
52.4786
58.8612
61.4683
60.9312
57.9073
52.985
46.6506
39.2886
31.1962
22.6014
13.6816
4.58003
7.39928
21.4111
33.3064
42.2928
48.1247
50.9517
51.1409
49.1381
45.3835
40.27
34.129
27.2324
19.8006
12.0144
4.02661
5.85766
17.0338
26.7241
34.2969
39.4739
42.2661
42.8718
41.5845
38.7249
34.6021
29.4936
23.6397
17.2456
10.4871
3.51854
4.69039
13.6879
21.6118
27.964
32.4785
35.0978
35.9167
35.1218
32.9428
29.6181
25.3752
20.4218
14.9433
9.10531
3.058
3.78921
11.0872
17.5905
22.9067
26.7986
29.1793
30.0814
29.6198
27.9558
25.2712
21.7498
17.5681
12.8904
7.86875
2.64511
3.0827
9.03811
14.3934
18.838
22.1677
24.2869
25.1927
24.952
23.677
21.5048
18.5826
15.0586
11.0761
6.77229
2.27839
2.52195
7.40562
11.8283
15.5431
18.377
20.2365
21.0997
21.0022
20.0208
18.2587
15.8331
12.8671
9.48474
5.80771
1.95531
2.07242
6.09308
9.75468
12.8595
15.2627
16.8777
17.6734
17.6657
16.9065
15.473
13.4584
10.9647
8.09778
4.96481
1.6726
1.70908
5.02977
8.06747
10.663
12.6955
14.0875
14.8047
14.8507
14.26
13.0906
11.4162
9.32112
6.89542
4.23239
1.42667
1.4134
4.16288
6.68713
8.85734
10.5728
11.7657
12.4018
12.4774
12.0153
11.0586
9.66601
7.90695
5.85773
3.59899
1.21376
1.1714
3.45231
5.55252
7.36725
8.81278
9.83045
10.3878
10.4774
10.1136
9.32899
8.17011
6.69412
4.96543
3.05335
1.03018
0.972349
2.86717
4.61604
6.13341
7.34968
8.21458
8.69853
8.79208
8.5041
7.8591
6.89427
5.65662
4.20038
2.5848
0.87242
0.807918
2.38332
3.84023
5.10855
6.13044
6.8631
7.28014
7.37148
7.1423
6.61113
5.80774
4.77081
3.54588
2.18342
0.737181
0.671544
1.98172
3.19529
4.25472
5.11192
5.73066
6.08776
6.17331
5.99005
5.55208
4.88325
4.01544
2.98681
1.84015
0.621457
0.558011
1.64716
2.65733
3.54121
4.25888
4.77978
5.08381
5.16168
5.01455
4.6532
4.09683
3.37167
2.50963
1.54688
0.522533
0.463127
1.3674
2.20702
2.94304
3.54238
3.97938
4.23679
4.30616
4.18768
3.88964
3.4275
2.82287
2.10234
1.29634
0.437987
0.383495
1.1325
1.82857
2.43971
2.93853
3.30359
3.52024
3.58096
3.4854
3.23993
2.85704
2.35447
1.75434
1.08211
0.365667
0.31634
0.934331
1.50906
2.01429
2.42747
2.73077
2.91185
2.96419
2.88711
2.68556
2.3696
1.95376
1.45634
0.898545
0.30368
0.259372
0.766169
1.23776
1.65273
1.99262
2.24273
2.39277
2.43718
2.37516
2.21054
1.95142
1.60964
1.20023
0.740692
0.25036
0.21069
0.622422
1.00571
1.34325
1.62002
1.82407
1.94694
1.98396
1.93434
1.80105
1.59055
1.31242
0.978862
0.604193
0.204241
0.168695