/*--------------------------------*- C++ -*----------------------------------*\
| =========                 |                                                 |
| \\      /  F ield         | OpenFOAM: The Open Source CFD Toolbox           |
|  \\    /   O peration     | Version:  5.x                                   |
|   \\  /    A nd           | Web:      www.OpenFOAM.org                      |
|    \\/     M anipulation  |                                                 |
\*---------------------------------------------------------------------------*/
FoamFile
{
    version     2.0;
    format      ascii;
    class       volScalarField;
    location    "7.5";
    object      gradTx;
}
// * * * * * * * * * * * * * * * * * * * * * * * * * * * * * * * * * * * * * //

dimensions      [0 -1 0 1 0 0 0];

internalField   nonuniform List<scalar> 
6300
(
486.47
485.053
482.217
477.955
472.264
465.139
456.579
446.596
435.212
422.47
408.44
393.223
376.956
359.815
342.011
487.871
486.457
483.625
479.37
473.683
466.557
457.988
447.982
436.555
423.744
409.614
394.26
377.818
360.466
342.421
490.669
489.261
486.441
482.2
476.524
469.402
460.82
450.773
439.267
426.325
411.997
396.371
379.577
361.796
343.258
494.859
493.462
490.663
486.448
480.798
473.69
465.102
455.01
443.4
430.276
415.666
399.638
382.312
363.872
344.568
500.428
499.05
496.284
492.114
486.512
479.445
470.871
460.748
449.034
435.699
420.738
404.188
386.148
366.8
346.42
507.359
506.008
503.294
499.195
493.676
486.689
478.175
468.062
456.273
442.734
427.386
410.214
391.279
370.748
348.93
515.625
514.312
511.673
507.68
502.291
495.445
487.06
477.036
465.249
451.562
435.843
417.991
397.991
375.973
352.272
525.186
523.925
521.388
517.545
512.346
505.722
497.57
487.757
476.108
462.409
446.417
427.902
406.708
382.867
356.723
535.992
534.797
532.392
528.747
523.812
517.509
509.726
500.299
489.002
475.531
459.501
440.477
418.057
392.052
362.736
547.975
546.86
544.618
541.222
536.627
530.76
523.507
514.693
504.053
491.195
475.563
456.433
432.979
404.533
371.078
561.055
560.033
557.98
554.879
550.697
545.379
538.832
530.897
521.306
509.616
495.109
476.696
452.88
422.01
383.153
575.14
574.218
572.372
569.598
565.884
561.209
555.526
548.737
540.641
530.836
518.546
502.345
479.82
447.461
401.755
590.127
589.308
587.674
585.237
582.014
578.029
573.308
567.867
561.667
554.523
545.875
534.302
516.579
486.242
433.128
605.915
605.193
603.76
601.643
598.887
595.565
591.792
587.735
583.617
579.696
576.112
572.393
565.934
547.783
493.374
622.406
621.769
620.511
618.668
616.304
613.532
610.541
607.643
605.353
604.513
606.463
613.203
626.961
645.563
631.626
325.329
310.016
294.734
279.635
264.865
250.559
236.836
223.796
211.523
200.08
189.514
179.855
171.121
163.317
156.437
150.47
145.393
141.182
137.802
135.218
133.384
132.251
131.764
131.86
132.469
133.515
134.918
136.593
138.454
140.415
142.397
144.327
146.139
147.779
149.201
150.367
151.243
151.797
152
151.822
151.235
150.216
148.749
146.828
144.457
141.652
138.434
134.833
130.874
126.583
121.975
117.058
111.828
106.278
100.39
94.1473
87.5313
80.526
73.1175
65.2935
57.0414
48.3452
39.1836
29.5269
19.3366
8.56453
-2.84598
-14.9581
-27.839
-41.5568
-56.1779
-71.7644
-88.3729
-106.053
-124.848
-144.793
-165.916
-188.233
-211.752
-236.463
-262.34
-289.33
-317.356
-346.309
-376.044
-406.383
-437.114
-467.998
-498.775
-529.173
325.5
309.964
294.461
279.151
264.188
249.712
235.843
222.686
210.321
198.811
188.201
178.518
169.777
161.98
155.12
149.181
144.143
139.979
136.654
134.132
132.37
131.318
130.921
131.117
131.834
132.998
134.523
136.322
138.305
140.382
142.47
144.492
146.382
148.088
149.566
150.781
151.702
152.3
152.545
152.407
151.853
150.857
149.399
147.472
145.08
142.241
138.984
135.343
131.351
127.036
122.418
117.503
112.289
106.761
100.899
94.6825
88.09
81.1048
73.7142
65.9088
57.6797
49.0147
39.8957
30.2951
20.1743
9.48411
-1.83508
-13.8502
-26.6327
-40.2546
-54.7856
-70.2903
-86.8265
-104.445
-123.188
-143.094
-164.19
-186.498
-210.029
-234.779
-260.727
-287.83
-316.014
-345.172
-375.164
-405.806
-436.881
-468.14
-499.307
-530.096
325.848
309.854
293.899
278.159
262.803
247.98
233.82
220.426
207.88
196.24
185.546
175.819
167.067
159.288
152.469
146.592
141.632
137.561
134.345
131.949
130.329
129.438
129.221
129.617
130.555
131.955
133.729
135.782
138.015
140.33
142.632
144.841
146.888
148.722
150.306
151.613
152.621
153.307
153.64
153.585
153.104
152.159
150.722
148.781
146.342
143.429
140.085
136.355
132.288
127.923
123.284
118.379
113.198
107.721
101.918
95.7568
89.2123
82.2655
74.9067
67.133
58.9443
50.3373
41.3009
31.8117
21.8321
11.3096
0.178561
-11.6365
-24.2162
-37.6416
-51.9892
-67.3283
-83.7189
-101.212
-119.851
-139.674
-160.714
-182.996
-206.543
-231.361
-257.445
-284.764
-313.257
-342.827
-373.334
-404.593
-436.372
-468.398
-500.37
-531.964
326.393
309.68
293.015
276.605
260.64
245.287
230.685
216.939
204.127
192.302
181.492
171.71
162.953
155.208
148.457
142.676
137.836
133.906
130.854
128.643
127.234
126.582
126.636
127.334
128.606
130.37
132.53
134.98
137.605
140.29
142.927
145.42
147.697
149.712
151.441
152.873
154.002
154.816
155.288
155.374
155.018
154.165
152.768
150.804
148.281
145.237
141.735
137.85
133.653
129.202
124.531
119.647
114.532
109.149
103.448
97.3816
90.912
84.0176
76.6949
68.9536
60.8101
52.2774
43.3573
34.0343
24.2717
14.0117
3.17762
-8.32083
-20.5809
-33.6989
-47.7632
-62.8499
-79.0209
-96.3258
-114.806
-134.499
-155.442
-177.67
-201.218
-226.115
-252.377
-279.998
-308.94
-339.123
-370.413
-402.62
-435.493
-468.724
-501.962
-534.826
327.162
309.427
291.756
274.4
257.587
241.506
226.308
212.098
198.948
186.895
175.954
166.119
157.374
149.692
143.045
137.4
132.724
128.984
126.147
124.179
123.046
122.707
123.117
124.22
125.946
128.211
130.91
133.92
137.104
140.318
143.423
146.304
148.88
151.111
152.998
154.563
155.833
156.815
157.488
157.793
157.646
156.951
155.627
153.629
150.966
147.7
143.935
139.789
135.379
130.794
126.081
121.245
116.251
111.031
105.502
99.5849
93.2212
86.3849
79.084
71.3522
63.2351
54.7742
45.9933
36.8893
27.4273
17.5404
7.13387
-3.90771
-15.7091
-28.3919
-42.0633
-56.8079
-72.6871
-89.7436
-108.011
-127.521
-148.314
-170.436
-193.944
-218.897
-245.345
-273.323
-302.829
-333.813
-366.16
-399.676
-434.085
-469.028
-504.077
-538.762
328.2
309.071
290.033
271.406
253.47
236.447
220.498
205.725
192.181
179.882
168.816
158.954
150.257
142.683
136.186
130.725
126.26
122.757
120.183
118.51
117.709
117.75
118.598
120.204
122.508
125.423
128.838
132.606
136.557
140.497
144.24
147.625
150.554
153.002
155.014
156.675
158.073
159.256
160.212
160.86
161.058
160.639
159.451
157.407
154.516
150.88
146.677
142.106
137.357
132.565
127.803
123.069
118.293
113.356
108.113
102.429
96.2089
89.4194
82.0918
74.3041
66.154
57.7307
49.0937
40.2592
31.1943
21.8176
12.0048
1.60011
-9.56698
-21.6603
-34.8162
-49.1301
-64.6554
-81.4153
-99.4217
-118.693
-139.266
-161.202
-184.585
-209.517
-236.104
-264.438
-294.579
-326.531
-360.212
-395.436
-431.897
-469.165
-506.703
-543.897
329.577
308.573
287.707
267.407
248.028
229.833
212.988
197.575
183.616
171.087
159.938
150.105
141.521
134.116
127.831
122.61
118.408
115.187
112.919
111.581
111.157
111.63
112.981
115.181
118.185
121.914
126.251
131.027
136.019
140.959
145.566
149.599
152.916
155.517
157.531
159.164
160.617
162.019
163.378
164.57
165.355
165.429
164.503
162.403
159.132
154.876
149.943
144.679
139.39
134.291
129.484
124.95
120.565
116.117
111.356
106.043
100.014
93.227
85.7602
77.7763
69.4648
60.994
52.4778
43.9602
35.4099
26.7226
17.7283
8.20615
-2.09037
-13.3973
-25.9002
-39.7062
-54.8434
-71.2891
-89.0082
-107.986
-128.251
-149.878
-172.991
-197.75
-224.339
-252.942
-283.715
-316.75
-352.031
-389.402
-428.533
-468.902
-509.807
-550.417
331.401
307.867
284.556
262.071
240.875
221.269
203.407
187.325
172.984
160.298
149.159
139.455
131.079
123.935
117.939
113.025
109.138
106.242
104.312
103.335
103.309
104.241
106.137
109
112.813
117.525
123.029
129.134
135.552
141.895
147.715
152.599
156.307
158.871
160.592
161.907
163.232
164.838
166.779
168.862
170.673
171.653
171.243
169.082
165.163
159.841
153.681
147.284
141.146
135.594
130.766
126.615
122.921
119.328
115.393
110.684
104.909
98.0109
90.1717
81.7184
73.0037
64.3213
55.863
47.7074
39.8222
32.0694
24.2119
15.9275
6.84176
-3.41121
-15.1067
-28.3636
-43.1452
-59.3269
-76.7784
-95.424
-115.27
-136.41
-159.02
-183.341
-209.667
-238.314
-269.587
-303.723
-340.83
-380.825
-423.374
-467.852
-513.322
-558.601
333.843
306.828
280.209
254.87
231.423
210.188
191.256
174.564
159.965
147.275
136.308
126.888
118.86
112.095
106.487
101.955
98.4399
95.9037
94.3282
93.7141
94.0797
95.4592
97.8981
101.446
106.142
111.993
118.936
126.787
135.191
143.581
151.205
157.291
161.34
163.437
164.234
164.63
165.437
167.173
169.97
173.541
177.185
179.874
180.499
178.287
173.212
166.007
157.758
149.513
142.055
135.852
131.072
127.616
125.131
123.029
120.54
116.859
111.42
104.147
95.4656
86.035
76.4948
67.3247
58.8112
51.0645
44.0434
37.5665
31.3099
24.8028
17.455
8.65275
-2.06391
-14.8242
-29.4293
-45.5338
-62.8268
-81.1299
-100.421
-120.822
-142.579
-166.04
-191.645
-219.898
-251.328
-286.409
-325.461
-368.557
-415.427
-465.358
-517.097
-568.886
337.185
305.212
274.007
244.938
218.778
195.784
175.872
158.782
144.19
131.769
121.226
112.312
104.819
98.5841
93.4814
89.4175
86.3287
84.1788
82.9574
82.6799
83.3877
85.1494
88.0596
92.2356
97.8064
104.887
113.53
123.641
134.848
146.363
156.908
164.91
169.182
169.87
168.448
166.758
166.3
167.975
172.043
178.112
185.065
191.063
193.837
191.609
184.325
173.67
161.828
150.604
141.152
134.055
129.469
127.216
126.787
127.286
127.398
125.565
120.567
112.311
101.836
90.5075
79.4513
69.3812
60.654
53.376
47.48
42.7461
38.7681
34.8884
30.1627
23.4738
13.9224
1.37256
-13.553
-30.0274
-47.4186
-65.4104
-83.9704
-103.279
-123.679
-145.648
-169.804
-196.902
-227.805
-263.368
-304.261
-350.841
-403.061
-460.247
-520.783
-581.962
341.919
302.477
264.72
230.807
201.566
176.933
156.417
139.399
125.282
113.553
103.796
95.6836
88.9621
83.4404
78.9773
75.4731
72.863
71.1143
70.2249
70.2241
71.1757
73.1832
76.3956
81.014
87.2931
95.5281
106.01
118.911
134.056
150.539
166.268
177.895
182.179
179.336
173.043
167.106
164.088
165.324
171.233
181.402
194.319
206.887
214.376
212.205
200.289
183.037
165.006
149.138
136.855
128.64
124.504
124.185
127.104
132.099
137.052
138.827
134.402
123.67
109.432
94.5862
80.9861
69.5024
60.4084
53.6962
49.2423
46.8364
46.0842
46.1919
45.6971
42.4166
34.2266
20.9909
4.55443
-13.1994
-31.1436
-48.8707
-66.4383
-84.1628
-102.515
-122.103
-143.72
-168.421
-197.563
-232.645
-274.863
-324.993
-383.533
-450.3
-523.531
-598.98
348.959
297.306
249.889
209.942
177.713
152.15
131.923
115.834
102.93
92.4939
83.9956
77.0493
71.3747
66.7695
63.0901
60.2386
58.1545
56.8103
56.2108
56.3948
57.4413
59.4796
62.7046
67.3989
73.9607
82.9311
95.0022
110.946
131.334
155.797
181.532
201.447
205.435
193.766
177.12
163.247
155.746
155.94
164.283
180.732
204.069
230.019
248.818
246.829
223.934
193.519
165.064
142.508
126.696
117.35
114.04
116.489
124.43
136.967
151.279
161.013
157.317
140.074
117.899
96.8694
79.4718
66.1809
56.7322
50.7635
48.0546
48.5447
52.1612
58.3621
65.2421
68.4285
61.796
45.2183
24.5592
3.90343
-15.1798
-32.5588
-48.6779
-64.1394
-79.5679
-95.6336
-113.191
-133.541
-158.76
-191.64
-234.063
-287.026
-352.148
-431.031
-523.068
-621.988
360.181
286.023
224.291
177.959
144.252
119.678
101.465
87.6776
77.0226
68.6408
61.9571
56.5812
52.2451
48.7633
46.0087
43.8972
42.3786
41.4323
41.0666
41.3216
42.277
44.0653
46.8958
51.0927
57.1575
65.8669
78.4153
96.5781
122.742
159.219
205.171
247.93
251.23
215.358
177.199
150.208
136.318
134.819
145.653
170.14
210.052
263.443
313.189
311.552
258.4
201.175
156.625
126.161
107.222
97.3649
95.2783
100.882
115.135
139.276
172.095
202.536
199.733
163.579
124.715
93.9204
72.0418
57.3249
48.0437
43.1357
42.2593
45.75
54.5157
69.5531
90.1048
108.578
103.686
75.3223
44.559
18.7422
-1.6696
-18.0598
-31.863
-44.1615
-55.7008
-67.0131
-78.6363
-91.6441
-108.921
-136.888
-178.08
-231.54
-300.937
-392.809
-512.676
-654.938
379.776
256.84
176.509
127.788
97.6339
78.0432
64.63
55.0079
47.8389
42.3402
38.0333
34.6141
31.8834
29.7083
27.9999
26.7007
25.7772
25.2169
25.0272
25.2388
25.9119
27.149
29.1182
32.0954
36.5445
43.2727
53.7413
70.6859
99.2954
148.991
233.403
351.226
353.428
240.236
161.191
118.3
99.0435
95.9356
107.361
137.331
196.62
302.11
451.542
450.451
298.725
190.575
127.898
93.2148
74.6677
66.1882
65.4415
72.8149
91.6004
129.086
196.329
291.928
290.171
190.983
119.906
78.131
54.2976
40.6403
33.0567
29.7016
30.1747
35.3582
47.8378
72.8023
117.958
182.373
179.371
108.881
57.4352
25.7977
6.04989
-7.28512
-17.2139
-25.275
-32.1589
-37.9426
-42.0855
-43.5976
-43.6827
-63.0897
-104.424
-153.099
-217.352
-314.265
-470.024
-706.231
417.47
166.295
83.2042
50.8772
35.8015
27.51
22.3338
18.8039
16.2484
14.322
12.8299
11.6543
10.7206
9.9802
9.40088
8.96216
8.65229
8.46697
8.40926
8.49065
8.73376
9.17768
9.8881
10.9776
12.6483
15.2913
19.7403
27.9944
45.482
88.7676
213.518
621.007
621.783
215.935
93.1177
52.3552
38.5121
36.1216
42.3617
62.2982
116.653
277.492
806.637
806.252
276.292
114.489
58.8583
37.03
27.6142
23.8748
23.9103
28.313
41.1349
76.0425
179.728
521.503
520.904
177.902
72.9
36.5037
21.8986
15.2085
11.9801
10.7542
11.3065
14.4592
23.1808
46.9747
118.075
353.246
352.234
115.012
41.787
15.7316
4.535
-1.41498
-5.25363
-8.08306
-10.1999
-11.2337
-9.3219
2.39567
49.3805
42.2856
-20.1926
-52.2219
-86.7272
-150.975
-311.51
-794.614
-561.808
-596.156
-628.751
-659.255
-687.404
-713.015
-735.978
-756.243
-773.808
-788.708
-800.994
-810.726
-817.965
-822.761
-825.149
-563.141
-597.892
-630.826
-661.59
-689.923
-715.644
-738.655
-758.92
-776.453
-791.3
-803.524
-813.197
-820.385
-825.144
-827.513
-565.851
-601.43
-635.05
-666.34
-695.032
-720.963
-744.057
-764.309
-781.762
-796.491
-808.584
-818.13
-825.212
-829.894
-832.223
-570.04
-606.91
-641.587
-673.668
-702.884
-729.099
-752.281
-772.475
-789.774
-804.296
-816.167
-825.506
-832.414
-836.973
-839.239
-575.87
-614.564
-650.704
-683.84
-713.716
-740.247
-763.471
-783.513
-800.539
-814.73
-826.261
-835.288
-841.942
-846.323
-848.496
-583.601
-624.755
-662.806
-697.252
-727.875
-754.679
-777.822
-797.545
-814.116
-827.8
-838.834
-847.42
-853.721
-857.856
-859.903
-593.626
-638.03
-678.493
-714.469
-745.83
-772.75
-795.572
-814.704
-830.557
-843.495
-853.83
-861.815
-867.642
-871.452
-873.334
-606.561
-655.227
-698.649
-736.279
-768.205
-794.898
-816.988
-835.123
-849.887
-861.767
-871.153
-878.342
-883.556
-886.951
-888.624
-623.385
-677.649
-724.577
-763.774
-795.793
-821.625
-842.337
-858.89
-872.077
-882.51
-890.645
-896.818
-901.264
-904.147
-905.564
-645.737
-707.386
-758.216
-798.426
-829.546
-853.448
-871.819
-886.002
-896.999
-905.524
-912.075
-916.993
-920.512
-922.782
-923.896
-676.537
-747.923
-802.453
-842.142
-870.495
-890.775
-905.461
-916.276
-924.369
-930.487
-935.11
-938.542
-940.982
-942.549
-943.317
-721.467
-805.294
-861.511
-897.17
-919.496
-933.671
-942.946
-949.246
-953.689
-956.92
-959.306
-961.057
-962.296
-963.091
-963.48
-792.95
-890.251
-941.102
-965.504
-976.622
-981.442
-983.378
-984.045
-984.197
-984.172
-984.109
-984.057
-984.026
-984.011
-984.006
-922.525
-1021.63
-1047.11
-1047.09
-1040.02
-1032.07
-1025.05
-1019.33
-1014.86
-1011.43
-1008.87
-1007.01
-1005.71
-1004.9
-1004.5
-1205.49
-1226.62
-1178.59
-1135.7
-1104.28
-1081.73
-1065.38
-1053.35
-1044.44
-1037.81
-1032.91
-1029.36
-1026.89
-1025.33
-1024.58
638.088
637.515
636.384
634.732
632.625
630.185
627.623
625.315
623.93
624.686
629.877
644.158
678.444
765.002
1028.46
652.729
652.203
651.163
649.637
647.68
645.393
642.961
640.725
639.319
639.932
644.834
658.389
688.932
750.718
852.414
667.72
667.233
666.264
664.826
662.949
660.686
658.148
655.545
653.29
652.185
653.765
660.81
677.706
708.701
747.201
683.035
682.583
681.675
680.306
678.469
676.156
673.364
670.108
666.447
662.559
658.885
656.375
656.674
661.453
668.94
698.65
698.234
697.391
696.095
694.304
691.942
688.888
684.937
679.747
672.767
663.18
649.973
632.517
612.309
596.094
714.539
714.167
713.405
712.213
710.518
708.193
705.021
700.611
694.273
684.771
669.973
646.508
610.254
560.378
512.205
730.671
730.355
729.701
728.663
727.152
725.018
721.996
717.61
710.98
700.435
682.768
651.911
597.435
507.249
395.083
747.007
746.762
746.249
745.424
744.202
742.442
739.902
736.152
730.389
721.029
704.707
673.699
609.402
469.372
200.29
763.499
763.338
762.998
762.443
761.608
760.391
758.632
756.074
752.279
746.442
736.829
718.588
673.948
521.1
-181.14
780.086
780.021
779.879
779.638
779.26
778.699
777.903
776.838
775.566
774.463
774.925
781.792
813.623
954.338
1648.54
796.702
796.741
796.813
796.91
797.022
797.154
797.343
797.731
798.717
801.379
808.555
827.641
877.667
1003.19
1262.01
813.276
813.421
813.711
814.151
814.753
815.55
816.629
818.19
820.685
825.144
833.896
851.985
889.266
959.44
1055.48
829.732
829.982
830.488
831.261
832.327
833.732
835.564
837.983
841.268
845.91
852.736
862.98
878.005
897.71
915.895
845.998
846.349
847.061
848.15
849.647
851.599
854.075
857.156
860.889
865.14
869.183
870.635
863.475
837.015
789.203
862.002
862.449
863.352
864.735
866.629
869.083
872.149
875.859
880.128
884.496
887.412
884.251
862.33
791.127
629.573
877.679
878.213
879.293
880.944
883.204
886.122
889.758
894.155
899.278
904.842
909.84
910.875
895.39
807.964
358.019
892.967
893.579
894.818
896.711
899.3
902.643
906.82
911.929
918.099
925.562
935
948.951
978.389
1076.53
1531.86
907.811
908.493
909.87
911.974
914.85
918.566
923.218
928.948
935.999
944.891
957.007
976.25
1013.66
1097.03
1264.59
922.165
922.904
924.399
926.68
929.796
933.818
938.848
945.032
952.596
961.961
974.043
990.914
1016.98
1059.05
1113.97
935.986
936.773
938.362
940.784
944.09
948.35
953.659
960.138
967.921
977.125
987.734
999.167
1009.18
1012.12
1001.78
949.242
950.065
951.725
954.254
957.701
962.133
967.639
974.318
982.235
991.292
1000.83
1008.39
1006.26
974.38
882.694
961.909
962.756
964.465
967.065
970.604
975.149
980.786
987.619
995.733
1005.1
1015.29
1024.3
1023.99
978.154
700.23
973.968
974.829
976.564
979.202
982.788
987.384
993.084
1000.01
1008.33
1018.32
1030.55
1046.66
1073.32
1143.08
1435.97
985.41
986.275
988.017
990.66
994.246
998.833
1004.51
1011.41
1019.76
1029.97
1043.08
1061.68
1092.71
1153.01
1264.5
996.233
997.092
998.821
1001.44
1004.99
1009.5
1015.07
1021.79
1029.85
1039.6
1051.78
1068.05
1091.74
1127.39
1170.74
1006.44
1007.29
1008.99
1011.56
1015.03
1019.42
1024.8
1031.22
1038.76
1047.5
1057.61
1069.24
1082.43
1096.38
1107.4
1016.04
1016.87
1018.53
1021.03
1024.4
1028.64
1033.79
1039.85
1046.79
1054.45
1062.36
1069.33
1072.59
1067.4
1052.02
1025.04
1025.85
1027.46
1029.88
1033.13
1037.21
1042.13
1047.86
1054.31
1061.19
1067.75
1071.96
1068.58
1045.46
986.263
1033.47
1034.25
1035.8
1038.14
1041.26
1045.18
1049.88
1055.34
1061.5
1068.14
1074.75
1079.84
1078.28
1048.54
879.707
1041.34
1042.08
1043.58
1045.83
1048.83
1052.57
1057.07
1062.32
1068.32
1075.09
1082.8
1092.3
1107.52
1148.21
1322.98
1048.66
1049.38
1050.82
1052.97
1055.84
1059.43
1063.73
1068.77
1074.59
1081.35
1089.58
1100.76
1119.06
1154.73
1221.17
1055.47
1056.16
1057.54
1059.6
1062.34
1065.76
1069.85
1074.64
1080.17
1086.58
1094.29
1104.25
1118.51
1139.87
1165.8
1061.78
1062.44
1063.76
1065.73
1068.34
1071.6
1075.48
1079.99
1085.12
1090.9
1097.4
1104.74
1113.01
1121.8
1128.77
1067.61
1068.24
1069.5
1071.39
1073.88
1076.97
1080.65
1084.87
1089.59
1094.69
1099.9
1104.56
1107.13
1104.97
1096.89
1072.97
1073.58
1074.79
1076.59
1078.98
1081.93
1085.41
1089.39
1093.78
1098.39
1102.77
1105.79
1104.53
1092.21
1059.71
1077.9
1078.48
1079.64
1081.38
1083.66
1086.48
1089.81
1093.6
1097.79
1102.22
1106.57
1109.97
1109.58
1093.46
1000.29
1082.4
1082.96
1084.08
1085.75
1087.95
1090.66
1093.86
1097.53
1101.61
1106.08
1110.99
1116.77
1125.54
1148.18
1244.66
1086.49
1087.03
1088.11
1089.73
1091.86
1094.48
1097.58
1101.13
1105.13
1109.61
1114.8
1121.46
1131.85
1151.61
1188.17
1090.17
1090.7
1091.76
1093.32
1095.39
1097.94
1100.95
1104.41
1108.29
1112.62
1117.55
1123.54
1131.63
1143.34
1157.38
1093.47
1093.99
1095.02
1096.55
1098.57
1101.06
1104
1107.37
1111.12
1115.19
1119.55
1124.15
1128.88
1133.42
1136.67
1096.39
1096.9
1097.91
1099.41
1101.4
1103.85
1106.74
1110.04
1113.68
1117.54
1121.37
1124.63
1126.23
1124.39
1118.55
1098.94
1099.44
1100.43
1101.91
1103.87
1106.3
1109.17
1112.45
1116.08
1119.89
1123.56
1126.25
1125.95
1118.1
1096.69
1101.12
1101.61
1102.59
1104.06
1106
1108.41
1111.29
1114.6
1118.32
1122.32
1126.4
1129.92
1130.88
1121.23
1060.28
1102.93
1103.42
1104.39
1105.84
1107.78
1110.19
1113.08
1116.46
1120.33
1124.69
1129.6
1135.33
1143.16
1159.95
1224.7
1104.39
1104.87
1105.83
1107.27
1109.2
1111.61
1114.52
1117.95
1121.96
1126.64
1132.22
1139.27
1149.2
1165.34
1191.59
1105.49
1105.97
1106.92
1108.34
1110.25
1112.65
1115.56
1119.02
1123.11
1127.94
1133.8
1141.18
1150.9
1163.67
1177.05
1106.24
1106.71
1107.64
1109.05
1110.94
1113.31
1116.2
1119.64
1123.71
1128.51
1134.29
1141.44
1150.48
1161.56
1172.13
1106.64
1107.1
1108.02
1109.41
1111.26
1113.6
1116.44
1119.81
1123.77
1128.38
1133.82
1140.36
1148.6
1159.79
1174.87
1106.7
1107.15
1108.05
1109.41
1111.22
1113.51
1116.28
1119.55
1123.34
1127.66
1132.55
1138.06
1144.66
1155.3
1188.43
1106.42
1106.86
1107.74
1109.06
1110.84
1113.06
1115.74
1118.9
1122.51
1126.53
1130.82
1135
1137.88
1135.17
1106.42
1105.81
1106.24
1107.1
1108.38
1110.11
1112.26
1114.86
1117.91
1121.37
1125.18
1129.15
1132.8
1134.97
1133.1
1123.7
1104.88
1105.3
1106.13
1107.38
1109.05
1111.14
1113.66
1116.6
1119.97
1123.7
1127.67
1131.61
1134.85
1136.22
1134.79
1103.64
1104.04
1104.85
1106.05
1107.67
1109.69
1112.12
1114.99
1118.28
1122.01
1126.2
1130.88
1136.01
1141.27
1145.25
1102.1
1102.48
1103.26
1104.42
1105.97
1107.92
1110.27
1113.05
1116.27
1119.99
1124.37
1129.8
1137.05
1147.17
1158.81
1100.26
1100.63
1101.37
1102.49
1103.98
1105.85
1108.11
1110.78
1113.88
1117.48
1121.8
1127.42
1136.07
1152.01
1180.81
1098.14
1098.5
1099.21
1100.27
1101.69
1103.48
1105.63
1108.18
1111.12
1114.46
1118.28
1122.92
1130.01
1147.9
1223.15
1095.76
1096.09
1096.76
1097.77
1099.12
1100.82
1102.87
1105.28
1108.04
1111.07
1114.18
1116.7
1116.42
1103.94
1031.4
1093.11
1093.43
1094.06
1095.01
1096.29
1097.89
1099.83
1102.12
1104.75
1107.61
1110.44
1112.41
1111.26
1101.67
1076.36
1090.22
1090.52
1091.11
1092
1093.19
1094.69
1096.52
1098.71
1101.26
1104.15
1107.29
1110.25
1111.95
1110.27
1104.1
1087.1
1087.38
1087.93
1088.75
1089.85
1091.24
1092.95
1095.01
1097.49
1100.5
1104.23
1108.95
1114.94
1121.98
1127.94
1083.77
1084.02
1084.52
1085.27
1086.28
1087.55
1089.1
1091
1093.33
1096.32
1100.45
1106.74
1117.18
1134.41
1156.3
1080.23
1080.46
1080.92
1081.59
1082.5
1083.62
1085
1086.65
1088.69
1091.32
1095.13
1101.62
1114.69
1143.58
1200.23
1076.51
1076.72
1077.13
1077.73
1078.52
1079.5
1080.66
1082.02
1083.6
1085.48
1087.93
1091.91
1101.19
1133.44
1283.89
1072.63
1072.81
1073.17
1073.7
1074.39
1075.22
1076.17
1077.21
1078.27
1079.2
1079.64
1078.49
1071.7
1041.2
891.224
1068.58
1068.75
1069.07
1069.54
1070.13
1070.83
1071.59
1072.36
1073
1073.24
1072.43
1068.96
1058.66
1031.89
976.009
1064.4
1064.55
1064.84
1065.25
1065.77
1066.36
1066.98
1067.56
1067.98
1067.98
1067.05
1064.12
1057.04
1042.75
1022.4
1060.09
1060.22
1060.49
1060.87
1061.33
1061.84
1062.37
1062.85
1063.21
1063.33
1063.04
1062.14
1060.39
1057.79
1055.09
1055.65
1055.78
1056.03
1056.39
1056.81
1057.28
1057.76
1058.2
1058.59
1058.92
1059.42
1060.7
1064.32
1072.87
1086.31
1051.1
1051.23
1051.47
1051.82
1052.24
1052.69
1053.15
1053.57
1053.96
1054.38
1055.22
1057.62
1064.79
1084.54
1127.28
1046.43
1046.56
1046.82
1047.18
1047.61
1048.07
1048.52
1048.93
1049.26
1049.52
1049.9
1051.19
1056.5
1080.2
1198.37
1041.63
1041.78
1042.06
1042.45
1042.91
1043.42
1043.91
1044.32
1044.58
1044.54
1043.93
1041.92
1035.42
1010.22
890.507
1036.71
1036.88
1037.19
1037.63
1038.16
1038.74
1039.31
1039.79
1040.07
1039.93
1038.9
1035.75
1027.27
1005.86
961.401
1031.65
1031.84
1032.2
1032.72
1033.35
1034.04
1034.74
1035.37
1035.82
1035.91
1035.3
1033.23
1028.09
1017.45
1001.88
1026.42
1026.64
1027.08
1027.7
1028.46
1029.31
1030.19
1031.04
1031.79
1032.35
1032.69
1032.81
1032.7
1032.43
1032
1021.01
1021.27
1021.79
1022.54
1023.46
1024.51
1025.63
1026.75
1027.84
1028.9
1030.21
1032.49
1037.39
1047.5
1062.29
1015.38
1015.7
1016.32
1017.22
1018.35
1019.64
1021.04
1022.46
1023.86
1025.26
1027.03
1030.33
1038.44
1059.28
1103.3
1009.5
1009.88
1010.63
1011.71
1013.08
1014.67
1016.4
1018.16
1019.83
1021.33
1022.74
1024.78
1030.61
1054.92
1175.37
1003.33
1003.78
1004.66
1005.96
1007.62
1009.56
1011.7
1013.88
1015.89
1017.42
1017.99
1016.57
1009.92
983.761
861.215
996.809
997.338
998.386
999.928
1001.92
1004.29
1006.94
1009.69
1012.25
1014.15
1014.58
1011.94
1002.76
979.493
932.795
989.892
990.507
991.731
993.546
995.921
998.799
1002.08
1005.59
1009.03
1011.86
1013.26
1011.81
1005.33
991.455
972.449
982.518
983.223
984.631
986.74
989.536
992.988
997.027
1001.51
1006.18
1010.54
1013.89
1015.13
1013.01
1006.93
999.412
974.624
975.417
977.01
979.419
982.658
986.735
991.633
997.278
1003.49
1009.9
1015.93
1020.75
1023.39
1023.37
1021.66
966.149
967.023
968.79
971.486
975.161
979.876
985.687
992.62
1000.62
1009.48
1018.79
1027.83
1035.58
1040.95
1043.23
957.036
957.978
959.891
962.836
966.905
972.22
978.929
987.187
997.11
1008.71
1021.79
1035.77
1049.38
1060.62
1066.9
947.239
948.226
950.24
953.369
957.747
963.561
971.064
980.564
992.397
1006.87
1024.15
1043.91
1064.8
1083.71
1095.42
936.726
937.728
939.783
943
947.553
953.694
961.781
972.286
985.808
1003.05
1024.74
1051.22
1081.56
1111.75
1132.6
925.487
926.467
928.485
931.667
936.218
942.442
950.786
961.881
976.595
996.107
1021.96
1055.8
1098.37
1146.24
1184.75
913.538
914.453
916.346
919.349
923.683
929.683
937.851
948.93
964.009
984.726
1013.59
1054.29
1111.47
1187.18
1264.17
900.923
901.729
903.402
906.072
909.954
915.383
922.866
933.168
947.466
967.65
996.972
1041.3
1111.66
1227.18
1397.55
887.718
888.372
889.733
891.917
895.116
899.625
905.892
914.599
926.794
944.193
969.897
1010.18
1080.45
1229.03
1649.74
-1992.71
-1477.9
-1294.38
-1206.38
-1155.02
-1121.55
-1098.35
-1081.67
-1069.43
-1060.37
-1053.68
-1048.82
-1045.44
-1043.3
-1042.26
-1685.45
-1476.23
-1333.29
-1245.16
-1188.71
-1150.6
-1123.77
-1104.3
-1089.92
-1079.21
-1071.27
-1065.47
-1061.42
-1058.85
-1057.6
-1523.8
-1428.52
-1334.11
-1261.9
-1209.63
-1171.81
-1144.05
-1123.38
-1107.84
-1096.12
-1087.34
-1080.88
-1076.35
-1073.46
-1072.06
-1428.63
-1380.17
-1319.49
-1264.78
-1220.51
-1186
-1159.38
-1138.88
-1123.08
-1110.97
-1101.77
-1094.94
-1090.11
-1087.03
-1085.52
-1367.44
-1340.27
-1300.71
-1260.39
-1224.57
-1194.68
-1170.44
-1151.08
-1135.76
-1123.77
-1114.53
-1107.59
-1102.65
-1099.47
-1097.91
-1325.43
-1308.94
-1282.42
-1252.84
-1224.51
-1199.41
-1178.1
-1160.45
-1146.1
-1134.64
-1125.66
-1118.84
-1113.94
-1110.77
-1109.21
-1295.2
-1284.56
-1266.24
-1244.39
-1222.18
-1201.49
-1183.18
-1167.5
-1154.42
-1143.75
-1135.26
-1128.74
-1124
-1120.92
-1119.4
-1272.68
-1265.5
-1252.48
-1236.17
-1218.78
-1201.89
-1186.4
-1172.73
-1161.05
-1151.33
-1143.48
-1137.37
-1132.9
-1129.97
-1128.52
-1255.47
-1250.45
-1240.99
-1228.66
-1215.02
-1201.3
-1188.32
-1176.57
-1166.3
-1157.6
-1150.46
-1144.85
-1140.7
-1137.96
-1136.61
-1242.06
-1238.48
-1231.46
-1222.04
-1211.29
-1200.17
-1189.37
-1179.36
-1170.43
-1162.75
-1156.36
-1151.28
-1147.49
-1144.98
-1143.74
-1231.46
-1228.86
-1223.59
-1216.31
-1207.81
-1198.79
-1189.83
-1181.37
-1173.69
-1166.97
-1161.32
-1156.79
-1153.38
-1151.11
-1149.97
-1222.98
-1221.09
-1217.08
-1211.42
-1204.65
-1197.34
-1189.93
-1182.81
-1176.25
-1170.44
-1165.49
-1161.48
-1158.45
-1156.42
-1155.41
-1216.14
-1214.76
-1211.69
-1207.26
-1201.86
-1195.92
-1189.81
-1183.85
-1178.27
-1173.28
-1168.99
-1165.48
-1162.81
-1161.01
-1160.11
-1210.58
-1209.59
-1207.23
-1203.74
-1199.42
-1194.6
-1189.57
-1184.58
-1179.88
-1175.61
-1171.91
-1168.87
-1166.54
-1164.96
-1164.17
-1206.04
-1205.34
-1203.53
-1200.78
-1197.32
-1193.4
-1189.26
-1185.11
-1181.15
-1177.53
-1174.36
-1171.73
-1169.71
-1168.35
-1167.65
-1202.31
-1201.83
-1200.45
-1198.28
-1195.51
-1192.33
-1188.93
-1185.48
-1182.16
-1179.1
-1176.41
-1174.16
-1172.42
-1171.24
-1170.64
-1199.24
-1198.94
-1197.89
-1196.19
-1193.97
-1191.39
-1188.6
-1185.75
-1182.97
-1180.4
-1178.12
-1176.2
-1174.71
-1173.7
-1173.18
-1196.69
-1196.53
-1195.75
-1194.43
-1192.66
-1190.57
-1188.29
-1185.94
-1183.63
-1181.47
-1179.55
-1177.92
-1176.66
-1175.79
-1175.35
-1194.59
-1194.54
-1193.97
-1192.95
-1191.55
-1189.87
-1188.01
-1186.07
-1184.16
-1182.36
-1180.74
-1179.38
-1178.3
-1177.57
-1177.2
-1192.84
-1192.88
-1192.49
-1191.71
-1190.61
-1189.26
-1187.75
-1186.17
-1184.59
-1183.09
-1181.74
-1180.6
-1179.69
-1179.07
-1178.76
-1191.39
-1191.5
-1191.25
-1190.67
-1189.81
-1188.74
-1187.53
-1186.23
-1184.93
-1183.7
-1182.58
-1181.62
-1180.86
-1180.34
-1180.08
-1190.18
-1190.36
-1190.22
-1189.8
-1189.14
-1188.3
-1187.33
-1186.28
-1185.22
-1184.2
-1183.28
-1182.48
-1181.85
-1181.41
-1181.19
-1189.18
-1189.4
-1189.36
-1189.07
-1188.58
-1187.93
-1187.16
-1186.31
-1185.45
-1184.62
-1183.86
-1183.2
-1182.68
-1182.31
-1182.13
-1188.34
-1188.61
-1188.64
-1188.47
-1188.11
-1187.61
-1187.01
-1186.34
-1185.64
-1184.97
-1184.34
-1183.8
-1183.37
-1183.07
-1182.91
-1187.65
-1187.95
-1188.05
-1187.96
-1187.72
-1187.35
-1186.89
-1186.35
-1185.8
-1185.25
-1184.75
-1184.3
-1183.95
-1183.7
-1183.57
-1187.08
-1187.4
-1187.55
-1187.54
-1187.39
-1187.13
-1186.78
-1186.37
-1185.93
-1185.49
-1185.08
-1184.72
-1184.43
-1184.23
-1184.12
-1186.61
-1186.95
-1187.15
-1187.2
-1187.12
-1186.95
-1186.69
-1186.38
-1186.03
-1185.69
-1185.36
-1185.07
-1184.83
-1184.66
-1184.57
-1186.23
-1186.59
-1186.81
-1186.91
-1186.9
-1186.8
-1186.62
-1186.38
-1186.12
-1185.84
-1185.58
-1185.35
-1185.15
-1185.02
-1184.95
-1185.92
-1186.29
-1186.54
-1186.68
-1186.72
-1186.67
-1186.56
-1186.39
-1186.18
-1185.97