/*--------------------------------*- C++ -*----------------------------------*\
| =========                 |                                                 |
| \\      /  F ield         | OpenFOAM: The Open Source CFD Toolbox           |
|  \\    /   O peration     | Version:  5.x                                   |
|   \\  /    A nd           | Web:      www.OpenFOAM.org                      |
|    \\/     M anipulation  |                                                 |
\*---------------------------------------------------------------------------*/
FoamFile
{
    version     2.0;
    format      ascii;
    class       volScalarField;
    location    "14.8";
    object      gradTy;
}
// * * * * * * * * * * * * * * * * * * * * * * * * * * * * * * * * * * * * * //

dimensions      [0 -1 0 1 0 0 0];

internalField   nonuniform List<scalar> 
6300
(
1010.27
1030.78
1051.2
1071.46
1091.5
1111.27
1130.7
1149.74
1168.31
1186.37
1203.86
1220.73
1236.93
1252.43
1267.21
0.0456718
0.137011
0.228313
0.319495
0.410385
0.500667
0.589838
0.67714
0.761514
0.841553
0.915495
0.981262
1.03657
1.07913
1.10688
0.0761246
0.228381
0.380639
0.532803
0.684632
0.835664
0.985118
1.1318
1.27398
1.40934
1.53488
1.64701
1.74173
1.81492
1.86287
0.106567
0.319748
0.533046
0.746423
0.959649
1.1722
1.38313
1.59091
1.79323
1.98688
2.16761
2.33013
2.46836
2.57592
2.64686
0.136953
0.410986
0.685357
0.960167
1.23531
1.51033
1.78426
2.05542
2.3211
2.5773
2.81848
3.03747
3.22561
3.37347
3.47198
0.16721
0.501867
0.8372
1.17354
1.51104
1.84947
2.1881
2.52534
2.85836
3.18265
3.49147
3.77553
4.02301
4.22023
4.35344
0.197227
0.592058
0.988003
1.38573
1.78577
2.18836
2.59327
2.9994
3.40427
3.80335
4.18909
4.55007
4.87052
5.13084
5.30996
0.226857
0.681109
1.13698
1.59556
2.05788
2.52487
2.99713
3.47459
3.95586
4.43725
4.91129
5.36495
5.77796
6.12241
6.36548
0.255938
0.768513
1.28322
1.80158
2.32525
2.85601
3.39568
3.94584
4.50719
5.07833
5.65368
6.22024
6.75368
7.21506
7.55234
0.28431
0.853759
1.42576
2.00223
2.58545
3.17814
3.78362
4.40576
5.04855
5.715
6.40459
7.10837
7.80113
8.43148
8.91639
0.311844
0.936425
1.56378
2.19609
2.83608
3.48736
4.15478
4.84486
5.56604
6.32828
7.141
8.00721
8.91066
9.79299
10.5257
0.338475
1.01629
1.69679
2.38217
3.07533
3.78032
4.50312
5.25267
6.04223
6.8908
7.8236
8.86846
10.041
11.3038
12.4832
0.364233
1.09342
1.82486
2.56041
3.30263
4.05532
4.82453
5.62024
6.45912
7.36879
8.39381
9.60171
11.0805
12.8977
14.9314
0.38926
1.16826
1.94874
2.7319
3.51935
4.31365
5.11925
5.94442
6.80494
7.73109
8.7808
10.0637
11.7814
14.2745
17.936
0.413796
1.24158
2.06989
2.899
3.72911
4.56052
5.39418
6.23298
7.08482
7.96951
8.93431
10.0904
11.7066
14.482
20.4938
1280.06
1291.21
1301.85
1311.96
1321.56
1330.67
1339.32
1347.51
1355.29
1362.69
1369.73
1376.45
1382.88
1389.07
1395.04
1400.84
1406.49
1412.03
1417.49
1422.91
1428.32
1433.74
1439.2
1444.74
1450.36
1456.1
1461.96
1467.97
1474.13
1480.44
1486.92
1493.56
1500.36
1507.31
1514.41
1521.64
1528.98
1536.44
1543.97
1551.58
1559.22
1566.89
1574.55
1582.18
1589.74
1597.21
1604.55
1611.75
1618.78
1625.61
1632.21
1638.56
1644.64
1650.41
1655.85
1660.92
1665.59
1669.82
1673.59
1676.84
1679.54
1681.64
1683.11
1683.9
1683.95
1683.22
1681.65
1679.17
1675.72
1671.22
1665.59
1658.75
1650.59
1641.02
1629.94
1617.24
1602.82
1586.55
1568.32
1548.02
1525.53
1500.73
1473.52
1443.79
1411.46
1376.44
1338.69
1298.17
1254.86
1208.78
1.11734
1.11501
1.10083
1.07519
1.03888
0.992987
0.938801
0.877713
0.811121
0.740356
0.666629
0.59101
0.514416
0.43762
0.361269
0.285916
0.212046
0.14011
0.070555
0.00385191
-0.0594851
-0.118885
-0.173721
-0.22332
-0.266999
-0.304106
-0.334084
-0.356537
-0.371291
-0.378433
-0.378309
-0.37147
-0.358575
-0.340252
-0.316979
-0.288994
-0.256294
-0.218711
-0.176063
-0.128326
-0.0758029
-0.0192072
0.040346
0.101473
0.162746
0.222953
0.281327
0.337691
0.392474
0.446618
0.501391
0.558144
0.618081
0.68206
0.750489
0.823322
0.900178
0.980529
1.06394
1.15028
1.23987
1.33352
1.43249
1.53836
1.65284
1.7776
1.91402
2.06312
2.22541
2.40091
2.58919
2.78953
3.00102
3.22265
3.45337
3.69202
3.93721
4.18712
4.43928
4.69036
4.93603
5.17089
5.38852
5.58173
5.74291
5.86455
5.93984
5.9633
5.93133
5.84264
1.88111
1.87729
1.85303
1.80905
1.74681
1.66827
1.57575
1.47172
1.35861
1.23874
1.11415
0.986661
0.857769
0.728738
0.600605
0.474241
0.350404
0.229796
0.11312
0.00112771
-0.105344
-0.205345
-0.297807
-0.381562
-0.455395
-0.518124
-0.568715
-0.606411
-0.630862
-0.642215
-0.64113
-0.628689
-0.606196
-0.574902
-0.535729
-0.489086
-0.434843
-0.372487
-0.301429
-0.22138
-0.132697
-0.0365963
0.0648574
0.169004
0.27305
0.374609
0.472184
0.565442
0.655253
0.743486
0.832627
0.925308
1.02384
1.12982
1.24393
1.36592
1.49484
1.62943
1.76865
1.91204
2.06006
2.21413
2.37657
2.55028
2.73846
2.94415
3.16993
3.41761
3.68805
3.9812
4.29616
4.63153
4.9856
5.35667
5.74305
6.14305
6.55463
6.97511
7.40071
7.82612
8.24422
8.64588
9.02008
9.35422
9.63483
9.84842
9.98265
10.0275
9.97627
9.82656
2.67416
2.66891
2.6335
2.56914
2.47813
2.36362
2.22923
2.07873
1.91582
1.74387
1.56586
1.38432
1.20133
1.01857
0.837407
0.658944
0.48413
0.313843
0.148969
-0.00951673
-0.160489
-0.302626
-0.434391
-0.55405
-0.659737
-0.749578
-0.821869
-0.875312
-0.909247
-0.923861
-0.920257
-0.900336
-0.866446
-0.820855
-0.765196
-0.700084
-0.625036
-0.538757
-0.439708
-0.326833
-0.200241
-0.0616603
0.085522
0.236708
0.386957
0.532027
0.669276
0.798172
0.92032
1.03906
1.15878
1.28407
1.41888
1.56589
1.72604
1.89855
2.08133
2.2717
2.46737
2.66715
2.87153
3.08271
3.30441
3.54139
3.79885
4.08177
4.39431
4.7393
5.11801
5.53006
5.97375
6.44655
6.94568
7.46859
8.01311
8.57735
9.15919
9.75569
10.3624
10.9724
11.576
12.1603
12.7092
13.2037
13.6232
13.9465
14.1541
14.2298
14.1629
13.9492
3.51051
3.50396
3.45568
3.3676
3.24331
3.08762
2.90591
2.70367
2.4861
2.25781
2.02275
1.78418
1.54467
1.30625
1.07047
0.838548
0.611505
0.390268
0.1758
-0.0307919
-0.228161
-0.41464
-0.588199
-0.746442
-0.886676
-1.00607
-1.10193
-1.17206
-1.21521
-1.2315
-1.22263
-1.19185
-1.1433
-1.08105
-1.00803
-0.92514
-0.831155
-0.723167
-0.597651
-0.45179
-0.2848
-0.0988618
0.10067
0.306011
0.50857
0.700951
0.878639
1.04086
1.19053
1.33347
1.47716
1.62934
1.79662
1.98329
2.1906
2.41666
2.65712
2.9066
3.16039
3.41589
3.67344
3.93636
4.21047
4.50324
4.82282
5.17698
5.57216
6.01267
6.50016
7.03357
7.60962
8.22385
8.87171
9.54955
10.2549
10.9864
11.7428
12.5218
13.3193
14.1278
14.9356
15.7259
16.4768
17.1614
17.7499
18.2111
18.5153
18.6376
18.5609
18.2784
4.40659
4.3989
4.33502
4.21802
4.05354
3.84887
3.61194
3.3505
3.0716
2.7813
2.48454
2.18522
1.88632
1.59
1.29785
1.01103
0.730424
0.456859
0.191212
-0.0654182
-0.311575
-0.545314
-0.764111
-0.964807
-1.14366
-1.29649
-1.41908
-1.50769
-1.55989
-1.57536
-1.5566
-1.50898
-1.43989
-1.35682
-1.26509
-1.16622
-1.05748
-0.932874
-0.78495
-0.607244
-0.396723
-0.155721
0.107363
0.379224
0.644734
0.890923
1.11015
1.30149
1.4703
1.62664
1.78315
1.95272
2.14627
2.37081
2.62801
2.91386
3.21975
3.53511
3.85075
4.16149
4.46743
4.77369
5.08942
5.42626
5.79676
6.21288
6.68451
7.21815
7.81594
8.4754
9.19027
9.95243
10.7543
11.5905
12.4589
13.3594
14.2933
15.2609
16.26
17.284
18.3201
19.348
20.3391
21.2571
22.0596
22.7013
23.1381
23.3316
23.2548
22.8964
5.38315
5.37455
5.29064
5.13657
4.92141
4.65636
4.35301
4.02219
3.67324
3.31378
2.94972
2.58542
2.22399
1.86752
1.51735
1.17434
0.839019
0.511871
0.193475
-0.115282
-0.413013
-0.697641
-0.96621
-1.21475
-1.4382
-1.63056
-1.78523
-1.89585
-1.95754
-1.96861
-1.93221
-1.85713
-1.75671
-1.64514
-1.53256
-1.4216
-1.30678
-1.17628
-1.01527
-0.810102
-0.552704
-0.244555
0.101225
0.46138
0.808509
1.11949
1.3816
1.59433
1.76776
1.91931
2.07006
2.24125
2.45098
2.71097
3.02386
3.38188
3.7684
4.16288
4.5478
4.91367
5.26056
5.59702
5.93761
6.30039
6.70457
7.1684
7.70712
8.33081
9.04244
9.83696
10.7023
11.6234
12.5867
13.5847
14.6159
15.6839
16.7947
17.9539
19.1641
20.422
21.7157
23.0222
24.306
25.5183
26.6001
27.4859
28.1101
28.4139
28.3535
27.909
6.4676
6.45832
6.34698
6.14276
5.86083
5.51869
5.13336
4.7197
4.28972
3.8526
3.41491
2.98117
2.55421
2.13566
1.7263
1.32631
0.935613
0.554057
0.181647
-0.181219
-0.533505
-0.873262
-1.19732
-1.50096
-1.77767
-2.01904
-2.21496
-2.35458
-2.42821
-2.43035
-2.36363
-2.24191
-2.08971
-1.93506
-1.79784
-1.68271
-1.57883
-1.46376
-1.30935
-1.08835
-0.781975
-0.387805
0.0741374
0.562026
1.02406
1.41813
1.72385
1.94344
2.09643
2.21283
2.32719
2.47395
2.68296
2.97459
3.35431
3.80847
4.30516
4.80399
5.27186
5.69271
6.06828
6.41393
6.75338
7.11445
7.52601
8.01559
8.60686
9.31627
10.1491
11.0959
12.1337
13.2327
14.3688
15.5305
16.7193
17.946
19.2255
20.5728
21.9989
23.5078
25.092
26.7285
28.3747
29.9666
31.4218
32.6463
33.5428
34.0197
34.0043
33.4595
7.69879
7.68876
7.53675
7.26057
6.88671
6.44305
5.95441
5.44064
4.91648
4.3922
3.87444
3.36715
2.87233
2.39063
1.92177
1.46496
1.01913
0.583166
0.156186
-0.262265
-0.671901
-1.07134
-1.45764
-1.82576
-2.16786
-2.47275
-2.72553
-2.90815
-3.00161
-2.99104
-2.87403
-2.67038
-2.42604
-2.19969
-2.03111
-1.92745
-1.86678
-1.80771
-1.69912
-1.48936
-1.13748
-0.628486
0.0098299
0.700028
1.33757
1.84412
2.19019
2.38854
2.47791
2.50939
2.53783
2.61715
2.79607
3.11146
3.57767
4.17386
4.83893
5.48971
6.06368
6.537
6.91913
7.2398
7.53807
7.85587
8.23515
8.71638
9.33649
10.1241
11.0914
12.2239
13.4768
14.7886
16.1137
17.437
18.7681
20.132
21.5587
23.0778
24.7143
26.4848
28.3926
30.4205
32.5213
34.6116
36.5753
38.2785
39.5791
40.334
40.4172
39.7531
9.13581
9.12337
8.90512
8.51885
8.0129
7.43205
6.81156
6.17654
5.54353
4.92256
4.31907
3.73539
3.17182
2.62734
2.10018
1.58811
1.08873
0.599678
0.118794
-0.355635
-0.824594
-1.28793
-1.74375
-2.18758
-2.61119
-3.00104
-3.33668
-3.58962
-3.72432
-3.70451
-3.50872
-3.15699
-2.73601
-2.38066
-2.17041
-2.10984
-2.15196
-2.22252
-2.23412
-2.09453
-1.71875
-1.05493
-0.128746
0.914287
1.84012
2.50159
2.86969
2.99092
2.94317
2.81072
2.67565
2.61741
2.71313
3.03162
3.61432
4.44053
5.39369
6.28646
7.00085
7.51302
7.85887
8.09834
8.29505
8.50921
8.79791
9.21763
9.82533
10.6737
11.7961
13.1789
14.7356
16.3254
17.8619
19.3323
20.7702
22.2277
23.759
25.4141
27.2369
29.2641
31.5205
34.0075
36.683
39.4391
42.1037
44.4905
46.4013
47.6156
47.906
47.1034
10.8777
10.8541
10.5152
9.94923
9.24672
8.47777
7.68918
6.90908
6.15276
5.42728
4.73474
4.07428
3.44342
2.83877
2.25652
1.69266
1.14318
0.604157
0.0718567
-0.457113
-0.985597
-1.51553
-2.04729
-2.5787
-3.10326
-3.6075
-4.06704
-4.44143
-4.66965
-4.67147
-4.36808
-3.74343
-2.95159
-2.35281
-2.09431
-2.1445
-2.39635
-2.72241
-2.98701
-3.04004
-2.71502
-1.85944
-0.435845
1.29702
2.723
3.58121
3.9043
3.83629
3.52999
3.11538
2.70236
2.39553
2.30895
2.57085
3.29985
4.5239
6.03493
7.33954
8.2287
8.72798
8.95124
9.01787
9.02625
9.05459
9.17136
9.44756
9.96695
10.8281
12.125
13.883
15.946
17.9381
19.7045
21.2736
22.7431
24.2161
25.7801
27.508
29.4643
31.7124
34.3152
37.3221
40.7273
44.3969
48.0311
51.3866
54.225
56.2264
56.9674
56.032
13.1141
13.0382
12.452
11.5757
10.5758
9.55147
8.5543
7.60712
6.71731
5.88435
5.10398
4.37035
3.6771
3.01781
2.38625
1.77641
1.1825
0.598891
0.0200864
-0.559303
-1.14451
-1.74045
-2.3513
-2.97959
-3.62448
-4.27825
-4.91986
-5.50359
-5.94085
-6.07778
-5.6899
-4.57048
-2.88907
-1.83489
-1.57369
-1.88872
-2.5338
-3.31072
-4.04446
-4.52985
-4.4752
-3.48182
-1.18828
2.12159
4.42334
5.4312
5.50191
5.02461
4.27267
3.41761
2.57606
1.85638
1.40287
1.43736
2.27241
4.19387
6.9732
8.9906
10.0177
10.3401
10.2689
10.021
9.72844
9.47236
9.31497
9.32705
9.61612
10.3549
11.7895
14.1473
17.2583
19.8752
21.8308
23.3578
24.7106
26.0727
27.5649
29.2723
31.2708
33.649
36.5274
40.0623
44.39
49.4048
54.359
59.026
63.2532
66.6508
68.4417
67.535
16.2851
15.9563
14.8058
13.3797
11.9393
10.5857
9.34712
8.22235
7.19986
6.26559
5.40586
4.60828
3.86188
3.15695
2.48476
1.83731
1.20709
0.586846
-0.0306788
-0.652927
-1.28777
-1.94369
-2.62992
-3.35631
-4.13262
-4.96616
-5.85568
-6.7763
-7.64409
-8.23938
-8.06476
-6.20643
-1.92306
-0.174864
-0.223061
-1.15747
-2.48115
-3.9609
-5.45921
-6.79693
-7.58678
-6.97609
-3.40396
4.398
7.9869
8.6307
7.88863
6.60841
5.16391
3.70048
2.27444
0.934163
-0.205679
-0.848717
-0.319215
2.62866
9.00871
12.0677
12.8213
12.5189
11.8409
11.0886
10.3781
9.74811
9.21462
8.80776
8.61781
8.87978
10.1248
13.327
19.2821
22.7646
24.5739
25.6925
26.6643
27.7419
29.0393
30.6171
32.5301
34.8651
37.794
41.6606
47.0625
54.4994
61.0999
67.2978
73.4748
79.3882
83.7993
83.9103
21.701
20.0573
17.5558
15.2039
13.1775
11.4539
9.97555
8.6898
7.55493
6.53909
5.61787
4.77216
3.98666
3.24868
2.54739
1.87318
1.21714
0.570714
-0.0747831
-0.728534
-1.40075
-2.10334
-2.85073
-3.66117
-4.55832
-5.57337
-6.74664
-8.12493
-9.73959
-11.5094
-12.864
-11.3343
2.69351
4.07185
2.40358
0.134275
-2.2038
-4.58436
-7.10516
-9.85286
-12.715
-14.7347
-11.7107
12.7409
15.791
13.8254
11.0499
8.42837
6.08202
3.92919
1.84904
-0.276905
-2.5298
-4.8234
-6.39347
-3.87915
15.826
18.4641
17.1451
15.2379
13.5195
12.0953
10.9113
9.88442
8.93148
7.97572
6.96833
5.98874
5.64102
8.54222
24.8658
28.0625
28.3108
28.238
28.4647
29.0938
30.1091
31.4784
33.1808
35.2249
37.7092
41.047
46.8034
60.797
68.419
75.5981
84.0744
94.2868
105.347
111.977
34.4117
25.3927
20.09
16.5585
13.9792
11.9684
10.3264
8.93975
7.73839
6.6762
5.72102
4.84928
4.04294
3.28756
2.57106
1.8829
1.21343
0.553325
-0.106886
-0.777403
-1.46985
-2.19826
-2.98054
-3.84089
-4.81395
-5.95242
-7.34196
-9.13273
-11.6111
-15.3769
-21.8159
-34.459
25.5254
12.7057
5.89571
1.52516
-1.86507
-5.00556
-8.42395
-12.7435
-19.0556
-29.7559
-50.8722
51.9014
30.8173
20.1858
13.9892
9.85192
6.72144
4.0533
1.48972
-1.30495
-4.79503
-9.83957
-18.3488
-35.1415
47.2198
30.558
22.3156
17.6848
14.7742
12.7561
11.2181
9.91425
8.65242
7.21807
5.27892
2.18796
-3.52097
-15.5708
49.3519
37.6057
32.5094
30.3518
29.6852
29.8892
30.6687
31.8598
33.3388
34.9506
36.395
36.9497
34.6823
76.2689
76.3748
82.029
92.1725
107.963
133.274
178.001
1155.1
1092.72
1026.68
957.21
884.54
808.944
730.706
650.122
567.486
483.092
397.227
310.172
222.2
133.578
44.5691
5.68398
5.4365
5.12485
4.76191
4.36153
3.93701
3.49999
3.05978
2.6232
2.19457
1.77607
1.36809
0.969612
0.578598
0.192325
9.55586
9.13202
8.59834
7.97811
7.29608
6.57564
5.83691
5.09569
4.36321
3.64639
2.94846
2.2696
1.60772
0.959058
0.318737
13.5562
12.9373
12.1583
11.2561
10.269
9.23255
8.17632
7.12286
6.08755
5.07933
4.10174
3.15411
2.23259
1.33115
0.44229
17.7465
16.9026
15.8414
14.6188
13.2912
11.9091
10.5129
9.13187
7.78481
6.48162
5.22505
4.01245
2.83734
1.69063
0.561551
22.2001
21.0849
19.6855
18.086
16.3677
14.5996
12.8342
11.1068
9.43816
7.83729
6.30436
4.83328
3.41367
2.03244
0.674827
27.0086
25.5506
23.7292
21.6715
19.4934
17.2871
15.117
13.0227
11.0236
9.12497
7.32182
5.6026
3.9516
2.35063
0.780133
32.2922
30.3788
28.0087
25.3767
22.6469
19.9378
17.3236
14.8428
12.5083
10.317
8.25529
6.30367
4.43947
2.63833
0.875209
38.2155
35.6632
32.55
29.1792
25.7792
22.4934
19.3966
16.5159
13.8496
11.3792
9.0785
6.91728
4.86423
2.88799
0.957585
45.0136
41.5086
37.3486
33.0108
28.7973
24.8601
21.2532
17.9746
14.9944
12.2715
9.76206
7.42263
5.21213
3.09179
1.02472
53.0355
48.0075
42.324
36.7172
31.538
26.8961
22.7815
19.1345
15.8815
12.9503
10.2754
7.79892
5.46982
3.24229
1.07423
62.8152
55.1609
47.2216
39.9954
33.7403
28.4042
23.8416
19.9
16.4465
13.3725
10.5901
8.02773
5.62588
3.33327
1.10415
75.0999
62.5988
51.4054
42.302
35.0233
29.1382
24.2803
20.1769
16.6318
13.5028
10.6845
8.09594
5.67261
3.36071
1.11321
90.2728
68.7275
53.4985
42.7828
34.912
28.8448
23.964
19.8951
16.4006
13.3222
10.549
7.99881
5.60782
3.32371
1.10119
103.312
68.538
51.0776
40.4178
32.9962
27.3646
22.8355
19.0384
15.7529
12.8363
10.1903
7.74237
5.43609
3.22507
1.06903
0.436108
1.30827
2.18015
3.05113
3.91995
4.7844
5.64102
6.48517
7.31165
8.11755
8.90974
9.72406
10.6721
12.0559
14.6482
0.456417
1.36907
2.28097
3.19092
4.09653
4.99343
5.87419
6.7266
7.53136
8.25856
8.86237
9.26952
9.34012
8.69213
5.85637
0.476844
1.43036
2.3831
3.33366
4.27905
5.21355
6.12686
7.00092
7.8047
8.48508
8.95139
9.04839
8.5068
6.84739
3.22883
0.497382
1.49216
2.4867
3.47991
4.46902
5.44825
6.40659
7.32384
8.16351
8.86005
9.29665
9.27043
8.44964
6.36285
2.57285
0.517903
1.55408
2.59116
3.62894
4.66575
5.69732
6.71468
7.70044
8.62152
9.41528
9.963
10.044
9.27146
7.06093
2.85826
0.538153
1.61535
2.69509
3.77855
4.866
5.95608
7.04453
8.12174
9.16777
10.1411
10.9531
11.4101
11.0916
9.14226
4.19487
0.55777
1.67482
2.79638
3.92532
5.06432
6.21582
7.38195
8.56447
9.7643
10.9788
12.1894
13.3145
14.0439
13.3053
7.92191
0.576324
1.73113
2.89249
4.06501
5.25384
6.46523
7.70776
8.99491
10.3504
11.8189
13.4845
15.4934
18.0152
20.6937
18.9129
0.593364
1.78285
2.98078
4.19329
5.42758
6.69285
8.00234
9.37759
10.8579
12.5219
14.5408
17.3158
21.8772
31.1781
54.9346
0.60847
1.82868
3.05887
4.30636
5.57968
6.88959
8.25103
9.68706
11.2374
12.9782
15.0715
17.8973
22.4472
31.6232
55.111
0.621291
1.86752
3.12487
4.4014
5.70625
7.05039
8.44772
9.91686
11.4843
13.1894
15.093
17.2811
19.8039
22.1288
19.5007
0.631565
1.89859
3.17748
4.47666
5.8054
7.17409
8.59431
10.0781
11.6352
13.2626
14.9167
16.4318
17.2975
16.0735
9.14891
0.639116
1.92139
3.21591
4.53128
5.87668
7.26184
8.69652
10.1884
11.7368
13.3168
14.8364
16.0332
16.2418
13.9764
6.695
0.643845
1.93562
3.23978
4.56495
5.92019
7.31503
8.7588
10.259
11.8163
13.4127
14.9799
16.3204
16.9037
15.3624
8.48298
0.645719
1.94122
3.249
4.57761
5.93608
7.33404
8.7817
10.2896
11.8684
13.5284
15.2805
17.1331
19.0406
20.455
17.2753
0.64476
1.93823
3.24367
4.56942
5.92439
7.31836
8.76252
10.2708
11.8637
13.5799
15.5108
17.9074
21.5193
28.7375
47.8524
0.641041
1.92689
3.22417
4.54084
5.88548
7.26764
8.69858
10.1929
11.7732
13.482
15.4172
17.8372
21.493
28.7577
47.8785
0.634688
1.90758
3.19112
4.49273
5.82038
7.18287
8.59035
10.0551
11.5931
13.2266
14.9867
16.9085
18.9599
20.5438
17.3941
0.625878
1.88083
3.14545
4.42645
5.73096
7.06669
8.44211
9.86615
11.3465
12.8829
14.4433
15.8894
16.7509
15.6167
8.88024
0.614834
1.84732
3.08834
4.34374
5.61971
6.9228
8.25991
9.6378
11.0607
12.5221
13.9792
15.2758
15.9274
14.5798
8.02174
0.601815
1.80785
3.02115
4.24666
5.48952
6.7551
8.04919
9.37798
10.7478
12.1641
13.6261
15.1097
16.4918
17.1608
13.7501
0.587109
1.7633
2.94542
4.13745
5.3434
6.56746
7.81419
9.08941
10.4025
11.7739
13.2576
15.0138
17.5511
22.5745
36.2071
0.571018
1.71459
2.86275
4.01847
5.1846
6.3639
7.55922
8.77429
10.0165
11.3056
12.6995
14.3751
16.8835
22.009
35.9617
0.553848
1.66266
2.77477
3.89216
5.01654
6.14908
7.29033
8.44009
9.5978
10.7642
11.9454
13.1578
14.398
15.3131
12.8951
0.53589
1.60841
2.68305
3.76094
4.84269
5.92807
7.01534
8.10013
9.17282
10.2123
11.1694
11.9207
12.1381
10.9315
6.05907
0.517409
1.55264
2.58901
3.62694
4.66623
5.7056
6.74191
7.76838
8.77069
9.7174
10.536
11.0541
10.8668
9.09536
4.2546
0.498628
1.49605
2.49385
3.49193
4.4896
5.48514
6.47516
7.45321
8.40695
9.31124
10.111
10.6773
10.6952
9.39048
4.99755
0.479724
1.43915
2.39843
3.35713
4.31435
5.2684
6.21657
7.15476
8.07737
8.97746
9.84786
10.6809
11.442
11.8299
9.63079
0.460823
1.38233
2.30335
3.2233
4.14121
5.05564
5.96476
6.86697
7.76324
8.66413
9.61043
10.7343
12.4477
16.0657
26.1127
0.442008
1.32582
2.20898
3.09081
3.97039
4.84645
5.7176
6.58314
7.44575
8.31909
9.24944
10.3781
12.1304
15.8366
26.0265
0.423321
1.26975
2.11546
2.95983
3.80194
4.64057
5.4742
6.3012
7.12065
7.93429
8.75052
9.58859
10.456
11.1047
9.35152
0.404777
1.21413
2.02285
2.83035
3.63582
4.43807
5.23527
6.02434
6.79942
7.54753
8.23624
8.77848
8.93331
8.04037
4.44711
0.386362
1.15894
1.93103
2.70222
3.47187
4.239
5.00187
5.75705
6.49675
7.20185
7.8235
8.23719
8.13804
6.85112
3.22381
0.368043
1.10405
1.83981
2.5751
3.3096
4.04278
4.77371
5.50039
6.21798
6.91397
7.55501
8.05187
8.16743
7.28699
3.95899
0.349769
1.04931
1.74888
2.44848
3.14817
3.84805
4.54841
5.24992
5.95408
6.66409
7.38647
8.13118
8.88832
9.42239
7.88158
0.331482
0.994538
1.65788
2.32175
2.98653
3.65289
4.3222
4.9975
5.68599
6.4055
7.20224
8.20172
9.76393
12.9985
21.6806
0.313126
0.939545
1.56648
2.19435
2.82375
3.45561
4.09173
4.73582
5.39625
6.09314
6.87707
7.88129
9.478
12.7912
21.6023
0.294649
0.884174
1.4744
2.06585
2.65918
3.25531
3.85565
4.46266
5.08107
5.72024
6.39876
7.14925
7.99983
8.7657
7.62743
0.276008
0.828301
1.38143
1.936
2.49263
3.05202
3.61484
4.1815
4.75135
5.31989
5.87033
6.34755
6.58034
6.06232
3.45556
0.257169
0.771828
1.28745
1.80467
2.32412
2.84628
3.37127
3.89804
4.42244
4.93201
5.39262
5.71546
5.6821
4.80934
2.27275
0.238104
0.714672
1.19232
1.67177
2.15367
2.63853
3.1264
3.61615
4.10374
4.57801
5.01049
5.3306
5.36667
4.71169
2.48499
0.218783
0.656751
1.09593
1.53712
1.98112
2.42864
2.88017
3.33568
3.7942
4.25295
4.70626
5.14291
5.531
5.70543
4.60222
0.199179
0.597978
0.998111
1.4005
1.8061
2.21592
2.6311
3.05307
3.48442
3.93158
4.41349
4.98885
5.84359
7.58629
12.3452
0.179264
0.538267
0.898711
1.26162
1.6281
1.99944
2.37725
2.76387
3.16359
3.58602
4.05574
4.64068
5.53942
7.37241
12.2673
0.159016
0.477545
0.797586
1.12023
1.4467
1.77843
2.11723
2.46552
2.82694
3.20754
3.61789
4.07449
4.58636
5.03203
4.35483
0.138421
0.415765
0.694639
0.976164
1.26161
1.55249
1.85058
2.15799
2.47689
2.80836
3.14785
3.46983
3.67918
3.47133
2.02033
0.117476
0.352913
0.589839
0.829357
1.07274
1.3215
1.57742
1.84243
2.11807
2.40356
2.6899
2.94331
3.06166
2.77385
1.48418
0.0961918
0.289022
0.483228
0.67985
0.880116
1.08553
1.29792
1.51945
1.75237
1.99812
2.25476
2.51053
2.72612
2.77206
2.11374
0.0745956
0.22417
0.374931
0.5278
0.683904
0.844685
1.01204
1.18854
1.37774
1.58507
1.82019
2.10561
2.50835
3.2593
5.22186
0.0527323
0.15849
0.265164
0.373495
0.484432
0.599261
0.719803
0.848771
0.99051
1.1527
1.35064
1.61919
2.04873
2.90507
5.07986
0.0306646
0.0921712
0.154244
0.217376
0.28225
0.349859
0.421697
0.500122
0.589066
0.695478
0.83203
1.02095
1.29269
1.63522
1.63791
0.0084732
0.0254583
0.0425866
0.0600447
0.0781662
0.0975144
0.11901
0.144158
0.175481
0.217327
0.27704
0.365176
0.48748
0.601322
0.472697
-0.013745
-0.0413536
-0.0692991
-0.0977455
-0.126767
-0.15632
-0.186214
-0.216098
-0.245412
-0.273228
-0.297687
-0.314327
-0.311859
-0.264198
-0.125328
-0.0358804
-0.10793
-0.180834
-0.255132
-0.331327
-0.409909
-0.491438
-0.576741
-0.667336
-0.766102
-0.877835
-1.00709
-1.14257
-1.19305
-0.800975
-0.0578146
-0.173909
-0.291396
-0.411193
-0.534218
-0.661441
-0.794026
-0.933695
-1.08357
-1.24995
-1.4458
-1.69549
-2.03229
-2.42919
-2.31679
-0.0794242
-0.238918
-0.400348
-0.565002
-0.734181
-0.909232
-1.09167
-1.28354
-1.4883
-1.7133
-1.97633
-2.32336
-2.88021
-4.01894
-6.97228
-0.100584
-0.302577
-0.50705
-0.715657
-0.930049
-1.15187
-1.38275
-1.6244
-1.87893
-2.15021
-2.44848
-2.80545
-3.32399
-4.34846
-7.09865
-0.121167
-0.364507
-0.61087
-0.862277
-1.12074
-1.38818
-1.66632
-1.95628
-2.25788
-2.56833
-2.87982
-3.17526
-3.41635
-3.47946
-2.73036
-0.141049
-0.424331
-0.711174
-1.00398
-1.30516
-1.61705
-1.94165
-2.28002
-2.63063
-2.98567
-3.32224
-3.58275
-3.63221
-3.17443
-1.63397
-0.160106
-0.481672
-0.807323
-1.13985
-1.48212
-1.83704
-2.20738
-2.5952
-3.00026
-3.41575
-3.81742
-4.1367
-4.20026
-3.62117
-1.73717
-0.178219
-0.536167
-0.898681
-1.26893
-1.65025
-2.04628
-2.46092
-2.89836
-3.36257
-3.85535
-4.36971
-4.86816
-5.21448
-4.97403
-2.94472
-0.19528
-0.58748
-0.984652
-1.39028
-1.80815
-2.24254
-2.69856
-3.18287
-3.70496
-4.27987
-4.93296
-5.70517
-6.63605
-7.56904
-6.83284
-0.211197
-0.635328
-1.06473
-1.50311
-1.95455
-2.42373
-2.91651
-3.44106
-4.01059
-4.65
-5.41337
-6.43186
-8.056
-11.323
-19.6996
-0.225903
-0.679504
-1.13854
-1.60685
-2.08857
-2.58847
-3.11232
-3.66795
-4.2676
-4.93395
-5.71649
-6.73782
-8.33486
-11.5285
-19.778
-0.239359
-0.719889
-1.2059
-1.70123
-2.20994
-2.73652
-3.286
-3.86419
-4.47818
-5.13711
-5.85364
-6.64384
-7.50474
-8.22276
-7.08885
-0.251552
-0.756452
-1.26678
-1.78627
-2.31886
-2.86862
-3.43965
-4.03549
-4.65746
-5.30018
-5.93951
-6.5006
-6.77369
-6.20287
-3.45771
-0.262494
-0.789232
-1.32125
-1.86219
-2.4158
-2.98588
-3.576
-4.18855
-4.82222
-5.46547
-6.0796
-6.55721
-6.62853
-5.69281
-2.72251
-0.272216
-0.818327
-1.36951
-1.92927
-2.50124
-3.08917
-3.69671
-4.32684
-4.98022
-5.65086
-6.31436
-6.89582
-7.18257
-6.59551
-3.70582
-0.280766
-0.843881
-1.41179
-1.98784
-2.57556
-3.17877
-3.80165
-4.44889
-5.12613
-5.8411
-6.60592
-7.43897
-8.34326
-9.09712
-7.82929
-0.28821
-0.866089
-1.4484
-2.03826
-2.63906
-3.25465
-3.88959
-4.55
-5.24575
-5.9966
-6.84996
-7.93249
-9.60825
-13.0025
-21.9462
-0.294635
-0.885203
-1.47973
-2.08103
-2.69225
-3.31702
-3.95975
-4.62648
-5.32698
-6.08081
-6.93471
-8.01387
-9.67965
-13.0538
-21.9655
-0.300152
-0.901555
-1.50632
-2.11688
-2.73599
-3.36683
-4.01315
-4.6794
-5.37107
-6.09539
-6.86287
-7.68771
-8.56449
-9.25922
-7.89187
-0.304901
-0.915558
-1.52885
-2.14674
-2.77152
-3.40583
-4.05262
-4.71457
-5.39236
-6.07987
-6.75107
-7.32531
-7.57558
-6.89649
-3.82947
-0.309048
-0.927713
-1.54815
-2.17178
-2.80037
-3.4361
-4.08149
-4.73862
-5.40679
-6.07554
-6.70645
-7.18773
-7.23192
-6.19188
-2.95581
-0.312795
-0.938616
-1.56521
-2.19334
-2.8242
-3.4596
-4.1021
-4.75492
-5.42069
-6.09736
-6.7656
-7.35355
-7.64103
-7.01219
-3.9401
-0.316373
-0.948964
-1.58116
-2.21296
-2.84482
-3.47808
-4.11547
-4.7621
-5.42692
-6.12491
-6.88034
-7.72789
-8.68631
-9.52904
-8.26329
-0.320053
-0.959567
-1.59736
-2.23248
-2.86442
-3.49361
-4.12232
-4.75656
-5.40999
-6.11247
-6.93095
-8.02508
-9.81177
-13.5099
-23.1841
-0.324137
-0.971346
-1.61537
-2.25416
-2.88588
-3.5094
-4.12523
-4.7376
-5.35888
-6.01934
-6.78999
-7.84118
-9.60961
-13.3405
-23.1145
-0.328952
-0.985315
-1.63699
-2.28069
-2.91297
-3.53045
-4.13044
-4.71233
-5.28046
-5.84956
-6.45406
-7.15903
-8.04444
-8.97419
-8.0268
-0.334832
-1.00252
-1.66412
-2.3151
-2.95026
-3.56356
-4.14812
-4.6965
-5.20123
-5.65508
-6.04823
-6.3514
-6.44833
-5.91127
-3.42943
-0.342077
-1.02392
-1.69858
-2.36045
-3.00268
-3.61656
-4.19084
-4.71088
-5.15722
-5.50264
-5.70475
-5.68687
-5.29235
-4.19877
-1.87157
-0.350921
-1.05028
-1.74187
-2.41939
-3.07472
-3.69696
-4.27113
-4.77634
-5.18319
-5.44959
-5.51389
-5.28378
-4.6217
-3.34286
-1.29697
-0.36148
-1.08202
-1.7949
-2.49368
-3.16967
-3.81068
-4.3992
-4.90999
-5.30658
-5.53676
-5.52736
-5.18055
-4.37924
-3.01956
-1.10292
-0.373711
-1.11904
-1.85769
-2.58374
-3.28884
-3.96074
-4.58117
-5.12284
-5.54541
-5.79019
-5.775
-5.39283
-4.52442
-3.08297
-1.10967
-0.387384
-1.16069
-1.92919
-2.68828
-3.431
-4.14647
-4.81771
-5.41829
-5.90757
-6.22402
-6.27734
-5.94265
-5.06744
-3.51565
-1.28725
-0.402067
-1.20563
-2.00717
-2.80414
-3.592
-4.36282
-5.10319
-5.7909
-6.3896
-6.84042
-7.04895
-6.86767
-6.08017
-4.41812
-1.70513
-0.417133
-1.25196
-2.08827
-2.92626
-3.76476
-4.60023
-5.42514
-6.22516
-6.97417
-7.62489
-8.09108
-8.21349
-7.70009
-6.05031
-2.60717
-0.431796
-1.29724
-2.16817
-3.04796
-3.93954
-4.84487
-5.76424
-6.6947
-7.6268
-8.5373
-9.37171
-10.0006
-10.109
-8.92775
-4.73906
-0.445163
-1.33868
-2.24185
-3.16143
-4.10468
-5.07965
-6.09551
-7.16292
-8.29421
-9.5023
-10.7948
-12.149
-13.4131
-13.8936
-10.5439
-0.456306
-1.37338
-2.30409
-3.25839
-4.24772
-5.28595
-6.39085
-7.58659
-8.908
-10.4084
-12.1747
-14.3599
-17.2607
-21.519
-28.6666
72.8152
54.3692
43.2035
35.5194
29.7223
25.0716
21.1793
17.819
14.846
12.1615
9.69369
7.38734
5.19801
3.08811
1.02433
26.6181
34.7262
33.0995
29.5387
25.837
22.3919
19.2588
16.4092
13.7979
11.3805
9.11744
6.97423
4.92027
2.92803
0.972026
11.7595
21.8432
24.3381
23.6556
21.7733
19.4953
17.1412
14.8338
12.6149
10.492
8.45788
6.49906
4.59962
2.74275
0.911414
6.23081
14.2299
17.7828
18.6054
17.984
16.6514
14.9909
13.1967
11.3651
9.54181
7.74591
5.98258
4.24936
2.5397
0.844884
3.80099
9.70416
13.1233
14.5578
14.6883
14.0349
12.9332
11.5854
10.1095
8.57245
7.01125
5.44512
3.88268
2.32633
0.774837
2.55082
6.90327
9.84189
11.4155
11.9369
11.7295
11.0462
10.0631
8.89621
7.61974
6.27994
4.90504
3.51175
2.10954
0.703522
1.82088
5.08413
7.50823
9.00395
9.69131
9.75445
9.36721
8.66814
7.75892
6.71093
5.57292
4.37766
3.14696
1.89538
0.632913
1.35378
3.84768
5.81918
7.1536
7.8791
8.09204
7.90468
7.41904
6.71791
5.86455
4.9056
3.87485
2.79664
1.68874
0.56463
1.03506
2.97394
4.57247
5.72602
6.42272
6.70751
6.64919
6.31948
5.78254
5.09143
4.28808
3.40494
2.46691
1.49335
0.499915
0.807444
2.33652
3.63473
4.61561
5.25232
5.56115
5.58209
5.36376
4.95417
4.39617
3.72593
2.97312
2.16181
1.31175
0.439633
0.639411
1.85941
2.9173
3.74414
4.30954
4.61464
4.68108
4.54079
4.22881
3.77881
3.22108
2.58187
1.88359
1.14544
0.384312
0.512221
1.49483
2.36028
3.05417
3.54746
3.83382
3.92355
3.83701
3.59923
3.2362
2.77278
2.23163
1.63302
0.995066
0.334196
0.414073
1.2116
1.92236
2.50347
2.92904
3.1895
3.2884
3.23822
3.05657
2.76327
2.37841
1.92125
1.40976
0.860596
0.289297
0.337183
0.988604
1.57445
2.06077
2.42523
2.65733
2.75672
2.73068
2.59141
2.35389
2.03422
1.64857
1.21265
0.741485
0.249462
0.276221
0.811137
1.29563
1.70266
2.01331
2.21728
2.31213
2.30173
2.19445
2.00154
1.73582
1.41078
1.04
0.636846
0.214415
0.227427
0.668677
1.07058
1.41147
1.67544
1.85297
1.9406
1.94004
1.85693
1.69972
1.47859
1.20475
0.889818
0.545585
0.183808
0.188079
0.55353
0.887897
1.17369
1.39759
1.55107
1.63029
1.63563
1.57085
1.44225
1.25796
1.02722
0.759972
0.4665
0.157254
0.156163
0.459964
0.738935
0.978863
1.16862
1.30071
1.37128
1.37991
1.32905
1.22345
1.06956
0.875038
0.648327
0.398362
0.134352
0.130164
0.383634
0.617075
0.818865
0.979699
1.09304
1.15526
1.16548
1.12525
1.03816
0.909364
0.745195
0.552823
0.339972
0.114709
0.108927
0.32121
0.517189
0.687298
0.823741
0.920871
0.975343
0.986064
0.953987
0.881824
0.773719
0.634928
0.471534
0.290196
0.0979512
0.0915569
0.270103
0.435261
0.579102
0.695072
0.778309
0.825795
0.836357
0.810546
0.750434
0.659373
0.541739
0.402699
0.247989
0.0837318
0.0773573
0.228292
0.368129
0.490253
0.589126
0.660564
0.701876
0.711897
0.690914
0.640527
0.56347
0.463408
0.34474
0.21241
0.071738
0.0657816
0.194184
0.313295
0.417543
0.502224
0.56373
0.599678
0.608958
0.591691
0.549133
0.483537
0.397992
0.296263
0.18262