/*--------------------------------*- C++ -*----------------------------------*\
| =========                 |                                                 |
| \\      /  F ield         | OpenFOAM: The Open Source CFD Toolbox           |
|  \\    /   O peration     | Version:  5.x                                   |
|   \\  /    A nd           | Web:      www.OpenFOAM.org                      |
|    \\/     M anipulation  |                                                 |
\*---------------------------------------------------------------------------*/
FoamFile
{
    version     2.0;
    format      ascii;
    class       volScalarField;
    location    "0.3";
    object      gradTy;
}
// * * * * * * * * * * * * * * * * * * * * * * * * * * * * * * * * * * * * * //

dimensions      [0 -1 0 1 0 0 0];

internalField   nonuniform List<scalar> 
3200
(
61.2036
8.58455
4.14232
10.4145
8.74534
10.0884
9.28357
9.96854
9.47555
9.97526
9.60172
9.99808
9.88605
10.3613
9.69175
10.9261
8.46671
10.171
8.57572
10.0115
8.56623
9.77158
8.53088
9.40914
8.85578
9.59543
8.53443
9.67439
7.55191
8.76184
7.57417
8.42291
7.54848
8.12531
7.75139
8.22426
7.43588
7.8518
7.49049
7.70404
7.51978
7.61298
7.51943
7.54077
7.51542
7.49759
7.50714
7.47412
7.47331
7.41144
7.51765
7.43665
7.50473
7.44029
7.46178
7.38154
7.51046
7.42332
7.45809
7.37219
7.45519
7.30773
7.57041
7.39987
7.57987
7.4488
7.61532
7.5288
7.68913
7.67761
7.80808
7.908
8.07693
8.36142
8.39215
8.99001
9.9934
10.4194
10.5458
10.5769
53.9495
13.1843
6.54668
10.2417
9.11559
9.96307
9.43536
9.8801
9.57149
9.90383
9.67733
9.95383
9.92718
10.2405
9.78221
10.5401
8.83386
9.90234
8.85501
9.77464
8.81224
9.57601
8.73947
9.30492
8.96551
9.43097
8.68285
9.36341
7.86009
8.58811
7.76237
8.28721
7.69513
8.06137
7.8196
8.11104
7.55156
7.80092
7.54967
7.67937
7.54951
7.60325
7.53232
7.54062
7.51744
7.50214
7.50352
7.4783
7.47061
7.42914
7.50105
7.44905
7.49202
7.44782
7.45523
7.40243
7.49019
7.4329
7.44883
7.38996
7.44023
7.34771
7.53172
7.42746
7.55107
7.47171
7.59099
7.54504
7.67026
7.68062
7.80097
7.89912
8.07879
8.31351
8.42786
8.97394
10.0166
10.4315
10.5498
10.5783
48.3261
16.4193
8.53797
10.262
9.40702
9.89288
9.54832
9.82185
9.64184
9.85479
9.73284
9.92171
9.95471
10.1505
9.82401
10.2527
9.09
9.71832
9.05559
9.61303
8.98918
9.44444
8.89197
9.23688
9.04303
9.31505
8.77412
9.13979
8.07901
8.47655
7.89657
8.19623
7.80348
8.02181
7.86655
8.03193
7.63496
7.77017
7.59373
7.66521
7.57203
7.59865
7.54218
7.54189
7.51929
7.50618
7.50112
7.48195
7.46942
7.44247
7.48958
7.45781
7.48296
7.45345
7.45126
7.41787
7.47591
7.43972
7.44272
7.40355
7.43117
7.3768
7.50475
7.44611
7.53057
7.48686
7.57346
7.55461
7.65618
7.67941
7.79494
7.88714
8.07863
8.27059
8.44646
8.93816
10.0651
10.4557
10.5574
10.5809
43.9794
18.6934
10.1452
10.3855
9.64493
9.85599
9.63662
9.78179
9.6965
9.81916
9.77593
9.89584
9.97573
10.0814
9.8356
10.0288
9.27447
9.58592
9.20733
9.49865
9.12294
9.35316
9.00856
9.19038
9.1019
9.23164
8.82911
8.97322
8.23961
8.4041
7.9956
8.13298
7.88743
7.99725
7.90074
7.97539
7.69716
7.75197
7.62798
7.65774
7.58987
7.59749
7.54991
7.54417
7.5209
7.51004
7.49942
7.48546
7.46896
7.45298
7.48141
7.46445
7.47624
7.45814
7.4487
7.4298
7.46554
7.44513
7.43846
7.41461
7.42554
7.39875
7.48539
7.4592
7.51535
7.49696
7.56029
7.55952
7.64538
7.67467
7.79
7.87136
8.07859
8.22845
8.45257
8.8771
10.1432
10.4914
10.5683
10.5846
40.6442
20.2983
11.4011
10.5484
9.84484
9.83637
9.71038
9.75097
9.74286
9.79019
9.81251
9.87157
9.99573
10.0264
9.82961
9.84291
9.41629
9.48109
9.33226
9.41093
9.23244
9.28485
9.10407
9.15468
9.15204
9.16952
8.86223
8.84175
8.36428
8.35458
8.07281
8.08506
7.9572
7.98097
7.92812
7.933
7.74609
7.74098
7.65613
7.65425
7.60477
7.59862
7.55606
7.54725
7.52209
7.51397
7.49794
7.48918
7.46856
7.46181
7.47514
7.47003
7.4708
7.46258
7.4466
7.43964
7.45752
7.45008
7.43498
7.42439
7.42152
7.41626
7.47065
7.46909
7.50322
7.50389
7.5498
7.56106
7.63695
7.66659
7.78651
7.85063
8.08095
8.18343
8.45074
8.78245
10.258
10.5381
10.5817
10.5889
38.1229
21.4452
12.3352
10.7054
10.017
9.82146
9.77748
9.72211
9.787
9.76221
9.84762
9.84471
10.0195
9.98045
9.81523
9.67457
9.53845
9.38481
9.44808
9.33349
9.3327
9.22587
9.19033
9.12111
9.20137
9.12038
8.88389
8.72857
8.47024
8.31595
8.13827
8.04275
8.02091
7.96777
7.9532
7.89831
7.78777
7.73321
7.681
7.65269
7.61796
7.60124
7.56088
7.551
7.52264
7.51825
7.49621
7.49339
7.46765
7.46986
7.46965
7.4754
7.46576
7.46736
7.44418
7.44853
7.45054
7.45537
7.43136
7.43388
7.41764
7.43142
7.45818
7.47759
7.49246
7.50905
7.54073
7.56006
7.63041
7.65494
7.78529
7.8233
8.08845
8.13185
8.44637
8.64207
10.4207
10.5943
10.5965
10.5935
36.2687
22.2893
12.97
10.8246
10.1693
9.80047
9.84502
9.68842
9.83473
9.72983
9.88626
9.81073
10.0518
9.93957
9.79986
9.50606
9.66131
9.27986
9.57102
9.25151
9.43721
9.16404
9.27794
9.08157
9.25715
9.07747
8.90229
8.61951
8.57204
8.27825
8.20044
7.9975
8.08587
7.95301
7.97989
7.86583
7.8272
7.72532
7.70488
7.65136
7.63041
7.60477
7.56446
7.55547
7.5222
7.52321
7.49368
7.4985
7.46559
7.47799
7.46389
7.48137
7.46024
7.4731
7.44064
7.45748
7.44342
7.46179
7.42665
7.44411
7.41252
7.44604
7.44597
7.48625
7.4816
7.51357
7.53212
7.55699
7.62566
7.63902
7.78774
7.78684
8.10479
8.0694
8.44673
8.43836
10.6476
10.6573
10.6116
10.598
34.9736
22.9469
13.3178
10.8842
10.3102
9.7629
9.92057
9.64259
9.89249
9.68697
9.93417
9.76408
10.0982
9.89979
9.79066
9.31959
9.80566
9.14801
9.71841
9.14933
9.56009
9.08674
9.37797
9.02715
9.32714
9.03438
8.92501
8.50104
8.6837
8.23191
8.26761
7.94057
8.15965
7.93184
8.01218
7.83029
7.86911
7.71413
7.73004
7.64867
7.64298
7.60883
7.56671
7.56084
7.52031
7.52931
7.4897
7.50503
7.46163
7.48709
7.45678
7.48879
7.45328
7.48057
7.43503
7.46757
7.43492
7.47026
7.41974
7.4562
7.4047
7.46191
7.43206
7.49661
7.46918
7.51853
7.52316
7.55207
7.62304
7.61759
7.79607
7.73754
8.13518
7.99035
8.46243
8.14585
10.9624
10.7225
10.6253
10.6019
34.1593
23.5083
13.3776
10.8692
10.4499
9.69704
10.0135
9.5756
9.96843
9.62599
9.99875
9.69726
10.1659
9.85644
9.79594
9.09485
9.99578
8.96708
9.91141
9.00798
9.71835
8.97888
9.5037
8.94672
9.42086
8.98396
8.96031
8.35831
8.82073
8.16606
8.34927
7.86177
8.25127
7.8983
8.05491
7.78586
7.9187
7.69601
7.75899
7.64286
7.65658
7.61309
7.5674
7.56747
7.51631
7.53723
7.48339
7.51378
7.45478
7.49829
7.44704
7.49878
7.44366
7.49081
7.42615
7.48013
7.42356
7.48202
7.40922
7.47166
7.39239
7.48111
7.41422
7.5105
7.45354
7.52514
7.51308
7.54531
7.62333
7.58866
7.81374
7.66985
8.18712
7.88649
8.50954
7.7279
11.3993
10.7818
10.6359
10.6048
33.7708
24.0487
13.1322
10.7705
10.6028
9.58833
10.1365
9.47534
10.0737
9.53637
10.0903
9.59962
10.2647
9.80313
9.82686
8.80605
10.2631
8.70725
10.1783
8.80211
9.93464
8.82047
9.67272
8.82506
9.55104
8.91703
9.01876
8.173
9.00244
8.06668
8.45773
7.74786
8.37255
7.84433
8.1146
7.72527
7.98243
7.66638
7.79501
7.63173
7.67234
7.6173
7.56612
7.57601
7.50929
7.54799
7.47356
7.52596
7.44368
7.51312
7.43303
7.51288
7.42979
7.50536
7.41237
7.49696
7.40742
7.49887
7.39311
7.49263
7.37319
7.50637
7.38969
7.53035
7.43259
7.53492
7.50106
7.53656
7.62795
7.54917
7.846
7.57555
8.27161
7.74553
8.61269
7.13169
12.0077
10.8222
10.6419
10.6063
12.8508
15.4425
-3.96881
-2.02267
-3.98979
-5.43915
-5.23369
-6.39046
-6.72909
-7.13518
-7.70036
-7.59955
-8.47424
-8.12073
-8.33013
-7.24686
-9.1829
-7.57367
-9.01062
-7.73176
-8.68195
-7.693
-8.40898
-7.63474
-8.28644
-7.5738
-8.15234
-7.31966
-7.75893
-7.00935
-7.07148
-6.42926
-7.05235
-6.5165
-6.66813
-6.19845
-6.56791
-6.10895
-6.27712
-6.01514
-6.00738
-5.84405
-5.92017
-5.80494
-5.81849
-5.76153
-5.74743
-5.72369
-5.7114
-5.70922
-5.67757
-5.68807
-5.66304
-5.67337
-5.66447
-5.67515
-5.65243
-5.65834
-5.65074
-5.62892
-5.68722
-5.62907
-5.72623
-5.63444
-5.79082
-5.67475
-5.88908
-5.8157
-5.94195
-5.96535
-6.25261
-6.79987
-5.25874
-6.08091
-6.21466
-6.54461
-6.62702
-6.64765
-6.65266
-6.65362
12.7474
13.4996
-1.99908
-1.91338
-3.96189
-5.25027
-5.4331
-6.35359
-6.79525
-7.17306
-7.6824
-7.69917
-8.38463
-8.1857
-8.29443
-7.58794
-8.86306
-7.82149
-8.74987
-7.90915
-8.49325
-7.8311
-8.26259
-7.74971
-8.16929
-7.69595
-8.03528
-7.44885
-7.62669
-7.07168
-7.00511
-6.54776
-6.92983
-6.56272
-6.61947
-6.28677
-6.47933
-6.15379
-6.22452
-6.03075
-5.9879
-5.86483
-5.89751
-5.81312
-5.80801
-5.76349
-5.74414
-5.72382
-5.71039
-5.70578
-5.68049
-5.68499
-5.66611
-5.67191
-5.6659
-5.67218
-5.65557
-5.65835
-5.65182
-5.63823
-5.67934
-5.64427
-5.71235
-5.65748
-5.76873
-5.70224
-5.85985
-5.82485
-5.92891
-5.97174
-6.22523
-6.57107
-5.47644
-6.03354
-6.28144
-6.55427
-6.6292
-6.64795
-6.6525
-6.65331
12.6143
12.2072
-0.652142
-1.71805
-3.96373
-5.105
-5.6025
-6.33549
-6.86367
-7.20547
-7.68403
-7.77197
-8.33038
-8.23839
-8.29139
-7.84985
-8.636
-7.99065
-8.56002
-8.0297
-8.35455
-7.9256
-8.15412
-7.82753
-8.08801
-7.78573
-7.95539
-7.5476
-7.5239
-7.11461
-6.95449
-6.63279
-6.83738
-6.59209
-6.58648
-6.35415
-6.41155
-6.18285
-6.18255
-6.04038
-5.97166
-5.87941
-5.87955
-5.81814
-5.79911
-5.76446
-5.74089
-5.72369
-5.70903
-5.70317
-5.68222
-5.68284
-5.66818
-5.67091
-5.66682
-5.67012
-5.65792
-5.65872
-5.65317
-5.64533
-5.67449
-5.65533
-5.70337
-5.67385
-5.75373
-5.72075
-5.83833
-5.82842
-5.9183
-5.96968
-6.19411
-6.39984
-5.62801
-5.99841
-6.34703
-6.57159
-6.63333
-6.64851
-6.65215
-6.65274
12.4978
11.4134
0.223581
-1.47496
-4.00917
-4.98496
-5.76206
-6.32525
-6.93932
-7.23226
-7.70118
-7.82591
-8.30214
-8.28531
-8.3082
-8.06274
-8.46631
-8.11133
-8.41428
-8.11617
-8.24613
-7.99393
-8.06798
-7.882
-8.02937
-7.85676
-7.89871
-7.63111
-7.43664
-7.14767
-6.91043
-6.69688
-6.76303
-6.61195
-6.56263
-6.41002
-6.35528
-6.20282
-6.1463
-6.0471
-5.95639
-5.89032
-5.86408
-5.82147
-5.79084
-5.76499
-5.73739
-5.72345
-5.70731
-5.70115
-5.68307
-5.68129
-5.66955
-5.67018
-5.66744
-5.66867
-5.65974
-5.65933
-5.65459
-5.65095
-5.67157
-5.66369
-5.69749
-5.68584
-5.74324
-5.73322
-5.82188
-5.82798
-5.90921
-5.96068
-6.16372
-6.26767
-5.73381
-5.96403
-6.41741
-6.5952
-6.63907
-6.64926
-6.65164
-6.65196
12.4249
11.0241
0.72
-1.19805
-4.11658
-4.87255
-5.92991
-6.31277
-7.02767
-7.25191
-7.73204
-7.86576
-8.29362
-8.33065
-8.33578
-8.24973
-8.32704
-8.20577
-8.29266
-8.1856
-8.15309
-8.0493
-7.99232
-7.92321
-7.9836
-7.91929
-7.8545
-7.71177
-7.35324
-7.17874
-6.8655
-6.74984
-6.69742
-6.6278
-6.54297
-6.46202
-6.30296
-6.21898
-6.11179
-6.0535
-5.94015
-5.89965
-5.84927
-5.82434
-5.78239
-5.76559
-5.73334
-5.72329
-5.70519
-5.6996
-5.68327
-5.68013
-5.67042
-5.66957
-5.6679
-5.66761
-5.66122
-5.66011
-5.65597
-5.65559
-5.66978
-5.67037
-5.69341
-5.69505
-5.73544
-5.74173
-5.80874
-5.82453
-5.90131
-5.94561
-6.13728
-6.16099
-5.80901
-5.92065
-6.4987
-6.62402
-6.64599
-6.65014
-6.65103
-6.65107
12.4081
10.9911
0.881109
-0.880995
-4.31037
-4.74798
-6.12465
-6.28695
-7.1356
-7.26129
-7.77675
-7.89383
-8.30073
-8.37729
-8.36702
-8.43021
-8.19573
-8.29192
-8.17883
-8.25207
-8.06292
-8.10282
-7.91718
-7.95926
-7.94285
-7.98187
-7.81343
-7.80109
-7.2625
-7.21538
-6.81269
-6.80029
-6.63252
-6.64427
-6.52318
-6.51716
-6.24764
-6.23609
-6.07533
-6.06211
-5.92101
-5.90937
-5.83344
-5.82788
-5.77294
-5.7668
-5.72841
-5.72346
-5.70257
-5.69848
-5.68294
-5.67924
-5.67093
-5.669
-5.6683
-5.6668
-5.66248
-5.661
-5.6572
-5.65964
-5.66852
-5.67616
-5.69019
-5.70272
-5.729
-5.74782
-5.79764
-5.81864
-5.8947
-5.92463
-6.11755
-6.06933
-5.86564
-5.85858
-6.59806
-6.65692
-6.65356
-6.65109
-6.65037
-6.65016
12.4479
11.3056
0.708218
-0.497356
-4.62394
-4.58596
-6.36807
-6.23376
-7.2725
-7.25513
-7.83741
-7.91033
-8.32107
-8.42739
-8.39532
-8.62258
-8.05117
-8.38641
-8.05753
-8.32901
-7.96356
-8.16533
-7.8329
-7.99764
-7.89985
-8.05272
-7.7661
-7.91144
-7.15207
-7.26622
-6.74424
-6.85693
-6.56042
-6.66604
-6.49876
-6.58282
-6.18199
-6.25915
-6.03296
-6.07583
-5.89668
-5.92166
-5.8148
-5.8334
-5.76153
-5.76931
-5.72213
-5.72426
-5.69928
-5.69782
-5.68214
-5.67853
-5.67119
-5.66838
-5.66873
-5.6661
-5.66362
-5.662
-5.65817
-5.66344
-5.66733
-5.68169
-5.68702
-5.70983
-5.72286
-5.75267
-5.78769
-5.81055
-5.88993
-5.89714
-6.10746
-5.98389
-5.91442
-5.76666
-6.72466
-6.69235
-6.66114
-6.65203
-6.64975
-6.6493
12.5333
11.9982
0.159361
0.00278151
-5.10445
-4.35145
-6.68842
-6.13386
-7.45181
-7.22509
-7.91853
-7.91336
-8.35359
-8.48302
-8.41322
-8.84685
-7.87029
-8.5074
-7.91214
-8.43136
-7.84144
-8.24914
-7.72866
-8.04643
-7.84676
-8.14107
-7.70141
-8.0579
-7.00664
-7.34243
-6.65034
-6.92989
-6.47218
-6.69868
-6.46424
-6.66784
-6.09719
-6.29431
-5.97979
-6.09841
-5.86416
-5.93921
-5.79113
-5.84253
-5.74693
-5.77401
-5.71388
-5.72615
-5.69505
-5.69773
-5.68085
-5.67798
-5.67127
-5.66763
-5.66929
-5.66541
-5.66474
-5.66308
-5.65879
-5.6673
-5.66572
-5.68759
-5.68317
-5.71735
-5.71605
-5.75732
-5.77824
-5.8002
-5.88807
-5.86154
-6.11075
-5.8963
-5.96636
-5.63056
-6.89096
-6.72786
-6.66798
-6.65285
-6.64922
-6.6486
12.6399
13.1425
-0.857254
0.700408
-5.81991
-3.99385
-7.12484
-5.95938
-7.69315
-7.15841
-8.02768
-7.89862
-8.39857
-8.54661
-8.41093
-9.12745
-7.62477
-8.67758
-7.72205
-8.57796
-7.67929
-8.36996
-7.59077
-8.11581
-7.77379
-8.25867
-7.60476
-8.26056
-6.80562
-7.45966
-6.51748
-7.03224
-6.35648
-6.74967
-6.41212
-6.78375
-5.98161
-6.34989
-5.90926
-6.13507
-5.81925
-5.96567
-5.75946
-5.85753
-5.72741
-5.7822
-5.70273
-5.72978
-5.68947
-5.69843
-5.67902
-5.67758
-5.67124
-5.66669
-5.67008
-5.66459
-5.66591
-5.66428
-5.65891
-5.67158
-5.66318
-5.69456
-5.67778
-5.7263
-5.70755
-5.76279
-5.76875
-5.78723
-5.89079
-5.81492
-6.1326
-5.79737
-6.03458
-5.43072
-7.11435
-6.75943
-6.67327
-6.65347
-6.64883
-6.64811
12.726
14.8664
-2.49673
1.72052
-6.86986
-3.43854
-7.7336
-5.6693
-8.02549
-7.03575
-8.17689
-7.85878
-8.45763
-8.62151
-8.3745
-9.49673
-7.27692
-8.92796
-7.45937
-8.7946
-7.45344
-8.54943
-7.40057
-8.21974
-7.6676
-8.42169
-7.45559
-8.54753
-6.52012
-7.64062
-6.32623
-7.1821
-6.19791
-6.82979
-6.33154
-6.94654
-5.81914
-6.43776
-5.81202
-6.19335
-5.75581
-6.0062
-5.7156
-5.88164
-5.70049
-5.79575
-5.68733
-5.7361
-5.68193
-5.70026
-5.67647
-5.67739
-5.67114
-5.66543
-5.67123
-5.66351
-5.66721
-5.66565
-5.65832
-5.6767
-5.65906
-5.70346
-5.6698
-5.73795
-5.69611
-5.77024
-5.75878
-5.77087
-5.9007
-5.75257
-6.1806
-5.67558
-6.13653
-5.13949
-7.41947
-6.7805
-6.67619
-6.65379
-6.6486
-6.64788
-11.7333
-13.7771
3.37493
-0.772239
8.01796
4.47805
9.00591
6.71397
9.15615
7.87656
9.1707
8.59512
9.17934
9.07677
9.10817
9.72191
7.95898
9.22526
7.84088
9.17061
7.9447
9.08836
7.97936
8.83324
8.31154
9.08748
8.12738
9.24626
7.1972
8.34177
7.04833
7.91467
6.92436
7.56131
7.094
7.69897
6.60816
7.20346
6.62092
6.977
6.60424
6.81333
6.57501
6.68772
6.56147
6.60482
6.55049
6.55214
6.53909
6.52137
6.51015
6.468
6.53654
6.48451
6.50008
6.44285
6.53291
6.47763
6.50242
6.46672
6.50932
6.48877
6.52022
6.53153
6.52104
6.53156
6.54033
6.35089
6.58931
5.73799
6.43679
3.80859
4.12493
-0.750556
-0.505916
-3.5937
-4.33915
-4.52306
-4.56751
-4.57793
-11.6511
-12.0902
1.77344
0.27162
6.9515
5.06944
8.36616
7.04308
8.78768
8.04062
8.97923
8.65778
9.09824
9.05763
9.09898
9.46268
8.19228
8.97707
8.08661
8.95543
8.16737
8.90678
8.17257
8.72962
8.41834
8.92267
8.27855
8.95448
7.48805
8.16106
7.2403
7.76419
7.08417
7.48313
7.17365
7.54202
6.76573
7.12101
6.71323
6.92677
6.66069
6.78264
6.60993
6.67328
6.57909
6.60054
6.55687
6.55336
6.53909
6.52356
6.5094
6.48009
6.52532
6.49016
6.49512
6.45733
6.51885
6.48312
6.49664
6.47323
6.5027
6.49146
6.51675
6.52739
6.5257
6.5359
6.54445
6.41745
6.5496
5.95847
6.2875
4.2998
3.72323
-0.11257
-1.2163
-3.68793
-4.36217
-4.52919
-4.56943
-4.57893
-11.551
-10.9747
0.787286
0.989029
6.22835
5.45447
7.9119
7.25008
8.51935
8.13764
8.83846
8.6902
9.0366
9.03537
9.07702
9.26891
8.34345
8.79595
8.262
8.80655
8.32896
8.78417
8.31416
8.66076
8.49254
8.80383
8.37695
8.74844
7.69336
8.04415
7.37454
7.66193
7.20091
7.43338
7.22629
7.43097
6.87817
7.06921
6.78085
6.89588
6.7018
6.76392
6.63561
6.66535
6.5923
6.59907
6.56187
6.55524
6.53937
6.52593
6.50949
6.48944
6.51754
6.49444
6.49211
6.46807
6.50891
6.48688
6.49258
6.47787
6.49795
6.49294
6.51412
6.52399
6.53013
6.54054
6.55422
6.47383
6.53896
6.14223
6.23087
4.73442
3.45161
0.415725
-1.87245
-3.85458
-4.40602
-4.54095
-4.57313
-4.5808
-11.4735
-10.3061
0.264192
1.50565
5.74646
5.71092
7.58299
7.38033
8.31747
8.19168
8.73193
8.70305
8.98902
9.01153
9.04915
9.11992
8.43955
8.65431
8.39427
8.69857
8.45326
8.6986
8.4231
8.61252
8.54759
8.71455
8.44345
8.5995
7.84249
7.96811
7.47057
7.58968
7.28998
7.40129
7.26255
7.35032
6.96097
7.03671
6.83246
6.87751
6.73281
6.75299
6.65513
6.66171
6.60249
6.59956
6.56583
6.55769
6.53974
6.52861
6.50992
6.49706
6.51202
6.4981
6.49017
6.47643
6.5017
6.48974
6.48955
6.48133
6.49442
6.49358
6.51214
6.52095
6.53459
6.54524
6.56793
6.52455
6.54693
6.30664
6.23762
5.16035
3.24985
0.913743
-2.54127
-4.07891
-4.467
-4.55729
-4.5783
-4.58335
-11.4423
-10.0133
0.11468
1.90277
5.43608
5.89149
7.33745
7.46531
8.15836
8.21929
8.64832
8.70344
8.9521
8.98717
9.02003
9.00102
8.49989
8.5317
8.50399
8.61259
8.55794
8.63387
8.51346
8.57447
8.59338
8.64281
8.49289
8.48711
7.95634
7.91704
7.54197
7.53423
7.36265
7.37926
7.28981
7.28883
7.02524
7.0155
6.87419
6.86682
6.75733
6.74688
6.67059
6.66081
6.61055
6.60139
6.5689
6.56064
6.53997
6.53172
6.51025
6.50369
6.50778
6.50165
6.4886
6.48335
6.4961
6.49226
6.48698
6.48407
6.49158
6.49358
6.5107
6.51786
6.53931
6.54959
6.58441
6.57275
6.56547
6.46423
6.28467
5.6195
3.06493
1.45627
-3.28707
-4.34953
-4.5402
-4.57671
-4.58443
-4.58632
-11.4682
-10.0682
0.298924
2.23024
5.24898
6.03259
7.14476
7.52777
8.02462
8.23224
8.57972
8.69613
8.92375
8.96292
8.993
8.90142
8.53892
8.41147
8.60826
8.53314
8.65741
8.57699
8.59657
8.53811
8.63796
8.57905
8.53657
8.39573
8.05055
7.8794
7.59868
7.48534
7.42781
7.36149
7.31355
7.23786
7.07937
6.99957
6.91059
6.86025
6.77792
6.74344
6.68342
6.66157
6.617
6.6042
6.57103
6.56415
6.53975
6.5354
6.51004
6.50995
6.504
6.50552
6.48676
6.48961
6.49123
6.49489
6.48436
6.48644
6.48901
6.49303
6.5097
6.51424
6.54452
6.553
6.60279
6.6208
6.5878
6.62495
6.35112
6.15418
2.8421
2.12409
-4.1802
-4.65513
-4.61967
-4.59739
-4.59091
-4.58942
-11.5502
-10.482
0.820491
2.51409
5.15114
6.1604
6.9811
7.58557
7.90236
8.23952
8.5203
8.68432
8.9029
8.93901
8.97081
8.81264
8.56853
8.27826
8.7234
8.44571
8.76505
8.51611
8.6828
8.49542
8.68889
8.51463
8.58419
8.31251
8.13778
7.84614
7.64869
7.43422
7.49332
7.34297
7.33838
7.19018
7.13035
6.984
6.94542
6.85493
6.79657
6.74099
6.69469
6.6632
6.62215
6.60779
6.57208
6.56831
6.53869
6.53989
6.50877
6.5164
6.49988
6.51017
6.48401
6.49587
6.48622
6.49804
6.48119
6.48875
6.48635
6.49193
6.50914
6.50955
6.55056
6.55473
6.62239
6.67086
6.60729
6.7981
6.41449
6.81347
2.51554
3.01543
-5.30643
-4.98106
-4.69853
-4.61734
-4.5971
-4.59233
-11.6751
-11.3054
1.72605
2.75977
5.11798
6.29533
6.82572
7.65457
7.77901
8.24884
8.46539
8.67019
8.88924
8.91519
8.95615
8.72724
8.59995
8.1156
8.86743
8.33439
8.89542
8.4386
8.78318
8.43747
8.7545
8.44044
8.64543
8.2254
8.22967
7.80908
7.69935
7.37211
7.56715
7.31857
7.36891
7.13891
7.18471
6.96404
6.98225
6.84825
6.81501
6.73808
6.70528
6.66512
6.62613
6.61212
6.57174
6.57339
6.53628
6.54556
6.50583
6.5237
6.49457
6.51614
6.47963
6.50287
6.48024
6.50222
6.47692
6.49134
6.48323
6.49023
6.50913
6.50311
6.55795
6.55378
6.64266
6.7253
6.61652
6.99417
6.44655
7.6607
1.9972
4.25984
-6.77831
-5.305
-4.76905
-4.63456
-4.60238
-4.59478
-11.8151
-12.6358
3.11093
2.95182
5.13137
6.4555
6.65783
7.75125
7.64146
8.26798
8.41069
8.65529
8.88313
8.89063
8.95218
8.6377
8.64559
7.90347
9.06283
8.17928
9.06649
8.32901
8.91116
8.35299
8.84534
8.34546
8.73164
8.12127
8.33851
7.75954
7.75866
7.28905
7.65867
7.28215
7.41057
7.07652
7.24964
6.93441
7.02505
6.8374
6.83507
6.73325
6.716
6.66682
6.62894
6.61733
6.56955
6.57984
6.53183
6.55299
6.5004
6.53269
6.48704
6.52426
6.47266
6.51152
6.47228
6.50809
6.47086
6.49463
6.47932
6.48786
6.50992
6.49404
6.56751
6.54893
6.66299
6.78724
6.60617
7.22717
6.40814
8.78314
1.16204
6.0366
-8.75025
-5.59102
-4.82307
-4.64725
-4.60624
-4.59651
-11.9227
-14.6295
5.13136
3.04954
5.17818
6.6598
6.45363
7.89551
7.474
8.3061
8.35162
8.64083
8.88565
8.86375
8.96313
8.53517
8.72117
7.61523
9.33993
7.95333
9.30253
8.16662
9.08471
8.22647
8.97583
8.215
8.85767
7.98401
8.47915
7.68682
7.83666
7.17235
7.77996
7.22544
7.47062
6.99374
7.33398
6.88841
7.07884
6.81898
6.85893
6.72486
6.72781
6.66789
6.6305
6.62379
6.56482
6.58842
6.5244
6.56317
6.49135
6.54458
6.47597
6.5357
6.46184
6.52306
6.46108
6.51666
6.46214
6.49925
6.47422
6.48472
6.512
6.48116
6.58052
6.53856
6.68271
6.86121
6.5636
7.5177
6.24198
10.3056
-0.172663
8.60021
-11.4396
-5.78089
-4.85289
-4.65402
-4.60832
-4.59739
-13.8317
-15.1613
-8.18286
-9.60475
-8.86972
-8.8617
-8.83955
-8.15232
-9.51122
-8.48697
-9.56582
-8.80261
-9.68742
-9.07165
-9.36756
-8.41166
-9.07704
-7.39626
-9.84372
-8.13131
-9.48583
-8.32864
-9.06473
-8.3489
-8.5388
-7.82213
-8.15663
-7.12228
-8.31589
-7.44106
-7.73775
-7.1591
-7.74142
-7.24857
-7.52668
-7.12568
-7.2222
-6.93509
-6.98655
-6.84163
-6.83614
-6.74952
-6.76885
-6.70817
-6.70067
-6.6805
-6.65948
-6.65819
-6.64829
-6.66293
-6.61444
-6.64291
-6.60971
-6.63664
-6.61307
-6.62863
-6.62512
-6.6232
-6.62746
-6.57016
-6.72003
-6.57433
-6.823
-6.56468
-7.00034
-6.58264
-7.27333
-6.67986
-7.64832
-6.96781
-8.0007
-7.54329
-7.99954
-8.33556
-6.95585
-9.21488
-1.52027
-3.38179
-3.66403
-3.71972
-13.7782
-14.3665
-8.97332
-9.57536
-8.95604
-8.89268
-8.83575
-8.38433
-9.29288
-8.64929
-9.39332
-8.92969
-9.55473
-9.1571
-9.29604
-8.61401
-8.90405
-7.78993
-9.45173
-8.36175
-9.23358
-8.46871
-8.9074
-8.41317
-8.47494
-7.95079
-8.04105
-7.32845
-8.1037
-7.51745
-7.64984
-7.25759
-7.6398
-7.31184
-7.46001
-7.17032
-7.17323
-6.9575
-6.95864
-6.84894
-6.82667
-6.75995
-6.75752
-6.71054
-6.69681
-6.67925
-6.66009
-6.65701
-6.64894
-6.65647
-6.62046
-6.63737
-6.61541
-6.63279
-6.61749
-6.62792
-6.62663
-6.62553
-6.62745
-6.5933
-6.70052
-6.61357
-6.78835
-6.63267
-6.9388
-6.68787
-7.17521
-6.82165
-7.51011
-7.10949
-7.85024
-7.58763
-7.92377
-8.11528
-7.09982
-8.27416
-2.47797
-3.44568
-3.67388
-3.72281
-13.7009
-13.8106
-9.52372
-9.59466
-9.02004
-8.9234
-8.84778
-8.56201
-9.13674
-8.75623
-9.26926
-9.01337
-9.46309
-9.22124
-9.25752
-8.77765
-8.78742
-8.07275
-9.17001
-8.51392
-9.047
-8.56083
-8.78756
-8.45538
-8.43471
-8.05505
-7.95777
-7.47528
-7.94615
-7.56526
-7.58308
-7.32524
-7.56673
-7.35618
-7.41098
-7.20337
-7.13311
-6.97133
-6.93526
-6.85283
-6.81905
-6.76789
-6.74804
-6.71165
-6.69316
-6.67813
-6.66011
-6.65609
-6.64902
-6.6518
-6.62441
-6.63345
-6.61958
-6.63029
-6.62092
-6.62772
-6.62818
-6.62777
-6.62893
-6.61082
-6.68882
-6.64239
-6.76695
-6.68222
-6.89958
-6.7636
-7.11076
-6.92179
-7.41551
-7.2056
-7.74
-7.60814
-7.85398
-7.94355
-7.15657
-7.61277
-3.16575
-3.53988
-3.6917
-3.72859
-13.6189
-13.4303
-9.89961
-9.63966
-9.06487
-8.95328
-8.86826
-8.70536
-9.0189
-8.82754
-9.17608
-9.06894
-9.39925
-9.27439
-9.23978
-8.92186
-8.69993
-8.28328
-8.9586
-8.6187
-8.90137
-8.62459
-8.69025
-8.48528
-8.40899
-8.14818
-7.89006
-7.58413
-7.82282
-7.59726
-7.52748
-7.37305
-7.51187
-7.39003
-7.37255
-7.23103
-7.09674
-6.98022
-6.9138
-6.85484
-6.8122
-6.77463
-6.73928
-6.71209
-6.68943
-6.67718
-6.65962
-6.65534
-6.64875
-6.64839
-6.62695
-6.63048
-6.62282
-6.62864
-6.62375
-6.62782
-6.62982
-6.63
-6.63123
-6.62454
-6.68214
-6.6644
-6.75396
-6.71973
-6.87453
-6.82003
-7.06779
-6.99466
-7.3491
-7.27199
-7.6565
-7.61368
-7.79062
-7.80714
-7.16393
-7.14796
-3.66123
-3.64361
-3.71482
-3.7364
-13.5442
-13.1836
-10.1445
-9.69718
-9.09114
-8.98211
-8.89189
-8.8297
-8.92132
-8.87733
-9.10121
-9.1071
-9.35369
-9.32401
-9.23348
-9.06233
-8.62034
-8.45024
-8.78791
-8.69868
-8.77821
-8.67476
-8.60386
-8.51015
-8.39075
-8.24131
-7.82436
-7.6713
-7.71816
-7.62313
-7.47535
-7.40922
-7.4675
-7.41978
-7.33915
-7.25846
-7.05972
-6.98716
-6.8921
-6.85625
-6.80518
-6.78133
-6.73024
-6.71238
-6.68532
-6.67647
-6.65863
-6.65471
-6.64827
-6.64585
-6.62852
-6.62799
-6.62555
-6.62745
-6.62625
-6.62804
-6.63155
-6.63221
-6.63386
-6.63572
-6.67849
-6.68215
-6.74594
-6.74969
-6.85786
-6.8644
-7.03767
-7.05046
-7.29999
-7.31995
-7.59016
-7.6105
-7.7338
-7.69728
-7.14644
-6.82228
-4.01833
-3.7442
-3.74039
-3.7454
-13.4839
-13.0438
-10.2858
-9.76103
-9.09753
-9.01018
-8.91442
-8.9479
-8.82919
-8.91643
-9.03508
-9.13566
-9.31922
-9.3761
-9.23043
-9.21367
-8.52991
-8.59692
-8.63433
-8.77196
-8.66242
-8.72367
-8.51842
-8.53607
-8.37375
-8.34517
-7.74814
-7.75051
-7.61921
-7.65114
-7.41999
-7.44043
-7.42741
-7.45087
-7.30578
-7.29063
-7.01767
-6.99501
-6.86804
-6.85829
-6.79709
-6.78913
-6.71987
-6.71306
-6.68049
-6.67614
-6.65709
-6.6542
-6.64763
-6.64391
-6.62943
-6.62559
-6.62812
-6.62639
-6.62864
-6.62819
-6.6334
-6.6344
-6.6365
-6.64526
-6.67642
-6.69749
-6.74033
-6.77549
-6.84527
-6.90211
-7.01398
-7.0968
-7.26006
-7.35793
-7.53383
-7.60324
-7.68341
-7.60807
-7.11997
-6.59591
-4.27436
-3.83413
-3.76578
-3.75468
-13.4412
-12.9969
-10.3377
-9.83046
-9.08089
-9.03861
-8.93176
-9.07218
-8.72881
-8.95425
-8.96965
-9.16088
-9.28979
-9.43627
-9.2222
-9.39166
-8.40942
-8.74476
-8.47672
-8.85509
-8.53976
-8.78321
-8.42403
-8.56917
-8.35137
-8.47174
-7.64791
-7.83504
-7.51369
-7.68964
-7.35454
-7.47296
-7.38583
-7.48867
-7.26718
-7.3331
-6.96559
-7.00702
-6.83928
-6.86236
-6.78686
-6.79937
-6.707
-6.71476
-6.67452
-6.67638
-6.6549
-6.65382
-6.64687
-6.6424
-6.6299
-6.62293
-6.63084
-6.62516
-6.63113
-6.62811
-6.63541
-6.63653
-6.63886
-6.6539
-6.67475
-6.71196
-6.73501
-6.79989
-6.83319
-6.9376
-6.99145
-7.13991
-7.22275
-7.39277
-7.48175
-7.59553
-7.63923
-7.53533
-7.09488
-6.44137
-4.45506
-3.90906
-3.78877
-3.76333
-13.4165
-13.0388
-10.3037
-9.90968
-9.036
-9.06962
-8.9392
-9.21578
-8.60562
-9.0004
-8.89712
-9.18851
-9.25958
-9.51078
-9.19855
-9.61563
-8.23613
-8.91663
-8.29314
-8.96586
-8.39464
-8.86675
-8.30937
-8.61668
-8.31537
-8.63598
-7.50715
-7.93981
-7.3882
-7.74849
-7.27086
-7.51363
-7.33657
-7.53939
-7.21703
-7.39284
-6.89709
-7.02734
-6.80284
-6.87034
-6.77307
-6.81376
-6.69009
-6.71834
-6.66683
-6.67753
-6.65186
-6.65365
-6.64598
-6.64118
-6.63012
-6.61964
-6.63408
-6.62344
-6.63395
-6.6276
-6.63765
-6.63858
-6.64069
-6.66229
-6.6724
-6.72698
-6.72801
-6.82553
-6.81825
-6.97511
-6.96511
-7.18562
-7.18193
-7.43082
-7.42863
-7.59056
-7.60085
-7.47591
-7.07814
-6.3399
-4.57782
-3.96659
-3.80755
-3.77055
-13.407
-13.1752
-10.1763
-10.0082
-8.95489
-9.1072
-8.93033
-9.39477
-8.44215
-9.06638
-8.80869
-9.22485
-9.22205
-9.60771
-9.14558
-9.91132
-7.98029
-9.1405
-8.05755
-9.12623
-8.20764
-8.99132
-8.15998
-8.68839
-8.25435
-8.85805
-7.30378
-8.0838
-7.22609
-7.84073
-7.15825
-7.57097
-7.27201
-7.61099
-7.14685
-7.47935
-6.80347
-7.06178
-6.75465
-6.88484
-6.75369
-6.83468
-6.66704
-6.72506
-6.65661
-6.68008
-6.64768
-6.65381
-6.64494
-6.64016
-6.63028
-6.61531
-6.63829
-6.62084
-6.63741
-6.62638
-6.64021
-6.64055
-6.6417
-6.6711
-6.66823
-6.7441
-6.71711
-6.85534
-6.79672
-7.01925
-6.92952
-7.24027
-7.13096
-7.47887
-7.36887
-7.59155
-7.56773
-7.4272
-7.07471
-6.27898
-4.65406
-4.00546
-3.82082
-3.77568
-13.4072
-13.4227
-9.93583
-10.1423
-8.82562
-9.15796
-8.89576
-9.63037
-8.2155
-9.16752
-8.69318
-9.27781
-9.16883
-9.7384
-9.04335
-10.3147
-7.60063
-9.4539
-7.7357
-9.3659
-7.95235
-9.18031
-7.95602
-8.79843
-8.15164
-9.16627
-7.00687
-8.29313
-7.00491
-7.98469
-7.00167
-7.65664
-7.1818
-7.7146
-7.04468
-7.60609
-6.67238
-7.11875
-6.68888
-6.90971
-6.72576
-6.86546
-6.63491
-6.73678
-6.64265
-6.68481
-6.6419
-6.65452
-6.64368
-6.6393
-6.6306
-6.60942
-6.64406
-6.61682
-6.64192
-6.62412
-6.64326
-6.64244
-6.64154
-6.68115
-6.66087
-6.7653
-6.69957
-6.89299
-6.7639
-7.07585
-6.87788
-7.31168
-7.06166
-7.54516
-7.29572
-7.60228
-7.53909
-7.3867
-7.08866
-6.25075
-4.69064
-4.02508
-3.82774
-3.77832
)
;

boundaryField
{
    F1_1
    {
        type            calculated;
        value           nonuniform List<scalar> 
80
(
65.2891
5.88475
2.83371
10.5622
8.53658
10.1679
9.19589
10.022
9.41973
10.0179
9.55779
10.0241
9.86108
10.4309
9.6316
11.1488
8.24966
10.3312
8.41204
10.1528
8.42217
9.88881
8.40961
9.47243
8.79088
9.69216
8.44283
9.85614
7.371
8.86765
7.46379
8.50441
7.46356
8.16475
7.7107
8.29109
7.36836
7.88338
7.45633
7.71956
7.50273
7.61937
7.51209
7.54125
7.51438
7.49514
7.50933
7.47183
7.47515
7.40127
7.52749
7.42932
7.51219
7.43592
7.46586
7.36945
7.52237
7.41765
7.46371
7.36201
7.46449
7.28448
7.59327
7.38334
7.59679
7.435
7.62954
7.51872
7.69998
7.67493
7.81191
7.91174
8.07522
8.3872
8.36941
8.99367
9.98771
10.4164
10.5448
10.5766
)
;
    }
    F1_2
    {
        type            calculated;
        value           nonuniform List<scalar> 
80
(
12.7575
15.8931
-3.49606
2.33007
-7.49327
-3.10032
-8.08939
-5.48924
-8.21874
-6.95752
-8.26333
-7.83145
-8.49098
-8.6623
-8.34567
-9.7082
-7.07197
-9.07774
-7.30582
-8.92419
-7.32112
-8.657
-7.28968
-8.28238
-7.60426
-8.51692
-7.36485
-8.71621
-6.352
-7.75041
-6.21312
-7.27156
-6.10568
-6.87874
-6.28253
-7.04198
-5.72383
-6.49153
-5.75535
-6.22902
-5.71855
-6.03076
-5.69
-5.89646
-5.68481
-5.80415
-5.67835
-5.74007
-5.67757
-5.70152
-5.67499
-5.67736
-5.67109
-5.66471
-5.67191
-5.66289
-5.6679
-5.66638
-5.65781
-5.67954
-5.65651
-5.70852
-5.66501
-5.74463
-5.68947
-5.77463
-5.75362
-5.76172
-5.90785
-5.71675
-6.21227
-5.60734
-6.19845
-4.96698
-7.59608
-6.78738
-6.67695
-6.65385
-6.64852
-6.64782
)
;
    }
    F1_3
    {
        type            calculated;
        value           nonuniform List<scalar> 
80
(
-11.7636
-14.7828
4.35301
-1.39476
8.6522
4.11915
9.38105
6.51215
9.37041
7.77419
9.28157
8.55465
9.22556
9.08534
9.10855
9.87093
7.81781
9.37011
7.6965
9.29847
7.81464
9.19708
7.86708
8.8958
8.24803
9.18378
8.03553
9.41778
7.02609
8.45149
6.93503
8.00463
6.83144
7.6091
7.04584
7.79118
6.51582
7.25403
6.5673
7.00796
6.57139
6.83228
6.55477
6.69689
6.55134
6.60779
6.54689
6.5517
6.53918
6.5203
6.5108
6.46111
6.54318
6.48123
6.50317
6.43448
6.54118
6.47433
6.50584
6.46289
6.51319
6.48706
6.52218
6.53383
6.51861
6.52948
6.53992