/*--------------------------------*- C++ -*----------------------------------*\
| =========                 |                                                 |
| \\      /  F ield         | OpenFOAM: The Open Source CFD Toolbox           |
|  \\    /   O peration     | Version:  5.x                                   |
|   \\  /    A nd           | Web:      www.OpenFOAM.org                      |
|    \\/     M anipulation  |                                                 |
\*---------------------------------------------------------------------------*/
FoamFile
{
    version     2.0;
    format      ascii;
    class       volScalarField;
    location    "0.3";
    object      gradTx;
}
// * * * * * * * * * * * * * * * * * * * * * * * * * * * * * * * * * * * * * //

dimensions      [0 -1 0 1 0 0 0];

internalField   nonuniform List<scalar> 
3200
(
26.9567
27.3569
7.3156
1.51163
1.20678
0.56122
0.520959
0.350223
0.338822
0.272867
0.266275
0.176676
0.181853
0.405084
0.452452
1.26522
1.29344
1.00953
0.992493
0.880683
0.866976
0.732818
0.712626
0.422718
0.414641
0.573764
0.599367
1.05008
1.05425
0.678731
0.655929
0.51162
0.494648
0.267407
0.261367
0.392265
0.388997
0.209568
0.196978
0.10407
0.0967403
0.043806
0.0394317
0.00551587
0.00309609
-0.0139725
-0.0148854
-0.0149781
-0.0167971
-0.0580199
-0.0592343
-0.0462348
-0.0451403
-0.0292886
-0.0302957
-0.0698762
-0.0702916
-0.0386191
-0.0384678
-0.0608362
-0.064752
-0.134054
-0.13555
-0.103393
-0.100986
-0.0849492
-0.0824008
-0.0612833
-0.0569947
-0.0156705
-0.00942634
0.0289329
0.0395403
0.160291
0.175904
0.0809151
0.071136
0.0278562
0.00801005
-83.229
33.7969
22.1902
7.21384
1.86195
1.18098
0.602935
0.511586
0.366233
0.340584
0.284296
0.270217
0.203214
0.213812
0.38917
0.493625
1.1584
1.22416
1.0151
0.978443
0.877772
0.845392
0.727003
0.681777
0.449572
0.429926
0.5443
0.598761
0.960763
0.970589
0.673902
0.624467
0.506505
0.469095
0.283274
0.268524
0.363399
0.355273
0.211692
0.183809
0.105288
0.088547
0.0428003
0.0328014
0.00448551
-0.00092811
-0.0151237
-0.0172488
-0.018327
-0.022277
-0.0543859
-0.0569972
-0.0472881
-0.045071
-0.0332472
-0.0354
-0.0657914
-0.0667546
-0.0432248
-0.0431309
-0.0614961
-0.0698899
-0.123888
-0.127009
-0.101852
-0.0963656
-0.0811344
-0.0747715
-0.0535662
-0.0428551
-0.00307412
0.0129705
0.0563734
0.0826796
0.193915
0.240975
0.239336
0.214747
0.0826304
0.023493
-85.3414
40.3834
17.8764
6.72707
2.02541
1.15105
0.625174
0.504367
0.377449
0.343568
0.294035
0.276273
0.226645
0.239179
0.37609
0.512381
1.07555
1.16588
1.01376
0.966953
0.87213
0.82725
0.718264
0.658408
0.467925
0.439851
0.517233
0.585855
0.885531
0.899191
0.659187
0.595749
0.498172
0.44948
0.292302
0.2713
0.338656
0.326972
0.209191
0.172669
0.104037
0.0815164
0.0403667
0.0269054
0.00254049
-0.00459984
-0.0167566
-0.0196532
-0.0215603
-0.02663
-0.0519312
-0.0552525
-0.0480413
-0.0453856
-0.0366464
-0.0393744
-0.0628835
-0.0641971
-0.0468927
-0.0470552
-0.0625545
-0.0732034
-0.115756
-0.119599
-0.0995234
-0.0921349
-0.0769647
-0.0677358
-0.0454292
-0.0298783
0.0104715
0.0342725
0.0844969
0.12242
0.230104
0.30799
0.398671
0.362656
0.134483
0.0373638
-87.4546
46.746
14.2326
5.98238
2.03576
1.10716
0.631196
0.497381
0.384935
0.347171
0.302497
0.283601
0.247587
0.259568
0.36303
0.514057
1.0116
1.1173
1.00821
0.957385
0.864491
0.811674
0.707561
0.640265
0.479784
0.44556
0.490517
0.563708
0.821743
0.837942
0.637413
0.568403
0.487888
0.434211
0.295888
0.270548
0.317081
0.30292
0.203446
0.162818
0.100947
0.075235
0.036829
0.0214484
-9.12186e-05
-0.00806899
-0.0187584
-0.0220959
-0.024666
-0.0301727
-0.0503549
-0.0539284
-0.0486117
-0.045943
-0.0395864
-0.0425171
-0.060863
-0.0623838
-0.0498615
-0.0503657
-0.0638064
-0.0752402
-0.109173
-0.113146
-0.0966871
-0.0882151
-0.072557
-0.0612231
-0.037022
-0.0178935
0.0246785
0.0545166
0.113111
0.159368
0.267482
0.374489
0.563069
0.518245
0.181089
0.0485482
-89.5691
52.918
11.1096
5.06549
1.92535
1.04514
0.623513
0.489526
0.389424
0.351043
0.309922
0.291609
0.266606
0.276293
0.348062
0.501866
0.963323
1.0773
1.00033
0.9495
0.855252
0.798152
0.695387
0.625853
0.486594
0.448103
0.462674
0.53417
0.767631
0.785368
0.610386
0.541524
0.476538
0.422335
0.294963
0.266928
0.297941
0.282288
0.195354
0.153824
0.0964164
0.0694665
0.0323745
0.0162412
-0.00326245
-0.0114272
-0.0210521
-0.0245676
-0.0276527
-0.0331272
-0.0494418
-0.0529588
-0.0490752
-0.0466471
-0.0421542
-0.0450425
-0.0595148
-0.0611316
-0.0523086
-0.0531581
-0.065138
-0.0763764
-0.103787
-0.107509
-0.093531
-0.0845824
-0.067976
-0.0552247
-0.0284118
-0.0068468
0.0393942
0.0736091
0.142216
0.193839
0.304899
0.43772
0.736796
0.685521
0.219505
0.0559925
-91.6852
58.9345
8.38397
4.03241
1.72451
0.964753
0.604304
0.480301
0.391431
0.355015
0.316428
0.299878
0.284232
0.29053
0.329807
0.477362
0.928937
1.04494
0.991407
0.943352
0.844528
0.786458
0.681887
0.614232
0.489376
0.448526
0.432557
0.498156
0.722152
0.740508
0.57912
0.514498
0.464765
0.413393
0.290072
0.260954
0.280676
0.264516
0.185454
0.145472
0.0906741
0.0641094
0.0270864
0.0111728
-0.00688397
-0.0147243
-0.0235879
-0.0270545
-0.0305422
-0.0356467
-0.0490393
-0.0522842
-0.0494796
-0.047433
-0.0444259
-0.0471039
-0.0586802
-0.0602964
-0.0543681
-0.0555046
-0.0664986
-0.0768651
-0.0993481
-0.102579
-0.0901731
-0.0812555
-0.0632405
-0.0497886
-0.0195916
0.00321263
0.0545902
0.0913245
0.171998
0.225928
0.341441
0.494293
0.924529
0.869379
0.245817
0.0587051
-93.8032
64.8316
5.95202
2.91753
1.46171
0.868362
0.575616
0.469656
0.391329
0.359064
0.322046
0.308107
0.300976
0.303442
0.307213
0.44069
0.907968
1.01935
0.98226
0.939236
0.832176
0.776627
0.666913
0.604902
0.488801
0.447956
0.399178
0.455808
0.684902
0.702844
0.543992
0.486884
0.453066
0.407338
0.281421
0.253035
0.264855
0.249268
0.173999
0.137721
0.0838091
0.0591762
0.0209587
0.00619403
-0.0109109
-0.0179777
-0.0263373
-0.0295386
-0.0333655
-0.0378332
-0.0490416
-0.0518505
-0.0498526
-0.0482564
-0.0464696
-0.0488086
-0.0582433
-0.0597622
-0.0561444
-0.0574561
-0.0678836
-0.0768685
-0.0956786
-0.0982748
-0.086675
-0.078292
-0.058322
-0.045022
-0.0104756
0.0121288
0.0703711
0.107281
0.202847
0.25555
0.376484
0.539764
1.13167
1.07597
0.254665
0.0558406
-95.9232
70.6461
3.72423
1.73947
1.16438
0.759921
0.53944
0.457891
0.389374
0.363296
0.326735
0.316059
0.317332
0.316297
0.279426
0.39066
0.901228
0.999697
0.97335
0.937682
0.817765
0.768965
0.650033
0.597737
0.485218
0.447706
0.361586
0.406565
0.656102
0.672257
0.5048
0.458346
0.44185
0.404497
0.268876
0.243516
0.250138
0.236415
0.160991
0.130681
0.0757788
0.0547915
0.0138971
0.00131238
-0.0153364
-0.0211769
-0.029291
-0.0319961
-0.0361617
-0.0397489
-0.0493787
-0.0516081
-0.0502088
-0.0490867
-0.0483474
-0.0502288
-0.0581224
-0.0594329
-0.0577229
-0.0590423
-0.0693257
-0.0764782
-0.0926572
-0.0945376
-0.0830479
-0.0757916
-0.0531364
-0.041105
-0.000881887
0.0196193
0.0870046
0.120889
0.235409
0.28244
0.409828
0.568084
1.36471
1.31317
0.23861
0.0468494
-98.0452
76.4157
1.62086
0.504993
0.860191
0.644103
0.497692
0.445595
0.385712
0.367941
0.330383
0.323529
0.333777
0.330583
0.24571
0.32465
0.910968
0.985034
0.964811
0.939499
0.800511
0.76411
0.630489
0.592984
0.478636
0.449401
0.318751
0.349141
0.636641
0.649019
0.460774
0.428616
0.431474
0.405593
0.251927
0.232724
0.236241
0.226036
0.146185
0.12463
0.0663966
0.0512071
0.00570643
-0.00340395
-0.020192
-0.0242833
-0.0324595
-0.0343937
-0.0389798
-0.0414218
-0.050011
-0.0515101
-0.0505532
-0.0499011
-0.0501199
-0.0514081
-0.0582643
-0.0592239
-0.0591798
-0.0602695
-0.0708926
-0.0757264
-0.0902071
-0.0913347
-0.079251
-0.0739068
-0.0475255
-0.0383156
0.0095007
0.0252341
0.104978
0.131271
0.270668
0.306112
0.441933
0.570864
1.63167
1.59129
0.18724
0.0317306
-100.169
82.1796
-0.432122
-0.788348
0.578841
0.525485
0.452162
0.433604
0.380362
0.373373
0.3328
0.330313
0.350757
0.348133
0.205438
0.238343
0.941196
0.974141
0.956476
0.945863
0.779155
0.763145
0.607102
0.591305
0.468651
0.455155
0.269475
0.281434
0.628186
0.633808
0.410508
0.397488
0.422252
0.411804
0.229603
0.221026
0.222896
0.218446
0.12905
0.120049
0.0552956
0.0488377
-0.00393777
-0.00781146
-0.025554
-0.0272251
-0.0358766
-0.0366844
-0.041883
-0.0428483
-0.0509264
-0.0515099
-0.0508849
-0.0506803
-0.0518493
-0.0523643
-0.0586418
-0.0590548
-0.060591
-0.061115
-0.0726906
-0.0745883
-0.0882909
-0.08866
-0.0751842
-0.0728633
-0.0412277
-0.0370702
0.0211666
0.0282883
0.125088
0.137128
0.310085
0.325768
0.474312
0.536365
1.94267
1.92395
0.0859274
0.0114433
-102.293
76.84
6.15761
6.12618
0.17593
-0.0550922
-0.691801
-0.679505
-0.251536
-0.207914
0.0601905
0.0897867
0.306058
0.319659
0.227232
0.27027
1.10376
1.13574
0.934254
0.913837
0.684573
0.666775
0.530261
0.517603
0.436557
0.432821
0.440818
0.446999
0.469215
0.463491
0.272901
0.267285
0.421832
0.416067
0.205303
0.201046
0.30841
0.307785
0.190247
0.178461
0.0787768
0.073033
0.0800933
0.0774251
0.0387179
0.0352637
0.0129505
0.0110283
0.00336208
0.00211337
-0.00973308
-0.0104706
-0.0105026
-0.0104481
-0.00567225
-0.00568565
-0.0100853
-0.00981068
-0.00128247
0.000442489
0.0292226
0.031481
0.0514343
0.0535283
0.078967
0.0805647
0.0966874
0.0942278
0.0406967
0.0353428
0.0266312
-0.00617153
-0.724034
-0.739645
-0.239497
-0.208638
-0.0223122
-0.00528335
-0.00131244
-0.00030661
-99.6442
79.5499
4.59572
4.49805
0.0594505
-0.388628
-0.829175
-0.782955
-0.393395
-0.286881
-0.0321707
0.0396122
0.23272
0.26966
0.238931
0.341847
1.03452
1.10773
0.94786
0.902205
0.713211
0.673025
0.55508
0.524797
0.447266
0.438681
0.454265
0.472093
0.509114
0.498219
0.337947
0.322091
0.426952
0.411442
0.239595
0.230619
0.320592
0.319073
0.217212
0.189601
0.103872
0.089886
0.0890096
0.0820573
0.0481809
0.0399826
0.0196486
0.0149274
0.0068371
0.00377153
-0.00657241
-0.00836887
-0.00905093
-0.00907298
-0.00571953
-0.00577585
-0.00897515
-0.0082944
-0.000977318
0.00284322
0.0261057
0.0311123
0.0478901
0.0525238
0.0729848
0.0762431
0.0872335
0.0811543
0.0344452
0.0204452
-0.00395265
-0.0759217
-0.63869
-0.678062
-0.3257
-0.258114
-0.0601588
-0.0153239
-0.00381684
-0.000887845
-98.3136
82.0894
3.2083
3.04359
-0.216633
-0.72247
-0.986042
-0.90017
-0.523966
-0.371806
-0.117241
-0.0154362
0.165612
0.222353
0.245273
0.389823
0.990039
1.08903
0.956893
0.896305
0.735896
0.682385
0.576393
0.533881
0.455217
0.443575
0.467622
0.496419
0.550932
0.538923
0.397218
0.372071
0.436888
0.413074
0.267375
0.256237
0.336437
0.334379
0.24121
0.203069
0.126101
0.106217
0.0981711
0.0877683
0.0566185
0.0451884
0.0257233
0.0189621
0.0101119
0.00572147
-0.00375314
-0.00631131
-0.00762536
-0.0078326
-0.0056302
-0.00574015
-0.00802003
-0.00704344
-0.000532194
0.00446637
0.0237192
0.030273
0.0448318
0.0508863
0.0676909
0.0716123
0.0784623
0.0697059
0.0268857
0.00596441
-0.0326319
-0.126037
-0.574277
-0.632138
-0.400496
-0.312784
-0.0918637
-0.0240204
-0.00597267
-0.00137808
-96.983
84.5142
1.94243
1.71299
-0.602868
-1.06602
-1.15693
-1.02905
-0.64563
-0.460878
-0.196242
-0.0736881
0.10345
0.176376
0.246729
0.419555
0.965595
1.07957
0.963057
0.894395
0.754304
0.693845
0.595167
0.544411
0.460487
0.447041
0.48079
0.519719
0.595412
0.584818
0.45183
0.418454
0.450373
0.419584
0.289777
0.278206
0.355576
0.353334
0.263012
0.218095
0.14605
0.122079
0.10743
0.0943124
0.06427
0.050718
0.0312919
0.0230821
0.0132097
0.00787581
-0.00120968
-0.00430286
-0.00624354
-0.00668818
-0.00544803
-0.00561735
-0.0071949
-0.00601365
-2.63759e-05
0.00551953
0.0218409
0.0291136
0.0421139
0.0488189
0.0629123
0.0668643
0.0703152
0.0596201
0.0184507
-0.00780782
-0.0591157
-0.161953
-0.525469
-0.597775
-0.469505
-0.372751
-0.117419
-0.0307082
-0.00758134
-0.0017326
-95.6526
86.8716
0.753461
0.465912
-1.06318
-1.42447
-1.33662
-1.16823
-0.759419
-0.553208
-0.269613
-0.134166
0.0454208
0.130474
0.244061
0.434335
0.958416
1.07931
0.9673
0.895338
0.769524
0.706832
0.612025
0.556268
0.462939
0.448621
0.493752
0.54155
0.643346
0.635611
0.50246
0.462229
0.466369
0.43006
0.307454
0.296623
0.377907
0.375819
0.283006
0.234213
0.164083
0.137573
0.116633
0.101537
0.0712654
0.0564854
0.0364143
0.0272706
0.0161275
0.0101815
0.00109513
-0.00233968
-0.00492091
-0.00561063
-0.00520902
-0.00543783
-0.00647979
-0.00517582
0.000497335
0.0061419
0.0203247
0.0277254
0.0396481
0.0464563
0.0585395
0.0621363
0.0627339
0.0507533
0.00942001
-0.0205759
-0.0835342
-0.187435
-0.488296
-0.57141
-0.537216
-0.439019
-0.136195
-0.0348318
-0.0084871
-0.00191889
-94.3223
89.204
-0.398544
-0.731442
-1.57018
-1.80092
-1.51959
-1.3171
-0.865182
-0.648704
-0.337117
-0.196458
-0.00886519
0.083397
0.238297
0.435739
0.967344
1.08836
0.969932
0.89843
0.782219
0.721104
0.62732
0.569629
0.462232
0.447824
0.506609
0.561223
0.695664
0.691425
0.549377
0.504234
0.483989
0.443992
0.320666
0.311361
0.40358
0.401941
0.301246
0.251192
0.180378
0.15285
0.125607
0.109374
0.077645
0.0624679
0.0411023
0.0315413
0.0188393
0.0126144
0.00317505
-0.000409721
-0.00367321
-0.00457613
-0.0049443
-0.00522534
-0.00585815
-0.00451245
0.00102246
0.00642299
0.0190802
0.0261566
0.0373871
0.0438829
0.0545063
0.0575282
0.0556557
0.0430607
-6.32349e-05
-0.032023
-0.10631
-0.20503
-0.459816
-0.549707
-0.607444
-0.513426
-0.146876
-0.0359319
-0.00858848
-0.0019189
-92.9922
91.5515
-1.55193
-1.9085
-2.10148
-2.19787
-1.69948
-1.47602
-0.961608
-0.748075
-0.397843
-0.260674
-0.0593762
0.0337827
0.230803
0.423751
0.992675
1.10697
0.970678
0.903307
0.792708
0.736683
0.641172
0.584979
0.457805
0.4441
0.519635
0.577705
0.753533
0.752754
0.592422
0.545247
0.502403
0.461263
0.329322
0.322045
0.433014
0.432033
0.317468
0.269008
0.194948
0.168121
0.134146
0.117835
0.0833664
0.0687012
0.045321
0.0359399
0.0212938
0.0151772
0.00502195
0.0015083
-0.0025192
-0.00356244
-0.00468256
-0.00499836
-0.00531528
-0.00401634
0.00155322
0.00641409
0.0180591
0.024422
0.0353159
0.0411446
0.0507773
0.0531159
0.0490061
0.0365895
-0.00999209
-0.0417745
-0.128104
-0.216374
-0.437915
-0.529259
-0.683699
-0.598688
-0.147296
-0.0336659
-0.00784942
-0.00173145
-91.6622
93.9547
-2.74649
-3.09204
-2.63662
-2.61864
-1.86842
-1.64666
-1.04607
-0.852978
-0.4501
-0.327498
-0.105596
-0.0200151
0.223447
0.396702
1.03617
1.1356
0.96866
0.90991
0.801013
0.75384
0.653452
0.603169
0.448841
0.436807
0.533361
0.589479
0.818469
0.820469
0.630945
0.58609
0.520753
0.48217
0.332998
0.328006
0.466933
0.466675
0.331053
0.287856
0.207634
0.183684
0.141983
0.127026
0.0882991
0.0752861
0.0489821
0.0405512
0.0234088
0.017903
0.00660423
0.0034477
-0.00148392
-0.00254514
-0.00445254
-0.00477094
-0.00483671
-0.00369078
0.00211256
0.00613405
0.0172496
0.0225064
0.0334475
0.0382543
0.0473401
0.0489615
0.0426888
0.0314849
-0.020512
-0.0493417
-0.149816
-0.222379
-0.421206
-0.506261
-0.769492
-0.698565
-0.134172
-0.027868
-0.00631013
-0.00137355
-90.3324
96.4578
-4.02673
-4.30758
-3.15424
-3.06872
-2.01627
-1.8325
-1.11429
-0.966321
-0.491186
-0.398327
-0.14639
-0.0801509
0.218878
0.350986
1.10126
1.17486
0.962309
0.918515
0.806848
0.773126
0.663728
0.62552
0.434186
0.425172
0.548705
0.594339
0.892486
0.895848
0.663683
0.627756
0.538036
0.507505
0.33091
0.328214
0.506425
0.506738
0.340946
0.308189
0.218074
0.199961
0.148753
0.137171
0.0922061
0.082405
0.0519302
0.0455125
0.0250596
0.0208614
0.00786164
0.00545875
-0.000602944
-0.00149358
-0.00428573
-0.00455332
-0.00440635
-0.00355129
0.00274337
0.00557043
0.0166746
0.0203637
0.0318247
0.0351931
0.0442016
0.0451229
0.0365686
0.0280121
-0.0319578
-0.054041
-0.172641
-0.223328
-0.409036
-0.476112
-0.86862
-0.818147
-0.1027
-0.0186656
-0.00409614
-0.000880049
-89.0027
99.1112
-5.44592
-5.58045
-3.62915
-3.55749
-2.12941
-2.03977
-1.15973
-1.09278
-0.517007
-0.47554
-0.179773
-0.149613
0.220973
0.280534
1.19341
1.22557
0.949205
0.929835
0.809564
0.79544
0.671157
0.653998
0.412238
0.408236
0.567166
0.589101
0.978297
0.980649
0.688573
0.671575
0.552954
0.538685
0.321869
0.321189
0.553035
0.553448
0.345522
0.33082
0.225637
0.217564
0.153941
0.148654
0.0947082
0.0903523
0.0539173
0.0510361
0.026061
0.0241726
0.00869567
0.00761654
7.15046e-05
-0.000365695
-0.00421968
-0.00435208
-0.00400416
-0.00362926
0.003513
0.00467585
0.0163964
0.0179102
0.0305258
0.0319064
0.0413866
0.0416632
0.0304485
0.026596
-0.0449186
-0.0548784
-0.198179
-0.21887
-0.401603
-0.43293
-0.985446
-0.964307
-0.0459563
-0.00667641
-0.0014216
-0.000301348
-87.673
99.5328
-5.32963
-5.46605
-3.68635
-3.62562
-2.24675
-2.16355
-1.29518
-1.23155
-0.67093
-0.627465
-0.274746
-0.245411
0.029049
0.0741786
0.821463
0.860959
0.879585
0.882068
0.799488
0.788511
0.68188
0.664194
0.415723
0.411074
0.575094
0.59742
0.995881
0.998038
0.691179
0.673389
0.556869
0.542272
0.31682
0.315204
0.535732
0.535376
0.326846
0.311969
0.199079
0.19009
0.121093
0.115154
0.0603184
0.0560352
0.0207862
0.0182042
-0.00142177
-0.00260618
-0.00696387
-0.00850418
-0.0390934
-0.0397066
-0.022286
-0.022623
-0.0484106
-0.0483184
-0.0228772
-0.021682
-0.0231181
-0.0222777
-0.0108589
-0.00897004
0.0129664
0.0129281
-0.00900253
-0.0208229
-0.204772
-0.243592
-0.70991
-0.809639
-1.63137
-1.75525
-2.33272
-2.23094
-0.210243
-0.0477321
-0.0116894
-0.00280922
-78.1863
97.0854
-3.91964
-4.20388
-3.18767
-3.12695
-2.12205
-1.95566
-1.26407
-1.12523
-0.659136
-0.561797
-0.267418
-0.202151
0.0265173
0.124647
0.720697
0.81171
0.868097
0.878305
0.808437
0.782198
0.683567
0.643298
0.444065
0.433125
0.559512
0.605775
0.910789
0.91377
0.670511
0.632653
0.542434
0.511154
0.329307
0.324528
0.491566
0.489989
0.324249
0.291283
0.195334
0.174924
0.116909
0.103572
0.0579539
0.0483649
0.0190349
0.0132771
-0.00293009
-0.00561881
-0.00991446
-0.0132608
-0.0370535
-0.0384157
-0.0255765
-0.0262797
-0.045645
-0.0453473
-0.0254416
-0.0227206
-0.0224737
-0.0202846
-0.00957807
-0.00509477
0.0134874
0.013369
-0.00727631
-0.0354486
-0.202777
-0.296334
-0.732498
-0.988145
-1.87652
-2.2021
-2.8094
-2.55364
-0.556405
-0.138139
-0.0339818
-0.00816547
-77.2717
94.7845
-2.64471
-2.99369
-2.65074
-2.66605
-1.96382
-1.76882
-1.21088
-1.03204
-0.63262
-0.504033
-0.250942
-0.16544
0.0291958
0.155189
0.640123
0.763838
0.858451
0.87774
0.815639
0.778781
0.682921
0.628762
0.464877
0.449685
0.547136
0.603782
0.83778
0.839353
0.641629
0.594014
0.525644
0.486061
0.334715
0.326982
0.454148
0.451173
0.316346
0.273121
0.188572
0.161265
0.110941
0.0932831
0.0541503
0.0414861
0.0163423
0.00876944
-0.004978
-0.0085662
-0.0129022
-0.0171988
-0.0359103
-0.0376923
-0.0283248
-0.0291895
-0.0436656
-0.0431601
-0.0273181
-0.0236599
-0.0219067
-0.0186319
-0.00804818
-0.00178353
0.0147559
0.0146294
-0.00525202
-0.0445136
-0.203743
-0.335387
-0.762329
-1.14137
-2.14423
-2.63772
-3.32063
-2.94601
-0.839417
-0.215985
-0.0531413
-0.0127558
-76.3566
92.5802
-1.45199
-1.81113
-2.09945
-2.23386
-1.78534
-1.59654
-1.14257
-0.94772
-0.595314
-0.451284
-0.227791
-0.133118
0.0346011
0.171356
0.573984
0.717117
0.851807
0.880425
0.821829
0.777724
0.680607
0.618616
0.479743
0.461739
0.536394
0.594697
0.774072
0.772912
0.606747
0.556209
0.507707
0.465443
0.334384
0.324046
0.421942
0.417637
0.304784
0.256618
0.179525
0.148532
0.103671
0.0838574
0.0492915
0.0351095
0.0129495
0.00451095
-0.0074304
-0.0114821
-0.0158902
-0.0205592
-0.0354433
-0.0374139
-0.030663
-0.0315541
-0.0422848
-0.0415858
-0.0287068
-0.0245224
-0.0214001
-0.0172712
-0.00634528
0.00111651
0.0166898
0.0166773
-0.00245803
-0.0487897
-0.205828
-0.362654
-0.794116
-1.26971
-2.43237
-3.06584
-3.87421
-3.4077
-1.06312
-0.275414
-0.0674046
-0.0161353
-75.4409
90.4286
-0.297181
-0.631337
-1.55429
-1.825
-1.59651
-1.43494
-1.06398
-0.869768
-0.549729
-0.401759
-0.199523
-0.103745
0.041221
0.176867
0.518204
0.670717
0.849394
0.886591
0.827436
0.778787
0.676889
0.611547
0.489775
0.47009
0.526309
0.580773
0.717588
0.713076
0.567245
0.518328
0.489526
0.448382
0.32923
0.316789
0.393832
0.388451
0.290644
0.24128
0.168642
0.13636
0.095405
0.075027
0.0436219
0.0290559
0.00901127
0.000395438
-0.010196
-0.0143817
-0.0188661
-0.0235094
-0.0354916
-0.0374833
-0.0326945
-0.0335243
-0.0413604
-0.0404979
-0.029747
-0.0253417
-0.020933
-0.0161818
-0.00450354
0.00369175
0.0192457
0.0194863
0.00141641
-0.0486507
-0.207944
-0.37897
-0.824191
-1.37063
-2.74178
-3.48705
-4.47885
-3.94454
-1.22456
-0.311661
-0.0754018
-0.0179675
-74.5243
88.2891
0.859417
0.572077
-1.03517
-1.43612
-1.40507
-1.28178
-0.978392
-0.796923
-0.497323
-0.354455
-0.167036
-0.0763719
0.048187
0.174127
0.469956
0.623252
0.852627
0.896603
0.832619
0.78198
0.671711
0.606737
0.495727
0.475407
0.516296
0.563558
0.666762
0.658897
0.523872
0.479648
0.471844
0.434449
0.319815
0.30596
0.369028
0.362971
0.274575
0.226883
0.156153
0.124543
0.0863225
0.0666434
0.0372836
0.0232259
0.0046196
-0.00363788
-0.0132151
-0.0172672
-0.0218338
-0.0261645
-0.035938
-0.0378227
-0.0345002
-0.0352131
-0.040783
-0.0398047
-0.0305325
-0.0261604
-0.020479
-0.0153688
-0.00252219
0.00597222
0.0224122
0.0230234
0.00656221
-0.0441578
-0.209616
-0.384358
-0.850277
-1.43865
-3.07632
-3.89849
-5.14461
-4.56886
-1.31375
-0.320849
-0.0762506
-0.0180573
-73.6067
86.1213
2.05625
1.82836
-0.564277
-1.06453
-1.21736
-1.1359
-0.888006
-0.728875
-0.43871
-0.308982
-0.130717
-0.0503859
0.0550709
0.164566
0.427388
0.572726
0.863263
0.910926
0.837265
0.787558
0.664723
0.603771
0.498053
0.478278
0.506031
0.544108
0.620382
0.60981
0.476872
0.439517
0.455352
0.423611
0.306377
0.292062
0.346997
0.340794
0.256887
0.213416
0.142107
0.112997
0.076505
0.0586528
0.0303384
0.0175822
-0.000182278
-0.00761523
-0.0164527
-0.0201299
-0.024809
-0.0286003
-0.0366986
-0.0383691
-0.0361434
-0.0367067
-0.0404665
-0.0394423
-0.0311212
-0.0270307
-0.0200013
-0.0148647
-0.000366477
0.00793442
0.0262101
0.027239
0.0130696
-0.0350908
-0.210941
-0.37814
-0.871527
-1.46479
-3.44358
-4.29306
-5.88331
-5.30039
-1.31246
-0.300112
-0.0696485
-0.0163733
-72.6882
83.8827
3.33355
3.17129
-0.169044
-0.706854
-1.03907
-0.996743
-0.79414
-0.666134
-0.373734
-0.265494
-0.0905169
-0.0254331
0.0617694
0.148852
0.3895
0.516375
0.883601
0.930094
0.840951
0.796061
0.655261
0.602597
0.496943
0.47925
0.495356
0.523134
0.577481
0.565622
0.426054
0.397264
0.440769
0.4162
0.288828
0.275402
0.327421
0.321734
0.23759
0.20107
0.126382
0.101754
0.0659477
0.0510858
0.0227753
0.0121427
-0.00539406
-0.0115336
-0.0198942
-0.0229505
-0.027818
-0.0308624
-0.0377151
-0.0390702
-0.037674
-0.0380715
-0.0403406
-0.0393711
-0.0315399
-0.0280178
-0.0194473
-0.0147345
0.00203736
0.00949718
0.030696
0.0320584
0.0209286
-0.0209304
-0.212637
-0.358911
-0.888838
-1.43558
-3.85611
-4.65809
-6.709
-6.16816
-1.19216
-0.248105
-0.0559641
-0.0130567
-71.7688
81.5252
4.73647
4.6414
0.11411
-0.357417
-0.875812
-0.864052
-0.697347
-0.610019
-0.301435
-0.224712
-0.0459479
-0.00138722
0.0684537
0.126977
0.356147
0.450398
0.916759
0.954682
0.842864
0.808401
0.642275
0.603545
0.492317
0.478871
0.484216
0.5011
0.537231
0.526546
0.370809
0.352123
0.428912
0.412905
0.266728
0.25613
0.310158
0.305818
0.216395
0.190258
0.10866
0.0909634
0.0545573
0.0440607
0.0145086
0.00698251
-0.0110591
-0.0153608
-0.023546
-0.0256971
-0.0308987
-0.032971
-0.0389504
-0.0398805
-0.039132
-0.0393608
-0.0403435
-0.0395737
-0.0317856
-0.0292064
-0.0187384
-0.0150863
0.00481386
0.01051
0.0359739
0.037374
0.0300102
-0.000787661
-0.216168
-0.324366
-0.905522
-1.33148
-4.33345
-4.97324
-7.63841
-7.21336
-0.910606
-0.166024
-0.0363153
-0.00841715
-70.8488
78.9925
6.31875
6.28882
0.235044
-0.00611687
-0.733783
-0.737594
-0.597414
-0.562788
-0.219888
-0.188032
0.00397214
0.0216337
0.0755788
0.0982664
0.328182
0.369528
0.96705
0.985257
0.841682
0.826007
0.624194
0.607393
0.48378
0.477743
0.472615
0.478297
0.498856
0.493275
0.310084
0.303165
0.420771
0.41482
0.239207
0.234277
0.295235
0.293311
0.192673
0.181668
0.0883851
0.0809244
0.0421335
0.0378005
0.00536306
0.00224484
-0.0172721
-0.0190313
-0.0274381
-0.0283207
-0.0341037
-0.0349225
-0.0403871
-0.0407573
-0.0405504
-0.0406194
-0.0404162
-0.0400566
-0.0318227
-0.0307101
-0.0177566
-0.0160877
0.00815859
0.0107318
0.0422133
0.0430378
0.0400246
0.0267304
-0.224
-0.270924
-0.928445
-1.12438
-4.90533
-5.2074
-8.69146
-8.49368
-0.406729
-0.0593498
-0.0125982
-0.00290956
-69.9283
86.6714
-2.51028
-2.51724
-0.34385
-0.249271
0.0747854
0.117407
0.744785
0.76597
0.614424
0.598948
0.477191
0.467345
0.322035
0.340602
0.679147
0.724154
1.35191
1.35519
0.904341
0.869695
0.562862
0.535708
0.279616
0.278766
0.443955
0.463729
0.727067
0.718124
0.340208
0.322366
0.361303
0.356403
0.246677
0.240475
0.17685
0.169977
0.102018
0.0938536
0.0400176
0.0366633
0.0398125
0.0383394
0.0146936
0.0123439
-0.00116503
-0.00223407
-0.00337914
-0.00433231
-0.0207563
-0.0215788
-0.0199102
-0.0197722
-0.0150263
-0.0143256
-0.00450273
-0.00345608
0.00612052
0.00955362
0.0732275
0.0787058
0.131832
0.138764
0.229603
0.239478
0.359082
0.370053
0.490651
0.496211
0.507537
0.493873
0.204342
0.154588
-0.663775
-0.788272
-3.05365
-3.02801
-0.134946
-0.0179143
-94.2272
83.8206
-1.99369
-2.00519
-0.370965
-0.17956
0.0834281
0.176648
0.68974
0.735958
0.606242
0.56951
0.462792
0.44315
0.350742
0.400202
0.71407
0.814038
1.28773
1.29077
0.931806
0.855406
0.599378
0.53826
0.327105
0.328123
0.48508
0.528842
0.716588
0.693627
0.390821
0.349426
0.361812
0.349552
0.26608
0.253913
0.206164
0.190259
0.124387
0.104113
0.0540489
0.0457449
0.0466351
0.0429176
0.0210858
0.0153348
0.00270525
-1.29038e-06
-0.00226431
-0.00449736
-0.0176831
-0.019626
-0.0194066
-0.019238
-0.0152817
-0.0137064
-0.00553194
-0.00308421
0.00600925
0.0136532
0.0651352
0.0773365
0.122458
0.138051
0.213488
0.235488
0.333956
0.358138
0.455452
0.467301
0.472798
0.44184
0.19966
0.0907302
-0.573288
-0.833392
-2.55592
-2.50206
-0.293806
-0.0496716
-93.4884
81.0425
-1.5493
-1.559
-0.340393
-0.112736
0.0988424
0.219079
0.653359
0.712977
0.594336
0.542869
0.444909
0.421863
0.373773
0.449221
0.757545
0.888969
1.24237
1.24083
0.94797
0.848303
0.628099
0.546816
0.366107
0.371243
0.530733
0.588196
0.714538
0.680324
0.43098
0.374338
0.363311
0.345553
0.282635
0.268777
0.234206
0.212542
0.144935
0.115565
0.0664117
0.0544604
0.0536433
0.0482217
0.0268358
0.0186018
0.00617932
0.00221431
-0.00115025
-0.00422396
-0.0150593
-0.0177595
-0.0189007
-0.0188553
-0.0154418
-0.013351
-0.00633189
-0.00297796
0.00595623
0.0159996
0.0586146
0.0746508
0.114266
0.134945
0.199511
0.228439
0.311801
0.343297
0.423671
0.438642
0.439511
0.398246
0.189635
0.0490567
-0.498984
-0.820049
-2.12929
-2.06232
-0.374128
-0.073339
-92.7478
78.3183
-1.15825
-1.16199
-0.270228
-0.0453076
0.11788
0.248925
0.631949
0.697115
0.579737
0.518083
0.424026
0.401575
0.391858
0.48892
0.80809
0.955016
1.21121
1.20254
0.956407
0.846025
0.651266
0.55935
0.397676
0.408188
0.580467
0.644796
0.718912
0.675631
0.463436
0.397429
0.365082
0.343364
0.297231
0.284475
0.261738
0.236667
0.163957
0.127813
0.0772893
0.062733
0.060838
0.0541663
0.0320615
0.0220377
0.00931625
0.00440678
-4.71133e-05
-0.00363954
-0.0127604
-0.0159551
-0.018442
-0.0186069
-0.0155488
-0.0131924
-0.00698492
-0.00309454
0.00585931
0.0170438
0.0531579
0.071023
0.106832
0.130084
0.186961
0.219213
0.291721
0.326499
0.394502
0.41054
0.407899
0.361331
0.176864
0.0236478
-0.433804
-0.767236
-1.75776
-1.68748
-0.398997
-0.0874135
-92.0044
75.6326
-0.805446
-0.800867
-0.173445
0.0245401
0.138163
0.268664
0.623232
0.68854
0.5629
0.494588
0.400275
0.380774
0.405666
0.519727
0.865516
1.01669
1.19064
1.17375
0.959415
0.847125
0.670323
0.574678
0.422358
0.438663
0.634519
0.701006
0.727985
0.677699
0.490049
0.41918
0.366434
0.342157
0.310498
0.300578
0.289369
0.262704
0.181522
0.14064
0.0867321
0.0705025
0.0682266
0.0607309
0.0368061
0.0255834
0.0121422
0.00658219
0.00102246
-0.00283327
-0.0106981
-0.0141785
-0.0180759
-0.0184872
-0.0156273
-0.0131876
-0.00754484
-0.00341316
0.00567377
0.0170916
0.0484323
0.0666787
0.0999025
0.123879
0.175397
0.208377
0.27315
0.308371
0.367408
0.383177
0.378031
0.329909
0.162811
0.0103636
-0.373645
-0.688213
-1.42875
-1.36145
-0.384845
-0.0918976
-91.2576
72.9727
-0.478313
-0.464721
-0.0595487
0.097707
0.157729
0.279408
0.626063
0.687588
0.54376
0.472128
0.373528
0.358193
0.415901
0.541257
0.930717
1.07743
1.1777
1.15285
0.958345
0.850809
0.686137
0.592274
0.440297
0.461955
0.693745
0.758797
0.740151
0.685266
0.511997
0.440212
0.366653
0.341251
0.322901
0.316738
0.317625
0.290928
0.197481
0.153993
0.094672
0.0777175
0.0758273
0.0679555
0.0410452
0.0292199
0.0146545
0.00875885
0.00202488
-0.00186586
-0.00881047
-0.0123848
-0.0178487
-0.0184979
-0.0156886
-0.0133104
-0.00804386
-0.00392945
0.0053957
0.0163433
0.0442316
0.0617368
0.093344
0.116575
0.164575
0.196271
0.25576
0.289288
0.342039
0.356641
0.349865
0.303221
0.148136
0.00629101
-0.316332
-0.592235
-1.13214
-1.07187
-0.34341
-0.087654
-90.5072
70.3271
-0.165814
-0.144304
0.0642014
0.174708
0.174786
0.281121
0.640276
0.694835
0.521723
0.450741
0.343447
0.332685
0.423424
0.552214
1.00562
1.14003
1.16976
1.13874
0.953798
0.856782
0.699123
0.612198
0.451292
0.476843
0.759641
0.819938
0.753771
0.697574
0.529892
0.461321
0.364951
0.34007
0.334823
0.332624
0.346991
0.321829
0.211448
0.167985
0.100921
0.0843336
0.0836705
0.0759445
0.0446834
0.032968
0.0168216
0.0109703
0.00291456
-0.000775519
-0.00705708
-0.010515
-0.0178138
-0.0186466
-0.0157323
-0.0135484
-0.00849632
-0.0046536
0.00505344
0.0149184
0.0404475
0.0562321
0.0871221
0.108281
0.154407
0.183053
0.239408
0.269433
0.318191
0.33095
0.323277
0.280846
0.132894
0.00939808
-0.260956
-0.485781
-0.859626
-0.809092
-0.283129
-0.0760076
-89.7535
67.6851
0.142394
0.168572
0.191814
0.256078
0.187554
0.272692
0.666654
0.711176
0.495592
0.430802
0.3095
0.303114
0.429419
0.550179
1.09327
1.20682
1.16424
1.13078
0.945737
0.865184
0.709283
0.635084
0.454829
0.48144
0.834437
0.886138
0.766995
0.714347
0.543828
0.483548
0.360396
0.338108
0.346629
0.347853
0.377944
0.356145
0.222743
0.182925
0.105156
0.0903159
0.0917991
0.0848775
0.047542
0.0368952
0.0185783
0.0132711
0.0036305
0.000419183
-0.00541609
-0.00849108
-0.0180371
-0.0189448
-0.0157464
-0.0139007
-0.00889997
-0.00561182
0.0047055
0.0128678
0.0370542
0.0501246
0.0812909
0.09899
0.144939
0.168728
0.22411
0.248827
0.295778
0.306068
0.298065