/*--------------------------------*- C++ -*----------------------------------*\
| =========                 |                                                 |
| \\      /  F ield         | OpenFOAM: The Open Source CFD Toolbox           |
|  \\    /   O peration     | Version:  5.x                                   |
|   \\  /    A nd           | Web:      www.OpenFOAM.org                      |
|    \\/     M anipulation  |                                                 |
\*---------------------------------------------------------------------------*/
FoamFile
{
    version     2.0;
    format      ascii;
    class       volScalarField;
    location    "0.3";
    object      T;
}
// * * * * * * * * * * * * * * * * * * * * * * * * * * * * * * * * * * * * * //

dimensions      [0 0 0 1 0 0 0];

internalField   nonuniform List<scalar> 
3200
(
0.326446
2.36922
3.06214
3.10078
3.2133
3.22146
3.26943
3.27356
3.30445
3.30744
3.33173
3.33407
3.3494
3.35225
3.38991
3.3975
3.51643
3.52684
3.61739
3.62609
3.70545
3.71279
3.77874
3.78405
3.82101
3.82551
3.87838
3.88545
3.98339
3.99088
4.05127
4.05647
4.10243
4.10593
4.12917
4.13207
4.16839
4.17097
4.18935
4.19067
4.19976
4.20034
4.20414
4.20428
4.20469
4.20459
4.20329
4.20311
4.2018
4.20143
4.19599
4.1955
4.19137
4.19099
4.18844
4.18796
4.18145
4.18093
4.17759
4.17708
4.17151
4.17061
4.1581
4.15705
4.14776
4.14695
4.13927
4.13871
4.13314
4.13301
4.13157
4.13207
4.13447
4.13603
4.1505
4.15362
4.15859
4.16073
4.16137
4.16153
0.897627
2.48207
3.11665
3.20345
3.30284
3.32155
3.36314
3.37271
3.39976
3.40676
3.42819
3.43379
3.44851
3.45517
3.48743
3.50453
3.60327
3.62695
3.70478
3.72479
3.79256
3.80933
3.86526
3.87751
3.91021
3.9205
3.96464
3.98038
4.06072
4.07744
4.12811
4.13988
4.17876
4.18679
4.20709
4.21364
4.24343
4.24917
4.2646
4.26755
4.27513
4.27641
4.27941
4.27969
4.27985
4.27959
4.27834
4.27787
4.27651
4.27564
4.27107
4.26994
4.26634
4.26544
4.26302
4.2619
4.25644
4.25522
4.25212
4.25091
4.24597
4.24392
4.23358
4.23122
4.22339
4.22158
4.21528
4.2141
4.20992
4.20982
4.20962
4.21111
4.21525
4.21938
4.23464
4.24348
4.25858
4.26495
4.26684
4.2673
1.40543
2.63291
3.19307
3.30562
3.39562
3.42072
3.45813
3.47116
3.49588
3.50552
3.52528
3.53314
3.54795
3.55706
3.58555
3.6083
3.69311
3.72489
3.79449
3.82158
3.8817
3.90431
3.95352
3.97015
4.00032
4.01413
4.05204
4.07272
4.14059
4.16264
4.20651
4.22221
4.25633
4.26716
4.28556
4.29429
4.31943
4.32699
4.34034
4.34425
4.35075
4.35241
4.35479
4.3551
4.35504
4.35464
4.35336
4.35267
4.35121
4.35001
4.34601
4.34448
4.34121
4.33994
4.33755
4.33601
4.33126
4.32959
4.32657
4.32488
4.32031
4.31756
4.30874
4.3056
4.29878
4.29639
4.29109
4.28961
4.28655
4.28663
4.28759
4.29005
4.29604
4.3023
4.31905
4.3331
4.35892
4.36936
4.37237
4.3731
1.86415
2.81045
3.28741
3.40869
3.49098
3.51941
3.5541
3.56914
3.5926
3.60386
3.62285
3.63222
3.64761
3.65818
3.68391
3.70958
3.78507
3.82131
3.88589
3.91705
3.97234
3.99822
4.0431
4.06225
4.09107
4.1068
4.14013
4.16317
4.2223
4.24697
4.28604
4.30381
4.33483
4.34723
4.36442
4.37428
4.39613
4.40457
4.41647
4.42086
4.42657
4.42838
4.43025
4.43053
4.43024
4.42972
4.42836
4.42751
4.4259
4.42449
4.42086
4.4191
4.416
4.4145
4.41204
4.41025
4.40596
4.40401
4.40097
4.39898
4.39459
4.39145
4.38367
4.38014
4.374
4.37132
4.36675
4.3652
4.36305
4.36341
4.36551
4.36886
4.37683
4.38479
4.40357
4.42224
4.45988
4.47407
4.47799
4.47892
2.28502
3.00678
3.39598
3.51333
3.58851
3.61784
3.65087
3.66679
3.68981
3.7019
3.7208
3.73106
3.74746
3.75869
3.78227
3.80888
3.8786
3.91661
3.97863
4.01156
4.06416
4.09137
4.1337
4.15396
4.18236
4.19877
4.22862
4.25218
4.30539
4.33072
4.36642
4.38487
4.41408
4.42711
4.44357
4.4538
4.47337
4.48203
4.4929
4.49741
4.50255
4.50436
4.50578
4.50598
4.50546
4.50484
4.50335
4.50238
4.50059
4.49907
4.49564
4.49377
4.49073
4.48911
4.48652
4.4846
4.48057
4.47849
4.47534
4.47317
4.46882
4.46554
4.45844
4.45479
4.44909
4.44633
4.44229
4.44081
4.43945
4.44012
4.44339
4.44748
4.45761
4.46687
4.4881
4.51064
4.56178
4.57919
4.58373
4.58479
2.67703
3.21642
3.51543
3.61966
3.68788
3.71613
3.74831
3.76416
3.78746
3.79966
3.8191
3.82965
3.84752
3.85871
3.8805
3.90644
3.9734
4.01094
4.07254
4.10527
4.15699
4.18392
4.22518
4.24534
4.27412
4.29019
4.31737
4.34001
4.38959
4.41406
4.4475
4.46551
4.49397
4.50685
4.52298
4.53294
4.55105
4.55939
4.5696
4.57394
4.57866
4.58035
4.58137
4.58147
4.58068
4.58
4.57832
4.57729
4.57527
4.57373
4.57037
4.5685
4.56542
4.56376
4.56098
4.55905
4.55511
4.55302
4.54967
4.54747
4.54302
4.53978
4.53309
4.52952
4.52407
4.5214
4.51774
4.51642
4.51579
4.51674
4.52124
4.52587
4.53844
4.54846
4.57259
4.59789
4.66504
4.68483
4.68962
4.6907
3.04748
3.43568
3.64268
3.72743
3.78885
3.81427
3.84641
3.86124
3.88555
3.89714
3.91775
3.92795
3.94785
3.9583
3.97857
4.00237
4.06937
4.1043
4.16759
4.19823
4.25081
4.27589
4.3175
4.33638
4.36638
4.38117
4.4063
4.42675
4.47479
4.49704
4.52919
4.54573
4.5745
4.58646
4.60264
4.61176
4.62912
4.63669
4.64652
4.65046
4.65491
4.65638
4.657
4.657
4.65591
4.6552
4.65328
4.65225
4.64994
4.64847
4.64504
4.64328
4.64005
4.63845
4.6354
4.63357
4.62958
4.6276
4.62396
4.62185
4.61718
4.61417
4.60761
4.60434
4.59894
4.59651
4.59311
4.59201
4.59206
4.59322
4.5991
4.60395
4.61938
4.6295
4.65703
4.68348
4.7702
4.79108
4.79566
4.79666
3.40241
3.6622
3.77483
3.83615
3.89127
3.91214
3.94521
3.95793
3.98415
3.99426
4.01682
4.02587
4.04856
4.0575
4.0765
4.09656
4.16662
4.19653
4.26396
4.2903
4.34573
4.3672
4.41074
4.42697
4.45926
4.47174
4.49542
4.5124
4.56103
4.57962
4.61151
4.62546
4.65569
4.66591
4.68258
4.69026
4.70759
4.7139
4.72369
4.72697
4.73127
4.73245
4.73266
4.73258
4.73113
4.73046
4.7282
4.72726
4.72458
4.72329
4.71964
4.71813
4.71462
4.71322
4.70979
4.70819
4.70398
4.70225
4.6982
4.69635
4.69127
4.6887
4.68201
4.67925
4.6737
4.67167
4.66839
4.66756
4.6683
4.66952
4.677
4.68161
4.70054
4.70985
4.74152
4.76666
4.87799
4.89798
4.90185
4.90266
3.74695
3.89462
3.90904
3.94512
3.99506
4.00953
4.04483
4.05409
4.0834
4.09088
4.11644
4.12324
4.14981
4.15629
4.17438
4.18876
4.26548
4.28726
4.36196
4.38121
4.44201
4.45762
4.50506
4.51692
4.55293
4.56186
4.5848
4.59678
4.64846
4.66168
4.69454
4.70454
4.73769
4.7451
4.76288
4.76837
4.78651
4.79097
4.80112
4.80344
4.80776
4.80856
4.80834
4.80822
4.80632
4.80579
4.80307
4.80235
4.79917
4.79821
4.79417
4.79306
4.78912
4.78807
4.7841
4.78293
4.77828
4.777
4.77236
4.77098
4.76527
4.7634
4.75625
4.75427
4.74832
4.74688
4.74357
4.74305
4.74452
4.74557
4.75502
4.7587
4.78209
4.78931
4.82628
4.8464
4.98945
5.00552
5.00817
5.0087
4.08559
4.13237
4.04238
4.05353
4.10027
4.10608
4.14548
4.14944
4.18352
4.18678
4.2168
4.21981
4.25187
4.25463
4.27242
4.27846
4.36654
4.37587
4.46218
4.47046
4.5401
4.54677
4.60081
4.60591
4.64768
4.65142
4.67462
4.67956
4.73744
4.74294
4.77849
4.78269
4.82072
4.82387
4.84368
4.84598
4.86597
4.86782
4.87887
4.87983
4.8844
4.88471
4.88401
4.88393
4.88145
4.88121
4.87787
4.87754
4.87368
4.87325
4.86858
4.8681
4.8635
4.86303
4.85831
4.8578
4.85245
4.85189
4.84639
4.84578
4.83912
4.83832
4.83029
4.82946
4.82277
4.82217
4.81865
4.81846
4.82076
4.82129
4.83327
4.835
4.86428
4.86758
4.91171
4.92122
5.10598
5.11361
5.11457
5.11476
3.83272
3.85128
4.44848
4.4639
4.46607
4.45839
4.39689
4.39044
4.37174
4.36965
4.37776
4.37862
4.40837
4.41059
4.43109
4.43762
4.54146
4.55119
4.63489
4.64258
4.70335
4.70925
4.75637
4.76101
4.80003
4.8043
4.84411
4.849
4.89103
4.89534
4.91832
4.92207
4.96051
4.96368
4.98104
4.98378
5.01188
5.01456
5.0309
5.03241
5.03878
5.03971
5.04679
5.04745
5.05066
5.05098
5.05196
5.05208
5.05229
5.0523
5.05132
5.05125
5.05027
5.0502
5.0497
5.04963
5.04869
5.04865
5.04856
5.0487
5.05149
5.05185
5.05663
5.0572
5.06453
5.06526
5.0742
5.07468
5.07827
5.07821
5.08093
5.0776
5.00853
5.00363
4.98458
4.98277
4.98234
4.98224
4.98221
4.98221
3.96086
3.99413
4.42043
4.44394
4.42638
4.40507
4.34346
4.32678
4.30412
4.29809
4.3009
4.30205
4.32417
4.32902
4.34807
4.3632
4.45152
4.47398
4.5463
4.5642
4.61763
4.6315
4.67313
4.68398
4.71786
4.72785
4.76329
4.77506
4.8142
4.82488
4.84799
4.85709
4.89069
4.89823
4.91465
4.92129
4.94671
4.9532
4.96843
4.97216
4.97881
4.98115
4.98772
4.98935
4.99253
4.99335
4.9945
4.99485
4.99518
4.99522
4.99453
4.99439
4.99362
4.99348
4.99305
4.9929
4.99215
4.99207
4.99205
4.99236
4.99466
4.99547
4.99945
5.00072
5.00675
5.00834
5.01547
5.01646
5.01892
5.0185
5.01852
5.01091
4.95465
4.94311
4.92208
4.91729
4.91607
4.91576
4.91569
4.91567
4.08767
4.12127
4.4085
4.42563
4.38684
4.35338
4.28823
4.26337
4.23584
4.22618
4.22411
4.22464
4.24067
4.24688
4.2652
4.28586
4.3642
4.39476
4.45989
4.48439
4.53348
4.55263
4.59112
4.60602
4.63664
4.65038
4.68341
4.70002
4.7385
4.75391
4.77822
4.79112
4.82191
4.83243
4.84865
4.85805
4.88229
4.89149
4.90641
4.91179
4.91902
4.92242
4.92884
4.93119
4.9345
4.93571
4.93707
4.93761
4.93808
4.93818
4.93771
4.93755
4.93695
4.93677
4.93638
4.93619
4.93558
4.93549
4.93553
4.93593
4.9379
4.93896
4.94238
4.94405
4.94915
4.95121
4.957
4.95818
4.95969
4.95878
4.95642
4.94617
4.899
4.88296
4.85895
4.85168
4.84976
4.84928
4.84916
4.84914
4.21314
4.23828
4.40739
4.40958
4.3471
4.30297
4.23141
4.20007
4.16684
4.15398
4.14722
4.14661
4.15757
4.16425
4.18224
4.20621
4.2788
4.31416
4.3751
4.4036
4.45053
4.47299
4.51005
4.52743
4.5561
4.57213
4.60418
4.6241
4.66372
4.68259
4.7089
4.72443
4.75394
4.76639
4.78292
4.79421
4.81848
4.82954
4.84478
4.85135
4.85938
4.86356
4.87012
4.87299
4.87655
4.87806
4.87968
4.88037
4.881
4.88116
4.88088
4.88073
4.88026
4.88006
4.87971
4.8795
4.87899
4.8789
4.87899
4.87945
4.88117
4.88236
4.88538
4.88724
4.89168
4.89393
4.89871
4.89989
4.90055
4.89911
4.89464
4.88291
4.84209
4.82314
4.79514
4.78586
4.7834
4.78279
4.78264
4.78262
4.33763
4.34954
4.41297
4.39613
4.30665
4.25368
4.17299
4.13686
4.09705
4.08154
4.07009
4.06812
4.07463
4.08117
4.09904
4.1246
4.19488
4.23254
4.29161
4.32207
4.36856
4.39275
4.42976
4.44838
4.47606
4.49324
4.52543
4.5474
4.58977
4.61096
4.64001
4.65718
4.68665
4.70019
4.71739
4.72985
4.75519
4.76743
4.78349
4.79085
4.79989
4.80461
4.81156
4.81476
4.81868
4.82041
4.82233
4.82314
4.82394
4.82416
4.82405
4.82392
4.82356
4.82336
4.82303
4.82282
4.82239
4.8223
4.82244
4.82291
4.82447
4.82569
4.82843
4.83033
4.83429
4.83655
4.84056
4.84162
4.8415
4.83956
4.83315
4.82082
4.78432
4.76368
4.7306
4.71978
4.71698
4.71629
4.71613
4.7161
4.46164
4.45876
4.42179
4.38561
4.26477
4.20552
4.11281
4.07381
4.02629
4.00894
3.99258
3.9893
3.99169
3.99764
4.01552
4.04121
4.11226
4.15005
4.20925
4.23989
4.28747
4.312
4.3502
4.36896
4.39643
4.41375
4.44709
4.46987
4.51665
4.53901
4.57159
4.58943
4.61999
4.63383
4.65206
4.66497
4.69242
4.70516
4.72254
4.73028
4.74058
4.74557
4.75314
4.75651
4.7609
4.76275
4.76501
4.76591
4.7669
4.76717
4.76722
4.76713
4.76685
4.76667
4.76635
4.76615
4.76577
4.76569
4.76587
4.76634
4.76778
4.76895
4.77152
4.77334
4.77697
4.77909
4.78253
4.7834
4.78253
4.7802
4.7719
4.75969
4.72591
4.70472
4.66517
4.65338
4.65048
4.64979
4.64962
4.6496
4.58579
4.56936
4.43059
4.37851
4.22045
4.15872
4.0505
4.01112
3.95434
3.93631
3.91455
3.91025
3.90862
3.91362
3.9317
3.956
4.03096
4.0667
4.12803
4.15703
4.2073
4.2307
4.27142
4.28919
4.3172
4.3336
4.36916
4.39137
4.44452
4.46665
4.50376
4.52117
4.554
4.5673
4.58693
4.59951
4.63023
4.64271
4.66198
4.66961
4.68147
4.68642
4.69489
4.69821
4.70323
4.70508
4.70776
4.70867
4.70989
4.71019
4.71039
4.71034
4.71014
4.70998
4.70967
4.70948
4.70914
4.70908
4.70929
4.70972
4.7111
4.71216
4.71463
4.71628
4.71971
4.72159
4.72461
4.72525
4.72361
4.72107
4.7108
4.69943
4.66701
4.64651
4.59864
4.58664
4.58391
4.58327
4.58312
4.5831
4.7106
4.68487
4.43595
4.37567
4.17229
4.1138
3.98545
3.94914
3.88084
3.86384
3.83583
3.83109
3.82527
3.82909
3.84762
3.86876
3.95123
3.98232
4.0481
4.07331
4.1282
4.14869
4.19355
4.20901
4.23843
4.25269
4.29177
4.31164
4.37361
4.39369
4.43671
4.4523
4.48878
4.50051
4.52208
4.53331
4.56878
4.57998
4.60188
4.60877
4.62264
4.62713
4.63684
4.63984
4.64567
4.64737
4.65057
4.65142
4.65291
4.65321
4.65357
4.65356
4.65342
4.6533
4.65298
4.65282
4.6525
4.65246
4.65271
4.65307
4.65443
4.65532
4.65778
4.65914
4.66251
4.66404
4.66678
4.66719
4.66473
4.66226
4.64975
4.64002
4.60763
4.58939
4.53068
4.51953
4.51726
4.51675
4.51663
4.51661
4.83645
4.80932
4.43378
4.37857
4.11836
4.07169
3.91673
3.88844
3.8053
3.79181
3.75618
3.75198
3.74154
3.74396
3.76343
3.77906
3.87356
3.89655
3.96979
3.9884
4.05047
4.06571
4.11685
4.12827
4.16026
4.17078
4.21513
4.23022
4.30438
4.3198
4.37075
4.38258
4.42456
4.43333
4.45765
4.46615
4.50829
4.51682
4.54238
4.54764
4.56419
4.56764
4.57907
4.58135
4.58829
4.5896
4.59348
4.59415
4.59599
4.59623
4.59677
4.59678
4.59671
4.59663
4.59628
4.59617
4.59584
4.59582
4.59612
4.59638
4.59778
4.59841
4.60097
4.60193
4.60539
4.60644
4.60904
4.60924
4.60585
4.60384
4.58858
4.58151
4.54768
4.5339
4.46082
4.45208
4.45055
4.45022
4.45014
4.45013
4.9634
4.94772
4.41881
4.38968
4.05589
4.03393
3.84295
3.82995
3.72698
3.72067
3.67528
3.67312
3.6573
3.65816
3.6794
3.68621
3.79874
3.80877
3.89366
3.90175
3.97462
3.98129
4.04173
4.04669
4.08295
4.08752
4.13967
4.14643
4.2375
4.24449
4.30636
4.31165
4.36165
4.36552
4.39384
4.39764
4.44914
4.45298
4.4837
4.48606
4.50626
4.50782
4.52165
4.52269
4.53112
4.53172
4.53652
4.53683
4.53912
4.53924
4.53999
4.54
4.54
4.53997
4.53958
4.53953
4.53918
4.53917
4.53953
4.53964
4.54117
4.54143
4.54422
4.54462
4.54836
4.54878
4.5514
4.55144
4.54691
4.54596
4.52709
4.52407
4.48693
4.48078
4.38839
4.38435
4.38379
4.38368
4.38365
4.38365
4.98419
4.96909
4.45123
4.42249
4.08259
4.05993
3.85792
3.84357
3.7284
3.72042
3.6613
3.65767
3.63383
3.63313
3.63673
3.64055
3.71888
3.72664
3.80684
3.81485
3.88679
3.8937
3.95498
3.96012
3.99655
4.00123
4.05406
4.06097
4.15365
4.16077
4.22276
4.22811
4.27845
4.28234
4.31013
4.31386
4.36371
4.3674
4.39639
4.39859
4.4163
4.4176
4.42841
4.42912
4.43444
4.43472
4.43652
4.43654
4.43638
4.43628
4.43568
4.43543
4.43177
4.43146
4.42954
4.4292
4.4247
4.42437
4.42241
4.4222
4.4201
4.41997
4.41902
4.41907
4.42031
4.42037
4.41941
4.41828
4.39893
4.39392
4.32794
4.31296
4.16481
4.13744
3.93153
3.91434
3.91051
3.90957
3.90934
3.90929
4.86716
4.84138
4.47519
4.42099
4.15643
4.10829
3.94422
3.91273
3.81782
3.80021
3.7519
3.74403
3.72516
3.72381
3.72781
3.73628
3.79988
3.81745
3.88669
3.90528
3.96754
3.9835
4.03589
4.04783
4.0803
4.09114
4.13625
4.15172
4.22733
4.24309
4.29438
4.30636
4.34862
4.35747
4.38155
4.38993
4.43071
4.43893
4.46314
4.46805
4.48267
4.48555
4.49436
4.4959
4.50016
4.50074
4.50206
4.50207
4.50177
4.50151
4.50077
4.50018
4.49707
4.49634
4.49451
4.49371
4.48995
4.48918
4.4874
4.4869
4.48516
4.48488
4.4842
4.48437
4.48555
4.4857
4.48482
4.48216
4.46454
4.45252
4.39129
4.35371
4.20364
4.1335
3.9227
3.87814
3.86706
3.86432
3.86366
3.86351
4.75117
4.72729
4.48669
4.42792
4.22162
4.16131
4.02524
3.98443
3.90415
3.88123
3.84089
3.83083
3.81579
3.81428
3.81871
3.8298
3.88273
3.90618
3.96857
3.99396
4.05014
4.07184
4.11843
4.13471
4.16492
4.17968
4.21963
4.24006
4.30341
4.32399
4.36757
4.3834
4.42013
4.432
4.45361
4.4647
4.49902
4.50982
4.53066
4.53713
4.54951
4.55326
4.56061
4.56258
4.56602
4.56673
4.56766
4.56761
4.56716
4.56675
4.56587
4.56503
4.56228
4.56126
4.55944
4.55834
4.55508
4.55403
4.55235
4.55166
4.55016
4.5498
4.54935
4.54962
4.55083
4.55108
4.5503
4.54663
4.52993
4.51309
4.45369
4.39896
4.23927
4.13518
3.90721
3.84058
3.82327
3.81898
3.81795
3.81771
4.63614
4.62188
4.49094
4.44077
4.28099
4.21738
4.10246
4.05773
3.9882
3.96296
3.92867
3.91783
3.90589
3.90452
3.90935
3.92165
3.96675
3.99337
4.05193
4.08141
4.13411
4.15918
4.20218
4.22104
4.25015
4.26722
4.30379
4.32669
4.3812
4.40398
4.44187
4.4596
4.49264
4.50614
4.52608
4.53855
4.56827
4.58031
4.59875
4.60597
4.61671
4.62083
4.62707
4.62921
4.632
4.63272
4.6333
4.63317
4.63255
4.63202
4.63096
4.62997
4.62742
4.62623
4.62435
4.62307
4.62013
4.61891
4.61725
4.61646
4.61511
4.61473
4.61448
4.61485
4.61615
4.61651
4.6159
4.61163
4.59532
4.57537
4.51591
4.4484
4.27267
4.14181
3.88525
3.80104
3.77894
3.7735
3.7722
3.77189
4.5217
4.52117
4.49198
4.45803
4.33655
4.27553
4.1769
4.13204
4.0705
4.04506
4.01553
4.00489
3.99558
3.99451
3.9997
4.0122
4.05152
4.07927
4.13646
4.16793
4.2192
4.24581
4.28689
4.30696
4.33587
4.35397
4.3885
4.41205
4.46026
4.48336
4.51698
4.53519
4.56593
4.58003
4.59886
4.61171
4.63824
4.65055
4.6673
4.67468
4.68417
4.68832
4.69371
4.69582
4.69807
4.69872
4.69897
4.69876
4.69795
4.69733
4.69607
4.69497
4.69252
4.69123
4.68925
4.68787
4.68511
4.68382
4.68214
4.68129
4.68004
4.67967
4.67959
4.68004
4.68152
4.68199
4.68166
4.67712
4.66086
4.63923
4.57845
4.50216
4.30427
4.15346
3.85638
3.759
3.73393
3.72784
3.72639
3.72604
4.40729
4.42162
4.49323
4.47883
4.38972
4.33521
4.24921
4.20704
4.15137
4.12734
4.10164
4.0919
4.08493
4.08426
4.08975
4.10167
4.13675
4.164
4.22201
4.25366
4.30527
4.33186
4.37244
4.39253
4.42202
4.44007
4.47365
4.49643
4.54032
4.56232
4.59271
4.61028
4.63989
4.65373
4.67188
4.68432
4.70878
4.72062
4.73624
4.74331
4.75185
4.75576
4.76048
4.76243
4.76421
4.76475
4.76467
4.76439
4.76335
4.76266
4.76117
4.76004
4.75758
4.75626
4.75413
4.75274
4.75005
4.74876
4.74699
4.74614
4.74495
4.74461
4.74469
4.7452
4.74694
4.74751
4.74759
4.74309
4.72663
4.70465
4.6416
4.56079
4.33397
4.17094
3.81951
3.71405
3.68813
3.68197
3.68051
3.68016
4.29233
4.3198
4.49796
4.50264
4.44153
4.39618
4.31979
4.28259
4.23099
4.20971
4.18712
4.17881
4.17405
4.17377
4.17956
4.19023
4.2223
4.2475
4.30862
4.33859
4.39235
4.41735
4.45882
4.47772
4.50863
4.52555
4.55923
4.57996
4.62127
4.64094
4.66895
4.6849
4.71449
4.72726
4.74513
4.75646
4.77983
4.79054
4.80552
4.81188
4.81973
4.82318
4.82738
4.82905
4.83041
4.83081
4.83039
4.83005
4.82875
4.82803
4.82627
4.82517
4.8226
4.82134
4.81898
4.81767
4.81494
4.81372
4.81182
4.81102
4.80982
4.80953
4.80979
4.81033
4.81241
4.81305
4.81372
4.80954
4.79262
4.77173
4.70547
4.62525
4.36111
4.19594
3.77278
3.6659
3.64153
3.63589
3.63457
3.63425
4.17629
4.21198
4.50964
4.52911
4.49274
4.45842
4.38883
4.35875
4.30942
4.29213
4.27204
4.26558
4.26299
4.26304
4.26917
4.27793
4.30812
4.32956
4.39648
4.42257
4.48057
4.50218
4.5461
4.56244
4.5958
4.61036
4.64533
4.66268
4.70308
4.71924
4.74568
4.75897
4.78976
4.80059
4.81864
4.82813
4.85139
4.8603
4.87515
4.88041
4.88778
4.89058
4.89438
4.89569
4.89666
4.89691
4.89612
4.89575
4.89413
4.89346
4.89134
4.89037
4.88757
4.88646
4.88381
4.88266
4.87977
4.87872
4.87662
4.87592
4.87467
4.87444
4.87488
4.87539
4.87795
4.8786
4.88004
4.87651
4.85878
4.84062
4.76989
4.69706
4.38428
4.23125
3.71338
3.61443
3.59416
3.58962
3.58857
3.58832
4.05883
4.09369
4.53248
4.55783
4.54389
4.52209
4.45631
4.43569
4.38657
4.37468
4.35643
4.35221
4.35183
4.35207
4.35868
4.36477
4.39429
4.40981
4.48597
4.50528
4.57026
4.58612
4.63448
4.64647
4.68372
4.69436
4.73214
4.74447
4.78586
4.79713
4.82294
4.83234
4.86583
4.87363
4.89251
4.89924
4.92352
4.92982
4.94516
4.94885
4.95603
4.95795
4.96148
4.96235
4.96293
4.96305
4.96183
4.96151
4.95947
4.95894
4.95638
4.95565
4.95249
4.95166
4.94858
4.94772
4.94454
4.94377
4.94136
4.94085
4.93949
4.93934
4.93997
4.94039
4.94357
4.94412
4.94657
4.94405
4.92495
4.91161
4.8344
4.77846
4.40105
4.28114
3.63721
3.5598
3.54615
3.5432
3.54252
3.54236
3.93999
3.95926
4.57186
4.58814
4.59537
4.58753
4.52199
4.51377
4.46225
4.45749
4.44026
4.43869
4.44066
4.44085
4.44821
4.45068
4.48103
4.48763
4.57774
4.58616
4.6619
4.66876
4.72432
4.7295
4.7727
4.77727
4.81996
4.8251
4.86985
4.87443
4.90086
4.90475
4.94293
4.94623
4.96686
4.96966
4.99638
4.99899
5.01565
5.01715
5.02448
5.02525
5.0287
5.02903
5.02923
5.02925
5.02751
5.02735
5.02476
5.02452
5.02135
5.02102
5.01731
5.01695
5.01326
5.01289
5.00922
5.00888
5.00604
5.00581
5.00426
5.0042
5.00508
5.00527
5.0093
5.00958
5.0133
5.01225
4.9909
4.98516
4.89805
4.87272
4.40752
4.35198
3.53838
3.50261
3.4977
3.49668
3.49644
3.49639
4.33802
4.32913
4.08699
4.0774
4.0526
4.05248
4.06008
4.06422
4.13456
4.14081
4.196
4.20071
4.24372
4.24744
4.27593
4.2815
4.34384
4.35392
4.47903
4.48944
4.56947
4.57641
4.62575
4.62998
4.65371
4.65785
4.69811
4.70423
4.77082
4.77604
4.80484
4.80828
4.84097
4.84392
4.86563
4.86796
4.88332
4.88496
4.89352
4.89435
4.89752
4.89801
4.9015
4.90185
4.90297
4.90308
4.90286
4.90286
4.90252
4.90242
4.90044
4.90027
4.89845
4.89829
4.89695
4.89686
4.8965
4.89651
4.89711
4.89747
4.90443
4.90534
4.91762
4.91921
4.94058
4.94316
4.97649
4.98017
5.02555
5.02979
5.0763
5.07918
5.09674
5.09463
5.03036
5.01581
4.725
4.71301
4.7115
4.71121
4.19988
4.18218
4.00051
3.98166
3.96341
3.9637
3.97176
3.98137
4.04073
4.05496
4.10135
4.11191
4.14763
4.15623
4.18271
4.19625
4.25412
4.27765
4.38289
4.40673
4.47607
4.49227
4.53601
4.5461
4.56872
4.57891
4.61722
4.63179
4.68888
4.70116
4.72797
4.7361
4.76415
4.77105
4.79076
4.79645
4.81137
4.81547
4.82381
4.82588
4.82922
4.83046
4.83388
4.83475
4.83599
4.83628
4.83626
4.83628
4.83603
4.83583
4.83426
4.83387
4.83232
4.83195
4.83079
4.83058
4.83024
4.83027
4.83084
4.83163
4.83736
4.83937
4.8496
4.85317
4.87095
4.87672
4.90435
4.91253
4.94989
4.95926
4.99717
5.00345
5.01714
5.01252
4.95981
4.92918
4.70422
4.67898
4.67483
4.67401
4.06245
4.0418
3.90752
3.88589
3.87348
3.87462
3.88337
3.89653
3.9487
3.96783
4.00814
4.02211
4.05263
4.0643
4.09001
4.10922
4.16576
4.19812
4.29
4.3222
4.38479
4.40703
4.4476
4.46171
4.48421
4.49884
4.53729
4.55766
4.60874
4.62569
4.65184
4.66312
4.68817
4.69768
4.71643
4.72456
4.73985
4.74581
4.75435
4.75737
4.76099
4.76281
4.76635
4.76764
4.76904
4.7695
4.76966
4.76972
4.76954
4.7693
4.76803
4.76752
4.76614
4.76563
4.7646
4.7643
4.76397
4.764
4.76456
4.7656
4.77042
4.77307
4.78185
4.78656
4.8018
4.8094
4.83298
4.84373
4.87535
4.8876
4.9193
4.92742
4.93826
4.93233
4.88837
4.85032
4.67544
4.64409
4.63802
4.63676
3.92586
3.90597
3.81004
3.78977
3.78301
3.78524
3.7948
3.81013
3.858
3.87984
3.91597
3.93165
3.95837
3.97181
3.99756
4.0207
4.07837
4.1162
4.19949
4.23645
4.29513
4.32106
4.36026
4.37699
4.40002
4.41781
4.45807
4.48229
4.52996
4.54985
4.5763
4.58959
4.61281
4.62393
4.64254
4.65238
4.66871
4.67605
4.68511
4.68883
4.69283
4.6951
4.69892
4.70052
4.70212
4.70272
4.70306
4.70316
4.70305
4.7028
4.70177
4.7012
4.69993
4.69934
4.69838
4.69802
4.69768
4.69771
4.69826
4.69942
4.70358
4.70652
4.71426
4.71953
4.73296
4.74145
4.76213
4.7741
4.80158
4.81515
4.84237
4.85129
4.86006
4.85365
4.81668
4.77693
4.6409
4.60818
4.601
4.59944
3.79008
3.77319
3.70953
3.6931
3.69219
3.69556
3.706
3.72242
3.76833
3.79128
3.82462
3.84073
3.86464
3.87881
3.90521
3.93079
3.99176
4.03245
4.11083
4.14983
4.20677
4.23454
4.2738
4.29201
4.31603
4.33587
4.37949
4.40598
4.45229
4.47375
4.50129
4.51566
4.53793
4.54988
4.56898
4.57994
4.59792
4.60621
4.61607
4.62027
4.62475
4.62732
4.63157
4.63339
4.63525
4.63595
4.63646
4.63661
4.63657
4.63633
4.6355
4.63491
4.63369
4.63306
4.63213
4.63174
4.63137
4.6314
4.63194
4.63311
4.63678
4.63978
4.64677
4.65217
4.66431
4.673
4.69163
4.70384
4.72837
4.74216
4.76617
4.77515
4.78245
4.77619
4.74509
4.70736
4.60221
4.57122
4.56373
4.56203
3.65498
3.64229
3.60714
3.59582
3.60119
3.60559
3.61696
3.63353
3.67957
3.70229
3.73395
3.74951
3.7713
3.78532
3.81289
3.83945
3.90596
3.94719
4.02373
4.06248
4.11956
4.14756
4.18818
4.20679
4.23221
4.25298
4.30158
4.32886
4.3756
4.39739
4.4268
4.44141
4.46346
4.47554
4.49575
4.50721
4.52751
4.5363
4.54726
4.5517
4.55673
4.55947
4.56431
4.56627
4.56842
4.56919
4.56988
4.57007
4.57009
4.56988
4.5692
4.56864
4.56742
4.56679
4.56585
4.56546
4.56505
4.56507
4.56559
4.5667
4.57001
4.57288
4.57934
4.58453
4.5958
4.60416
4.62138
4.63309
4.65558
4.66875
4.69057
4.69908
4.70538
4.6997
4.67375
4.64048
4.56053
4.53329
4.52619
4.52453
3.5204
3.51231
3.50382
3.49788
3.51024
3.51535
3.52771
3.54346
3.59174
3.61295
3.64391
3.65802
3.67826
3.69129
3.7206
3.74651
3.82116
3.86052
3.93814
3.97439
4.03352
4.06007
4.10343
4.12129
4.14856
4.16897
4.22452
4.25096
4.2999
4.32072
4.35289
4.36685
4.38939
4.40086
4.42287
4.43412
4.45757
4.46631
4.47871
4.48311
4.4888
4.49154
4.49717
4.49913
4.50164
4.50243
4.50332
4.50353
4.50361
4.50345
4.50291
4.5024
4.50113
4.50053
4.49955
4.49918
4.4987
4.49871
4.49921
4.5002
4.50325
4.50583
4.51197
4.51666
4.52741
4.53496
4.55135
4.5619
4.58317
4.595
4.61549
4.62308
4.62878
4.62402
4.60269
4.57545
4.51672
4.49454
4.48841
4.48694
3.38615
3.38236
3.40039
3.39921
3.41957
3.42482
3.43833
3.45209
3.50499
3.52321
3.55455
3.56629
3.5855
3.5966
3.62844
3.65162
3.73777
3.7723
3.8542
3.88538
3.94877
3.9719
4.0197
4.0354
4.06518
4.08355
4.14862
4.17216
4.22532
4.2436
4.27971
4.29195
4.31575
4.32576
4.35041
4.36055
4.3882
4.39616
4.41048
4.41445
4.42099
4.42349
4.43017
4.43197
4.43493
4.43566
4.43679
4.43699
4.43715
4.43703
4.43661
4.43618
4.4348
4.43429
4.43323
4.4329
4.43234
4.43234
4.43281
4.43362
4.43651
4.43864
4.44464
4.44854
4.45914
4.46541
4.48155
4.49029
4.51113
4.5209
4.54093
4.54716
4.5526
4.549
4.53185
4.51165
4.47143
4.45511
4.45042
4.44926
3.25207
3.25154
3.29774
3.29969
3.32952
3.33396
3.34893
3.35915
3.41963
3.43294
3.46597
3.47425
3.49307
3.50107
3.53663
3.5542
3.65644
3.68218
3.77228
3.79507
3.86563
3.88273
3.93724
3.94895
3.98225
3.99625
4.07438
4.09217
4.15214
4.16575
4.20747
4.21658
4.24265
4.25007
4.27853
4.28627
4.31962
4.32576
4.34265
4.3457
4.35334
4.35526
4.36337
4.36477
4.3683
4.36888
4.37028
4.37045
4.37069
4.37063
4.3703
4.37001
4.36844
4.36806
4.36687
4.36663
4.36595
4.36594
4.36639
4.36696
4.3698
4.37129
4.3774
4.38015
4.39104
4.39546
4.41204
4.41819
4.43953
4.44638
4.46692
4.47127
4.47677
4.47451
4.46112
4.44865
4.42517
4.4152
4.41226
4.41153
3.11801
3.11885
3.19687
3.19905
3.24047
3.24268
3.25972
3.26419
3.33615
3.34188
3.37838
3.38179
3.40106
3.40445
3.44553
3.45339
3.57817
3.58949
3.69304
3.70285
3.78462
3.79207
3.8565
3.86164
3.90009
3.90639
4.00255
4.01049
4.0808
4.08678
4.13654
4.14053
4.17031
4.17354
4.20747
4.21096
4.25213
4.25493
4.27538
4.27676
4.28592
4.28679
4.29683
4.29747
4.3018
4.30206
4.30383
4.30391
4.30425
4.30423
4.304
4.30388
4.30204
4.30187
4.30048
4.30037
4.29953
4.29953
4.29997
4.3002
4.30315
4.30375
4.3103
4.31143
4.3232
4.32502
4.34296
4.34549
4.36851
4.37132
4.39355
4.39533
4.40124
4.40045
4.39036
4.38607
4.37835
4.375
4.374
4.37375
)
;

boundaryField
{
    F1_1
    {
        type            fixedValue;
        value           nonuniform List<scalar> 
80
(
0
2.3398
3.04797
3.04797
3.17062
3.17062
3.22345
3.22345
3.25735
3.25735
3.28395
3.28395
3.3001
3.3001
3.34175
3.34175
3.47518
3.47518
3.57533
3.57533
3.66334
3.66334
3.73669
3.73669
3.77705
3.77705
3.83617
3.83617
3.94654
3.94654
4.01395
4.01395
4.06511
4.06511
4.09061
4.09061
4.13155
4.13155
4.15207
4.15207
4.16224
4.16224
4.16658
4.16658
4.16712
4.16712
4.16575
4.16575
4.16442
4.16442
4.15836
4.15836
4.15381
4.15381
4.15111
4.15111
4.14384
4.14384
4.14027
4.14027
4.13419
4.13419
4.12014
4.12014
4.10978
4.10978
4.10112
4.10112
4.09464
4.09464
4.09251
4.09251
4.09409
4.09409
4.10865
4.10865
4.10865
4.10865
4.10865
4.10865
)
;
    }
    F1_2
    {
        type            fixedValue;
        value           nonuniform List<scalar> 
80
(
5.02719
5.02719
4.40133
4.40133
4.01843
4.01843
3.8025
3.8025
3.68588
3.68588
3.63396
3.63396
3.61485
3.61485
3.63767
3.63767
3.76338
3.76338
3.85713
3.85713
3.93801
3.93801
4.00528
4.00528
4.04493
4.04493
4.10285
4.10285
4.20574
4.20574
4.27529
4.27529
4.33113
4.33113
4.36243
4.36243
4.42052
4.42052
4.45492
4.45492
4.47767
4.47767
4.4932
4.4932
4.5027
4.5027
4.50812
4.50812
4.51073
4.51073
4.51162
4.51162
4.51164
4.51164
4.51122
4.51122
4.51084
4.51084
4.51124
4.51124
4.51289
4.51289
4.5159
4.5159
4.51991
4.51991
4.52264
4.52264
4.51737
4.51737
4.49603
4.49603
4.45594
4.45594
4.35041
4.35041
4.35041
4.35041
4.35041
4.35041
)
;
    }
    F1_3
    {
        type            fixedValue;
        value           nonuniform List<scalar> 
80
(
5.04301
5.04301
4.42946
4.42946
4.03933
4.03933
3.81101
3.81101
3.68155
3.68155
3.6149
3.6149
3.5877
3.5877
3.59119
3.59119
3.67979
3.67979
3.76836
3.76836
3.84771
3.84771
3.91564
3.91564
3.95531
3.95531
4.01388
4.01388
4.11852
4.11852
4.18809
4.18809
4.24429
4.24429
4.2749
4.2749
4.33113
4.33113
4.36355
4.36355
4.38344
4.38344
4.39563
4.39563
4.40168
4.40168
4.40378
4.40378
4.40368
4.40368
4.40313
4.40313
4.39905
4.39905
4.39703
4.39703
4.39199
4.39199
4.38988
4.38988
4.38754
4.38754
4.3864
4.3864
4.38772
4.38772
4.38671
4.38671
4.36584
4.36584
4.29525
4.29525
4.14297
4.14297
3.93218
3.93218
3.93218
3.93218
3.93218
3.93218
)
;
    }
    F1_4
    {
        type            fixedValue;
        value           nonuniform List<scalar> 
80
(
3.05097
3.05097
3.14795
3.14795
3.19674
3.19674
3.21537
3.21537
3.29573
3.29573
3.33524
3.33524
3.35538
3.35538
3.40065
3.40065
3.5413
3.5413
3.6553
3.6553
3.7456
3.7456
3.81731
3.81731
3.85966
3.85966
3.9684
3.9684
4.04642
4.04642
4.10199
4.10199
4.13466
4.13466
4.17255
4.17255
4.21916
4.21916
4.24213
4.24213
4.25237
4.25237
4.26375
4.26375
4.26862
4.26862
4.27064
4.27064
4.27103
4.27103
4.27085
4.27085
4.2688
4.2688
4.26726
4.26726
4.26631
4.26631
4.26677
4.26677
4.26987
4.26987
4.27686
4.27686
4.28948
4.28948
4.30872
4.30872
4.3334
4.3334
4.35728
4.35728
4.36361
4.36361
4.35485
4.35485
4.35485
4.35485
4.35485
4.35485
)
;
    }
    F2_1
    {
        type            fixedValue;
        value           nonuniform List<scalar> 
80
(
4.25398
4.25398
4.10703
4.10703
4.15369
4.15369
4.19652
4.19652
4.2342
4.2342
4.26752
4.26752
4.30349
4.30349
4.32167
4.32167
4.41864
4.41864
4.51386
4.51386
4.5904
4.5904
4.64966
4.64966
4.69581
4.69581
4.7199
4.7199
4.78298
4.78298
4.82109
4.82109
4.86293
4.86293
4.88443
4.88443
4.90606
4.90606
4.91795
4.91795
4.92281
4.92281
4.92183
4.92183
4.91898
4.91898
4.9152
4.9152
4.91086
4.91086
4.90571
4.90571
4.9006
4.9006
4.89533
4.89533
4.88944
4.88944
4.8833
4.8833
4.87593
4.87593
4.86717
4.86717
4.85987
4.85987
4.85612
4.85612
4.85892
4.85892
4.87261
4.87261
4.9059
4.9059
4.95512
4.95512
5.16779
5.16779
5.16779
5.16779
)
;
    }
    F2_2
    {
        type            fixedValue;
        value           nonuniform List<scalar> 
80
(
3.76828
3.76828
4.47414
4.47414
4.48612
4.48612
4.42251
4.42251
4.40522