/*--------------------------------*- C++ -*----------------------------------*\
| =========                 |                                                 |
| \\      /  F ield         | OpenFOAM: The Open Source CFD Toolbox           |
|  \\    /   O peration     | Version:  5.x                                   |
|   \\  /    A nd           | Web:      www.OpenFOAM.org                      |
|    \\/     M anipulation  |                                                 |
\*---------------------------------------------------------------------------*/
FoamFile
{
    version     2.0;
    format      ascii;
    class       volScalarField;
    location    "0.4";
    object      gradTx;
}
// * * * * * * * * * * * * * * * * * * * * * * * * * * * * * * * * * * * * * //

dimensions      [0 -1 0 1 0 0 0];

internalField   nonuniform List<scalar> 
2048
(
-0.0014285
-0.00415023
-0.0064224
-0.00794979
-0.00844513
-0.00759185
-0.0051176
-0.000787136
0.00558243
0.0140996
0.0247896
0.0375917
0.0523595
0.0688583
0.0867588
0.105626
0.124907
0.14393
0.161916
0.178015
0.191377
0.201239
0.207029
0.208443
0.205505
0.198556
0.188206
0.175237
0.160506
0.144842
0.128977
0.113503
0.0988595
0.0853354
0.0730934
0.0621936
0.0526211
0.0443092
0.0371596
0.0310577
0.0258838
0.0215202
0.0178565
0.0147917
0.0122358
0.0101095
0.0083443
0.00688128
0.00567028
0.00466888
0.00384131
0.00315758
0.00259253
0.00212512
0.00173774
0.00141567
0.00114659
0.000920238
0.000728032
0.000562726
0.000418026
0.000288313
0.000168771
5.55025e-05
-0.00433944
-0.0126276
-0.0196015
-0.0243672
-0.0260713
-0.0237795
-0.0166638
-0.00401063
0.0147318
0.0398911
0.0715442
0.109513
0.153365
0.202414
0.255694
0.311928
0.369486
0.42637
0.480243
0.528541
0.568674
0.598307
0.615671
0.619835
0.610865
0.589819
0.558569
0.519522
0.475285
0.42837
0.380978
0.334871
0.291338
0.251222
0.21498
0.182769
0.154524
0.130033
0.10899
0.0910503
0.0758515
0.0630427
0.0522949
0.0433088
0.035818
0.0295887
0.0244188
0.0201351
0.0165901
0.0136591
0.0112373
0.00923676
0.00758364
0.00621632
0.00508321
0.00414114
0.0033541
0.00269204
0.00212989
0.00164653
0.00122349
0.000843871
0.000492731
0.000161297
-0.00744338
-0.0217081
-0.0338557
-0.0424018
-0.0459324
-0.0428974
-0.0318891
-0.0116895
0.018641
0.0596587
0.111495
0.173858
0.246046
0.326954
0.415036
0.508239
0.603917
0.698778
0.788912
0.869962
0.937464
0.987343
1.01648
1.02322
1.00769
0.971739
0.918683
0.852722
0.778364
0.699898
0.621019
0.544639
0.472841
0.406945
0.347632
0.295087
0.249146
0.209409
0.175343
0.146354
0.121833
0.101196
0.0838993
0.0694517
0.0574178
0.0474173
0.0391223
0.0322523
0.0265693
0.0218722
0.0179923
0.014788
0.0121408
0.0099517
0.0081378
0.00662987
0.0053701
0.00431037
0.00341061
0.00263718
0.00196082
0.00135381
0.000787261
0.000255178
-0.0108929
-0.031844
-0.0499413
-0.0631369
-0.0694477
-0.0666803
-0.0527977
-0.0260247
0.0150076
0.0711021
0.142444
0.228622
0.328677
0.441125
0.563913
0.694304
0.828717
0.962604
1.09043
1.2059
1.30239
1.37379
1.41533
1.42446
1.40135
1.34887
1.27205
1.17723
1.07109
0.959892
0.848884
0.742108
0.642362
0.551338
0.469828
0.39795
0.335358
0.281408
0.235298
0.196159
0.163127
0.135378
0.112158
0.0927875
0.0766712
0.0632905
0.0522004
0.0430213
0.0354322
0.0291628
0.023986
0.0197122
0.0161825
0.0132644
0.0108469
0.00883746
0.0071588
0.00574668
0.00454765
0.00351688
0.0026163
0.00181036
0.00104957
0.000336294
-0.0147836
-0.0433327
-0.0683789
-0.0873409
-0.0976559
-0.0964359
-0.0809339
-0.0487321
0.0020316
0.0724299
0.162688
0.272251
0.399898
0.543812
0.701527
0.86975
1.04409
1.2188
1.38668
1.53923
1.66734
1.76233
1.81735
1.82866
1.79649
1.725
1.62143
1.49478
1.35431
1.20846
1.06417
0.926549
0.799
0.683438
0.580621
0.490471
0.412358
0.345321
0.288238
0.239939
0.199285
0.165212
0.136753
0.113052
0.093358
0.0770256
0.0635016
0.0523169
0.0430756
0.0354455
0.0291483
0.0239515
0.0196613
0.0161155
0.0131788
0.0107382
0.00869953
0.0069846
0.00552827
0.00427564
0.00318136
0.00220688
0.00127695
0.000404456
-0.0191651
-0.056337
-0.0894772
-0.11551
-0.13128
-0.13313
-0.117485
-0.081159
-0.0217042
0.0622456
0.170917
0.303553
0.458644
0.63408
0.827108
1.03406
1.24991
1.46785
1.67892
1.87223
2.0356
2.15713
2.22718
2.24044
2.1972
2.10334
1.96901
1.80653
1.62833
1.44535
1.26625
1.09716
0.941907
0.802435
0.679282
0.572018
0.479612
0.400705
0.333801
0.277399
0.23007
0.190505
0.157531
0.130119
0.107377
0.0885409
0.07296
0.0600855
0.0494559
0.040685
0.0334501
0.0274825
0.0225579
0.0184895
0.0151209
0.0123219
0.00998398
0.00801753
0.00634747
0.00490981
0.00365309
0.00254034
0.00146752
0.000459423
-0.0240457
-0.070898
-0.113354
-0.147899
-0.170771
-0.177449
-0.163362
-0.124375
-0.0573257
0.0394661
0.166151
0.321654
0.504111
0.711156
0.939902
1.18655
1.44572
1.70972
1.9679
2.20661
2.41001
2.56201
2.64927
2.66424
2.6073
2.48667
2.31639
2.11308
1.89299
1.66992
1.45428
1.25306
1.07028
0.907647
0.765265
0.642174
0.536816
0.447344
0.371838
0.308438
0.255416
0.211217
0.174468
0.143978
0.118725
0.0978364
0.0805779
0.0663308
0.0545773
0.0448855
0.0368957
0.0303087
0.0248757
0.0203891
0.0166755
0.0135904
0.0110136
0.00884653
0.007006
0.00541996
0.00403188
0.00281026
0.00162049
0.000501039
-0.0293954
-0.0869436
-0.13995
-0.184542
-0.216342
-0.229846
-0.21926
-0.179244
-0.105741
0.00326087
0.147695
0.325974
0.53575
0.774428
1.03918
1.32639
1.63073
1.94394
2.25378
2.54359
2.79304
2.98066
3.08801
3.10444
3.0304
2.8774
2.66468
2.41446
2.14763
1.88116
1.62719
1.39329
1.18334
0.998517
0.838201
0.700722
0.583864
0.485212
0.402378
0.333118
0.275401
0.227432
0.187647
0.154707
0.127471
0.104975
0.0864109
0.0711008
0.0584808
0.0480817
0.0395141
0.0324546
0.0266348
0.0218311
0.0178564
0.0145549
0.0117975
0.00947861
0.00750916
0.00580989
0.0043204
0.00301777
0.00173583
0.000529271
-0.0351475
-0.104294
-0.169038
-0.225263
-0.267986
-0.290577
-0.285714
-0.246495
-0.167706
-0.0469953
0.115117
0.31622
0.553276
0.823466
1.12425
1.45263
1.80383
2.16952
2.53614
2.88381
3.18681
3.41665
3.54792
3.56556
3.47009
3.27759
3.01447
2.71013
2.39108
2.07773
1.78374
1.51687
1.28042
1.07462
0.89789
0.747626
0.620832
0.514455
0.4256
0.351631
0.290216
0.239329
0.197233
0.162453
0.133745
0.110069
0.0905541
0.0744762
0.0612345
0.0503308
0.041353
0.0339597
0.0278679
0.0228423
0.0186857
0.0152335
0.01235
0.00992513
0.00786561
0.00608586
0.00452295
0.003165
0.00181401
0.000544211
-0.0412014
-0.122668
-0.20023
-0.269688
-0.325491
-0.359723
-0.363141
-0.326776
-0.24388
-0.111762
0.0682351
0.292398
0.556689
0.858049
1.19451
1.56421
1.96359
2.38497
2.81394
3.22736
3.59311
3.8736
4.03385
4.05243
3.92994
3.689
3.36576
2.99895
2.62169
2.25797
1.92256
1.62283
1.36091
1.1357
0.944305
0.783023
0.647956
0.535357
0.441805
0.364273
0.300139
0.247162
0.20345
0.167411
0.137717
0.113262
0.0931303
0.0765606
0.0629252
0.0517053
0.0424727
0.0348738
0.0286163
0.0234565
0.0191908
0.0156485
0.0126893
0.0102003
0.00808628
0.00625582
0.00464507
0.00325483
0.00185592
0.000546143
-0.0474252
-0.141691
-0.232982
-0.317243
-0.388438
-0.437206
-0.451882
-0.420724
-0.334892
-0.19137
0.00710745
0.254821
0.546294
0.878199
1.24947
1.66002
2.10833
2.58829
3.08548
3.57366
4.01332
4.3552
4.55108
4.57035
4.41366
4.113
3.71794
3.27912
2.83733
2.41996
2.04221
1.71023
1.42436
1.18165
0.977595
0.80721
0.665611
0.548324
0.451396
0.371424
0.305514
0.251238
0.206566
0.169813
0.139583
0.114723
0.0942805
0.0774722
0.0636516
0.0522871
0.0429412
0.0352533
0.028926
0.0237117
0.0194029
0.0158252
0.0128354
0.0103202
0.0081835
0.00632878
0.00469314
0.00329076
0.00186301
0.000535711
-0.0536602
-0.160902
-0.266607
-0.367159
-0.456199
-0.522792
-0.55223
-0.529021
-0.4414
-0.286048
-0.0679617
0.204129
0.52273
0.88421
1.28882
1.73895
2.23613
2.77701
3.34832
3.92136
4.44838
4.86529
5.10561
5.12529
4.92509
4.55054
4.06967
3.54817
3.03539
2.56156
2.14121
1.77828
1.47049
1.21256
0.998082
0.820636
0.6743
0.553859
0.454852
0.373521
0.306733
0.251897
0.206876
0.16991
0.139557
0.114629
0.0941554
0.0773367
0.0635183
0.0521632
0.0428303
0.0351574
0.0288459
0.0236477
0.0193543
0.0157898
0.0128097
0.0103015
0.00817025
0.00631432
0.00467422
0.00327691
0.00183756
0.000514157
-0.0597264
-0.179772
-0.300286
-0.418473
-0.527927
-0.616083
-0.664463
-0.652468
-0.564162
-0.395954
-0.156415
0.141309
0.486983
0.876674
1.31244
1.79996
2.34491
2.94818
3.59926
4.26822
4.89863
5.40786
5.70429
5.72415
5.46824
5.00199
4.41872
3.80288
3.21284
2.68052
2.21822
1.82636
1.49924
1.22872
1.00626
0.823884
0.674624
0.552545
0.452707
0.371041
0.304213
0.249502
0.204688
0.167966
0.137859
0.113167
0.0929089
0.0762821
0.0626317
0.0514215
0.0422128
0.034646
0.0284252
0.0233048
0.019078
0.0155688
0.0126333
0.0101611
0.00805969
0.00622227
0.00459592
0.0032182
0.00178305
0.000483548
-0.0654294
-0.197716
-0.333084
-0.470031
-0.602538
-0.716499
-0.788858
-0.792065
-0.704116
-0.521197
-0.257422
0.0677125
0.440393
0.856489
1.32046
1.84213
2.43254
3.09844
3.83429
4.61097
5.36361
5.98705
6.35518
6.37498
6.0473
5.46694
4.76186
4.03928
3.36632
2.77455
2.27201
1.8541
1.51079
1.23063
1.00277
0.817654
0.667269
0.545016
0.445532
0.364487
0.298387
0.24442
0.200316
0.16424
0.134709
0.110519
0.0906929
0.0744346
0.0610959
0.0501482
0.0411598
0.0337775
0.0277118
0.0227223
0.0186057
0.0151882
0.0123269
0.00991546
0.00786479
0.00606245
0.00446632
0.00312048
0.00170434
0.000446882
-0.0705685
-0.21412
-0.363976
-0.520499
-0.678685
-0.823234
-0.925698
-0.949097
-0.862476
-0.661845
-0.369851
-0.0149277
0.384653
0.824854
1.31326
1.86475
2.49689
3.22415
4.0486
4.94508
5.84184
6.6071
7.06788
7.08739
6.66655
5.94397
5.09466
4.25262
3.49219
2.84148
2.30163
1.86139
1.50553
1.21898
0.988408
0.80274
0.652982
0.531945
0.433917
0.354365
0.289688
0.237018
0.194064
0.15899
0.13032
0.106862
0.0876541
0.0719152
0.0590111
0.0484258
0.0397391
0.032608
0.0267517
0.0219375
0.017968
0.0146725
0.0119104
0.00958029
0.00759811
0.00584452
0.00429392
0.00299063
0.00160769
0.000407934
-0.0749463
-0.228368
-0.391885
-0.568379
-0.754742
-0.935202
-1.07526
-1.12525
-1.04084
-0.817921
-0.492216
-0.104484
0.321781
0.783247
1.29151
1.86737
2.53601
3.32147
4.23661
5.26465
6.3304
7.27222
7.85394
7.87296
7.33025
6.43026
5.41131
4.43745
3.58671
2.87934
2.30646
1.84846
1.48417
1.19462
0.964085
0.780009
0.632545
0.514019
0.418452
0.341178
0.278538
0.227649
0.186228
0.15246
0.124893
0.102363
0.0839303
0.0688377
0.0564709
0.0463315
0.0380142
0.0311894
0.0255875
0.0209854
0.0171932
0.0140448
0.0114022
0.00917035
0.00727166
0.00557785
0.0040874
0.00283644
0.00150018
0.000370748
-0.0783788
-0.239869
-0.415718
-0.612038
-0.828774
-1.05096
-1.23777
-1.32273
-1.24132
-0.989375
-0.622619
-0.19843
0.254079
0.733379
1.25615
1.84987
2.54824
3.38658
4.3921
5.56222
6.82454
7.9863
8.72748
8.74584
8.04235
6.92116
5.7045
4.58767
3.64618
2.88654
2.28629
1.81587
1.44762
1.1586
0.930803
0.750374
0.606761
0.491925
0.399719
0.325412
0.265341
0.216647
0.177084
0.144879
0.118618
0.0971768
0.0796493
0.0653072
0.0535618
0.0439361
0.0360435
0.0295697
0.0242585
0.0198981
0.0163075
0.0133261
0.0108191
0.0086993
0.0068968
0.00527146
0.00385541
0.00266631
0.00138885
0.000338788
-0.080705
-0.248092
-0.434418
-0.649748
-0.898527
-1.16858
-1.41333
-1.54445
-1.46673
-1.17601
-0.758654
-0.293842
0.184068
0.67713
1.20835
1.81249
2.53232
3.41586
4.50833
5.82867
7.31711
8.7525
9.70594
9.72348
8.80608
7.40962
5.96525
4.69674
3.66717
2.86195
2.24139
1.76455
1.39702
1.11208
0.889632
0.714773
0.576428
0.466335
0.378275
0.307529
0.250478
0.204326
0.16689
0.136456
0.111668
0.091446
0.0749276
0.0614192
0.050362
0.0413042
0.0338798
0.0277922
0.0228001
0.0187045
0.0153344
0.0125355
0.0101767
0.00817958
0.00648416
0.00493394
0.00360601
0.0024887
0.00127944
0.000313893
-0.0817966
-0.252595
-0.447021
-0.67975
-0.961427
-1.28557
-1.6018
-1.79421
-1.72076
-1.37736
-0.8973
-0.387428
0.114405
0.616473
1.14949
1.75587
2.48755
3.40616
4.57838
6.0532
7.79787
9.57251
10.811
10.8276
9.62321
7.88552
6.18291
4.75793
3.64676
2.80511
2.17251
1.69575
1.33374
1.05631
0.841676
0.674142
0.542326
0.437889
0.354646
0.287957
0.2343
0.190973
0.155879
0.127384
0.104198
0.0852981
0.0698696
0.0572594
0.046942
0.0384932
0.0315702
0.0258955
0.0212442
0.0174305
0.0142949
0.0116903
0.00948882
0.00762238
0.00604357
0.00457341
0.00334623
0.00231127
0.00117519
0.00029532
-0.081566
-0.253059
-0.452709
-0.700325
-1.01461
-1.39868
-1.80253
-2.07698
-2.0083
-1.59249
-1.03479
-0.475573
0.0477716
0.553378
1.08112
1.68106
2.41388
3.35502
4.59541
6.22339
8.25279
10.4455
12.0701
12.0856
10.493
8.33497
6.34526
4.76463
3.58274
2.71623
2.08091
1.61101
1.25927
0.992623
0.788046
0.629394
0.505199
0.407191
0.32932
0.267093
0.217127
0.176845
0.144262
0.117834
0.0963481
0.0788468
0.0645683
0.0529036
0.0433635
0.0355538
0.0291562
0.0239138
0.0196184
0.016099
0.0132077
0.0108055
0.00876777
0.00703767
0.00558394
0.0041975
0.00308154
0.00214004
0.00107603
0.000279297
-0.0799726
-0.249303
-0.450872
-0.709892
-1.05496
-1.50377
-2.01407
-2.39926
-2.33573
-1.81965
-1.16649
-0.554421
-0.0132461
0.48972
1.00484
1.58947
2.31197
3.26092
4.55318
6.32554
8.66327
11.3664
13.5175
13.5319
11.4103
8.73945
6.43876
4.71082
3.4739
2.59632
1.96833
1.51215
1.17522
0.922352
0.72983
0.581405
0.465744
0.374798
0.302742
0.245291
0.199243
0.162174
0.132225
0.107956
0.0882407
0.0721917
0.0591048
0.048418
0.0396807
0.0325302
0.0266741
0.0218766
0.0179472
0.0147297
0.0120888
0.00989442
0.00802444
0.00643423
0.00511311
0.00381331
0.00281547
0.00197853
0.000978705
0.000259451
-0.0770267
-0.241303
-0.441153
-0.707112
-1.07925
-1.5957
-2.2337
-2.76948
-2.71138
-2.05581
-1.28673
-0.620004
-0.0662956
0.427187
0.92231
1.48284
2.18326
3.12352
4.44648
6.34516
9.0054
12.3235
15.1973
15.2105
12.3637
9.0752
6.44908
4.59154
3.32021
2.44717
1.83695
1.40114
1.08323
0.846825
0.668076
0.530993
0.424606
0.341216
0.275313
0.22287
0.180904
0.147163
0.119931
0.0978822
0.0799824
0.0654193
0.0535493
0.0438598
0.0359403
0.0294607
0.0241551
0.0198094
0.0162514
0.0133399
0.0109523
0.00896835
0.0072684
0.00581974
0.00463766
0.00342737
0.00254952
0.00182725
0.00087797
0.000228325
-0.0727904
-0.229197
-0.423482
-0.690999
-1.08429
-1.66815
-2.45668
-3.19859
-3.14613
-2.29598
-1.38876
-0.668416
-0.109396
0.3672
0.835142
1.36322
2.02988
2.94379
4.27171
6.26772
9.24952
13.2951
17.1656
17.1775
13.3314
9.31264
6.36186
4.40341
3.12293
2.27134
1.68929
1.28011
0.984979
0.767324
0.603764
0.478914
0.382365
0.306898
0.247384
0.200109
0.162329
0.131988
0.107522
0.0877258
0.0716646
0.0586035
0.047962
0.0392779
0.032182
0.0263775
0.0216256
0.017734
0.0145489
0.011944
0.00981002
0.00803702
0.00650792
0.00520091
0.00416281
0.0030455
0.00228352
0.00168364
0.000768823
0.00017984
-0.0673753
-0.213274
-0.398098
-0.661028
-1.06712
-1.71369
-2.67532
-3.70077
-3.65408
-2.53224
-1.4647
-0.696048
-0.141069
0.310851
0.744851
1.23283
1.85465
2.7241
4.02739
6.07976
9.36009
14.2446
19.4941
19.5047
14.277
9.41633
6.1638
4.14517
2.88474
2.07207
1.52812
1.1512
0.882079
0.685056
0.537798
0.425846
0.339539
0.272239
0.219266
0.177248
0.143709
0.1168
0.0951162
0.0775831
0.0633647
0.0518069
0.0423933
0.0347133
0.0284393
0.023308
0.0191078
0.0156686
0.0128544
0.0105544
0.00867191
0.00710858
0.0057501
0.00458365
0.00369232
0.00267267
0.00201626
0.00154267
0.000649261
0.000112157
-0.0609363
-0.193959
-0.365544
-0.617226
-1.02531
-1.72386
-2.87768
-4.29434
-4.25348
-2.75241
-1.50572
-0.69987
-0.160452
0.258873
0.652815
1.09402
1.66093
2.46817
3.7146
5.77027
9.29631
15.1142
22.275
22.2843
15.1425
9.34558
5.84401
3.8181
2.60967
1.85311
1.35636
1.01654
0.776068
0.601134
0.47099
0.372392
0.296581
0.237585
0.191222
0.154493
0.125205
0.101724
0.0828157
0.0675344
0.0551473
0.0450815
0.0368853
0.0302002
0.0247398
0.0202746
0.0166201
0.0136281
0.0111804
0.0091811
0.00754633
0.00618973
0.00500093
0.00397322
0.00322852
0.0023127
0.00174658
0.00139805
0.00052259
2.99625e-05
-0.0536625
-0.171783
-0.32664
-0.560231
-0.95728
-1.68951
-3.04578
-5.00286
-4.96783
-2.93834
-1.50231
-0.677759
-0.167367
0.211633
0.560247
0.94913
1.45247
2.18099
3.3373
5.33222
9.01382
15.816
25.6259
25.6339
15.8403
9.05609
5.39558
3.42634
2.30298
1.61863
1.17695
0.878178
0.668367
0.516558
0.40406
0.319078
0.253879
0.203228
0.163475
0.132015
0.106949
0.0868666
0.0707034
0.0576461
0.0470655
0.03847
0.0314726
0.0257663
0.0211062
0.0172959
0.0141777
0.0116249
0.00953698
0.0078325
0.00644009
0.00528595
0.00426533
0.00337432
0.00277249
0.00196801
0.00147449
0.00124377
0.000398124
-5.49255e-05
-0.0457641
-0.14735
-0.28243
-0.491309
-0.862616
-1.60143
-3.15342
-5.85652
-5.82726
-3.06367
-1.44498
-0.628833
-0.162357
0.169153
0.468176
0.800473
1.23322
1.86858
2.90238
4.76426
8.46788
16.2214
29.6972
29.7039
16.2417
8.50319
4.81727
2.97695
1.97092
1.37296
0.992755
0.738011
0.560254
0.432211
0.337628
0.266349
0.211762
0.169412
0.13621
0.109956
0.0890525
0.0723135
0.058847
0.047972
0.0391621
0.0320068
0.0261829
0.0214342
0.0175566
0.0143865
0.0117923
0.00966868
0.00793211
0.00651522
0.00535872
0.00440161
0.00354719
0.0027912
0.00232442
0.00163934
0.00120219
0.00107574
0.000289279
-0.000125588
-0.0374581
-0.121296
-0.234123
-0.412312
-0.742401
-1.45142
-3.1633
-6.89375
-6.87017
-3.09094
-1.32526
-0.553773
-0.146649
0.131164
0.377448
0.650204
1.0072
1.53764
2.41955
4.07229
7.61845
16.1466
34.6796
34.6851
16.163
7.64691
4.11507
2.47979
1.62041
1.12044
0.806484
0.597756
0.452856
0.348851
0.272221
0.21458
0.170499
0.136337
0.109577
0.088431
0.0716028
0.058133
0.0473002
0.0385544
0.031471
0.0257189
0.0210377
0.0172213
0.0141052
0.0115579
0.00947355
0.00776722
0.00637212
0.00523445
0.00430657
0.00354015
0.00284948
0.00222761
0.001884
0.00132565
0.00093458
0.000892991
0.000208732
-0.00016494
-0.0289534
-0.0942583
-0.183013
-0.325582
-0.599448
-1.23381
-3.0235
-8.16315
-8.14511
-2.96815
-1.13727
-0.455054
-0.122065
0.0971712
0.288737
0.500285
0.778252
1.1952
1.90087
3.27063
6.43791
15.3354
40.8143
40.8184
15.348
6.45968
3.30338
1.94701
1.25868
0.865228
0.620586
0.458921
0.347136
0.267117
0.208273
0.164074
0.130308
0.104163
0.0836944
0.0675286
0.0546686
0.0443782
0.0361045
0.0294261
0.024018
0.019627
0.0160539
0.013141
0.0107629
0.00881898
0.00722839
0.00592627
0.00486178
0.00399418
0.00328701
0.00270423
0.00217432
0.00168676
0.00145094
0.00102417
0.000679099
0.000697962
0.000161487
-0.000162721
-0.0204372
-0.0668399
-0.130404
-0.233799
-0.438391
-0.947581
-2.66334
-9.72572
-9.71307
-2.62451
-0.879849
-0.33704
-0.0908626
0.0665393
0.202558
0.352436
0.549925
0.848229
1.35998
2.38254
4.92164
13.4388
48.4032
48.4062
13.4476
4.93692
2.40552
1.39239
0.892847
0.611118
0.437212
0.32279
0.243894
0.187527
0.146134
0.115072
0.0913619
0.0730123
0.0586538
0.0473173
0.0383016
0.031089
0.0252909
0.0206115
0.0168225
0.0137464
0.0112435
0.00920318
0.00753752
0.00617602
0.00506203
0.00415006
0.00340457
0.00279727
0.00230255
0.00189586
0.00152306
0.00117118
0.00102542
0.000730815
0.000444639
0.00049589
0.00013827
-0.000122274
-0.0120678
-0.0395995
-0.077548
-0.139784
-0.265558
-0.599271
-1.98839
-11.6573
-11.6499
-1.96552
-0.559377
-0.205847
-0.0555351
0.038571
0.119294
0.208113
0.325355
0.503244
0.811178
1.43954
3.10215
9.99024
57.822
57.8238
9.99542
3.11116
1.45308
0.830277
0.529553
0.361461
0.258182
0.190419
0.143777
0.110494
0.0860738
0.0677606
0.0537878
0.0429781
0.0345219
0.0278469
0.0225393
0.0182938
0.0148813
0.0121274
0.00989773
0.00808765
0.00661491
0.00541445
0.00443444
0.00363341
0.00297801
0.00244144
0.00200284
0.00164572
0.00135493
0.00111653
0.000896461
0.000682587
0.000608372
0.000440793
0.000239663
0.000293394
0.000113365
-6.33323e-05
-0.0039746
-0.0130513
-0.0256041
-0.0462808
-0.0885339
-0.206526
-0.874864
-14.0515
-14.0491
-0.867344
-0.193411
-0.0689021
-0.0185741
0.0125835
0.0392144
0.0684962
0.10718
0.165999
0.268264
0.479325
1.06686
4.3778
69.5333
69.5339
4.3795
1.06982
0.483774
0.274543
0.174653
0.119059
0.0849769
0.0626435
0.0472842
0.0363301
0.0282961
0.022273
0.0176785
0.0141246
0.0113449
0.00915088
0.00740647
0.00601122
0.00488978
0.00398481
0.00325214
0.00265736
0.00217345
0.001779
0.00145699
0.0011938
0.000978453
0.000802141
0.000658022
0.000540738
0.000445273
0.000367277
0.000294828
0.000221764
0.000201637
0.000149509
6.9769e-05
9.71856e-05
5.24721e-05
-1.5854e-05
)
;

boundaryField
{
    left
    {
        type            calculated;
        value           uniform 0;
    }
    right
    {
        type            calculated;
        value           uniform 0;
    }
    interface
    {
        type            calculated;
        value           nonuniform List<scalar> 
64
(
-0.0039746
-0.0130513
-0.0256041
-0.0462808
-0.0885339
-0.206526
-0.874864
-14.0515
-14.0491
-0.867344
-0.193411
-0.0689021
-0.0185741
0.0125835
0.0392144
0.0684962
0.10718
0.165999
0.268264
0.479325
1.06686
4.3778
69.5333
69.5339
4.3795
1.06982
0.483774
0.274543
0.174653
0.119059
0.0849769
0.0626435
0.0472842
0.0363301
0.0282961
0.022273
0.0176785
0.0141246
0.0113449
0.00915088
0.00740647
0.00601122
0.00488978
0.00398481
0.00325214
0.00265736
0.00217345
0.001779
0.00145699
0.0011938
0.000978453
0.000802141
0.000658022
0.000540738
0.000445273
0.000367277
0.000294828
0.000221764
0.000201637
0.000149509
6.9769e-05
9.71856e-05
5.24721e-05
-1.5854e-05
)
;
    }
    bottom
    {
        type            calculated;
        value           nonuniform List<scalar> 
64
(
-0.0014285
-0.00415023
-0.0064224
-0.00794979
-0.00844513
-0.00759185
-0.0051176
-0.000787136
0.00558243
0.0140996
0.0247896
0.0375917
0.0523595
0.0688583
0.0867588
0.105626
0.124907
0.14393
0.161916
0.178015
0.191377
0.201239
0.207029
0.208443
0.205505
0.198556
0.188206
0.175237
0.160506
0.144842
0.128977
0.113503
0.0988595
0.0853354
0.0730934
0.0621936
0.0526211
0.0443092
0.0371596
0.0310577
0.0258838
0.0215202
0.0178565
0.0147917
0.0122358
0.0101095
0.0083443
0.00688128
0.00567028
0.00466888
0.00384131
0.00315758
0.00259253
0.00212512
0.00173774
0.00141567
0.00114659
0.000920238
0.000728032
0.000562726
0.000418026
0.000288313
0.000168771
5.55025e-05
)
;
    }
    defaultFaces
    {
        type            empty;
    }
}


// ************************************************************************* //
