/*--------------------------------*- C++ -*----------------------------------*\
| =========                 |                                                 |
| \\      /  F ield         | OpenFOAM: The Open Source CFD Toolbox           |
|  \\    /   O peration     | Version:  5.x                                   |
|   \\  /    A nd           | Web:      www.OpenFOAM.org                      |
|    \\/     M anipulation  |                                                 |
\*---------------------------------------------------------------------------*/
FoamFile
{
    version     2.0;
    format      ascii;
    class       volScalarField;
    location    "0.4";
    object      gradTy;
}
// * * * * * * * * * * * * * * * * * * * * * * * * * * * * * * * * * * * * * //

dimensions      [0 -1 0 1 0 0 0];

internalField   nonuniform List<scalar> 
2048
(
-22.7427
-22.7491
-22.7612
-22.7777
-22.7967
-22.8157
-22.8312
-22.8396
-22.8365
-22.8173
-22.7772
-22.7114
-22.6155
-22.4853
-22.3172
-22.1088
-21.8582
-21.5652
-21.2311
-20.8591
-20.4543
-20.0234
-19.5751
-19.1189
-18.6644
-18.2213
-17.7976
-17.4002
-17.0337
-16.7011
-16.4035
-16.1405
-15.9105
-15.7115
-15.5405
-15.3947
-15.2712
-15.167
-15.0795
-15.0063
-14.9453
-14.8945
-14.8523
-14.8174
-14.7884
-14.7645
-14.7448
-14.7285
-14.7151
-14.704
-14.6949
-14.6875
-14.6813
-14.6763
-14.6722
-14.6688
-14.666
-14.6638
-14.6621
-14.6607
-14.6596
-14.6589
-14.6584
-14.6582
-22.7353
-22.7422
-22.7553
-22.7734
-22.7945
-22.8161
-22.8347
-22.8466
-22.8473
-22.8319
-22.7956
-22.7335
-22.6408
-22.5134
-22.3476
-22.1404
-21.89
-21.5959
-21.2593
-20.8831
-20.4726
-20.0349
-19.5789
-19.1146
-18.6525
-18.2026
-17.7735
-17.3722
-17.0034
-16.6699
-16.3725
-16.1106
-15.8825
-15.6856
-15.517
-15.3737
-15.2524
-15.1504
-15.0648
-14.9934
-14.9338
-14.8844
-14.8433
-14.8093
-14.7812
-14.758
-14.7388
-14.723
-14.71
-14.6993
-14.6905
-14.6832
-14.6773
-14.6724
-14.6684
-14.6651
-14.6624
-14.6603
-14.6586
-14.6573
-14.6562
-14.6555
-14.655
-14.6548
-22.7209
-22.7287
-22.7438
-22.7648
-22.7899
-22.8165
-22.8411
-22.8596
-22.8674
-22.8595
-22.8305
-22.7754
-22.6891
-22.5672
-22.4056
-22.2009
-21.9511
-21.6551
-21.3137
-20.9297
-20.5083
-20.0572
-19.5862
-19.1063
-18.6294
-18.1664
-17.7268
-17.3181
-16.9449
-16.6098
-16.3132
-16.0537
-15.8292
-15.6366
-15.4726
-15.3338
-15.217
-15.119
-15.0372
-14.969
-14.9123
-14.8653
-14.8264
-14.7942
-14.7676
-14.7457
-14.7276
-14.7127
-14.7004
-14.6903
-14.682
-14.6752
-14.6696
-14.665
-14.6612
-14.6581
-14.6556
-14.6536
-14.652
-14.6507
-14.6498
-14.6491
-14.6486
-14.6484
-22.6997
-22.7088
-22.7266
-22.7518
-22.7826
-22.8163
-22.8494
-22.8775
-22.8957
-22.8984
-22.8801
-22.835
-22.758
-22.644
-22.4887
-22.2881
-22.0394
-21.7409
-21.3929
-20.9977
-20.5607
-20.0901
-19.5969
-19.094
-18.5952
-18.1131
-17.6585
-17.2393
-16.8602
-16.5233
-16.2281
-15.9726
-15.7535
-15.5673
-15.41
-15.2779
-15.1674
-15.0752
-14.9986
-14.935
-14.8824
-14.8388
-14.8029
-14.7732
-14.7487
-14.7286
-14.712
-14.6983
-14.6871
-14.6778
-14.6702
-14.664
-14.6588
-14.6546
-14.6512
-14.6484
-14.6461
-14.6442
-14.6428
-14.6416
-14.6407
-14.6401
-14.6397
-14.6395
-22.6719
-22.6827
-22.7038
-22.7341
-22.772
-22.8147
-22.8586
-22.8991
-22.9306
-22.9471
-22.9425
-22.9105
-22.8454
-22.7418
-22.5948
-22.3999
-22.1533
-21.8524
-21.4965
-21.0872
-20.6299
-20.1336
-19.6111
-19.0777
-18.5497
-18.0425
-17.5685
-17.1362
-16.7503
-16.4118
-16.1193
-15.8695
-15.658
-15.4803
-15.3318
-15.2083
-15.1058
-15.021
-14.9509
-14.8931
-14.8454
-14.8062
-14.7739
-14.7473
-14.7254
-14.7074
-14.6927
-14.6805
-14.6705
-14.6623
-14.6556
-14.65
-14.6455
-14.6417
-14.6387
-14.6362
-14.6342
-14.6325
-14.6312
-14.6302
-14.6294
-14.6288
-14.6285
-14.6283
-22.6374
-22.65
-22.6749
-22.7113
-22.7574
-22.8109
-22.8678
-22.9233
-22.971
-23.0043
-23.0162
-23
-22.9495
-22.8587
-22.7223
-22.5349
-22.2918
-21.989
-21.6244
-21.1987
-20.7168
-20.1886
-19.629
-19.0568
-18.4923
-17.9539
-17.4563
-17.0088
-16.6156
-16.2765
-15.9885
-15.7465
-15.5449
-15.378
-15.2404
-15.1273
-15.0344
-14.9583
-14.896
-14.8449
-14.803
-14.7687
-14.7406
-14.7175
-14.6986
-14.6831
-14.6704
-14.6599
-14.6514
-14.6443
-14.6386
-14.6338
-14.6299
-14.6268
-14.6241
-14.622
-14.6203
-14.6189
-14.6177
-14.6169
-14.6162
-14.6157
-14.6154
-14.6152
-22.5963
-22.6109
-22.6399
-22.6827
-22.7382
-22.8039
-22.876
-22.9489
-23.0158
-23.0689
-23.1001
-23.1023
-23.0687
-22.9931
-22.8695
-22.6919
-22.4542
-22.1507
-21.7774
-21.3333
-20.8226
-20.2559
-19.651
-19.0311
-18.4217
-17.8458
-17.3207
-16.8564
-16.4563
-16.1183
-15.837
-15.6054
-15.4163
-15.2626
-15.1379
-15.037
-14.9553
-14.8891
-14.8354
-14.7918
-14.7563
-14.7275
-14.704
-14.6848
-14.6691
-14.6563
-14.6458
-14.6372
-14.6302
-14.6244
-14.6197
-14.6158
-14.6126
-14.61
-14.6079
-14.6062
-14.6047
-14.6036
-14.6027
-14.6019
-14.6014
-14.601
-14.6007
-14.6006
-22.5486
-22.5651
-22.5983
-22.648
-22.7135
-22.7928
-22.882
-22.9751
-23.064
-23.1397
-23.1931
-23.216
-23.2016
-23.1434
-23.0351
-22.8697
-22.6398
-22.3376
-21.9563
-21.4926
-20.9491
-20.337
-19.6775
-18.9999
-18.3364
-17.7162
-17.1599
-16.678
-16.2722
-15.9377
-15.6662
-15.4482
-15.2744
-15.1363
-15.0266
-14.9395
-14.8702
-14.8149
-14.7706
-14.7352
-14.7066
-14.6836
-14.6649
-14.6498
-14.6376
-14.6276
-14.6194
-14.6128
-14.6074
-14.6029
-14.5993
-14.5963
-14.5939
-14.5919
-14.5903
-14.5889
-14.5878
-14.5869
-14.5862
-14.5857
-14.5852
-14.5849
-14.5847
-14.5847
-22.4944
-22.5128
-22.55
-22.6066
-22.6825
-22.7765
-22.8848
-23.0007
-23.1147
-23.216
-23.2941
-23.3401
-23.3468
-23.308
-23.2172
-23.0669
-22.8479
-22.5498
-22.1624
-21.6788
-21.0989
-20.4341
-19.7095
-18.9622
-18.2343
-17.5626
-16.9717
-16.4723
-16.063
-15.7355
-15.4776
-15.2767
-15.1212
-15.0011
-14.9084
-14.8366
-14.7808
-14.7373
-14.7031
-14.6762
-14.6549
-14.6379
-14.6243
-14.6134
-14.6047
-14.5976
-14.5918
-14.5872
-14.5834
-14.5803
-14.5778
-14.5757
-14.5741
-14.5727
-14.5715
-14.5706
-14.5698
-14.5692
-14.5687
-14.5683
-14.568
-14.5678
-14.5677
-14.5676
-22.434
-22.454
-22.4949
-22.558
-22.6446
-22.7541
-22.8833
-23.0248
-23.1672
-23.2972
-23.4025
-23.4734
-23.5029
-23.4852
-23.4144
-23.2821
-23.0777
-22.7875
-22.3971
-21.8943
-21.2751
-20.5497
-19.7478
-18.9171
-18.1126
-17.3817
-16.7535
-16.2376
-15.8285
-15.5124
-15.2726
-15.0928
-14.9588
-14.8593
-14.7853
-14.7302
-14.6888
-14.6577
-14.634
-14.616
-14.602
-14.5912
-14.5828
-14.5762
-14.5709
-14.5668
-14.5634
-14.5608
-14.5586
-14.5569
-14.5555
-14.5543
-14.5534
-14.5526
-14.552
-14.5514
-14.551
-14.5507
-14.5504
-14.5501
-14.55
-14.5499
-14.5498
-14.5498
-22.3679
-22.3891
-22.4329
-22.502
-22.5988
-22.7244
-22.8764
-23.0465
-23.2209
-23.383
-23.5179
-23.6151
-23.6685
-23.6734
-23.6245
-23.5136
-23.328
-23.0507
-22.6618
-22.1423
-21.4815
-20.6872
-19.7939
-18.863
-17.9679
-17.1695
-16.5021
-15.9724
-15.5685
-15.2696
-15.053
-14.8985
-14.7894
-14.7128
-14.6592
-14.6218
-14.5957
-14.5773
-14.5645
-14.5554
-14.5489
-14.5443
-14.541
-14.5386
-14.5369
-14.5356
-14.5346
-14.5339
-14.5333
-14.5329
-14.5326
-14.5323
-14.5321
-14.5319
-14.5318
-14.5317
-14.5315
-14.5315
-14.5314
-14.5313
-14.5313
-14.5313
-14.5312
-14.5313
-22.2965
-22.3184
-22.3642
-22.4381
-22.5443
-22.6863
-22.8627
-23.0649
-23.2755
-23.4732
-23.6399
-23.7646
-23.8423
-23.8706
-23.8455
-23.7592
-23.5974
-23.3392
-22.958
-22.4259
-21.7228
-20.8509
-19.8494
-18.7982
-17.7957
-16.9214
-16.2141
-15.6752
-15.2832
-15.0082
-14.8207
-14.696
-14.615
-14.5636
-14.5318
-14.5131
-14.5026
-14.4974
-14.4954
-14.4953
-14.4962
-14.4977
-14.4994
-14.5012
-14.5028
-14.5043
-14.5056
-14.5068
-14.5078
-14.5086
-14.5093
-14.5099
-14.5104
-14.5108
-14.5112
-14.5114
-14.5116
-14.5118
-14.5119
-14.512
-14.5121
-14.5122
-14.5122
-14.5123
-22.2207
-22.2425
-22.2891
-22.3661
-22.4804
-22.6384
-22.841
-23.079
-23.3309
-23.5683
-23.7688
-23.9212
-24.023
-24.0748
-24.0751
-24.0166
-23.884
-23.6522
-23.287
-22.7491
-22.0047
-21.0463
-19.9169
-18.7202
-17.5906
-16.6316
-15.8857
-15.3445
-14.9731
-14.7301
-14.5781
-14.4878
-14.4379
-14.4136
-14.4049
-14.4053
-14.4108
-14.4187
-14.4275
-14.4363
-14.4445
-14.4519
-14.4585
-14.4642
-14.4691
-14.4733
-14.4768
-14.4798
-14.4822
-14.4843
-14.486
-14.4874
-14.4886
-14.4896
-14.4903
-14.491
-14.4915
-14.4919
-14.4922
-14.4924
-14.4926
-14.4928
-14.4929
-14.4931
-22.1412
-22.1623
-22.2079
-22.286
-22.4063
-22.5793
-22.8095
-23.0879
-23.3871
-23.6689
-23.9049
-24.0845
-24.2091
-24.2839
-24.3104
-24.283
-24.1853
-23.9884
-23.6496
-23.1154
-22.3336
-21.2805
-19.9995
-18.6258
-17.3455
-16.2935
-15.513
-14.9794
-14.6393
-14.4373
-14.3275
-14.2761
-14.2602
-14.2646
-14.2798
-14.2998
-14.3213
-14.3422
-14.3616
-14.379
-14.3942
-14.4073
-14.4186
-14.4281
-14.4361
-14.4428
-14.4484
-14.453
-14.4569
-14.4601
-14.4628
-14.4649
-14.4667
-14.4682
-14.4694
-14.4704
-14.4711
-14.4718
-14.4723
-14.4727
-14.473
-14.4733
-14.4735
-14.4736
-22.0591
-22.0784
-22.1213
-22.1978
-22.3212
-22.5074
-22.7662
-23.0904
-23.4447
-23.7762
-24.0489
-24.2541
-24.3994
-24.4957
-24.5488
-24.5552
-24.4984
-24.3459
-24.0461
-23.5289
-22.7173
-21.5622
-20.1015
-18.5107
-17.0516
-15.8994
-15.092
-14.5793
-14.2835
-14.1325
-14.0717
-14.0636
-14.0841
-14.1185
-14.1579
-14.1976
-14.2349
-14.2685
-14.2981
-14.3237
-14.3457
-14.3642
-14.3799
-14.393
-14.4039
-14.413
-14.4205
-14.4267
-14.4319
-14.4362
-14.4397
-14.4426
-14.445
-14.4469
-14.4485
-14.4498
-14.4508
-14.4517
-14.4524
-14.4529
-14.4533
-14.4537
-14.4539
-14.4541
-21.9753
-21.9919
-22.03
-22.1017
-22.2244
-22.4209
-22.7089
-23.0852
-23.5046
-23.892
-24.2019
-24.4299
-24.5924
-24.7079
-24.7873
-24.83
-24.8199
-24.722
-24.476
-23.993
-23.1645
-21.9028
-20.2289
-18.369
-16.6976
-15.4406
-14.6191
-14.1447
-13.9082
-13.8189
-13.8138
-13.8527
-13.9115
-13.9766
-14.0405
-14.0995
-14.1522
-14.1981
-14.2375
-14.271
-14.2992
-14.3229
-14.3426
-14.359
-14.3727
-14.384
-14.3933
-14.401
-14.4074
-14.4126
-14.4169
-14.4205
-14.4234
-14.4258
-14.4277
-14.4293
-14.4306
-14.4317
-14.4325
-14.4332
-14.4337
-14.4341
-14.4344
-14.4346
-21.8911
-21.9039
-21.9348
-21.9982
-22.1155
-22.3178
-22.6346
-23.0703
-23.5682
-24.0188
-24.3653
-24.6116
-24.7866
-24.918
-25.0229
-25.1036
-25.1459
-25.1132
-24.9378
-24.5109
-23.6849
-22.3164
-20.3901
-18.1922
-16.2692
-14.9073
-14.0911
-13.6769
-13.5165
-13.4999
-13.5568
-13.6458
-13.7443
-13.8404
-13.9284
-14.0063
-14.0738
-14.1314
-14.18
-14.2209
-14.255
-14.2833
-14.3069
-14.3264
-14.3425
-14.3559
-14.3668
-14.3759
-14.3834
-14.3895
-14.3945
-14.3987
-14.4021
-14.4049
-14.4072
-14.409
-14.4106
-14.4118
-14.4128
-14.4135
-14.4142
-14.4146
-14.415
-14.4151
-21.8076
-21.8155
-21.837
-21.8879
-21.9941
-22.1961
-22.5397
-23.0434
-23.6377
-24.16
-24.5408
-24.799
-24.9803
-25.1238
-25.2524
-25.3725
-25.472
-25.5151
-25.4285
-25.0842
-24.2888
-22.8211
-20.5968
-17.9686
-15.7485
-14.2891
-13.5062
-13.1787
-13.1127
-13.1795
-13.3038
-13.4454
-13.5841
-13.7109
-13.8225
-13.9185
-14
-14.0686
-14.1258
-14.1735
-14.213
-14.2458
-14.2728
-14.2951
-14.3135
-14.3287
-14.3412
-14.3515
-14.3599
-14.3669
-14.3726
-14.3773
-14.3811
-14.3843
-14.3869
-14.389
-14.3907
-14.3921
-14.3932
-14.3941
-14.3948
-14.3952
-14.3956
-14.3957
-21.7258
-21.7278
-21.7376
-21.7719
-21.8601
-22.0537
-22.4196
-23.0009
-23.7166
-24.32
-24.7303
-24.9915
-25.172
-25.3228
-25.4731
-25.6328
-25.7937
-25.9224
-25.944
-25.7135
-24.9869
-23.4392
-20.8664
-17.681
-15.1131
-13.5754
-12.8639
-12.6541
-12.7018
-12.8618
-13.058
-13.2534
-13.4323
-13.589
-13.7232
-13.8364
-13.9311
-14.0098
-14.0751
-14.129
-14.1735
-14.2102
-14.2404
-14.2652
-14.2857
-14.3025
-14.3163
-14.3277
-14.3371
-14.3447
-14.3511
-14.3562
-14.3605
-14.364
-14.3668
-14.3692
-14.371
-14.3726
-14.3738
-14.3748
-14.3756
-14.3761
-14.3765
-14.3765
-21.6468
-21.6421
-21.6382
-21.6515
-21.7143
-21.8886
-22.2688
-22.9378
-23.8099
-24.5042
-24.9355
-25.1885
-25.3597
-25.5128
-25.6821
-25.8812
-26.1063
-26.3294
-26.4782
-26.3968
-25.7893
-24.1983
-21.2241
-17.304
-14.3355
-12.756
-12.1662
-12.1092
-12.2894
-12.5513
-12.8222
-13.0718
-13.29
-13.4756
-13.6311
-13.7603
-13.8671
-13.9552
-14.0277
-14.0873
-14.1363
-14.1765
-14.2095
-14.2367
-14.259
-14.2773
-14.2923
-14.3047
-14.3148
-14.3231
-14.33
-14.3356
-14.3402
-14.344
-14.3471
-14.3496
-14.3516
-14.3533
-14.3547
-14.3557
-14.3566
-14.357
-14.3574
-14.3575
-21.5717
-21.5595
-21.5401
-21.5283
-21.5575
-21.6993
-22.0807
-22.8466
-23.9254
-24.7194
-25.1582
-25.3888
-25.5415
-25.6917
-25.8771
-26.1145
-26.4052
-26.7294
-27.0235
-27.1294
-26.7045
-25.1317
-21.7075
-16.8003
-13.3824
-11.8225
-11.4177
-11.5513
-11.8819
-12.2523
-12.5993
-12.9022
-13.1582
-13.3709
-13.5463
-13.6902
-13.8081
-13.9047
-13.9837
-14.0484
-14.1013
-14.1447
-14.1803
-14.2095
-14.2334
-14.253
-14.2691
-14.2823
-14.2932
-14.3021
-14.3094
-14.3154
-14.3203
-14.3243
-14.3276
-14.3303
-14.3325
-14.3343
-14.3358
-14.3368
-14.3378
-14.3382
-14.3386
-14.3388
-21.5011
-21.481
-21.4449
-21.4043
-21.3915
-21.4847
-21.8475
-22.716
-24.0744
-24.9737
-25.3995
-25.5907
-25.7154
-25.8575
-26.0561
-26.3298
-26.6861
-27.1159
-27.5708
-27.903
-27.7377
-26.2786
-22.3724
-16.1141
-12.2148
-10.77
-10.6267
-10.9899
-11.486
-11.9688
-12.3915
-12.7459
-13.0375
-13.2754
-13.4689
-13.6262
-13.7541
-13.8582
-13.943
-14.0122
-14.0687
-14.1149
-14.1527
-14.1836
-14.2089
-14.2297
-14.2467
-14.2607
-14.2721
-14.2816
-14.2893
-14.2956
-14.3008
-14.305
-14.3085
-14.3114
-14.3137
-14.3156
-14.3171
-14.3182
-14.3193
-14.3197
-14.3201
-14.3203
-21.4358
-21.4076
-21.354
-21.2819
-21.2191
-21.2452
-21.5605
-22.5294
-24.274
-25.276
-25.6594
-25.792
-25.8792
-26.0087
-26.2174
-26.525
-26.9452
-27.4822
-28.1096
-28.7057
-28.8887
-27.6828
-23.3025
-15.1619
-10.789
-9.59849
-9.80546
-10.4354
-11.1083
-11.7047
-12.2008
-12.6038
-12.9283
-13.1892
-13.399
-13.5682
-13.7049
-13.8157
-13.9056
-13.9787
-14.0383
-14.0869
-14.1266
-14.159
-14.1856
-14.2074
-14.2252
-14.2398
-14.2518
-14.2616
-14.2697
-14.2763
-14.2817
-14.2862
-14.2898
-14.2928
-14.2953
-14.2972
-14.2988
-14.3
-14.301
-14.3015
-14.3019
-14.3022
-21.3763
-21.3401
-21.2688
-21.1634
-21.0435
-20.9824
-21.2106
-22.2617
-24.5496
-25.636
-25.9367
-25.9894
-26.0308
-26.1438
-26.36
-26.6985
-27.1793
-27.822
-28.6285
-29.5211
-30.1497
-29.3907
-24.6223
-13.8193
-9.05876
-8.31618
-8.97044
-9.89954
-10.7554
-11.4632
-12.0288
-12.4765
-12.8308
-13.1121
-13.3364
-13.516
-13.6604
-13.777
-13.8713
-13.9478
-14.01
-14.0607
-14.102
-14.1358
-14.1635
-14.1861
-14.2046
-14.2197
-14.2322
-14.2424
-14.2507
-14.2576
-14.2632
-14.2678
-14.2716
-14.2747
-14.2773
-14.2793
-14.281
-14.2822
-14.2832
-14.2838
-14.2841
-14.2845
-21.3228
-21.2791
-21.1906
-21.0514
-20.8691
-20.7002
-20.789
-21.876
-24.9387
-26.0628
-26.228
-26.1793
-26.1679
-26.262
-26.4832
-26.8492
-27.386
-28.1295
-29.1156
-30.329
-31.5025
-31.4459
-26.5162
-11.9022
-6.98069
-6.94155
-8.14204
-9.39415
-10.433
-11.2468
-11.8763
-12.3643
-12.745
-13.0442
-13.281
-13.4696
-13.6205
-13.742
-13.84
-13.9194
-13.9839
-14.0363
-14.0791
-14.114
-14.1425
-14.1658
-14.1849
-14.2005
-14.2133
-14.2238
-14.2325
-14.2395
-14.2453
-14.2501
-14.254
-14.2572
-14.2598
-14.2619
-14.2636
-14.2648
-14.2659
-14.2665
-14.2668
-14.2673
-21.2756
-21.2251
-21.1204
-20.9482
-20.7007
-20.4051
-20.2895
-21.3178
-25.4963
-26.5632
-26.5271
-26.3571
-26.2888
-26.3626
-26.5869
-26.9767
-27.5635
-28.4001
-29.5597
-31.106
-32.9155
-33.881
-29.2547
-9.14023
-4.5225
-5.50615
-7.34397
-8.93086
-10.146
-11.0573
-11.7439
-12.2671
-12.6705
-12.9849
-13.2323
-13.4285
-13.585
-13.7105
-13.8117
-13.8935
-13.9598
-14.0137
-14.0576
-14.0934
-14.1227
-14.1466
-14.1661
-14.1822
-14.1953
-14.206
-14.2149
-14.2221
-14.228
-14.2329
-14.2369
-14.2402
-14.2428
-14.245
-14.2468
-14.248
-14.249
-14.2498
-14.2501
-14.2506
-21.2346
-21.1782
-21.0588
-20.8561
-20.5435
-20.1067
-19.7106
-20.5078
-26.3019
-27.1389
-26.825
-26.5182
-26.3917
-26.4453
-26.6713
-27.081
-27.7112
-28.6303
-29.9503
-31.8262
-34.3423
-36.7033
-33.2299
-5.14129
-1.67694
-4.05653
-6.60201
-8.52009
-9.89808
-10.8957
-11.6314
-12.1844
-12.6068
-12.9339
-13.1901
-13.3924
-13.5535
-13.6824
-13.7861
-13.8698
-13.9376
-13.9927
-14.0375
-14.0741
-14.1039
-14.1283
-14.1483
-14.1646
-14.178
-14.1889
-14.1979
-14.2053
-14.2113
-14.2163
-14.2204
-14.2237
-14.2264
-14.2286
-14.2304
-14.2317
-14.2327
-14.2336
-14.2339
-14.2343
-21.1995
-21.1384
-21.0063
-20.7765
-20.4029
-19.8175
-19.0602
-19.3327
-27.4691
-27.7824
-27.1094
-26.6576
-26.4754
-26.5103
-26.7369
-27.1628
-27.8288
-28.818
-30.279
-32.4637
-35.7208
-39.8743
-39.0033
0.655922
1.51768
-2.65489
-5.94215
-8.17031
-9.69127
-10.7619
-11.5383
-12.1155
-12.5533
-12.8906
-13.1537
-13.361
-13.5256
-13.6571
-13.7628
-13.8481
-13.9171
-13.9731
-14.0187
-14.0558
-14.0861
-14.1109
-14.1311
-14.1477
-14.1613
-14.1724
-14.1815
-14.189
-14.1951
-14.2002
-14.2043
-14.2077
-14.2105
-14.2127
-14.2145
-14.2159
-14.2167
-14.2178
-14.2181
-14.2182
-21.1702
-21.1054
-20.963
-20.7108
-20.2836
-19.5529
-18.3613
-17.6325
-29.1581
-28.4709
-27.3652
-26.7708
-26.5392
-26.558
-26.7847
-27.223
-27.9171
-28.9623
-30.5398
-32.9945
-36.9744
-43.2808
-47.3661
9.04295
4.94815
-1.37751
-5.38831
-7.88741
-9.52627
-10.6552
-11.4635
-12.0596
-12.5091
-12.8542
-13.1226
-13.3336
-13.5009
-13.6345
-13.7417
-13.8281
-13.898
-13.9548
-14.0009
-14.0384
-14.0691
-14.0941
-14.1146
-14.1314
-14.1451
-14.1564
-14.1656
-14.1731
-14.1793
-14.1844
-14.1886
-14.192
-14.1948
-14.1971
-14.1989
-14.2003
-14.2011
-14.2022
-14.2026
-14.2025
-21.1462
-21.079
-20.9288
-20.6595
-20.1895
-19.3304
-17.6601
-15.1851
-31.5915
-29.1586
-27.5753
-26.8543
-26.5829
-26.5893
-26.8158
-27.263
-27.9776
-29.0642
-30.7298
-33.3992
-38.0181
-46.6946
-59.4173
21.1187
8.38628
-0.309725
-4.95983
-7.67441
-9.40247
-10.5744
-11.4059
-12.0155
-12.4735
-12.8241
-13.0963
-13.31
-13.4793
-13.6142
-13.7225
-13.8098
-13.8803
-13.9375
-13.984
-14.0219
-14.0528
-14.078
-14.0987
-14.1156
-14.1294
-14.1407
-14.15
-14.1576
-14.1639
-14.169
-14.1732
-14.1767
-14.1795
-14.1817
-14.1835
-14.1851
-14.1858
-14.1868
-14.1874
-14.187
-21.1271
-21.0586
-20.9034
-20.6228
-20.1235
-19.1672
-17.0369
-11.6871
-35.0733
-29.7659
-27.7234
-26.9064
-26.6075
-26.6056
-26.8318
-27.2847
-28.0124
-29.1257
-30.8495
-33.6662
-38.7676
-49.7205
-76.6587
38.3843
11.4363
0.463694
-4.66918
-7.53148
-9.31832
-10.5181
-11.3644
-11.9827
-12.4461
-12.8001
-13.0747
-13.2901
-13.4605
-13.5964
-13.7054
-13.7931
-13.8641
-13.9216
-13.9683
-14.0064
-14.0374
-14.0628
-14.0835
-14.1005
-14.1144
-14.1258
-14.1351
-14.1428
-14.149
-14.1542
-14.1584
-14.1619
-14.1648
-14.167
-14.1687
-14.1705
-14.1712
-14.172
-14.1728
-14.1724
-21.1127
-21.0437
-20.8863
-20.6001
-20.086
-19.0771
-16.6192
-6.73081
-40.0116
-30.1658
-27.796
-26.9269
-26.6142
-26.6082
-26.8342
-27.2899
-28.0238
-29.1501
-30.9021
-33.7926
-39.1554
-51.729
-101.107
62.8568
13.4686
0.875187
-4.51924
-7.45545
-9.27093
-10.4841
-11.3375
-11.9599
-12.4259
-12.7816
-13.0573
-13.2735
-13.4445
-13.5808
-13.6901
-13.7781
-13.8492
-13.9069
-13.9537
-13.9919
-14.023
-14.0484
-14.0692
-14.0862
-14.1002
-14.1116
-14.1209
-14.1286
-14.1349
-14.14
-14.1443
-14.1478
-14.1507
-14.1529
-14.1545
-14.1564
-14.1571
-14.1577
-14.1588
-14.1584
)
;

boundaryField
{
    left
    {
        type            calculated;
        value           nonuniform List<scalar> 
32
(
-22.7427
-22.7353
-22.7209
-22.6997
-22.6719
-22.6374
-22.5963
-22.5486
-22.4944
-22.434
-22.3679
-22.2965
-22.2207
-22.1412
-22.0591
-21.9753
-21.8911
-21.8076
-21.7258
-21.6468
-21.5717
-21.5011
-21.4358
-21.3763
-21.3228
-21.2756
-21.2346
-21.1995
-21.1702
-21.1462
-21.1271
-21.1127
)
;
    }
    right
    {
        type            calculated;
        value           nonuniform List<scalar> 
32
(
-14.6582
-14.6548
-14.6484
-14.6395
-14.6283
-14.6152
-14.6006
-14.5847
-14.5676
-14.5498
-14.5313
-14.5123
-14.4931
-14.4736
-14.4541
-14.4346
-14.4151
-14.3957
-14.3765
-14.3575
-14.3388
-14.3203
-14.3022
-14.2845
-14.2673
-14.2506
-14.2343
-14.2182
-14.2025
-14.187
-14.1724
-14.1584
)
;
    }
    interface
    {
        type            calculated;
        value           nonuniform List<scalar> 
64
(
-21.1066
-21.0375
-20.8796
-20.592
-20.0743
-19.0516
-16.4809
-3.82973
-42.9031
-30.2945
-27.8121
-26.9293
-26.6133
-26.6062
-26.8322
-27.2885
-28.024
-29.1533
-30.9122
-33.8209
-39.252
-52.3832
-115.422
77.1832
14.1349
0.983738
-4.47912
-7.43351
-9.25594
-10.4723
-11.3275
-11.9508
-12.4174
-12.7735
-13.0495
-13.2659
-13.437
-13.5735
-13.6828
-13.7709
-13.842
-13.8997
-13.9466
-13.9848
-14.0159
-14.0414
-14.0622
-14.0792
-14.0931
-14.1045
-14.1139
-14.1216
-14.1279
-14.133
-14.1373
-14.1408
-14.1437
-14.1459
-14.1475
-14.1494
-14.1501
-14.1506
-14.1518
-14.1515
)
;
    }
    bottom
    {
        type            calculated;
        value           nonuniform List<scalar> 
64
(
-22.7447
-22.7509
-22.7627
-22.7788
-22.7973
-22.8155
-22.8303
-22.8378
-22.8337
-22.8135
-22.7724
-22.7057
-22.6089
-22.4779
-22.3094
-22.1006
-21.8499
-21.5572
-21.2239
-20.8529
-20.4495
-20.0205
-19.5742
-19.12
-18.6675
-18.2261
-17.8038
-17.4074
-17.0416
-16.7092
-16.4115
-16.1482
-15.9178
-15.7182
-15.5466
-15.4003
-15.2761
-15.1714
-15.0834
-15.0097
-14.9483
-14.8971
-14.8547
-14.8195
-14.7903
-14.7663
-14.7464
-14.73
-14.7164
-14.7053
-14.6961
-14.6886
-14.6824
-14.6773
-14.6731
-14.6697
-14.667
-14.6648
-14.663
-14.6616
-14.6605
-14.6598
-14.6593
-14.659
)
;
    }
    defaultFaces
    {
        type            empty;
    }
}


// ************************************************************************* //
