/*--------------------------------*- C++ -*----------------------------------*\
| =========                 |                                                 |
| \\      /  F ield         | OpenFOAM: The Open Source CFD Toolbox           |
|  \\    /   O peration     | Version:  5.x                                   |
|   \\  /    A nd           | Web:      www.OpenFOAM.org                      |
|    \\/     M anipulation  |                                                 |
\*---------------------------------------------------------------------------*/
FoamFile
{
    version     2.0;
    format      ascii;
    class       volScalarField;
    location    "0.4";
    object      T;
}
// * * * * * * * * * * * * * * * * * * * * * * * * * * * * * * * * * * * * * //

dimensions      [0 0 0 1 0 0 0];

internalField   nonuniform List<scalar> 
2048
(
9.8366
9.83655
9.83647
9.83635
9.83622
9.83609
9.83598
9.83593
9.83596
9.8361
9.8364
9.83688
9.83757
9.83851
9.83972
9.84122
9.84302
9.84513
9.84752
9.85019
9.85309
9.85617
9.85937
9.86264
9.86589
9.86906
9.87209
9.87494
9.87757
9.87996
9.8821
9.88399
9.88564
9.88708
9.88831
9.88936
9.89025
9.891
9.89164
9.89217
9.89261
9.89297
9.89328
9.89353
9.89374
9.89392
9.89406
9.89418
9.89427
9.89435
9.89442
9.89447
9.89452
9.89455
9.89458
9.89461
9.89463
9.89464
9.89466
9.89467
9.89467
9.89468
9.89468
9.89469
9.51699
9.51685
9.51659
9.51624
9.51583
9.51543
9.51509
9.51491
9.51496
9.51537
9.51621
9.5176
9.51963
9.52239
9.52596
9.53038
9.53571
9.54193
9.54903
9.55694
9.56555
9.57471
9.58424
9.59395
9.60361
9.61304
9.62205
9.63049
9.63828
9.64535
9.65167
9.65725
9.66213
9.66636
9.66998
9.67307
9.67569
9.6779
9.67976
9.68131
9.6826
9.68368
9.68457
9.68531
9.68593
9.68643
9.68685
9.6872
9.68748
9.68772
9.68791
9.68807
9.6882
9.6883
9.68839
9.68846
9.68852
9.68857
9.6886
9.68863
9.68866
9.68867
9.68868
9.68869
9.21151
9.21127
9.21083
9.21022
9.2095
9.20878
9.20816
9.20778
9.2078
9.20837
9.20966
9.21185
9.2151
9.21954
9.22531
9.23251
9.2412
9.25138
9.26303
9.27604
9.29022
9.30533
9.32107
9.3371
9.35305
9.36859
9.38342
9.3973
9.41006
9.42162
9.43193
9.44103
9.44895
9.4558
9.46167
9.46667
9.47089
9.47445
9.47744
9.47993
9.48201
9.48374
9.48517
9.48636
9.48734
9.48816
9.48883
9.48938
9.48983
9.49021
9.49052
9.49077
9.49098
9.49115
9.49129
9.4914
9.4915
9.49157
9.49163
9.49168
9.49171
9.49174
9.49176
9.49176
8.91962
8.91927
8.91862
8.91771
8.91665
8.91554
8.91456
8.91389
8.91375
8.91436
8.91597
8.91881
8.92312
8.92909
8.9369
8.94671
8.9586
8.97261
8.98868
9.00668
9.02636
9.04738
9.0693
9.09161
9.11381
9.1354
9.15596
9.17515
9.19275
9.20863
9.22275
9.23515
9.24594
9.25523
9.26317
9.26991
9.2756
9.28039
9.2844
9.28774
9.29053
9.29284
9.29476
9.29634
9.29766
9.29874
9.29963
9.30037
9.30098
9.30148
9.30189
9.30223
9.30251
9.30273
9.30292
9.30307
9.3032
9.3033
9.30338
9.30344
9.30349
9.30352
9.30354
9.30355
8.64079
8.64033
8.63944
8.63819
8.63671
8.63514
8.63369
8.63261
8.63217
8.63267
8.63443
8.63776
8.64294
8.65025
8.65994
8.67218
8.68711
8.7048
8.7252
8.74814
8.7733
8.80024
8.82838
8.85703
8.88552
8.91318
8.93943
8.96384
8.98614
9.00617
9.0239
9.03942
9.05286
9.06439
9.07422
9.08254
9.08954
9.09542
9.10033
9.10443
9.10783
9.11066
9.113
9.11493
9.11653
9.11785
9.11894
9.11983
9.12057
9.12118
9.12168
9.12209
9.12243
9.1227
9.12293
9.12312
9.12327
9.12339
9.12348
9.12356
9.12362
9.12366
9.12369
9.1237
8.37452
8.37393
8.37276
8.37113
8.36915
8.36703
8.36499
8.36336
8.36246
8.36268
8.3644
8.36802
8.37389
8.38235
8.3937
8.4082
8.42602
8.44726
8.47189
8.49972
8.5304
8.56334
8.59781
8.63294
8.66782
8.7016
8.73355
8.76313
8.79
8.81402
8.83517
8.85359
8.86946
8.88302
8.89453
8.90425
8.91241
8.91924
8.92493
8.92967
8.9336
8.93686
8.93955
8.94178
8.94362
8.94514
8.94639
8.94742
8.94826
8.94896
8.94953
8.95001
8.95039
8.95071
8.95097
8.95118
8.95136
8.9515
8.95161
8.95169
8.95176
8.95181
8.95184
8.95185
8.12033
8.11958
8.11811
8.11604
8.11349
8.1107
8.10795
8.10559
8.10406
8.1038
8.10529
8.10899
8.11534
8.12475
8.13757
8.15412
8.17465
8.1993
8.22808
8.2608
8.29703
8.33611
8.3771
8.4189
8.46035
8.50038
8.53806
8.57276
8.6041
8.63192
8.65628
8.67737
8.69544
8.71081
8.7238
8.73473
8.74387
8.7515
8.75785
8.76312
8.76749
8.7711
8.77409
8.77656
8.77859
8.78027
8.78165
8.78278
8.78372
8.78449
8.78512
8.78564
8.78607
8.78642
8.78671
8.78694
8.78713
8.78728
8.78741
8.7875
8.78758
8.78763
8.78766
8.78768
7.87773
7.87681
7.87501
7.87244
7.86924
7.86567
7.86206
7.85882
7.85646
7.85552
7.85656
7.86013
7.86675
7.87688
7.89095
7.90935
7.9324
7.96031
7.99315
8.03074
8.07263
8.11802
8.16578
8.21452
8.26279
8.30922
8.35271
8.3925
8.42816
8.45961
8.48695
8.51046
8.53049
8.54744
8.56169
8.57363
8.58359
8.59188
8.59876
8.60445
8.60916
8.61306
8.61627
8.61892
8.62111
8.62291
8.62439
8.62561
8.62661
8.62743
8.62811
8.62867
8.62913
8.6295
8.62981
8.63006
8.63026
8.63043
8.63056
8.63066
8.63074
8.6308
8.63084
8.63085
7.64626
7.64516
7.643
7.63988
7.63596
7.63151
7.62688
7.62258
7.61918
7.61734
7.61771
7.62093
7.62759
7.63822
7.65333
7.67336
7.69872
7.72973
7.76652
7.80898
7.85664
7.90857
7.96341
8.01944
8.07483
8.12788
8.17726
8.22208
8.26195
8.2968
8.32688
8.35255
8.37428
8.39256
8.40786
8.42062
8.43122
8.44002
8.4473
8.45332
8.45829
8.46239
8.46577
8.46855
8.47084
8.47273
8.47428
8.47556
8.47661
8.47747
8.47818
8.47877
8.47925
8.47964
8.47996
8.48022
8.48044
8.48061
8.48075
8.48085
8.48094
8.481
8.48103
8.48105
7.42548
7.42419
7.42165
7.41794
7.41322
7.40776
7.40198
7.39642
7.39177
7.38879
7.38827
7.39093
7.39741
7.40832
7.42423
7.44565
7.47311
7.50701
7.54764
7.59495
7.64849
7.70723
7.76954
7.83329
7.89618
7.9561
8.01146
8.06128
8.10518
8.14321
8.17574
8.20329
8.22645
8.24582
8.26194
8.27533
8.28641
8.29558
8.30314
8.30938
8.31453
8.31876
8.32225
8.32512
8.32748
8.32942
8.33102
8.33233
8.33341
8.3343
8.33503
8.33563
8.33612
8.33652
8.33685
8.33712
8.33734
8.33752
8.33766
8.33777
8.33786
8.33792
8.33796
8.33798
7.21495
7.21347
7.21052
7.20619
7.20061
7.19405
7.18695
7.17993
7.1738
7.16946
7.16782
7.16969
7.17578
7.18676
7.20323
7.2258
7.2551
7.29169
7.33599
7.38811
7.44766
7.51353
7.58376
7.65575
7.72659
7.79367
7.85512
7.90986
7.95759
7.99853
8.03321
8.06235
8.08666
8.10686
8.12358
8.13741
8.14881
8.15821
8.16594
8.17231
8.17755
8.18186
8.1854
8.18832
8.19071
8.19268
8.19429
8.19562
8.19672
8.19761
8.19835
8.19895
8.19945
8.19986
8.20019
8.20047
8.20069
8.20087
8.20101
8.20112
8.20121
8.20127
8.20131
8.20133
7.01425
7.01257
7.00922
7.00424
6.99775
6.98998
6.98141
6.97273
6.96488
6.95893
6.95594
6.95681
6.96232
6.97314
6.98995
7.01342
7.04429
7.0833
7.13107
7.18793
7.25362
7.32695
7.40566
7.4865
7.56582
7.64041
7.70803
7.76758
7.81891
7.86244
7.89896
7.92935
7.95453
7.9753
7.99242
8.00649
8.01806
8.02757
8.03537
8.04178
8.04704
8.05137
8.05492
8.05783
8.06023
8.06219
8.06381
8.06513
8.06622
8.06712
8.06785
8.06846
8.06895
8.06936
8.06969
8.06996
8.07019
8.07036
8.07051
8.07062
8.07071
8.07077
8.07081
8.07082
6.82296
6.82109
6.81734
6.81171
6.80426
6.79521
6.78501
6.77445
6.76462
6.75682
6.75225
6.75193
6.75666
6.76715
6.78406
6.80816
6.84031
6.88144
6.93244
6.99392
7.06582
7.147
7.23482
7.32526
7.4137
7.49614
7.57001
7.63422
7.68885
7.73463
7.77261
7.80394
7.82969
7.8508
7.86809
7.88224
7.89383
7.90332
7.9111
7.91747
7.92269
7.92698
7.93049
7.93337
7.93574
7.93768
7.93928
7.94059
7.94166
7.94254
7.94327
7.94386
7.94435
7.94475
7.94508
7.94535
7.94556
7.94574
7.94588
7.94599
7.94608
7.94614
7.94618
7.94619
6.64067
6.63863
6.63449
6.62822
6.61981
6.60939
6.59742
6.58474
6.57266
6.56274
6.55638
6.55469
6.55849
6.56845
6.58526
6.60972
6.64282
6.68573
6.73965
6.80556
6.88374
6.97317
7.07084
7.17177
7.27006
7.36075
7.4409
7.50955
7.56713
7.61475
7.65383
7.68575
7.71177
7.73296
7.75023
7.7643
7.77578
7.78515
7.79281
7.79908
7.8042
7.8084
7.81184
7.81466
7.81697
7.81887
7.82043
7.8217
7.82275
7.82361
7.82432
7.8249
7.82538
7.82577
7.82609
7.82635
7.82656
7.82673
7.82687
7.82698
7.82706
7.82712
7.82716
7.82717
6.467
6.46479
6.46031
6.45342
6.44404
6.43221
6.41831
6.40328
6.38866
6.37633
6.36797
6.36477
6.36751
6.37679
6.39328
6.41783
6.45156
6.49586
6.55231
6.62238
6.70684
6.80493
6.91332
7.02581
7.1348
7.23414
7.32055
7.39334
7.45344
7.50247
7.54224
7.5744
7.60041
7.62145
7.6385
7.65234
7.66358
7.67274
7.68021
7.6863
7.69128
7.69535
7.69869
7.70142
7.70366
7.70549
7.707
7.70823
7.70924
7.71007
7.71076
7.71132
7.71178
7.71215
7.71246
7.71271
7.71292
7.71309
7.71322
7.71332
7.7134
7.71346
7.7135
7.71351
6.30154
6.2992
6.29441
6.28695
6.27664
6.26337
6.24742
6.22977
6.21226
6.19724
6.1867
6.18186
6.18343
6.19191
6.20791
6.23227
6.26626
6.31152
6.37006
6.44392
6.53458
6.64174
6.76184
6.88718
7.00787
7.11625
7.20881
7.28535
7.34748
7.39744
7.43746
7.46951
7.49522
7.51589
7.53256
7.54602
7.55693
7.56579
7.57299
7.57887
7.58366
7.58757
7.59077
7.59339
7.59554
7.59729
7.59873
7.59992
7.60089
7.60168
7.60233
7.60287
7.60331
7.60367
7.60396
7.60421
7.6044
7.60456
7.60469
7.60479
7.60486
7.60492
7.60495
7.60496
6.14393
6.14148
6.13643
6.12849
6.11731
6.10259
6.08447
6.06391
6.04313
6.02512
6.01221
6.00566
6.00601
6.0136
6.02893
6.05286
6.08674
6.13249
6.19257
6.26974
6.36639
6.48301
6.61596
6.75574
6.88927
7.00707
7.10555
7.18533
7.24892
7.29927
7.33912
7.37072
7.39587
7.41596
7.43207
7.44505
7.45552
7.46401
7.4709
7.4765
7.48106
7.48479
7.48784
7.49032
7.49236
7.49403
7.4954
7.49652
7.49744
7.49819
7.49881
7.49932
7.49974
7.50008
7.50036
7.50059
7.50078
7.50093
7.50105
7.50114
7.50121
7.50126
7.5013
7.50131
5.99379
5.99127
5.98603
5.97769
5.96573
5.94961
5.92921
5.90544
5.88095
5.85961
5.8442
5.8359
5.83502
5.84165
5.85618
5.87941
5.91282
5.95855
6.01956
6.09943
6.20171
6.32809
6.47522
6.6314
6.77908
6.90659
7.01063
7.09301
7.15741
7.20761
7.24684
7.27765
7.30198
7.32131
7.33674
7.34911
7.35907
7.36712
7.37365
7.37894
7.38326
7.38677
7.38964
7.39199
7.39391
7.39548
7.39676
7.39782
7.39868
7.39939
7.39997
7.40045
7.40084
7.40116
7.40143
7.40164
7.40182
7.40196
7.40207
7.40216
7.40223
7.40228
7.40231
7.40232
5.85076
5.8482
5.84286
5.83423
5.82162
5.80419
5.78145
5.75413
5.72538
5.70036
5.68234
5.67232
5.67023
5.67589
5.68949
5.71181
5.74436
5.78955
5.85081
5.93262
6.03997
6.17631
6.33911
6.51415
6.67747
6.81488
6.9239
7.00809
7.07258
7.12205
7.16024
7.18994
7.21323
7.23162
7.24624
7.25793
7.26731
7.27487
7.28099
7.28596
7.28999
7.29328
7.29596
7.29815
7.29994
7.30141
7.30261
7.30359
7.3044
7.30506
7.3056
7.30604
7.30641
7.30671
7.30695
7.30715
7.30732
7.30745
7.30756
7.30764
7.3077
7.30774
7.30777
7.30778
5.71449
5.71194
5.70658
5.69779
5.68469
5.66609
5.64099
5.60976
5.57608
5.547
5.52632
5.51466
5.51145
5.51615
5.52875
5.54994
5.58128
5.62537
5.68612
5.76898
5.8806
6.02688
6.20703
6.40407
6.5847
6.73197
6.84517
6.93026
6.99406
7.04222
7.07894
7.10725
7.12929
7.1466
7.16031
7.17123
7.17998
7.18702
7.1927
7.19731
7.20105
7.20409
7.20657
7.2086
7.21026
7.21161
7.21272
7.21363
7.21437
7.21498
7.21549
7.2159
7.21623
7.21651
7.21674
7.21692
7.21707
7.2172
7.21729
7.21737
7.21742
7.21747
7.21749
7.2175
5.58464
5.58214
5.57685
5.56805
5.55467
5.53509
5.50768
5.47215
5.4327
5.39916
5.37583
5.3627
5.35851
5.36229
5.37381
5.39369
5.42348
5.46594
5.52539
5.60823
5.72306
5.87895
6.07826
6.30138
6.50113
6.65795
6.77424
6.85916
6.92145
6.96772
7.00259
7.02923
7.04984
7.06595
7.07866
7.08876
7.09683
7.10332
7.10855
7.11278
7.11621
7.119
7.12128
7.12314
7.12465
7.12589
7.12691
7.12774
7.12842
7.12898
7.12944
7.12981
7.13012
7.13037
7.13058
7.13075
7.13089
7.131
7.13109
7.13116
7.13121
7.13125
7.13127
7.13128
5.4609
5.45849
5.45336
5.4447
5.43126
5.41098
5.38139
5.34117
5.29485
5.25644
5.2306
5.21623
5.21123
5.21416
5.22458
5.24298
5.27092
5.31121
5.36853
5.45016
5.56681
5.73158
5.95192
6.2065
6.42725
6.59286
6.71085
6.7944
6.85433
6.89815
6.93081
6.95556
6.97459
6.98941
7.00106
7.01029
7.01765
7.02356
7.02831
7.03216
7.03528
7.03781
7.03988
7.04156
7.04294
7.04406
7.04498
7.04573
7.04635
7.04686
7.04727
7.04761
7.04789
7.04812
7.04831
7.04846
7.04859
7.04869
7.04877
7.04883
7.04888
7.04891
7.04893
7.04894
5.34294
5.34066
5.33577
5.32743
5.31418
5.29354
5.26205
5.21677
5.1621
5.11846
5.09035
5.07506
5.06946
5.07164
5.08093
5.09774
5.12353
5.16117
5.21553
5.29466
5.41139
5.58371
5.82686
6.12013
6.36366
6.53674
6.65468
6.73555
6.79229
6.83314
6.86327
6.88593
6.90327
6.91671
6.92725
6.93558
6.94221
6.94753
6.9518
6.95526
6.95806
6.96033
6.96218
6.96369
6.96492
6.96593
6.96676
6.96743
6.96798
6.96844
6.96881
6.96911
6.96936
6.96957
6.96973
6.96987
6.96999
6.97008
6.97015
6.97021
6.97024
6.97028
6.9703
6.9703
5.23046
5.22836
5.2238
5.21592
5.20314
5.18257
5.14959
5.09897
5.03394
4.98478
4.95481
4.939
4.93306
4.9346
4.94277
4.95787
4.9813
5.01583
5.06642
5.14169
5.25642
5.43419
5.70156
6.04338
6.31108
6.48954
6.60534
6.68216
6.73488
6.7723
6.79963
6.82006
6.83561
6.84762
6.85702
6.86443
6.87032
6.87504
6.87883
6.88189
6.88437
6.88638
6.88802
6.88935
6.89044
6.89133
6.89206
6.89266
6.89315
6.89355
6.89388
6.89415
6.89437
6.89455
6.8947
6.89482
6.89492
6.895
6.89506
6.89511
6.89514
6.89518
6.89519
6.8952
5.12319
5.12129
5.11713
5.10987
5.09784
5.07783
5.04397
4.9879
4.90978
4.85498
4.82376
4.80792
4.80189
4.80291
4.80998
4.82331
4.84417
4.87521
4.9213
4.9913
5.10162
5.2818
5.57394
5.9779
6.27032
6.4511
6.56237
6.63373
6.68169
6.71528
6.7396
6.75767
6.77136
6.78192
6.79015
6.79664
6.80179
6.8059
6.80921
6.81188
6.81404
6.81579
6.81722
6.81838
6.81933
6.8201
6.82074
6.82126
6.82168
6.82203
6.82232
6.82255
6.82274
6.8229
6.82303
6.82313
6.82322
6.82329
6.82335
6.82339
6.82342
6.82345
6.82346
6.82346
5.02086
5.01918
5.01549
5.00897
4.99798
4.97906
4.94519
4.88388
4.78885
4.72863
4.69702
4.68169
4.67584
4.67646
4.68246
4.69396
4.71212
4.73935
4.78027
4.84364
4.9469
5.12533
5.44116
5.92614
6.24222
6.42115
6.52522
6.58976
6.63229
6.66173
6.68287
6.69851
6.71032
6.71939
6.72646
6.73202
6.73643
6.73995
6.74278
6.74506
6.74691
6.7484
6.74962
6.75061
6.75142
6.75208
6.75262
6.75307
6.75343
6.75373
6.75397
6.75417
6.75433
6.75447
6.75458
6.75467
6.75474
6.7548
6.75485
6.75489
6.75491
6.75494
6.75495
6.75495
4.9232
4.92177
4.91859
4.91294
4.90324
4.88599
4.8532
4.78744
4.67018
4.60534
4.57444
4.56018
4.55479
4.55511
4.56008
4.56974
4.58509
4.60828
4.64348
4.69898
4.79237
4.9636
5.29929
5.89164
6.22753
6.39919
6.49326
6.54973
6.58629
6.61132
6.62919
6.64235
6.65226
6.65985
6.66576
6.6704
6.67409
6.67702
6.67938
6.68128
6.68282
6.68406
6.68508
6.6859
6.68657
6.68712
6.68757
6.68794
6.68824
6.68849
6.68869
6.68886
6.689
6.68911
6.6892
6.68928
6.68934
6.68939
6.68942
6.68946
6.68948
6.6895
6.68951
6.68951
4.82998
4.82881
4.82619
4.82149
4.8133
4.79829
4.76795
4.69944
4.55252
4.48475
4.45592
4.44333
4.43862
4.43875
4.44272
4.45054
4.46304
4.48202
4.51109
4.55763
4.63835
4.79571
5.14293
5.87945
6.22684
6.38454
6.4658
6.51313
6.5433
6.56377
6.57831
6.58897
6.59699
6.60313
6.60789
6.61163
6.6146
6.61696
6.61886
6.62039
6.62162
6.62262
6.62344
6.6241
6.62464
6.62508
6.62545
6.62574
6.62598
6.62618
6.62635
6.62648
6.62659
6.62668
6.62675
6.62681
6.62686
6.6269
6.62693
6.62696
6.62697
6.62699
6.627
6.627
4.74097
4.74007
4.73802
4.73435
4.72785
4.71561
4.68929
4.62113
4.43419
4.36659
4.34144
4.33105
4.32722
4.32724
4.33026
4.33626
4.34589
4.36058
4.38324
4.41998
4.48545
4.62117
4.96468
5.89662
6.24026
6.37624
6.44212
6.47947
6.50297
6.5188
6.53
6.5382
6.54435
6.54905
6.55269
6.55555
6.55782
6.55963
6.56107
6.56224
6.56319
6.56395
6.56457
6.56508
6.56549
6.56583
6.5661
6.56633
6.56652
6.56667
6.56679
6.56689
6.56698
6.56704
6.5671
6.56715
6.56719
6.56722
6.56724
6.56726
6.56727
6.56728
6.56729
6.56729
4.65596
4.65532
4.65387
4.65125
4.64657
4.63755
4.61695
4.55432
4.31302
4.25078
4.23101
4.22329
4.22048
4.22045
4.22256
4.22678
4.23357
4.24396
4.26008
4.28646
4.33453
4.44027
4.75449
5.95287
6.26719
6.37311
6.42147
6.44828
6.46498
6.47618
6.48408
6.48984
6.49416
6.49746
6.50002
6.50203
6.50362
6.50489
6.5059
6.50672
6.50738
6.50792
6.50835
6.50871
6.50899
6.50923
6.50942
6.50958
6.50971
6.50982
6.50991
6.50998
6.51003
6.51008
6.51012
6.51015
6.51018
6.5102
6.51022
6.51023
6.51024
6.51025
6.51026
6.51025
4.57475
4.57437
4.57351
4.57195
4.56915
4.56365
4.55042
4.50152
4.18613
4.13746
4.1247
4.11998
4.11827
4.11824
4.11948
4.12197
4.12598
4.13214
4.14171
4.15748
4.18669
4.25443
4.49889
6.06137
6.30588
6.37372
6.4031
6.41913
6.42905
6.43568
6.44035
6.44375
6.4463
6.44824
6.44975
6.45093
6.45187
6.45261
6.45321
6.45369
6.45408
6.4544
6.45465
6.45486
6.45503
6.45517
6.45528
6.45538
6.45545
6.45551
6.45557
6.45561
6.45564
6.45567
6.45569
6.45571
6.45573
6.45574
6.45575
6.45576
6.45576
6.45577
6.45577
6.45577
4.49716
4.49703
4.49675
4.49623
4.4953
4.49346
4.48885
4.46612
4.04974
4.02709
4.02263
4.02105
4.02048
4.02047
4.02087
4.02169
4.02301
4.02504
4.0282
4.03343
4.04318
4.06676
4.17999
6.23968
6.35292
6.37654
6.38635
6.39166
6.39493
6.39712
6.39865
6.39977
6.40061
6.40125
6.40174
6.40213
6.40244
6.40269
6.40288
6.40304
6.40317
6.40327
6.40336
6.40342
6.40348
6.40353
6.40356
6.40359
6.40362
6.40364
6.40366
6.40367
6.40368
6.40369
6.4037
6.4037
6.40371
6.40371
6.40372
6.40372
6.40372
6.40372
6.40372
6.40372
)
;

boundaryField
{
    left
    {
        type            zeroGradient;
    }
    right
    {
        type            zeroGradient;
    }
    interface
    {
        type            fixedValue;
        value           nonuniform List<scalar> 
64
(
4.45925
4.45925
4.45925
4.45925
4.45925
4.45925
4.45925
4.45925
3.97268
3.97268
3.97268
3.97268
3.97268
3.97268
3.97268
3.97268
3.97268
3.97268
3.97268
3.97268
3.97268
3.97268
3.97268
6.37831
6.37831
6.37831
6.37831
6.37831
6.37831
6.37831
6.37831
6.37831
6.37831
6.37831
6.37831
6.37831
6.37831
6.37831
6.37831
6.37831
6.37831
6.37831
6.37831
6.37831
6.37831
6.37831
6.37831
6.37831
6.37831
6.37831
6.37831
6.37831
6.37831
6.37831
6.37831
6.37831
6.37831
6.37831
6.37831
6.37831
6.37831
6.37831
6.37831
6.37831
)
;
    }
    bottom
    {
        type            fixedValue;
        value           uniform 10;
    }
    defaultFaces
    {
        type            empty;
    }
}


// ************************************************************************* //
