/*--------------------------------*- C++ -*----------------------------------*\
| =========                 |                                                 |
| \\      /  F ield         | OpenFOAM: The Open Source CFD Toolbox           |
|  \\    /   O peration     | Version:  5.x                                   |
|   \\  /    A nd           | Web:      www.OpenFOAM.org                      |
|    \\/     M anipulation  |                                                 |
\*---------------------------------------------------------------------------*/
FoamFile
{
    version     2.0;
    format      ascii;
    class       volScalarField;
    location    "15.3";
    object      gradTy;
}
// * * * * * * * * * * * * * * * * * * * * * * * * * * * * * * * * * * * * * //

dimensions      [0 -1 0 1 0 0 0];

internalField   nonuniform List<scalar> 
6300
(
1008.37
1025.08
1041.72
1058.23
1074.57
1090.68
1106.51
1122.02
1137.15
1151.86
1166.11
1179.86
1193.06
1205.69
1217.73
0.0372837
0.111844
0.186365
0.260772
0.334919
0.408547
0.481239
0.552378
0.621101
0.686262
0.746428
0.799909
0.844854
0.879399
0.901873
0.062147
0.186442
0.31072
0.434896
0.558763
0.681936
0.803774
0.923299
1.03911
1.1493
1.25145
1.34263
1.4196
1.47901
1.51784
0.0870074
0.261053
0.43517
0.609311
0.783278
0.956632
1.12859
1.2979
1.46269
1.62034
1.76738
1.89954
2.01186
2.09916
2.15662
0.11183
0.335583
0.559579
0.783881
1.00838
1.23269
1.45602
1.67698
1.89337
2.10193
2.29816
2.47622
2.62909
2.74911
2.82891
0.136559
0.409856
0.683661
0.958222
1.23363
1.50969
1.78577
2.06058
2.33182
2.59579
2.84703
3.078
3.27908
3.43916
3.54709
0.161106
0.483608
0.806964
1.13169
1.45817
1.7866
2.11674
2.4477
2.77745
3.10228
3.41608
3.70957
3.96994
4.18125
4.32641
0.185356
0.556484
0.928868
1.30335
1.68073
2.06174
2.44683
2.83593
3.22789
3.6197
4.00531
4.37412
4.70967
4.98931
5.18635
0.20918
0.628083
1.04864
1.47205
1.89961
2.33272
2.77283
3.22119
3.67836
4.1432
4.61116
5.07172
5.50511
5.87971
6.15323
0.232453
0.698003
1.16554
1.63656
2.11286
2.59662
3.09047
3.59753
4.12103
4.66339
5.22422
5.79627
6.35908
6.87093
7.26434
0.255075
0.765915
1.2789
1.79575
2.3186
2.85032
3.39481
3.95731
4.54465
5.16493
5.82581
6.52979
7.26375
7.98031
8.57501
0.276997
0.831651
1.38837
1.94886
2.51538
3.09116
3.681
4.29208
4.93514
5.62562
6.38403
7.23307
8.18553
9.21126
10.1691
0.298251
0.89529
1.49402
2.09587
2.70281
3.31785
3.94579
4.59469
5.278
6.01814
6.85136
7.83263
9.03375
10.5098
12.1622
0.318956
0.957205
1.59651
2.23772
2.88206
3.53148
4.18949
4.86268
5.56379
6.31733
7.17036
8.21206
9.60669
11.6316
14.6075
0.339312
1.01804
1.69702
2.37638
3.05613
3.73641
4.41782
5.10257
5.7969
6.51676
7.30043
8.2383
9.54899
11.8019
16.6877
1228.2
1237.29
1245.95
1254.19
1262.01
1269.44
1276.48
1283.16
1289.5
1295.53
1301.27
1306.75
1312
1317.04
1321.91
1326.64
1331.25
1335.77
1340.23
1344.66
1349.07
1353.5
1357.97
1362.49
1367.09
1371.78
1376.57
1381.48
1386.52
1391.68
1396.98
1402.42
1407.98
1413.66
1419.47
1425.38
1431.39
1437.48
1443.64
1449.85
1456.1
1462.36
1468.61
1474.82
1480.98
1487.06
1493.03
1498.87
1504.55
1510.06
1515.38
1520.47
1525.33
1529.91
1534.2
1538.17
1541.79
1545.02
1547.83
1550.19
1552.05
1553.39
1554.16
1554.32
1553.83
1552.63
1550.68
1547.91
1544.26
1539.67
1534.06
1527.35
1519.45
1510.28
1499.74
1487.73
1474.16
1458.91
1441.88
1422.97
1402.06
1379.06
1353.86
1326.36
1296.49
1264.18
1229.37
1192.04
1152.16
1109.76
0.910268
0.90826
0.896595
0.875604
0.845925
0.808443
0.76421
0.714358
0.660023
0.60229
0.542145
0.480457
0.417973
0.355322
0.293031
0.23155
0.171276
0.112576
0.0558167
0.00138249
-0.0503047
-0.0987765
-0.143518
-0.183976
-0.21959
-0.249821
-0.27421
-0.292427
-0.304324
-0.309962
-0.309615
-0.303724
-0.292814
-0.277386
-0.257815
-0.234281
-0.206765
-0.175116
-0.13917
-0.0989005
-0.0545449
-0.00668398
0.0437729
0.0956967
0.147924
0.199471
0.249728
0.298571
0.346381
0.393964
0.442393
0.492811
0.546235
0.603394
0.664643
0.72996
0.799046
0.871486
0.946947
1.02535
1.10701
1.19265
1.28337
1.38055
1.48567
1.60017
1.72527
1.86186
2.01039
2.17092
2.3431
2.52634
2.71986
2.92279
3.13421
3.35307
3.57808
3.80755
4.03919
4.26991
4.49571
4.71163
4.91178
5.08959
5.23808
5.3504
5.42032
5.44281
5.41459
5.33448
1.53248
1.52918
1.50923
1.47324
1.42237
1.35823
1.28271
1.19781
1.10553
1.00774
0.906106
0.802103
0.696958
0.591694
0.487158
0.384058
0.283012
0.184595
0.0893809
-0.00201578
-0.0889079
-0.170516
-0.245963
-0.31429
-0.374498
-0.425615
-0.466786
-0.497383
-0.517109
-0.526071
-0.524793
-0.514141
-0.495161
-0.468854
-0.435946
-0.396746
-0.35112
-0.298622
-0.238748
-0.171244
-0.0963898
-0.0151738
0.0707153
0.159102
0.247706
0.334588
0.418545
0.499346
0.577753
0.655357
0.734258
0.816674
0.904554
0.999253
1.10136
1.21069
1.32648
1.44774
1.57362
1.7038
1.83874
1.97971
2.12873
2.28832
2.46124
2.65012
2.85722
3.08412
3.3316
3.59966
3.8876
4.19423
4.51814
4.85785
5.2119
5.57873
5.95647
6.34261
6.73361
7.12454
7.50883
7.87808
8.22218
8.52962
8.78805
8.98517
9.1097
9.15244
9.10733
8.97208
2.17856
2.17401
2.1449
2.09222
2.01785
1.92435
1.81466
1.69186
1.55895
1.41868
1.27348
1.12539
0.976115
0.827027
0.679227
0.53362
0.390979
0.25202
0.117469
-0.0118766
-0.135094
-0.251098
-0.358629
-0.456262
-0.542464
-0.615695
-0.674551
-0.717955
-0.745357
-0.756888
-0.75343
-0.736512
-0.708025
-0.66979
-0.623105
-0.568433
-0.505338
-0.43272
-0.349286
-0.254144
-0.147368
-0.0303664
0.0940857
0.222219
0.349988
0.473933
0.591924
0.70358
0.810294
0.914895
1.02107
1.13269
1.25307
1.38446
1.52769
1.68213
1.84607
2.01735
2.19409
2.3754
2.56178
2.75519
2.95886
3.1769
3.4138
3.67386
3.96067
4.27673
4.62318
4.99978
5.40516
5.83722
6.29363
6.77224
7.27115
7.78864
8.32273
8.87063
9.42807
9.9887
10.5435
11.0807
11.5853
12.0401
12.4262
12.7244
12.9167
12.9885
12.9297
12.7366
2.85989
2.85419
2.81452
2.74245
2.6409
2.51379
2.3655
2.2005
2.02302
1.8368
1.64507
1.45048
1.25511
1.06062
0.86826
0.679039
0.493779
0.313239
0.138207
-0.0304096
-0.191507
-0.343718
-0.485377
-0.614518
-0.728929
-0.826288
-0.904376
-0.96138
-0.996262
-1.00909
-1.00125
-0.975342
-0.934724
-0.88269
-0.821564
-0.752047
-0.673068
-0.582192
-0.476482
-0.353596
-0.212869
-0.0560849
0.112358
0.286063
0.457979
0.622053
0.774622
0.915129
1.04607
1.17235
1.30026
1.43627
1.58592
1.75283
1.93807
2.14009
2.3553
2.57928
2.80817
3.03991
3.2749
3.51607
3.76847
4.03851
4.33321
4.65924
5.02217
5.42576
5.87151
6.35863
6.88446
7.44528
8.03733
8.65752
9.30378
9.97477
10.6692
11.385
12.118
12.8613
13.6038
14.3302
15.0202
15.6497
16.1911
16.616
16.8974
17.0125
16.9455
16.6902
3.58987
3.58314
3.53068
3.43497
3.30062
3.13356
2.94024
2.72697
2.49948
2.2627
2.02067
1.77654
1.53274
1.29102
1.05269
0.81867
0.589705
0.366457
0.149647
-0.0598259
-0.260765
-0.451577
-0.63019
-0.794015
-0.939977
-1.06466
-1.16458
-1.23668
-1.27894
-1.29108
-1.2751
-1.23537
-1.17788
-1.10871
-1.03213
-0.949319
-0.857964
-0.753066
-0.628459
-0.478793
-0.301554
-0.0986572
0.122981
0.352409
0.57718
0.786649
0.974594
1.14035
1.28845
1.42736
1.56764
1.72007
1.8938
2.09469
2.32417
2.57891
2.85177
3.134
3.418
3.69957
3.97895
4.26064
4.55248
4.86445
5.20731
5.5913
6.02494
6.51387
7.06005
7.66153
8.31315
9.00817
9.74024
10.505
11.3005
12.1268
12.9847
13.8742
14.793
15.7345
16.687
17.6315
18.5421
19.3856
20.1233
20.7139
21.1172
21.2982
21.232
20.9082
4.38537
4.3778
4.30893
4.18295
4.00726
3.79097
3.5435
3.27368
2.9891
2.69595
2.39904
2.10194
1.80715
1.51638
1.23072
0.950862
0.677248
0.410263
0.150387
-0.101654
-0.34472
-0.577108
-0.796396
-0.999325
-1.18176
-1.33875
-1.46492
-1.55502
-1.60506
-1.61361
-1.58322
-1.52105
-1.43794
-1.34545
-1.25177
-1.15897
-1.06245
-0.952416
-0.816627
-0.643812
-0.427315
-0.168358
0.122238
0.425298
0.718247
0.982061
1.20634
1.39078
1.54388
1.68018
1.8173
1.97297
2.16231
2.39512
2.67362
2.99137
3.33449
3.68589
4.03102
4.3621
4.67939
4.99026
5.30719
5.64558
6.02182
6.45151
6.94773
7.51918
8.16859
8.89184
9.67897
10.5173
11.3957
12.3078
13.2525
14.2329
15.2542
16.3208
17.4345
18.5916
19.7809
20.9813
22.1601
23.2731
24.2666
25.081
25.6564
25.9391
25.8888
25.4873
5.26872
5.26047
5.16916
5.00227
4.77214
4.49301
4.17874
3.84141
3.4908
3.13436
2.77746
2.42374
2.07553
1.73414
1.4002
1.07386
0.755054
0.443657
0.139676
-0.156559
-0.444198
-0.721641
-0.986285
-1.23427
-1.46026
-1.65736
-1.81729
-1.93116
-1.99101
-1.99232
-1.93721
-1.83699
-1.71163
-1.584
-1.47026
-1.37412
-1.28652
-1.18898
-1.05825
-0.871876
-0.614384
-0.283801
0.103346
0.512537
0.901041
1.23417
1.49519
1.68611
1.82324
1.93158
2.03997
2.17711
2.36792
2.62944
2.96626
3.36697
3.80495
4.24646
4.66394
5.04412
5.3887
5.7108
6.03063
6.37182
6.75896
7.21553
7.76175
8.4118
9.17032
10.0297
10.9706
11.9681
13.002
14.063
15.1525
16.2798
17.4578
18.699
20.0128
21.4017
22.8583
24.3614
25.8719
27.3321
28.667
29.7914
30.6165
31.0585
31.0507
30.5587
6.2715
6.2625
6.13798
5.91241
5.60737
5.24554
4.8471
4.42822
4.00088
3.57343
3.15128
2.73763
2.3341
1.94122
1.55876
1.18606
0.822257
0.466447
0.117903
-0.223741
-0.558246
-0.884476
-1.20002
-1.50074
-1.78023
-2.02932
-2.23581
-2.38491
-2.46107
-2.4521
-2.35601
-2.18894
-1.98842
-1.80238
-1.66327
-1.57679
-1.52478
-1.47316
-1.37981
-1.20219
-0.906552
-0.480558
0.0528289
0.629666
1.16366
1.5902
1.88507
2.05896
2.14413
2.18303
2.22136
2.30407
2.47181
2.75543
3.16695
3.68897
4.27038
4.84166
5.3506
5.77745
6.1304
6.43466
6.72333
7.03196
7.39619
7.85046
8.42629
9.14821
10.0268
11.0502
12.1807
13.3665
14.5694
15.7769
16.9978
18.2536
19.5701
20.9727
22.4827
24.114
25.8686
27.7303
29.6562
31.5711
33.3702
34.9323
36.1278
36.8255
36.9096
36.3102
7.4418
7.43068
7.25212
6.93685
6.52422
6.05065
5.54484
5.02721
4.51121
4.005
3.513
3.03711
2.57754
2.13349
1.70348
1.2857
0.878202
0.479046
0.0864764
-0.300904
-0.683896
-1.06237
-1.43477
-1.79744
-2.14362
-2.46225
-2.73658
-2.9433
-3.05333
-3.03696
-2.87663
-2.58867
-2.24398
-1.95283
-1.78012
-1.72943
-1.7621
-1.81706
-1.82237
-1.70206
-1.38605
-0.831587
-0.0598966
0.808836
1.58135
2.13618
2.44949
2.55989
2.53196
2.43564
2.33923
2.30895
2.40922
2.69762
3.20891
3.9258
4.75076
5.52698
6.15582
6.61754
6.94251
7.1813
7.38762
7.61241
7.9041
8.31072
8.88081
9.65938
10.675
11.9168
13.3115
14.7403
16.1305
17.4718
18.7933
20.14
21.5585
23.0919
24.7782
26.6488
28.725
31.0069
33.4563
35.9768
38.4146
40.6013
42.356
43.4761
43.7524
43.0289
8.86015
8.83977
8.56295
8.10131
7.52863
6.90192
6.25924
5.62347
5.00706
4.41574
3.8512
3.31275
2.79835
2.30524
1.83031
1.37029
0.921901
0.481945
0.0473783
-0.38457
-0.816222
-1.24915
-1.68367
-2.11799
-2.54679
-2.95905
-3.33482
-3.641
-3.82768
-3.8292
-3.58109
-3.0702
-2.42255
-1.93281
-1.72134
-1.76215
-1.96745
-2.23259
-2.44597
-2.48392
-2.20909
-1.49562
-0.312574
1.12633
2.31222
3.02969
3.30582
3.25974
3.01791
2.68805
2.3615
2.12547
2.07534
2.31851
2.95443
4.00662
5.30091
6.4241
7.20126
7.65409
7.87828
7.97423
8.02478
8.09601
8.24598
8.53505
9.03458
9.8286
10.9972
12.5625
14.3926
16.1691
17.7615
19.1945
20.5519
21.9222
23.3806
24.9903
26.8072
28.8869
31.284
34.0413
37.153
40.5007
43.8197
46.8911
49.4967
51.3409
52.0339
51.1928
10.6808
10.6177
10.1395
9.42529
8.61049
7.77593
6.96345
6.19166
5.46656
4.78772
4.15165
3.5536
2.98836
2.45071
1.93557
1.43804
0.953396
0.477039
0.00448303
-0.468671
-0.946701
-1.43362
-1.93283
-2.44642
-2.97369
-3.50833
-4.03313
-4.51068
-4.86851
-4.98078
-4.66383
-3.74854
-2.37364
-1.51202
-1.29926
-1.55797
-2.08657
-2.72257
-3.32211
-3.71608
-3.66371
-2.83576
-0.933678
1.80811
3.71752
4.55856
4.62599
4.24132
3.63053
2.93559
2.25334
1.67422
1.31905
1.37377
2.10042
3.73868
6.0973
7.81929
8.71351
9.0196
8.9985
8.8323
8.63195
8.46604
8.38732
8.45614
8.76409
9.4582
10.7478
12.8265
15.5507
17.8627
19.6215
21.0255
22.2917
23.5768
24.9847
26.5895
28.4576
30.6671
33.3238
36.5648
40.5093
45.0653
49.5802
53.8511
57.7328
60.8623
62.5235
61.7147
13.2619
12.9929
12.0554
10.8937
9.72042
8.61781
7.60882
6.69247
5.85935
5.09802
4.39733
3.74718
3.13864
2.5638
2.01553
1.48732
0.973046
0.466771
-0.0374174
-0.545601
-1.06421
-1.60018
-2.16107
-2.75493
-3.38974
-4.07149
-4.79918
-5.55244
-6.26264
-6.75007
-6.60786
-5.08843
-1.58538
-0.156699
-0.198081
-0.964959
-2.05083
-3.26481
-4.49401
-5.59065
-6.23487
-5.72235
-2.76375
3.68864
6.66127
7.20146
6.59715
5.54851
4.3644
3.16493
1.99682
0.900657
-0.0272725
-0.538363
-0.0661325
2.43358
7.81049
10.4064
11.0726
10.8562
10.3276
9.73953
9.18957
8.71054
8.31631
8.03295
7.93761
8.23032
9.36233
12.161
17.3022
20.3528
21.9922
23.055
24.0038
25.0544
26.3051
27.8093
29.6161
31.803
34.522
38.0749
42.9844
49.6885
55.6915
61.3708
67.0513
72.4974
76.5689
76.7007
17.6694
16.3304
14.2935
12.3784
10.7282
9.32448
8.1204
7.07302
6.14842
5.32068
4.56992
3.88057
3.24017
2.6384
2.06641
1.51637
0.981021
0.453366
-0.0736755
-0.607609
-1.15678
-1.73093
-2.34185
-3.00448
-3.73818
-4.56846
-5.52832
-6.65608
-7.9774
-9.42589
-10.5349
-9.28468
2.18994
3.31541
1.94772
0.0873395
-1.83063
-3.78514
-5.85672
-8.11661
-10.4716
-12.1312
-9.62492
10.5798
13.1074
11.4921
9.20779
7.05048
5.12008
3.34884
1.6365
-0.11534
-1.97398
-3.86658
-5.15238
-3.01493
13.5279
15.7719
14.7023
13.1419
11.7421
10.5914
9.64465
8.83252
8.08528
7.33866
6.55203
5.79352
5.57644
8.12208
22.0634
24.8744
25.1924
25.248
25.5686
26.2432
27.2596
28.5925
30.2264
32.1721
34.5187
37.6304
42.8744
55.3201
62.2677
68.8873
76.706
86.1106
96.2856
102.398
28.0127
20.6722
16.3559
13.4809
11.3809
9.74334
8.40607
7.27657
6.29786
5.43238
4.65396
3.94342
3.28605
2.67009
2.0857
1.52429
0.977971
0.43915
-0.0999124
-0.647551
-1.21327
-1.80853
-2.448
-3.15147
-3.94728
-4.87855
-6.01538
-7.48062
-9.50862
-12.5901
-17.8588
-28.2035
20.8681
10.3777
4.80299
1.22266
-1.55762
-4.13662
-6.94792
-10.5052
-15.7092
-24.5384
-41.9713
42.9256
25.5189
16.7457
11.6354
8.22557
5.64656
3.44799
1.33316
-0.977366
-3.87151
-8.06829
-15.1677
-29.2069
39.8354
25.9087
19.0383
15.1961
12.7976
11.1494
9.90586
8.86105
7.85339
6.70206
5.12605
2.57722
-2.18764
-12.3266
42.852
32.9855
28.7704
27.0587
26.6234
26.9396
27.7582
28.942
30.3873
31.9634
33.4134
34.1147
32.3936
68.8682
69.3154
74.6761
84.0759
98.6129
121.851
162.862
1060.38
1003.03
942.344
878.519
811.775
742.358
670.531
596.559
520.714
443.264
364.47
284.588
203.87
122.558
40.8919
5.19043
4.96517
4.68114
4.3501
3.98473
3.59718
3.1981
2.79602
2.39719
2.00557
1.62316
1.25034
0.886171
0.528812
0.175777
8.72629
8.34048
7.85406
7.28833
6.66589
6.00816
5.33355
4.65651
3.98735
3.33241
2.69466
2.07428
1.46939
0.876546
0.291316
12.3798
11.8164
11.1063
10.2832
9.38233
8.43602
7.47141
6.50913
5.56328
4.64206
3.74874
2.88272
2.04053
1.21665
0.404247
16.2072
15.4388
14.4713
13.3558
12.1441
10.8821
9.60691
8.34532
7.11459
5.9238
4.7755
3.66731
2.59332
1.54524
0.513263
20.2757
19.26
17.984
16.5245
14.9558
13.3412
11.7287
10.1505
8.62592
7.16305
5.76215
4.41767
3.12018
1.85772
0.616816
24.6692
23.3409
21.6798
19.8018
17.8131
15.798
13.8156
11.9021
10.0754
8.3403
6.69236
5.12103
3.61198
2.14862
0.713094
29.4977
27.7541
25.592
23.1893
20.6963
18.2217
15.8333
13.5663
11.433
9.43028
7.54589
5.76207
4.05808
2.41169
0.800029
34.9122
32.5856
29.7445
26.6666
23.561
20.559
17.7292
15.0966
12.6596
10.4017
8.29877
6.32324
4.44653
2.64001
0.875364
41.1279
37.9314
34.1337
30.1716
26.3219
22.7241
19.4277
16.431
13.7069
11.218
8.92406
6.7855
4.76477
2.82643
0.936776
48.4654
43.8773
38.6864
33.5635
28.8302
24.5875
20.8264
17.4926
14.5188
11.8392
9.39381
7.12984
5.00057
2.96414
0.982078
57.4146
50.425
43.1702
36.5652
30.8471
25.9687
21.7973
18.1937
15.0363
12.2259
9.68201
7.33938
5.14347
3.04745
1.00947
68.662
57.2374
47.0037
38.6797
32.0239
26.6425
22.2003
18.4482
15.2067
12.3457
9.76885
7.40209
5.18643
3.07267
1.0178
82.5632
62.8575
48.927
39.1251
31.9258
26.3766
21.9128
18.1917
14.9962
12.1812
9.64543
7.31361
5.12741
3.03897
1.00685
94.5306
62.701
46.7212
36.967
30.1768
25.0251
20.8823
17.4095
14.4047
11.7375
9.31787
7.07944
4.97059
2.94889
0.977481
0.357873
1.07352
1.78875
2.50296
3.21499
3.92286
4.62362
5.31328
5.9874
6.64334
7.28639
7.94547
8.71119
9.82928
11.9288
0.374812
1.12423
1.87286
2.61959
3.36235
4.09742
4.81856
5.51564
6.17265
6.76494
7.25478
7.58207
7.63252
7.09495
4.77386
0.391887
1.17546
1.95823
2.73892
3.51496
4.28154
5.03007
5.74564
6.40268
6.95754
7.33589
7.41068
6.96194
5.59897
2.63727
0.409093
1.22723
2.04501
2.86142
3.67406
4.47808
5.26433
6.01613
6.70347
7.27254
7.62763
7.60262
6.92614
5.21298
2.10675
0.426324
1.27923
2.1327
2.98647
3.83906
4.68685
5.52236
6.33122
7.08623
7.73594
8.18306
8.24674
7.61011
5.79426
2.34513
0.44337
1.33079
2.22014
3.11227
4.0073
4.904
5.79874
6.68354
7.54194
8.33984
9.00448
9.37705
9.11272
7.50962
3.44534
0.459934
1.38099
2.3056
3.236
4.1743
5.12237
6.08184
7.05401
8.03952
9.03608
10.0284
10.9495
11.5448
10.9339
6.50824
0.475658
1.4287
2.38698
3.35418
4.33441
5.33269
6.35592
7.415
8.52926
9.73508
11.1014
12.748
14.814
17.0072
15.5368
0.490173
1.47274
2.46211
3.46323
4.4819
5.52555
6.6049
7.73745
8.95518
10.3224
11.9793
14.2549
17.9947
25.624
45.1226
0.503129
1.51203
2.52902
3.56002
4.61194
5.69348
6.81677
8.00051
9.27702
10.7085
12.4272
14.7446
18.4738
25.9976
45.2706
0.514235
1.54567
2.58615
3.64221
4.7213
5.83229
6.98647
8.1989
9.491
10.8947
12.459
14.2534
16.3173
18.2114
16.0294
0.52327
1.57299
2.63238
3.70833
4.80838
5.94099
7.11553
8.34175
9.62721
10.9692
12.3308
13.5745
14.2783
13.2553
7.5357
0.530081
1.59355
2.66705
3.75762
4.87276
6.02041
7.20851
8.44323
9.72394
11.0297
12.2841
13.2703
13.4382
11.5602
5.53609
0.534583
1.60711
2.68981
3.78976
4.91443
6.0716
7.26895
8.51256
9.80305
11.1254
12.4234
13.534
14.0185
12.7441
7.04195
0.536738
1.61356
2.70052
3.80465
4.9334
6.09474
7.29706
8.54913
9.85977
11.2378
12.6926
14.2321
15.8199
17.0024
14.3683
0.536556
1.61294
2.69923
3.80234
4.92964
6.08924
7.29044
8.54481
9.86947
11.2966
12.9025
14.8964
17.9024
23.9108
39.8209
0.53409
1.6054
2.68621
3.78314
4.90333
6.05472
7.24669
8.49145
9.80775
11.231
12.8427
14.8574
17.8994
23.9424
39.8486
0.529434
1.59124
2.66193
3.74771
4.85523
5.99186
7.16607
8.38817
9.67148
11.0344
12.5026
14.1046
15.8118
17.1241
14.4872
0.522728
1.57086
2.62711
3.6971
4.78681
5.90275
7.05203
8.24217
9.47968
10.7643
12.0693
13.2785
13.9981
13.0478
7.41548
0.514147
1.54482
2.58269
3.6327
4.70007
5.79035
6.90942
8.06304
9.25491
10.4798
11.7023
12.792
13.3437
12.2224
6.7315
0.503902
1.51375
2.52977
3.55617
4.59732
5.65783
6.74266
7.85716
9.00693
10.1968
11.4271
12.6788
13.8508
14.4313
11.5835
0.492223
1.47836
2.46959
3.46931
4.48101
5.50829
6.55513
7.62659
8.73087
9.88553
11.1367
12.6208
14.7684
19.0204
30.5458
0.479358
1.43941
2.40345
3.37407
4.35378
5.34502
6.35033
7.37305
8.41964
9.50697
10.6844
12.1016
14.2241
18.5582
30.3448
0.465555
1.39765
2.33268
3.27243
4.21844
5.17186
6.13328
7.10273
8.07993
9.06566
10.0652
11.0923
12.1437
12.9203
10.8825
0.451052
1.35384
2.25859
3.16638
4.07787
4.99301
5.91051
6.82685
7.7341
8.61457
9.42668
10.0658
10.2537
9.2366
5.11921
0.436068
1.30862
2.18233
3.05769
3.93468
4.81241
5.68838
6.5571
7.40668
8.21074
8.90803
9.35251
9.2004
7.70562
3.60654
0.420787
1.26257
2.10488
2.9478
3.7909
4.63291
5.47117
6.30048
7.1107
7.88087
8.56472
9.05326
9.07925
7.98301
4.25629
0.405352
1.21611
2.02697
2.83773
3.64778
4.45591
5.26004
6.05698
6.84235
7.61077
8.35683
9.07505
9.73722
10.0869
8.22947
0.389869
1.16957
1.94908
2.72808
3.50593
4.2816
5.05377
5.82138
6.58563
7.35602
8.16805
9.13557
10.6119
13.7234
22.3424
0.374405
1.12312
1.87151
2.61918
3.3655
4.10961
4.85054
5.58797
6.32451
7.07221
7.8711
8.84254
10.3509
13.5349
22.2714
0.358997
1.07688
1.7944
2.51115
3.22655
3.93974
4.64962
5.35505
6.05549
6.7527
7.45413
8.17643
8.92604
9.49026
7.99972
0.343657
1.03087
1.71777
2.40401
3.08906
3.77209
4.45169
5.12546
5.78857
6.43012
7.02249
7.49116
7.62971
6.8723
3.80347
0.328375
0.985068
1.64157
2.29765
2.95293
3.60672
4.25772
4.90314
5.53649
6.14155
6.67659
7.03498
6.95542
5.85933
2.7586
0.313125
0.939375
1.56561
2.19179
2.81775
3.44322
4.06752
4.68909
5.30394
5.90146
6.45322
6.88278
6.98689
6.23834
3.39178
0.297867
0.89367
1.48967
2.08602
2.68287
3.28045
3.87913
4.47961
5.08329
5.69304
6.31454
6.95644
7.61033
8.07417
6.75892
0.282557
0.847805
1.41347
1.97986
2.54743
3.11685
3.6894
4.26781
4.85832
5.47633
6.16153
7.02165
8.36558
11.1453
18.5999
0.267148
0.801635
1.33672
1.87285
2.41064
2.951
3.49553
4.0475
4.61417
5.21284
5.88692
6.75074
8.12357
10.9697
18.5336
0.251599
0.755036
1.25921
1.76465
2.27203
2.78218
3.2964
3.81688
4.34768
4.89688
5.48041
6.1262
6.85823
7.51774
6.54343
0.235878
0.707912
1.18079
1.65509
2.13143
2.61048
3.09286
3.57899
4.06832
4.55699
5.03055
5.44162
5.64309
5.20021
2.96465
0.21996
0.66019
1.10135
1.54406
1.98892
2.4364
2.88665
3.33881
3.78932
4.22748
4.62398
4.90247
4.87532
4.12748
1.95089
0.203822
0.611808
1.02082
1.43152
1.84454
2.26036
2.67906
3.09969
3.51881
3.92682
4.29925
4.57546
4.60791
4.04685
2.13512
0.187443
0.562702
0.939083
1.31733
1.69818
2.08227
2.47006
2.86156
3.25593
3.65079
4.04124
4.41764
4.75256
4.90409
3.95717
0.170801
0.512807
0.856034
1.20132
1.54952
1.90157
2.25843
2.62138
2.99265
3.37774
3.79289
4.28853
5.02447
6.52404
10.6176
0.153875
0.462054
0.771539
1.08325
1.39818
1.71747
2.04252
2.37537
2.7197
3.08374
3.48857
3.99246
4.76598
6.34243
10.5516
0.136646
0.410385
0.685485
0.96292
1.24378
1.52933
1.82115
2.12133
2.43301
2.76136
3.11537
3.50906
3.94978
4.33243
3.7475
0.119105
0.357764
0.597795
0.840196
1.0861
1.33682
1.59393
1.85925
2.13467
2.4211
2.71456
2.99291
3.17383
2.99428
1.74199
0.101249
0.304183
0.508447
0.715025
0.925047
1.13984
1.36097
1.59012
1.82865
2.07592
2.32419
2.54434
2.64815
2.40101
1.28624
0.0830901
0.24967
0.417482
0.58745
0.760664
0.938444
1.1224
1.31443
1.51652
1.72998
1.95329
2.17652
2.36612
2.41021
1.84275
0.0646512
0.194298
0.32501
0.45761
0.593096
0.732739
0.878204
1.03174
1.19647
1.37718
1.5824
1.83203
2.18508
2.84405
4.56455
0.0459719
0.138182
0.231222
0.325757
0.42263
0.522974
0.628387
0.741236
0.865313
1.00732
1.18062
1.41568
1.79154
2.54066
4.4429
0.0271068
0.0814863
0.136392
0.192274
0.249744
0.309679
0.373388
0.442922
0.52169
0.615707
0.735924
0.901537
1.13876
1.43645
1.43504
0.00812599
0.0244238
0.040882
0.0576851
0.0751418
0.093756
0.114335
0.138182
0.167465
0.205894
0.259688
0.337648
0.443954
0.539906
0.419306
-0.0108868
-0.0327504
-0.0548679
-0.0773578
-0.100264
-0.123533
-0.146991
-0.170338
-0.193115
-0.214591
-0.233337
-0.245933
-0.243664
-0.206263
-0.097823
-0.0298371
-0.0897474
-0.150358
-0.212109
-0.275416
-0.340686
-0.408391
-0.479252
-0.554596
-0.636966
-0.730629
-0.839831
-0.955677
-1.00176
-0.675509
-0.0486227
-0.146256
-0.245052
-0.345775
-0.449198
-0.556139
-0.667592
-0.785041
-0.911185
-1.05148
-1.21712
-1.42909
-1.71612
-2.05579
-1.96482
-0.0671377
-0.201956
-0.338401
-0.47756
-0.620528
-0.768446
-0.922613
-1.08477
-1.25792
-1.44839
-1.6714
-1.96621
-2.43995
-3.40884
-5.91984
-0.0852745
-0.256521
-0.42986
-0.60669
-0.788405
-0.976399
-1.17206
-1.37686
-1.5926
-1.82265
-2.07578
-2.37902
-2.81989
-3.69091
-6.02801
-0.102925
-0.309627
-0.518887
-0.732413
-0.951907
-1.179
-1.41515
-1.6613
-1.91732
-2.18086
-2.44531
-2.6962
-2.90103
-2.9548
-2.31878
-0.119983
-0.360952
-0.604939
-0.853978
-1.11011
-1.3753
-1.65126
-1.93885
-2.23678
-2.53838
-2.82421
-3.04531
-3.08701
-2.69764
-1.38836
-0.136341
-0.410173
-0.687471
-0.970601
-1.26199
-1.5641
-1.87925
-2.20918
-2.55363
-2.90679
-3.24799
-3.51894
-3.57229
-3.07924
-1.47697
-0.151898
-0.456979
-0.765941
-1.08147
-1.4064
-1.74379
-2.09695
-2.46938
-2.86439
-3.28343
-3.7205
-4.14361
-4.43694
-4.23105
-2.5042
-0.166561
-0.501081
-0.839834
-1.18579
-1.54214
-1.91251
-2.30121
-2.71384
-3.15838
-3.6475
-4.2026
-4.85833
-5.64816
-6.439
-5.81022
-0.18025
-0.542233
-0.908713
-1.28285
-1.66811
-2.06845
-2.48882
-2.93608
-3.42136
-3.96566
-4.61473
-5.4798
-6.85857
-9.63266
-16.7492
-0.192905
-0.580252
-0.972254
-1.37218
-1.78357
-2.21044
-2.65768
-3.13187
-3.64327
-4.21099
-4.87677
-5.74443
-7.09985
-9.8105
-16.8171
-0.204489
-0.615026
-1.03028
-1.45352
-1.88824
-2.33824
-2.80777
-3.30173
-3.826
-4.38813
-4.9985
-5.6702
-6.39983
-7.00484
-6.03186
-0.214988
-0.646515
-1.08273
-1.52685
-1.98225
-2.45243
-2.94085
-3.45048
-3.98234
-4.53167
-5.07755
-5.5556
-5.78623
-5.29484
-2.9484
-0.224406
-0.674738
-1.12966
-1.59233
-2.06598
-2.5539
-3.05913
-3.5837
-4.12648
-4.67751
-5.20359
-5.61271
-5.67391
-4.87295
-2.3304
-0.232763
-0.699759
-1.1712
-1.65014
-2.13975
-2.64328
-3.16391
-3.70422
-4.26479
-4.84057
-5.41073
-5.91131
-6.16018
-5.66039
-3.18334
-0.240093
-0.721681
-1.20751
-1.70051
-2.20381
-2.72075
-3.25497
-3.81057
-4.39247
-5.00743
-5.66607
-6.3846
-7.16622
-7.82081
-6.73736
-0.246447
-0.740645
-1.2388
-1.7437
-2.25836
-2.78615
-3.33111
-3.89857
-4.49711
-5.14384
-5.87971
-6.81394
-8.26032
-11.188
-18.8963
-0.251889
-0.756847
-1.26539
-1.78008
-2.30373
-2.83958
-3.39154
-3.96491
-4.56818
-5.21826
-5.95545
-6.88751
-8.32552
-11.2353
-18.9141
-0.256508
-0.770543
-1.28769
-1.8102
-2.34059
-2.88175
-3.43703
-4.01039
-4.60665
-5.23209
-5.89573
-6.60956
-7.3685
-7.97036
-6.79542
-0.260413
-0.782062
-1.30624
-1.83482
-2.36994
-2.91406
-3.46988
-4.03987
-4.62475
-5.2193
-5.80103
-6.30016
-6.52043
-5.93916
-3.29873
-0.26374
-0.791809
-1.32171
-1.85485
-2.39298
-2.93818
-3.49283
-4.05893
-4.63604
-5.21529
-5.76357
-6.18427
-6.22885
-5.33781
-2.54989
-0.266653
-0.80027
-1.33489
-1.8714
-2.41106
-2.95568
-3.50774
-4.07025
-4.64575
-5.23269
-5.81457
-6.32944
-6.58687
-6.05364
-3.40645
-0.269344
-0.80802
-1.34673
-1.88571
-2.42565
-2.96796
-3.51532
-4.07246
-4.64741
-5.25349
-5.91199
-6.65327
-7.49383
-8.23737
-7.1558
-0.272038
-0.815734
-1.35834
-1.89932
-2.43854
-2.97667
-3.51603
-4.0622
-4.62737
-5.23778
-5.95178
-6.90802
-8.46801
-11.6884
-20.0925
-0.274989
-0.824187
-1.37106
-1.91412
-2.45213
-2.98445
-3.51193
-4.03866
-4.57581
-5.15002
-5.82324
-6.74336
-8.28898
-11.5393
-20.0314
-0.278476
-0.834238
-1.38639
-1.93238
-2.46961
-2.99553
-3.50827
-4.00779
-4.4984
-4.99341
-5.5231
-6.14418
-6.92594
-7.74983
-6.94879
-0.282783
-0.846781
-1.40595
-1.9567
-2.49488
-3.0157
-3.5137
-3.98302
-4.41785
-4.8126
-5.15939
-5.43328
-5.53351
-5.08864
-2.96081
-0.288174
-0.862655
-1.43134
-1.9897
-2.53217
-3.05165
-3.53897
-3.98211
-4.36502
-4.66499
-4.84618
-4.84287
-4.51951
-3.59605
-1.60736
-0.294853
-0.882534
-1.46387
-2.03369
-2.58535
-3.10986
-3.59483
-4.02295
-4.3697
-4.59976
-4.661
-4.47461
-3.92214
-2.84312
-1.10529
-0.302932
-0.906798
-1.50435
-2.09026
-2.65733
-3.19546
-3.69009
-4.1202
-4.4553
-4.65166
-4.64766
-4.36048
-3.69033
-2.54763
-0.9315
-0.312389
-0.935426
-1.55289
-2.15985
-2.74935
-3.31118
-3.83009
-4.28332
-4.63717
-4.8426
-4.83084
-4.5122
-3.78659
-2.58086
-0.929122
-0.323049
-0.967901
-1.60869
-2.24152
-2.86054
-3.45664
-4.0156
-4.51536
-4.92201
-5.18427
-5.227
-4.94644
-4.21615
-2.92377
-1.07012
-0.334565
-1.00318
-1.66997
-2.33273
-2.98757
-3.6278
-4.24212
-4.81195
-5.30698
-5.67825
-5.84752
-5.69286
-5.03596
-3.65636
-1.41013
-0.346431
-1.0397
-1.73401
-2.42938
-3.1247
-3.81687
-4.49945
-5.16036
-5.77776
-6.31236
-6.69282
-6.78791
-6.35752
-4.9907
-2.14871
-0.358006
-1.07548
-1.79727
-2.52602
-3.26395
-4.01252
-4.77172
-5.53886
-6.30588
-7.05333
-7.73612
-8.24771
-8.32921
-7.34934
-3.89792
-0.368559
-1.10823
-1.85565
-2.61622
-3.39576
-4.2007
-5.03837
-5.91731
-6.8474
-7.83899
-8.89809
-10.006
-11.0377
-11.4242
-8.66384
-0.377327
-1.13559
-1.90486
-2.6932
-3.50986
-4.36606
-5.27625
-6.26008
-7.34597
-8.57753
-10.026
-11.8169
-14.1939
-17.6842
-23.5458
66.6409
49.746
39.5228
32.4894
27.1845
22.9294
19.3688
16.2951
13.576
11.1209
8.86409
6.75503
4.75305
2.82375
0.936637
24.3591
31.773
30.2803
27.0199
23.6319
20.4795
17.6131
15.0064
12.6179
10.407
8.33739
6.37745
4.49921
2.67744
0.888834
10.7604
19.9847
22.2649
21.6387
19.9153
17.8307
15.6768
13.566
11.5364
9.59478
7.73445
5.94309
4.2061
2.50807
0.833429
5.70088
13.0186
16.2677
17.019
16.4495
15.2298
13.7104
12.0691
10.3937
8.72602
7.08353
5.4709
3.88588
2.32245
0.772607
3.47742
8.87762
12.0049
13.3163
13.435
12.8367
11.8286
10.5956
9.24554
7.83966
6.4118
4.9795
3.55063
2.12736
0.708565
2.33353
6.31502
9.00285
10.4419
10.9183
10.7282
10.1028
9.20339
8.13601
6.96847
5.74308
4.48565
3.21146
1.92914
0.643358
1.66569
4.65071
6.86795
8.23584
8.86425
8.9217
8.56726
7.92767
7.09595
6.13739
5.09655
4.00341
2.8779
1.73331
0.578793
1.23835
3.51954
5.3228
6.54322
7.2066
7.40116
7.22961
6.78527
6.14391
5.36336
4.4863
3.5436
2.55755
1.54436
0.516353
0.946766
2.72024
4.18233
5.23734
5.87445
6.13477
6.0813
5.77963
5.28845
4.65631
3.92157
3.11388
2.25601
1.36567
0.457172
0.738546
2.13714
3.32451
4.22161
4.80387
5.08623
5.10528
4.90551
4.53084
4.02045
3.40745
2.71896
1.97699
1.19959
0.402044
0.584833
1.70068
2.66824
3.42445
3.94151
4.22048
4.28117
4.1528
3.86741
3.45582
2.94573
2.36114
1.72254
1.0475
0.351451
0.468484
1.36719
2.15871
2.79332
3.24443
3.50628
3.58829
3.50909
3.29158
2.95954
2.53571
2.04081
1.49338
0.909971
0.305616
0.378703
1.1081
1.75813
2.28958
2.67875
2.91691
3.00732
2.96139
2.79524
2.52698
2.17501
1.75693
1.28918
0.786983
0.264551
0.308367
0.904115
1.43988
1.88462
2.2179
2.43013
2.521
2.49715
2.36976
2.15254
1.86019
1.50752
1.10889
0.678037
0.228115
0.252601
0.741773
1.18483
1.55704
1.8411
2.02759
2.11431
2.10478
2.00665
1.83023
1.58724
1.29001
0.950967
0.582323
0.196057
0.207964
0.611449
0.978953
1.29066
1.53202
1.69433
1.77444
1.7739
1.69789
1.55413
1.35193
1.10154
0.813582
0.49884
0.168059
0.171965
0.506105
0.811819
1.07311
1.27782
1.41813
1.49055
1.49541
1.43617
1.31858
1.15008
0.939125
0.694792
0.426488
0.143766
0.142763
0.420494
0.675524
0.894857
1.06832
1.18906
1.25356
1.26144
1.21493
1.11838
0.977702
0.79988
0.592639
0.364143
0.122811
0.118972
0.350645
0.56401
0.748441
0.895436
0.999022
1.05588
1.06521
1.02843
0.948822
0.831101
0.681056
0.505239
0.310707
0.104835
0.0995327
0.293507
0.472582
0.628015
0.752683
0.841427
0.891191
0.900978
0.87166
0.805717
0.706936
0.580121
0.430829
0.265143
0.089495
0.0836282
0.246713
0.397565
0.528947
0.634868
0.71089
0.754256
0.763896
0.740315
0.685406
0.602231
0.494789
0.367797
0.226495
0.0764744
0.0706201
0.208409
0.336067
0.447552
0.53781
0.603022
0.640731
0.649875
0.630716
0.584716
0.514371
0.423026
0.314697
0.193899