/*--------------------------------*- C++ -*----------------------------------*\
| =========                 |                                                 |
| \\      /  F ield         | OpenFOAM: The Open Source CFD Toolbox           |
|  \\    /   O peration     | Version:  5.x                                   |
|   \\  /    A nd           | Web:      www.OpenFOAM.org                      |
|    \\/     M anipulation  |                                                 |
\*---------------------------------------------------------------------------*/
FoamFile
{
    version     2.0;
    format      ascii;
    class       volScalarField;
    location    "15.7";
    object      gradTx;
}
// * * * * * * * * * * * * * * * * * * * * * * * * * * * * * * * * * * * * * //

dimensions      [0 -1 0 1 0 0 0];

internalField   nonuniform List<scalar> 
6300
(
14.2036
14.1607
14.0749
13.9463
13.7751
13.5614
13.3058
13.009
12.6722
12.2972
11.8864
11.4434
10.9723
10.4787
9.96871
14.2459
14.203
14.1172
13.9885
13.8169
13.6028
13.3464
13.0484
12.7099
12.3324
11.9183
11.4709
10.9945
10.4945
9.97744
14.3306
14.2876
14.2017
14.0728
13.9009
13.6859
13.4281
13.1279
12.786
12.4037
11.983
11.527
11.0398
10.527
9.99548
14.4576
14.4147
14.3287
14.1996
14.0272
13.8113
13.5517
13.2486
12.902
12.5129
12.0826
11.6137
11.1103
10.5778
10.0238
14.627
14.5841
14.4983
14.3692
14.1965
13.9797
13.7185
13.412
13.0601
12.6626
12.2202
11.7346
11.2093
10.6498
10.0644
14.8387
14.796
14.7105
14.5817
14.4092
14.1922
13.9297
13.6205
13.2633
12.8569
12.4006
11.8948
11.3419
10.7473
10.12
15.0924
15.0501
14.9653
14.8374
14.6659
14.4496
14.1871
13.8764
13.5151
13.1005
12.6299
12.1015
11.5158
10.8771
10.1953
15.3879
15.3462
15.2624
15.1362
14.9667
14.7527
14.4921
14.1824
13.8198
13.3996
12.9164
12.3651
11.7423
11.0497
10.2974
15.7245
15.6836
15.6015
15.4777
15.3116
15.1016
14.8458
14.5406
14.1814
13.7611
13.2707
12.6996
12.038
11.2815
10.4383
16.1014
16.0615
15.9815
15.8611
15.6996
15.4959
15.248
14.9525
14.6035
14.1922
13.7051
13.1241
12.4281
11.5995
10.6385
16.5176
16.4789
16.4013
16.2848
16.1292
15.9338
15.6974
15.4171
15.0874
14.6984
14.2328
13.6631
12.9501
12.0495
10.9359
16.972
16.9344
16.8593
16.747
16.5979
16.4122
16.19
15.9304
15.63
15.2806
14.8642
14.3448
13.6592
12.7122
11.4066
17.4632
17.4267
17.3539
17.2454
17.1024
16.9264
16.7194
16.4837
16.2209
15.9292
15.5977
15.1923
14.6291
13.7329
12.2222
17.9904
17.9546
17.8834
17.7777
17.6394
17.471
17.2769
17.0635
16.8399
16.617
16.4046
16.1971
15.9314
15.3677
13.8277
18.5526
18.5171
18.4466
18.3421
18.2056
18.0405
17.853
17.653
17.4573
17.2936
17.2058
17.2595
17.5309
17.9781
17.5861
9.49327
9.05913
8.62795
8.20416
7.79196
7.39521
7.01733
6.66124
6.32934
6.02351
5.74514
5.49522
5.27431
5.08269
4.92032
4.78697
4.68215
4.60522
4.55534
4.53152
4.53252
4.55694
4.60311
4.66914
4.75285
4.85183
4.96344
5.08485
5.21313
5.34533
5.47856
5.61011
5.73743
5.85823
5.97038
6.07189
6.16078
6.23506
6.2927
6.33163
6.34985
6.34555
6.31728
6.26402
6.18526
6.08093
5.95134
5.79692
5.61805
5.41483
5.18695
4.9336
4.65347
4.34485
4.0058
3.63424
3.22817
2.78568
2.30501
1.78443
1.22215
0.616091
-0.0362735
-0.738052
-1.49303
-2.30569
-3.18113
-4.12498
-5.14316
-6.24178
-7.42685
-8.70424
-10.0794
-11.5576
-13.1434
-14.841
-16.6538
-18.5846
-20.6349
-22.8049
-25.0928
-27.4945
-30.0031
-32.6086
-35.2974
-38.0526
-40.8539
-43.6783
-46.5006
-49.2946
9.49506
9.05447
8.61695
8.18712
7.76939
7.36773
6.98566
6.62614
6.29153
5.98369
5.70395
5.45319
5.23192
5.04034
4.87835
4.74567
4.64179
4.56606
4.51765
4.49557
4.49862
4.52542
4.57434
4.64348
4.73067
4.83345
4.94912
5.07475
5.20727
5.34361
5.48077
5.61595
5.74659
5.87044
5.98547
6.0898
6.18155
6.25877
6.31938
6.36119
6.382
6.37981
6.353
6.30048
6.22179
6.11705
5.98683
5.83187
5.65285
5.45009
5.22339
4.97192
4.69424
4.38846
4.05238
3.68374
3.2804
2.84047
2.36228
1.84432
1.28504
0.68262
0.0347481
-0.661562
-1.41008
-2.21537
-3.08271
-4.01798
-5.02739
-6.11728
-7.29393
-8.56334
-9.93113
-11.4025
-12.9823
-14.6748
-16.4838
-18.4123
-20.4624
-22.6349
-24.9286
-27.3402
-29.8633
-32.4882
-35.2014
-37.9857
-40.8201
-43.6806
-46.5406
-49.3724
9.49888
9.04506
8.59452
8.15235
7.72334
7.31175
6.92126
6.55487
6.21493
5.90317
5.62077
5.36846
5.14658
4.95516
4.79399
4.66269
4.56072
4.48738
4.44187
4.42324
4.43035
4.46188
4.51626
4.59164
4.68584
4.79633
4.92026
5.0545
5.19571
5.34051
5.48563
5.62809
5.7653
5.89511
6.01574
6.12557
6.22299
6.30615
6.37289
6.42071
6.447
6.44926
6.42548
6.37436
6.29557
6.18962
6.05768
5.90122
5.72159
5.51959
5.29526
5.04773
4.77526
4.47547
4.14563
3.78299
3.38514
2.95016
2.47664
1.96354
1.40989
0.814456
0.175389
-0.510016
-1.24548
-2.03577
-2.88656
-3.80428
-4.79574
-5.86788
-7.02743
-8.28072
-9.63357
-11.0913
-12.6589
-14.3409
-16.1415
-18.0646
-20.1134
-22.2899
-24.5944
-27.0249
-29.5764
-32.24
-35.0025
-37.846
-40.7483
-43.683
-46.6207
-49.5302
9.50506
9.03055
8.55968
8.09832
7.65188
7.22509
6.82185
6.44524
6.09748
5.78011
5.49404
5.2397
5.01715
4.82619
4.66642
4.5373
4.43821
4.36844
4.32721
4.31364
4.32672
4.36524
4.42776
4.51251
4.61734
4.73965
4.87637
5.02401
5.17876
5.33671
5.49409
5.64755
5.79442
5.93278
6.0613
6.17897
6.28471
6.37693
6.45336
6.51097
6.54633
6.55596
6.53702
6.48784
6.40819
6.29932
6.16356
6.00369
5.82227
5.62099
5.40029
5.1592
4.89539
4.60554
4.28587
3.93273
3.54315
3.11515
2.64781
2.14098
1.59476
1.00897
0.382624
-0.286502
-1.00205
-1.76912
-2.59413
-3.48444
-4.44796
-5.49263
-6.62595
-7.85471
-9.18491
-10.6219
-12.1706
-13.8358
-15.6226
-17.5358
-19.5803
-21.7602
-24.0783
-26.5352
-29.1278
-31.8491
-34.6864
-37.6212
-40.6292
-43.6804
-46.7405
-49.7728
9.51428
9.01043
8.5108
8.02247
7.55183
7.10422
6.68386
6.2938
5.93604
5.61175
5.32139
5.06493
4.84203
4.65212
4.49451
4.36848
4.2733
4.20823
4.17255
4.16551
4.18627
4.23386
4.30706
4.40429
4.52349
4.66202
4.81655
4.98306
5.15701
5.33354
5.50796
5.67627
5.83558
5.98436
6.12222
6.24932
6.36564
6.47021
6.56064
6.63305
6.68243
6.70352
6.69187
6.64491
6.56262
6.44749
6.3039
6.13695
5.95128
5.75009
5.53447
5.30316
5.05278
4.77832
4.47409
4.13474
3.75626
3.33659
2.87568
2.37495
1.83643
1.26175
0.651326
0.00374182
-0.684527
-1.41916
-2.20773
-3.05923
-3.98338
-4.98974
-6.08703
-7.28261
-8.58245
-9.9915
-11.5143
-13.1558
-14.9214
-16.8178
-18.8519
-21.0312
-23.3623
-25.8494
-28.4937
-31.2906
-34.2293
-37.2906
-40.4473
-43.6643
-46.8997
-50.108
9.52757
8.98387
8.44531
7.92085
7.41828
6.94383
6.50197
6.09559
5.7262
5.39431
5.09969
4.84165
4.61921
4.43132
4.27693
4.15506
4.06484
4.00552
3.97648
3.97716
4.00702
4.06544
4.15158
4.26424
4.40163
4.56117
4.73926
4.93122
5.13133
5.33318
5.53042
5.71771
5.89167
6.05145
6.19837
6.33493
6.46323
6.58359
6.69363
6.788
6.85899
6.89795
6.89728
6.8526
6.76404
6.63638
6.47762
6.29689
6.10239
5.89973
5.69097
5.47437
5.2446
4.99374
4.71265
4.39288
4.02848
3.61722
3.16069
2.66318
2.13001
1.56586
0.973394
0.352449
-0.300351
-0.991602
-1.73078
-2.5295
-3.40045
-4.35594
-5.40659
-6.56038
-7.8227
-9.1972
-10.6872
-12.2968
-14.032
-15.9011
-17.9143
-20.0836
-22.421
-24.9372
-27.6392
-30.5278
-33.595
-36.8221
-40.1783
-43.6209
-47.0973
-50.5481
9.54656
8.94955
8.35918
7.78735
7.24395
6.73621
6.26873
5.84384
5.46213
5.123
4.82515
4.56689
4.34645
4.16212
4.01236
3.8959
3.81171
3.75905
3.73745
3.74663
3.78648
3.85692
3.95775
4.08841
4.24771
4.43341
4.64182
4.86746
5.10292
5.33923
5.56699
5.7781
5.96797
6.13678
6.28921
6.43218
6.57197
6.71157
6.84891
6.97635
7.08142
7.14916
7.16582
7.12316
7.02151
6.86979
6.68268
6.47639
6.26498
6.05787
5.85854
5.66428
5.46658
5.25246
5.0067
4.71507
4.36795
3.96285
3.50452
3.00255
2.46803
1.91058
1.33632
0.746897
0.139082
-0.495138
-1.16816
-1.89584
-2.69582
-3.58517
-4.57765
-5.68187
-6.90138
-8.2366
-9.68765
-11.2567
-12.9496
-14.7765
-16.7519
-18.8936
-21.222
-23.757
-26.5156
-29.5073
-32.7301
-36.1672
-39.7841
-43.5284
-47.3311
-51.1116
9.57386
8.90528
8.24598
7.61259
7.01794
6.47031
5.97388
5.52965
5.13649
4.79204
4.49339
4.2375
4.02153
3.84295
3.69969
3.5901
3.51301
3.46772
3.45394
3.47179
3.52175
3.60449
3.72078
3.87118
4.0556
4.27277
4.51939
4.78936
5.07306
5.3574
5.62729
5.86887
6.07432
6.24547
6.39342
6.53376
6.68074
6.8425
7.01817
7.19663
7.35732
7.47362
7.51947
7.4784
7.35076
7.15388
6.91507
6.66298
6.42112
6.20452
6.01855
5.85887
5.71196
5.55652
5.36655
5.11693
4.79068
4.38493
3.91098
3.38859
2.8389
2.27933
1.72093
1.16768
0.616411
0.0570921
-0.52694
-1.15814
-1.86259
-2.66595
-3.58783
-4.63738
-5.81342
-7.10919
-8.51814
-10.0382
-11.6742
-13.4381
-15.3496
-17.4348
-19.725
-22.2546
-25.056
-28.1536
-31.5564
-35.2528
-39.2059
-43.3513
-47.5964
-51.8269
9.61371
8.84724
8.09511
7.38175
6.72392
6.13039
5.60358
5.14165
4.74046
4.39492
4.09985
3.85046
3.64258
3.47279
3.33838
3.23735
3.16839
3.13086
3.12472
3.15059
3.20965
3.3036
3.43456
3.60478
3.81618
4.06953
4.36317
4.6913
5.04206
5.39619
5.7281
6.01144
6.2298
6.38732
6.50831
6.62551
6.76794
6.95315
7.1831
7.44218
7.69685
7.8992
7.99798
7.95799
7.77942
7.49803
7.16631
6.83457
6.54061
6.30678
6.14043
6.03481
5.96937
5.91004
5.81208
5.62888
5.32765
4.90499
4.387
3.81373
3.22383
2.6462
2.09798
1.58543
1.10519
0.644782
0.182087
-0.315036
-0.887034
-1.57613
-2.41422
-3.41077
-4.55308
-5.81879
-7.18854
-8.65286
-10.2143
-11.8872
-13.6971
-15.6803
-17.8832
-20.3606
-23.1697
-26.3598
-29.9595
-33.9682
-38.3504
-43.0298
-47.8819
-52.738
9.67335
8.76817
7.88807
7.07064
6.33707
5.69423
5.13965
4.66598
4.26409
3.92493
3.64035
3.40346
3.20865
3.05155
2.92886
2.83828
2.77839
2.74865
2.7493
2.78148
2.84716
2.94928
3.09166
3.27894
3.51622
3.8081
4.15708
4.56047
5.006
5.46675
5.89861
6.24735
6.47262
6.58153
6.6284
6.68065
6.7933
6.99908
7.30581
7.69379
8.11137
8.47362
8.67597
8.63681
8.35584
7.91436
7.41728
6.95149
6.57329
6.31164
6.17456
6.15262
6.21773
6.31891
6.38008
6.31055
6.03922
5.56212
4.94238
4.26264
3.59091
2.97057
2.42353
1.9565
1.56528
1.23562
0.940564
0.635769
0.257046
-0.271865
-1.01251
-1.97435
-3.11505
-4.37859
-5.72273
-7.12756
-8.59381
-10.1389
-11.795
-13.6092
-15.646
-17.9888
-20.7345
-23.9757
-27.7734
-32.1451
-37.0666
-42.4589
-48.1611
-53.9152
9.76569
8.6527
7.59049
6.63851
5.8193
5.1308
4.55909
4.08679
3.69726
3.3762
3.11204
2.89572
2.7203
2.58063
2.47299
2.39489
2.34489
2.32254
2.32839
2.36399
2.43211
2.53686
2.68396
2.881
3.13745
3.46432
3.87248
4.36876
4.94783
5.57868
6.1886
6.66079
6.88276
6.86482
6.74048
6.64854
6.68427
6.89939
7.31126
7.90245
8.60528
9.27793
9.70143
9.6635
9.16307
8.41042
7.62291
6.94199
6.43787
6.13687
6.04268
6.14481
6.41388
6.78512
7.13604
7.28256
7.04684
6.4244
5.58394
4.6998
3.8838
3.18922
2.63374
2.21826
1.93658
1.77651
1.71293
1.6929
1.61727
1.33719
0.707611
-0.280422
-1.50019
-2.82236
-4.16954
-5.51379
-6.85963
-8.2308
-9.66518
-11.2174
-12.968
-15.0365
-17.5853
-20.7901
-24.7605
-29.5297
-35.1041
-41.4412
-48.3647
-55.4752
9.91546
8.4638
7.13387
6.01484
5.113
4.39883
3.83506
3.38819
3.03165
2.74539
2.51472
2.32894
2.18036
2.06347
1.97449
1.91093
1.87146
1.85575
1.86451
1.89959
1.96421
2.06334
2.20426
2.39737
2.65718
3.00332
3.46082
4.05767
4.81491
5.72051
6.67668
7.43428
7.63811
7.30108
6.80565
6.43229
6.31664
6.51607
7.05819
7.95
9.14231
10.4407
11.391
11.3558
10.3332
8.95635
7.67471
6.67758
6.00967
5.66401
5.62784
5.89632
6.46266
7.2803
8.18605
8.80472
8.61105
7.60036
6.28816
5.03861
4.00164
3.20736
2.64218
2.2872
2.13259
2.17832
2.42243
2.82993
3.27178
3.44937
2.94377
1.74709
0.262072
-1.23021
-2.6206
-3.89776
-5.08894
-6.2316
-7.36563
-8.53963
-9.83216
-11.3924
-13.4914
-16.5017
-20.5971
-25.7544
-32.0429
-39.5785
-48.2985
-57.6224
10.1741
8.09924
6.37324
5.07817
4.13633
3.45025
2.9426
2.55943
2.26469
2.03442
1.85264
1.70852
1.59468
1.50606
1.43929
1.39222
1.36375
1.35365
1.36267
1.39258
1.44654
1.52955
1.64931
1.81759
2.05248
2.38184
2.84836
3.51543
4.46817
5.78931
7.45042
9.00491
9.17196
7.96513
6.69476
5.84467
5.49508
5.63903
6.30128
7.56455
9.52627
12.1042
14.4991
14.4696
12.013
9.36482
7.31654
5.93887
5.11723
4.74527
4.77409
5.21868
6.14933
7.6483
9.64913
11.4963
11.3514
9.21019
6.90189
5.0711
3.76983
2.89548
2.34782
2.06745
2.03999
2.29433
2.89652
3.91735
5.30662
6.54515
6.17489
4.18963
2.03466
0.215171
-1.23475
-2.40551
-3.38811
-4.24481
-5.00844
-5.69116
-6.31068
-6.97253
-8.08494
-10.6507
-14.9044
-20.3497
-27.1852
-36.0098
-47.3622
-60.7436
10.6587
7.23193
4.99194
3.63266
2.79114
2.24455
1.87074
1.60324
1.40478
1.25355
1.13625
1.04443
0.972603
0.917135
0.875653
0.846691
0.829502
0.823978
0.830668
0.850892
0.88699
0.942786
1.02441
1.14183
1.31167
1.56274
1.94701
2.56167
3.59078
5.36831
8.37742
12.5731
12.6838
8.72038
5.97842
4.53606
3.96262
4.01539
4.67868
6.17303
9.02249
14.0309
21.0978
21.0777
13.9682
8.90911
5.99239
4.39921
3.57706
3.24922
3.32143
3.84089
5.01737
7.29336
11.3331
17.056
16.9661
11.0602
6.82777
4.34083
2.92309
2.11302
1.66842
1.48339
1.5415
1.90932
2.76759
4.47406
7.55827
11.9573
11.7313
6.87635
3.32402
1.12826
-0.250976
-1.18423
-1.86856
-2.39203
-2.76772
-2.93368
-2.72822
-1.90376
-0.585621
-2.36896
-7.49561
-12.9429
-19.463
-28.8007
-43.5031
-65.6411
11.6451
4.65541
2.34209
1.44146
1.02116
0.789942
0.645708
0.547561
0.476791
0.42378
0.38311
0.351515
0.326932
0.308031
0.293951
0.284171
0.278426
0.276683
0.279147
0.286307
0.299036
0.318782
0.347935
0.390545
0.45384
0.551739
0.713845
1.01101
1.6355
3.17363
7.59541
22.0231
22.062
7.71635
3.3904
1.97602
1.52825
1.51246
1.85915
2.82992
5.40945
12.9929
37.9009
37.8937
12.9703
5.36804
2.7621
1.74908
1.32494
1.17697
1.22459
1.51686
2.30192
4.39831
10.5929
30.9856
30.9551
10.5002
4.23982
2.07074
1.2012
0.80419
0.615176
0.549133
0.596965
0.817966
1.41712
3.04664
7.91626
24.0291
23.9531
7.68694
2.65979
0.86544
0.0905481
-0.321428
-0.58067
-0.752033
-0.829003
-0.711036
-0.0371222
2.45403
11.3797
10.7271
0.374912
-3.99097
-7.68322
-13.8661
-28.936
-74.0784
-52.3006
-55.4698
-58.4817
-61.3037
-63.9101
-66.2832
-68.412
-70.2914
-71.9209
-73.3034
-74.4435
-75.3468
-76.0186
-76.4637
-76.6854
-52.418
-55.6262
-58.6709
-61.5182
-64.1426
-66.5266
-68.6604
-70.5402
-72.1669
-73.5447
-74.6792
-75.5771
-76.2443
-76.686
-76.9059
-52.6573
-55.9454
-59.0566
-61.9548
-64.6144
-67.0192
-69.1617
-71.041
-72.6608
-74.028
-75.1506
-76.0368
-76.6942
-77.1289
-77.3451
-53.0279
-56.4408
-59.6543
-62.6293
-65.3401
-67.7732
-69.9253
-71.8002
-73.4064
-74.7549
-75.8572
-76.7243
-77.3658
-77.7891
-77.9995
-53.5459
-57.1349
-60.4896
-63.567
-66.3424
-68.8073
-70.9651
-72.827
-74.4087
-75.7268
-76.7979
-77.6363
-78.2543
-78.6611
-78.863
-54.2363
-58.0623
-61.6014
-64.8058
-67.6543
-70.1474
-72.2996
-74.1332
-75.6734
-76.9449
-77.97
-78.7676
-79.3529
-79.737
-79.9272
-55.1374
-59.2758
-63.047
-66.3994
-69.3207
-71.8274
-73.9516
-75.7316
-77.2056
-78.4082
-79.3685
-80.1103
-80.6516
-81.0054
-81.1803
-56.3086
-60.8554
-64.9106
-68.4229
-71.4008
-73.8888
-75.9465
-77.6348
-79.0082
-80.1125
-80.9845
-81.6522
-82.1365
-82.4517
-82.6071
-57.8449
-62.9258
-67.3161
-70.9797
-73.9697
-76.3794
-78.3098
-79.8515
-81.0784
-82.048
-82.8036
-83.3765
-83.7892
-84.0566
-84.1882
-59.9042
-65.6861
-70.4473
-74.2093
-77.1176
-79.3484
-81.0609
-82.3817
-83.4045
-84.1963
-84.804
-85.2599
-85.5859
-85.7963
-85.8995
-62.7663
-69.466
-74.5766
-78.2915
-80.9419
-82.8346
-84.2027
-85.2087
-85.9603
-86.5273
-86.9548
-87.272
-87.4972
-87.6419
-87.7127
-66.9701
-74.8338
-80.1006
-83.4369
-85.5226
-86.8437
-87.7054
-88.289
-88.6993
-88.9963
-89.2148
-89.3747
-89.4876
-89.5601
-89.5956
-73.6858
-82.7975
-87.5536
-89.8319
-90.8665
-91.3108
-91.4851
-91.5415
-91.5502
-91.5425
-91.5318
-91.523
-91.5172
-91.514
-91.5127
-85.8652
-95.1156
-97.4833
-97.4696
-96.799
-96.0464
-95.3817
-94.8404
-94.4158
-94.0901
-93.8455
-93.667
-93.543
-93.4648
-93.4271
-112.408
-114.315
-109.793
-105.763
-102.812
-100.693
-99.1536
-98.0215
-97.1809
-96.555
-96.0917
-95.7553
-95.5215
-95.3739
-95.3025
19.0999
19.0643
18.9934
18.8881
18.75
18.5826
18.3917
18.1886
17.9934
17.8437
17.81
18.0333
18.8352
21.1396
28.4518
19.6216
19.5856
19.5138
19.4066
19.265
19.0911
18.8895
18.6694
18.4487
18.2627
18.1803
18.3343
18.9769
20.5354
23.2843
20.1678
20.1314
20.0583
19.9485
19.8017
19.6183
19.3997
19.15
18.8792
18.6094
18.3859
18.2955
18.4821
19.1042
20.0333
20.7388
20.702
20.6279
20.5155
20.3634
20.1694
19.9308
19.6447
19.3087
18.9235
18.4986
18.0637
17.6842
17.4591
17.435
21.3348
21.2979
21.2235
21.1096
20.9536
20.7508
20.4943
20.1734
19.7718
19.2647
18.6177
17.7929
16.7788
15.6741
14.8276
21.9558
21.9195
21.8458
21.7325
21.5756
21.3689
21.1019
20.7577
20.3076
19.7024
18.8597
17.653
15.9357
13.7093
11.64
22.6015
22.5664
22.4951
22.3849
22.2317
22.0281
21.7625
21.415
20.9505
20.3046
19.3539
17.8671
15.4458
11.6351
7.02308
23.271
23.2379
23.1707
23.0668
22.9221
22.7298
22.4793
22.1528
21.7191
21.1177
20.2201
18.7295
15.9203
10.1171
-0.788723
23.9628
23.9326
23.8711
23.7763
23.6448
23.4713
23.2482
22.9646
22.6035
22.1357
21.4975
20.5072
18.4735
12.1423
-16.1659
24.675
24.6483
24.5941
24.5107
24.3959
24.2463
24.0584
23.8295
23.5616
23.2713
23.0186
23.0091
24.0103
29.429
57.1684
25.4052
25.3825
25.3366
25.2664
25.1705
25.0473
24.8963
24.7208
24.5349
24.3801
24.3703
24.8086
26.4788
31.2144
41.4143
26.1504
26.1322
26.0953
26.0393
25.9633
25.8667
25.7504
25.6188
25.4859
25.3875
25.41
25.7518
26.8177
29.2043
32.7532
26.9077
26.8941
26.8668
26.8254
26.7696
26.6991
26.6142
26.517
26.4123
26.31
26.2271
26.1917
26.2387
26.3863
26.5668
27.6736
27.6649
27.6473
27.6208
27.5853
27.5405
27.4859
27.4197
27.3366
27.2182
27.0106
26.5736
25.5889
23.5448
20.5161
28.445
28.441
28.4333
28.4218
28.4067
28.3879
28.3646
28.3336
28.2848
28.1874
27.9528
27.3351
25.6741
21.3863
12.3726
29.2183
29.2192
29.2211
29.2245
29.2298
29.2375
29.2477
29.259
29.266
29.2511
29.1601
28.8203
27.5826
22.5093
-2.01971
29.9904
29.9958
30.0072
30.0251
30.0504
30.0846
30.1291
30.1867
30.2619
30.3666
30.5394
30.9284
32.1539
37.1424
61.562
30.7578
30.7677
30.788
30.8196
30.8641
30.9234
31.0006
31.1013
31.2366
31.4338
31.7676
32.455
34.1109
38.281
47.1165
31.5175
31.5315
31.5602
31.6046
31.6666
31.7488
31.8549
31.991
32.1676
32.4052
32.7493
33.3082
34.3208
36.1787
38.8189
32.2668
32.2845
32.3206
32.3764
32.4541
32.5565
32.6874
32.8519
33.0556
33.3017
33.581
33.8455
33.9426
33.5321
32.3674
33.0029
33.0238
33.0665
33.1323
33.2235
33.3433
33.4955
33.6846
33.9134
34.174
34.4219
34.4983
33.9161
31.4083
25.1195
33.7236
33.7473
33.7955
33.8696
33.9722
34.1065
34.2769
34.489
34.7483
35.0542
35.3808
35.6076
35.2256
31.9094
13.5173
34.427
34.4529
34.5055
34.5864
34.6979
34.8435
35.0283
35.2599
35.55
35.9188
36.408
37.1389
38.5716
42.8792
61.9108
35.1115
35.1392
35.1952
35.281
35.3989
35.5523
35.7462
35.9891
36.2963
36.6986
37.2665
38.1818
39.9201
43.6228
50.7793
35.776
35.8048
35.8632
35.9524
36.0743
36.2317
36.4289
36.6729
36.9759
37.3622
37.8828
38.6522
39.9033
41.9669
44.6315
36.4195
36.4492
36.509
36.6001
36.7239
36.8823
37.078
37.3146
37.597
37.9314
38.3251
38.7871
39.3209
39.8928
40.348
37.0414
37.0716
37.1323
37.2242
37.3484
37.5059
37.6976
37.9236
38.1811
38.4583
38.7188
38.8713
38.7108
37.8986
36.3948
37.6415
37.6719
37.7329
37.825
37.9488
38.1046
38.2922
38.5097
38.7508
38.9954
39.1865
39.172
38.5522
36.3838
31.4115
38.2196
38.25
38.311
38.4029
38.5259
38.68
38.8647
39.0785
39.3173
39.5685
39.796
39.892
39.4678
36.8152
22.9896
38.7755
38.8059
38.8667
38.9582
39.0802
39.2328
39.4158
39.6291
39.8743
40.1566
40.4956
40.9724
41.9298
45.0046
59.0541
39.3094
39.3397
39.4003
39.4912
39.6123
39.7634
39.9445
40.1567
40.4048
40.7041
41.0985
41.7181
42.92
45.5716
50.8173
39.8213
39.8515
39.9118
40.0022
40.1224
40.2719
40.4503
40.6582
40.8991
41.1842
41.5439
42.0584
42.9022
44.3359
46.2385
40.3112
40.3414
40.4016
40.4916
40.611
40.759
40.9344
41.1358
41.3619
41.611
41.8805
42.1691
42.4734
42.7736
42.9961
40.7792
40.8094
40.8696
40.9596
41.0787
41.2259
41.3991
41.5953
41.808
42.0224
42.2028
42.268
42.0461
41.2643
39.9235
41.2253
41.2555
41.316
41.4063
41.5258
41.6733
41.8467
42.0423
42.2519
42.4561
42.6038
42.5654
42.0064
40.142
35.9352
41.6492
41.6797
41.7406
41.8316
41.9522
42.1014
42.2776
42.4784
42.6989
42.9276
43.1329
43.2232
42.8719
40.6456
29.041
42.051
42.0818
42.1433
42.2354
42.3576
42.5094
42.6901
42.8997
43.1394
43.4141
43.7406
44.1869
45.0381
47.6608
59.4743
42.4303
42.4615
42.5238
42.6172
42.7413
42.8959
43.0813
43.2991
43.5547
43.8632
44.2639
44.8682
45.9729
48.2924
52.7567
42.787
42.8186
42.8818
42.9765
43.1025
43.2598
43.4487
43.6711
43.9325
44.2467
44.6448
45.2008
46.0629
47.4334
49.1553
43.1206
43.1527
43.2168
43.313
43.4409
43.6004
43.7915
44.0149
44.273
44.5704
44.9149
45.3199
45.7983
46.3292
46.766
43.4309
43.4635
43.5287
43.6263
43.7561
43.9178
44.1105
44.3335
44.5852
44.8601
45.1415
45.387
45.4961
45.2891
44.6962
43.7174
43.7506
43.8169
43.9162
44.0481
44.2121
44.4071
44.6312
44.8804
45.144
45.392
45.5478
45.4119
44.516
42.231
43.9799
44.0136
44.0811
44.1822
44.3166
44.4836
44.6821
44.9103
45.1647
45.4371
45.7052
45.9101
45.8541
44.7065
38.1952
44.2178
44.2522
44.321
44.4241
44.5612
44.7318
44.9351
45.17
45.4358
45.7318
46.0611
46.4524
47.0531
48.6208
55.3458
44.4307
44.4658
44.536
44.6412
44.7814
44.956
45.1647
45.4073
45.6849
46.0019
46.3728
46.8483
47.5792
48.9523
51.4915
44.6182
44.654
44.7256
44.8331
44.9763
45.1552
45.3694
45.6191
45.9058
46.2331
46.6106
47.0656
47.6581
48.4728
49.4173
44.7797
44.8162
44.8892
44.9989
45.1453
45.3283
45.548
45.8042
46.0976
46.4281
46.7933
47.1863
47.5812
47.9021
48.0158
44.9149
44.952
45.0263
45.1381
45.2875
45.4747
45.6997
45.9625
46.2627
46.5975
46.9554
47.3046
47.5542
47.4741
46.71
45.0231
45.0608
45.1363
45.2501
45.4023
45.5935
45.8237
46.0936
46.4029
46.7494
47.1222
47.491
47.7549
47.52
44.8903
45.104
45.1422
45.2188
45.3342
45.4889
45.6836
45.9189
46.1961
46.5166
46.8815
47.2905
47.7491
48.3007
49.2277
52.2584
45.1574
45.1959
45.2732
45.3898
45.5465
45.744
45.9837
46.2674
46.5985
46.9814
47.4231
47.9415
48.5844
49.4734
50.7511
45.1828
45.2215
45.2993
45.4166
45.5744
45.7738
46.0163
46.3047
46.6434
47.0391
47.5012
48.0463
48.6958
49.4479
50.148
45.1803
45.219
45.2967
45.4141
45.5722
45.7721
46.0157
46.306
46.648
47.0492
47.5202
48.0777
48.7344
49.4573
50.0481
45.1497
45.1882
45.2655
45.3824
45.5397
45.7387
45.9813
46.2703
46.6105
47.0093
47.478
48.039
48.7258
49.5572
50.3755
45.0914
45.1294
45.2058
45.3213
45.4769
45.6736
45.9132
46.1979
46.5315
46.9192
47.3705
47.9117
48.6153
49.665
51.2882
45.0055
45.0429
45.1179
45.2314
45.3842
45.5774
45.8123
46.0906
46.4139
46.7836
47.1993
47.6705
48.263
49.3735
53.345
44.8926
44.929
45.0023
45.1131
45.2622
45.4508
45.68
45.9507
46.2634
46.6143
46.9884
47.3441
47.5494
47.0941
43.487
44.7532
44.7886
44.8596
44.9669
45.1116
45.2946
45.5172
45.7807
46.0855
46.4275
46.789
47.121
47.2933
47.0024
45.8306
44.5883
44.6222
44.6905
44.7938
44.933
45.1095
45.3247
45.581
45.8809
46.2255
46.6087
47.0077
47.3573
47.5212
47.3772
44.3986
44.431
44.4961
44.5946
44.7274
44.896
45.1023
45.3498
45.6444
45.9954
46.4162
46.9277
47.549
48.2527
48.8405
44.1853
44.2159
44.2774
44.3704
44.4958
44.6548
44.8498
45.0848
45.3679
45.7153
46.1593
46.7704
47.6821
49.0635
50.7288
43.9498
43.9784
44.0358
44.1226
44.2395
44.3874
44.5682
44.7852
45.046
45.3666
45.7852
46.4033
47.4877
49.6759
53.7902
43.6932
43.7197
43.7728
43.8529
43.9604
44.0958
44.2599
44.4542
44.6816
44.9485
45.2712
45.7112
46.5253
48.9495
59.7254
43.4172
43.4414
43.49
43.563
43.6606
43.7829
43.9293
44.099
44.289
44.4902
44.6744
44.7584
44.4435
42.4223
31.8614
43.1234
43.1453
43.1891
43.2549
43.3426
43.4518
43.5813
43.7287
43.8879
44.0422
44.1459
44.0816
43.5453
41.8242
37.9786
42.8132
42.8328
42.8719
42.9306
43.0085
43.1052
43.2194
43.349
43.4894
43.628
43.733
43.7315
43.4685
42.7006
41.4412
42.4884
42.5057
42.5402
42.5918
42.6602
42.745
42.8454
42.9609
43.0912
43.2357
43.3928
43.5619
43.741
43.9173
44.0452
42.1505
42.1656
42.1955
42.2402
42.2994
42.3726
42.4596
42.5615
42.6823
42.8332
43.043
43.3845
44.0142
45.1667
46.7538
41.8012
41.814
41.8396
41.8776
41.9277
41.9893
42.0622
42.1479
42.2516
42.3886
42.6005
43.006
43.9229
46.1131
50.5806
41.4419
41.4527
41.474
41.5056
41.5467
41.5967
41.6547
41.7207
41.797
41.8904
42.0225
42.2714
42.9461
45.477
57.5255
41.0741
41.0829
41.1003
41.1258
41.1585
41.1972
41.2402
41.2855
41.3297
41.3641
41.3621
41.2401
40.6791
38.2303
26.2091
40.6991
40.7062
40.72
40.74
40.765
40.7933
40.8228
40.85
40.8684
40.8617
40.7838
40.5126
39.7218
37.6301
33.2039
40.3181
40.3237
40.3346
40.3497
40.368
40.3874
40.4056
40.4195
40.4239
40.4072
40.3386
40.1452
39.6667
38.6502
37.1403
39.9323
39.9367
39.945
39.9563
39.969
39.981
39.9902
39.9945
39.9934
39.9875
39.979
39.9747
39.9839
40.012
40.0431
39.5423
39.5459
39.5525
39.5609
39.5693
39.5754
39.5768
39.5724
39.5654
39.5683
39.6154
39.7938
40.2869
41.3707
42.9826
39.1489
39.1521
39.1578
39.1646
39.1702
39.1717
39.166
39.1512
39.1298
39.1169
39.1595
39.3935
40.1785
42.3616
47.0566
38.7522
38.7555
38.7613
38.768
38.7728
38.7718
38.7604
38.7334
38.6876
38.6257
38.5695
38.6095
39.0979
41.6072
54.4058
38.3523
38.3563
38.3634
38.3717
38.3782
38.378
38.3643
38.3278
38.2559
38.1293
37.9115
37.5134
36.6125
33.7066
20.638
37.9486
37.9539
37.9636
37.9758
37.9872
37.9923
37.9827
37.9458
37.8615
37.6949
37.3777
36.7654
35.5184
32.8624
27.8289
37.5402
37.5475
37.5611
37.5795
37.5994
37.6155
37.6189
37.5958
37.5236
37.3637
37.0476
36.4575
35.4016
33.6685
31.5386
37.1259
37.1356
37.1545
37.1813
37.2133
37.2462
37.2722
37.2789
37.2459
37.1398
36.9069
36.4721
35.7538
34.7493
33.7835
36.7039
36.7165
36.7415
36.7783
36.8256
36.8805
36.9378
36.9886
37.0182
37.0025
36.9052
36.6828
36.3036
35.8023
35.3719
36.2722
36.2878
36.3194
36.3672
36.4315
36.5118
36.6066
36.7121
36.8212
36.9207
36.9893
37.0015
36.9371
36.8052
36.6754
35.8287
35.8472
35.8851
35.9437
36.0252
36.132
36.2668
36.4323
36.6301
36.8591
37.1116
37.3725
37.6161
37.8058
37.9029
35.3714
35.3923
35.4354
35.5034
35.6002
35.7314
35.9045
36.129
36.4167
36.78
37.2269
37.7547
38.3315
38.8696
39.212
34.8986
34.9211
34.9677
35.0422
35.1503
35.3007
35.5053
35.7809
36.1502
36.6416
37.285
38.1019
39.0725
40.0682
40.773
34.4094
34.4322
34.4797
34.5566
34.6702
34.8311
35.0556
35.3668
35.7982
36.3964
37.2214
38.3416
39.7947
41.4677
42.8376
33.9036
33.9251
33.9705
34.0448
34.156
34.3164
34.5445
34.8682
35.3296
35.9924
36.9517
38.3491
40.3631
43.0768
45.8673
33.3819
33.4006
33.4405
33.5064
33.6066
33.7534
33.966
34.2732
34.7207
35.3812
36.3768
37.9276
40.4441
44.6315
50.8487
32.8462
32.8606
32.8915
32.9434
33.0238
33.1438
33.3205
33.58
33.9631
34.5362
35.4151
36.8344
39.3636
44.7755
60.1613
-185.963
-137.806
-120.623
-112.376
-107.559
-104.418
-102.237
-100.669
-99.5174
-98.664
-98.0328
-97.5742
-97.2548
-97.0528
-96.955
-157.232
-137.649
-124.263
-116.004
-110.711
-107.135
-104.615
-102.785
-101.433
-100.426
-99.6766
-99.1301
-98.7481
-98.5058
-98.3883
-142.117
-133.187
-124.34
-117.571
-112.669
-109.119
-106.512
-104.57
-103.109
-102.006
-101.179
-100.571
-100.143
-99.8713
-99.739
-133.218
-128.666
-122.974
-117.841
-113.686
-110.446
-107.946
-106.019
-104.534
-103.394
-102.528
-101.885
-101.43
-101.139
-100.997
-127.496
-124.935
-121.218
-117.431
-114.067
-111.259
-108.98
-107.16
-105.719
-104.591
-103.72
-103.067
-102.601
-102.302
-102.155
-123.569
-122.007
-119.508
-116.725
-114.062
-111.701
-109.696
-108.036
-106.686
-105.607
-104.761
-104.119
-103.657
-103.358
-103.211
-120.742
-119.727
-117.995
-115.936
-113.844
-111.896
-110.171
-108.696
-107.464
-106.459
-105.659
-105.044
-104.597
-104.307
-104.164
-118.636
-117.944
-116.709
-115.167
-113.527
-111.934
-110.473
-109.185
-108.084
-107.168
-106.427
-105.851
-105.429
-105.153
-105.016
-117.027
-116.538
-115.634
-114.465
-113.175
-111.878
-110.652
-109.544
-108.575
-107.754
-107.08
-106.55
-106.158
-105.901
-105.773
-115.773
-115.418
-114.744
-113.846
-112.826
-111.772
-110.75
-109.804
-108.962
-108.235
-107.631
-107.151
-106.794
-106.557
-106.439
-114.781
-114.519
-114.007
-113.31
-112.5
-111.643
-110.794
-109.992
-109.266
-108.631
-108.096
-107.667
-107.345
-107.13
-107.023
-113.988
-113.791
-113.398
-112.852
-112.205
-111.507
-110.803
-110.127
-109.506
-108.955
-108.486
-108.106
-107.819
-107.628
-107.531
-113.348
-113.199
-112.893
-112.462
-111.943
-111.375
-110.791
-110.224
-109.695
-109.221
-108.813
-108.48
-108.227
-108.057
-107.972
-112.827
-112.714
-112.475
-112.133
-111.715
-111.251
-110.768
-110.293
-109.845
-109.439
-109.087
-108.798
-108.577
-108.427
-108.352
-112.401
-112.315
-112.128
-111.855
-111.517
-111.138
-110.739
-110.342
-109.964
-109.619
-109.317
-109.067
-108.875
-108.745
-108.679
-112.051
-111.986
-111.839
-111.62
-111.347
-111.037
-110.708
-110.377
-110.059
-109.767
-109.509
-109.295
-109.129
-109.017
-108.96
-111.761
-111.714
-111.598
-111.423
-111.202
-110.949
-110.677
-110.402
-110.136
-109.889
-109.67
-109.487
-109.345
-109.249
-109.2
-111.522
-111.487
-111.396
-111.257
-111.078
-110.871
-110.648
-110.42
-110.197
-109.99
-109.805
-109.65
-109.529
-109.447
-109.405
-111.322
-111.298
-111.228
-111.117
-110.973
-110.804
-110.621
-110.432
-110.247
-110.074
-109.919
-109.788
-109.685
-109.615
-109.58
-111.155
-111.14
-111.086
-110.998
-110.883
-110.746
-110.596
-110.441
-110.288
-110.144
-110.014
-109.904
-109.818
-109.759
-109.729
-111.015
-111.007
-110.967
-110.898
-110.806
-110.696
-110.574
-110.447
-110.322
-110.202
-110.095
-110.003
-109.931
-109.882
-109.857
-110.898
-110.895
-110.866
-110.813
-110.741
-110.653
-110.555
-110.452
-110.349
-110.252
-110.163
-110.087
-110.027
-109.986
-109.965
-110.798
-110.8
-110.78
-110.741
-110.685
-110.616
-110.538
-110.455
-110.372
-110.293
-110.221
-110.159
-110.11
-110.076
-110.059
-110.713
-110.719
-110.707
-110.679
-110.637
-110.584
-110.523
-110.458
-110.392
-110.328
-110.27
-110.22
-110.18
-110.153
-110.139
-110.64
-110.65
-110.644
-110.626
-110.596
-110.556
-110.51
-110.459
-110.408
-110.359
-110.313
-110.273
-110.241
-110.219
-110.208
-110.577
-110.589
-110.59
-110.579
-110.559
-110.532
-110.498
-110.461
-110.423
-110.385
-110.35
-110.319
-110.295
-110.278
-110.269
-110.521
-110.536
-110.541
-110.538
-110.528
-110.51
-110.488
-110.462
-110.435
-110.408
-110.382
-110.36
-110.342
-110.329
-110.322