/*--------------------------------*- C++ -*----------------------------------*\
| =========                 |                                                 |
| \\      /  F ield         | OpenFOAM: The Open Source CFD Toolbox           |
|  \\    /   O peration     | Version:  5.x                                   |
|   \\  /    A nd           | Web:      www.OpenFOAM.org                      |
|    \\/     M anipulation  |                                                 |
\*---------------------------------------------------------------------------*/
FoamFile
{
    version     2.0;
    format      ascii;
    class       volScalarField;
    location    "0.8";
    object      gradTx;
}
// * * * * * * * * * * * * * * * * * * * * * * * * * * * * * * * * * * * * * //

dimensions      [0 -1 0 1 0 0 0];

internalField   nonuniform List<scalar> 
6300
(
19993.2
19937
19824.5
19655
19427.8
19142
18797
18392.2
17927.8
17404.6
16824.6
16191.1
15509.3
14785.8
14029
20047.5
19991.6
19879.7
19710.9
19484.5
19199.5
18855
18450.2
17985
17459.8
16876.4
16238.1
15549.6
14817.7
14051.2
20155.8
20100.6
19989.8
19822.7
19598.1
19314.9
18971.6
18567
18100.4
17571.6
16981.8
16333.7
15631.8
14883.1
14096.7
20317.4
20263.3
20154.5
19990.1
19768.7
19488.6
19147.7
18744.3
18276.4
17742.9
17144
16481.5
15759.4
14984.7
14167.4
20531.4
20478.8
20372.9
20212.6
19996.2
19721.1
19384.8
18984.2
18516.2
17978.1
17368.4
16687.3
15938.1
15127.5
14266.7
20796.2
20745.7
20644
20489.6
20280.3
20013.2
19684.5
19289.8
18824.3
18283.2
17662.5
16959.9
16176.8
15319.3
14399.8
21109.5
21061.9
20965.8
20819.6
20620.6
20365.1
20048.4
19664.5
19206.4
18666.4
18036.7
17311.5
16488.3
15571.6
14575
21468.6
21424.7
21335.9
21200.5
21015.4
20776.3
20477.6
20111.6
19668.7
19137.4
18505
17759.4
16891.8
15902.3
14805
21869.7
21830.4
21750.8
21629.1
21462.2
21245.4
20972.3
20633.7
20217.5
19707.7
19085
18327.5
17415.7
16339.5
15110.2
22308.2
22274.3
22205.8
22101
21956.8
21768.9
21530.5
21231.6
20858
20389.3
19797.8
19048.5
18102.4
16928.5
15525.4
22778.5
22750.9
22695.3
22610.2
22493.3
22341
22147.1
21902.4
21591.8
21191.9
20666.8
19964.4
19015.4
17745.2
16113
23274.2
23253.6
23212.1
23149.1
23063.2
22952.4
22812.7
22637
22412.9
22117.7
21711.4
21125.2
20247.7
18922.2
16996.4
23788.5
23775.1
23748.4
23708.6
23656
23590.7
23512.1
23418.2
23303
23152.5
22933.9
22575.5
21926.2
20697.7
18449.1
24314.1
24307.7
24295.6
24278.9
24259.4
24240.1
24224.8
24218.4
24226.5
24253.3
24294.3
24314.4
24182.1
23491.5
21171.3
24843.8
24844
24845.2
24849.6
24860.5
24883.4
24926.4
25001.9
25129.2
25337.8
25673.5
26203.3
26994.3
27912.7
27290.6
13315.1
12655.3
11992.3
11332.4
10681.9
10046.1
9430.05
8837.82
8272.76
7737.39
7233.49
6762.14
6323.86
5918.62
5546.01
5205.28
4895.39
4615.14
4363.12
4137.83
3937.63
3760.79
3605.5
3469.85
3351.87
3249.53
3160.73
3083.39
3015.43
2954.87
2899.86
2848.72
2799.99
2752.43
2705
2656.87
2607.32
2555.72
2501.5
2444.13
2383.08
2317.91
2248.22
2173.76
2094.36
2009.97
1920.63
1826.4
1727.33
1623.37
1514.39
1400.08
1280.01
1153.62
1020.26
879.228
729.805
571.264
402.887
223.939
33.6426
-168.864
-384.569
-614.618
-860.333
-1123.21
-1404.93
-1707.26
-2032.11
-2381.39
-2757.02
-3160.86
-3594.71
-4060.23
-4558.96
-5092.25
-5661.26
-6266.86
-6909.56
-7589.39
-8305.81
-9057.51
-9842.35
-10657.2
-11497.8
-12359
-13234.5
-14117.3
-14999.5
-15873.1
13327.6
12658.6
11986.6
11318.1
10659.6
10016.8
9394.87
8797.91
8229.26
7691.38
7185.95
6713.93
6275.69
5871.1
5499.61
5160.36
4852.27
4574.04
4324.24
4101.31
3903.61
3729.41
3576.86
3444.08
3329.05
3229.71
3143.94
3069.57
3004.48
2946.6
2894.01
2844.98
2798.04
2751.96
2705.76
2658.66
2610.01
2559.24
2505.81
2449.17
2388.79
2324.17
2254.88
2180.65
2101.32
2016.9
1927.47
1833.19
1734.17
1630.45
1521.9
1408.23
1288.97
1163.53
1031.2
891.221
742.852
585.363
418.057
240.246
51.2109
-149.854
-363.889
-592.013
-835.543
-1096
-1375.1
-1674.7
-1996.74
-2343.23
-2716.13
-3117.38
-3548.78
-4012.05
-4508.76
-5040.35
-5608.05
-6212.86
-6855.44
-7536.02
-8254.23
-9008.98
-9798.25
-10619
-11467.1
-12337.3
-13222.9
-14116.7
-15010.5
-15895.7
13353.2
12665.4
11974.6
11288.4
10613.7
9956.7
9322.86
8716.44
8140.71
7597.97
7089.66
6616.48
6178.52
5775.37
5406.25
5070.12
4765.7
4491.58
4246.24
4028.08
3835.41
3666.48
3519.45
3392.41
3283.32
3190.06
3110.42
3042.12
2982.86
2930.43
2882.74
2837.97
2794.58
2751.4
2707.55
2662.41
2615.49
2566.34
2514.48
2459.36
2400.37
2336.9
2268.45
2194.67
2115.43
2030.82
1941.1
1846.61
1747.63
1644.32
1536.63
1424.27
1306.71
1183.24
1053.03
915.205
768.952
613.532
448.303
272.683
86.0851
-112.165
-322.9
-547.176
-786.305
-1041.86
-1315.65
-1609.66
-1926
-2266.82
-2634.2
-3030.18
-3456.63
-3915.34
-4407.95
-4935.99
-5500.9
-6103.9
-6745.99
-7427.78
-8149.31
-8909.9
-9707.91
-10540.6
-11403.7
-12292
-13198.4
-14115
-15032.6
-15941.8
13392.6
12675.2
11955.1
11241.1
10541.2
9862.39
9210.52
8589.97
8003.89
7454.27
6942.13
6467.72
6030.65
5630.1
5264.92
4933.73
4635.05
4367.26
4128.72
3917.76
3732.66
3571.67
3432.94
3314.56
3214.48
3130.5
3060.29
3001.35
2951.14
2907.14
2867
2828.67
2790.55
2751.53
2710.95
2668.47
2623.92
2577.09
2527.6
2474.88
2418.15
2356.59
2289.47
2216.32
2137.04
2051.89
1961.42
1866.3
1767.13
1664.32
1557.92
1447.65
1332.83
1212.54
1085.7
951.232
808.167
655.755
493.457
320.892
137.717
-56.4969
-262.392
-480.911
-713.352
-961.374
-1226.96
-1512.33
-1819.86
-2151.93
-2510.87
-2898.81
-3317.73
-3769.45
-4255.69
-4778.11
-5338.38
-5938.1
-6578.77
-7261.61
-7987.39
-8756.12
-9566.81
-10417.1
-11303.2
-12219.4
-13158.1
-14110.3
-15065.6
-16012.4
13447.4
12687.6
11925.7
11172.4
10437.3
9728.44
9052.22
8413.06
7813.81
7255.89
6739.64
6264.58
5829.64
5433.38
5074.14
4750.11
4459.47
4200.4
3971.11
3769.84
3594.86
3444.45
3316.8
3210.05
3122.15
3050.84
2993.62
2947.72
2910.19
2878.02
2848.37
2818.81
2787.56
2753.65
2716.8
2677.25
2635.37
2591.4
2545.14
2495.92
2442.65
2384.04
2318.92
2246.57
2166.88
2080.42
1988.25
1891.62
1791.71
1689.29
1584.64
1477.41
1366.68
1251.14
1129.25
999.528
860.752
712.137
553.338
384.334
205.22
15.9831
-183.693
-394.566
-617.911
-855.523
-1109.67
-1382.96
-1678.2
-1998.19
-2345.54
-2722.58
-3131.31
-3573.52
-4050.93
-4565.3
-5118.55
-5712.79
-6350.22
-7032.97
-7762.89
-8541.12
-9367.75
-10241.3
-11158.3
-12113.1
-13097.3
-14100.2
-15109.1
-16110
13519.8
12702
11882.9
11076.5
10294.5
9546.67
8839.7
8177.93
7563.48
6996.82
6477.2
6003.07
5572.38
5182.87
4832.17
4517.96
4238.03
3990.28
3772.78
3583.71
3421.37
3284.11
3170.27
3078.09
3005.63
2950.6
2910.36
2881.75
2861.24
2845
2829.34
2811.09
2788.14
2759.72
2726.28
2689.1
2649.59
2608.74
2566.69
2522.54
2474.58
2420.61
2358.57
2287.16
2206.26
2116.96
2021.27
1921.48
1819.69
1717.32
1614.92
1512.03
1407.32
1298.74
1183.97
1060.75
927.408
783.102
627.849
462.285
287.266
103.481
-88.8631
-290.237
-501.878
-725.8
-964.715
-1221.86
-1500.75
-1804.86
-2137.25
-2500.45
-2896.38
-3326.59
-3792.58
-4296.08
-4839.25
-5424.78
-6055.81
-6735.79
-7468.11
-8255.66
-9100.26
-10001.9
-10958.2
-11963.3
-13008.2
-14080
-15162.7
-16238.1
13613.3
12716.9
11821
10944.2
10101.8
9305.14
8561.33
7873.92
7243.67
6669.38
6148.67
5678.43
5255.32
4875.97
4537.2
4236.05
3969.85
3736.24
3533.15
3358.75
3211.43
3089.74
2992.24
2917.47
2863.7
2828.81
2810.05
2803.86
2805.84
2810.9
2813.76
2809.86
2796.33
2772.74
2740.9
2704.04
2665.48
2627.58
2590.98
2554.41
2514.93
2468.56
2411.46
2341.18
2257.48
2162.51
2059.98
1954.03
1848.31
1745.23
1645.73
1549.14
1453.35
1355.14
1250.7
1136.43
1009.75
869.741
717.138
553.793
381.897
203.283
18.965
-171.105
-368.123
-574.434
-793.431
-1029.35
-1286.89
-1570.62
-1884.42
-2230.98
-2611.83
-3027.84
-3479.88
-3969.34
-4498.5
-5070.74
-5690.39
-6362.64
-7093.11
-7887.31
-8749.78
-9683.06
-10686.5
-11755.2
-12879.2
-14042.8
-15225.2
-16401.9
13733.1
12730
11730.7
10761.4
9842.32
8986.65
8200.98
7486.92
6842.62
6264.24
5746.89
5285.4
4874.73
4510.2
4187.64
3903.41
3654.37
3437.92
3251.87
3094.48
2964.31
2860.22
2781.22
2726.31
2694.32
2683.53
2691.37
2713.95
2745.76
2779.68
2807.65
2822.21
2818.77
2797.35
2762.49
2721.15
2680.17
2644.26
2614.95
2590.25
2564.93
2531.69
2483.12
2414.26
2324.71
2218.74
2103.38
1986.07
1872.92
1767.82
1672.17
1584.92
1502.73
1420.37
1331.47
1229.84
1111.17
974.42
821.813
657.551
486.153
311.267
135.061
-41.9599
-220.963
-404.753
-597.715
-805.628
-1035.17
-1292.97
-1584.26
-1911.91
-2276.39
-2676.96
-3112.99
-3585.05
-4095.35
-4647.95
-5248.71
-5905.07
-6625.71
-7419.92
-8296.52
-9262.25
-10319.9
-11466.6
-12692
-13977.3
-15294.8
-16609.6
13887.5
12736.3
11596
10505.2
9490.69
8566.51
7736.75
6998.73
6346.04
5770.64
5264.17
4818.73
4427.26
4083.59
3782.52
3519.71
3291.64
3095.48
2929.05
2790.71
2679.37
2594.32
2535.23
2501.91
2494.14
2511.18
2551.21
2610.48
2682.37
2756.77
2820.57
2860.23
2866.81
2841.04
2793.13
2737.49
2687.28
2651.17
2632.05
2626.69
2626.07
2616.66
2583.74
2516.88
2415.35
2288.26
2149.37
2011.9
1885.73
1776.6
1686.35
1613.25
1552.19
1494.85
1430.43
1347.66
1238.52
1101.82
943.181
771.508
595.373
421.106
252.303
90.0294
-66.9019
-221.839
-380.421
-550.691
-742.695
-966.955
-1231.62
-1539.63
-1888.8
-2274.75
-2693.96
-3145.36
-3630.9
-4155.42
-4726.51
-5354.39
-6051.75
-6833.24
-7714.18
-8708.21
-9824.2
-11063.4
-12417.2
-13864
-15366.8
-16873.8
14089.6
12725.9
11388.9
10138.3
9008.07
8009.64
7139.66
6386.98
5737.55
5177.2
4693.03
4273.91
3910.52
3595.25
3321.93
3085.68
2882.66
2709.96
2565.48
2447.83
2356.3
2290.81
2251.87
2240.51
2257.99
2305.48
2383.1
2488.58
2615.1
2748.88
2867.99
2945.59
2961.18
2916.34
2834.63
2745.75
2673.82
2633.36
2629.06
2656.05
2699.58
2735.23
2732.98
2669.15
2542.55
2374.54
2193.09
2021.27
1873.8
1758.01
1675.65
1624.06
1596.13
1579.39
1555.64
1503.3
1405.44
1260.67
1083.21
891.801
701.835
523.022
360.106
214.301
84.2801
-33.6667
-146.275
-264.418
-403.71
-582.678
-816.455
-1107.97
-1448.06
-1824.46
-2228.31
-2656.26
-3110.01
-3595.45
-4122.11
-4703.2
-5356.13
-6102.72
-6968.27
-7977.79
-9150.12
-10494.3
-12007.5
-13669
-15431.1
-17214.6
14361.7
12676
11056.4
9597.15
8334.83
7267.13
6373.09
5626.05
5000.31
4473.63
4027.83
3648.44
3324.15
3046.15
2807.66
2603.49
2429.74
2283.56
2163.04
2067.11
1995.51
1948.84
1928.62
1937.33
1978.44
2056.16
2174.65
2336.15
2537.12
2761.85
2974.92
3119.95
3142.28
3044.43
2886.19
2729.32
2614.78
2563.23
2580.74
2661.32
2784.19
2908.08
2970.61
2911.55
2729.11
2479.92
2222.71
1995.34
1816.08
1691.1
1620.46
1600.64
1623.76
1673.88
1721.83
1724.35
1639.73
1466.48
1243.21
1009.91
792.156
601.986
443.225
315.819
218.06
146.813
95.8477
52.3239
-7.56518
-119.434
-318.079
-606.278
-954.923
-1334.46
-1727.79
-2129.76
-2543.2
-2975.81
-3438.95
-3948.17
-4525.13
-5200.38
-6014.43
-7012.21
-8227.76
-9680.82
-11383.2
-13327.9
-15463.1
-17665.4
14744.5
12529.8
10491.8
8771.63
7380.61
6273.87
5394.17
4689.9
4119.94
3653.19
3266.62
2943.31
2670.8
2439.88
2243.72
2077.27
1936.89
1820
1725
1651.15
1598.62
1568.61
1563.51
1587.32
1645.99
1747.93
1904.07
2126.67
2424.69
2791.36
3179.53
3470.7
3496.15
3259.19
2935.51
2651.68
2464.77
2393.38
2441.37
2605.39
2867.07
3168.98
3383.01
3331.3
3011.5
2596.61
2209.13
1899.94
1679.99
1545.75
1491.91
1515.21
1612.37
1771.3
1953.25
2070.68
2001.49
1744.13
1417.5
1105.54
842.667
635.645
481.135
374.602
313.632
298.065
327.235
392.616
463.42
468.764
309.277
-17.4964
-417.224
-824.478
-1214.66
-1586.57
-1948.57
-2311.95
-2689.16
-3095.22
-3552.22
-4097.73
-4795.47
-5732.47
-6962.65
-8507.47
-10408.8
-12711.3
-15397.2
-18285.3
15319.5
12128
9468.74
7471.29
6016.29
4953.12
4162.17
3559.95
3090.59
2716.94
2414.01
2164.76
1957.33
1783.32
1636.76
1513.34
1410.03
1324.77
1256.34
1204.33
1169.18
1152.34
1156.65
1186.95
1251.09
1361.5
1537.59
1808.41
2213.14
2789.66
3523.52
4203.76
4227.57
3598.52
2927.14
2434.23
2148.15
2051.41
2134.66
2408.55
2891.72
3556.08
4177.75
4136.75
3430.52
2673.53
2082.57
1675.86
1420.27
1284.48
1252.14
1323.27
1511.84
1835.36
2277.38
2685.53
2633.99
2121.36
1570.52
1130.34
812.665
593.618
449.904
367.73
343.784
384.859
506.437
725.054
1028.61
1294.26
1177.48
676.332
131.34
-339.023
-727.734
-1057.52
-1351.8
-1627.97
-1897.59
-2168.68
-2451.55
-2775.55
-3231.58
-4030.05
-5243.85
-6819.93
-8855.95
-11541.4
-15038.9
-19188.6
16265.2
10958.5
7491.8
5389.25
4087.21
3239.94
2658.01
2238.35
1923.16
1678.59
1483.89
1325.8
1195.53
1087.09
996.327
920.317
857.039
805.157
763.922
733.144
713.256
705.492
712.247
737.758
789.421
880.357
1034.55
1297.15
1754
2561.14
3944.41
5881.65
5898.73
3998.48
2661.47
1918.74
1558.66
1450.06
1553.19
1910.11
2655.18
4004.26
5926.31
5899.68
3922.28
2511.08
1690.5
1233.96
987.908
874.116
863.22
962.055
1216.84
1728.58
2650.05
3962.04
3930.15
2553.4
1564.03
978.598
640.552
443.043
330.005
276.965
280.269
355.686
545.847
935.099
1648.28
2670.33
2599.06
1433.21
572.418
28.8766
-325.597
-579.52
-780.987
-953.296
-1103.74
-1225
-1291.47
-1263.04
-1174.36
-1729.27
-3002.95
-4469.48
-6367.04
-9201.25
-13739.7
-20615.7
17988.2
7138.43
3549.86
2153.98
1502.89
1144.37
919.926
766.102
653.869
568.291
500.928
446.651
402.175
365.309
334.555
308.876
287.56
270.144
256.375
246.202
239.807
237.678
240.77
250.836
271.127
308.04
375.322
506.061
790.26
1502.73
3567.23
10324
10330.3
3587.02
1539.77
852.045
606.898
543.676
606.089
852.544
1548.6
3626.93
10480.4
10471.1
3598.29
1497.86
774.045
488.812
364.989
315.486
316.197
376.171
551.711
1031.58
2460.09
7173.29
7162.49
2427.32
975.684
470.522
265.996
170.78
123.672
105.035
112.878
161.242
298.51
678.594
1822.99
5620.53
5596.57
1750.67
556.587
124.511
-68.2311
-177.009
-252.1
-310.032
-351.835
-360.126
-267.971
162.762
1809.63
1606.57
-484.114
-1498
-2528.81
-4406.22
-9073.25
-23100.8
-16813.4
-17805.2
-18748.4
-19632.8
-20450.3
-21195.3
-21864.2
-22455.2
-22968.1
-23403.6
-23763
-24047.9
-24259.9
-24400.4
-24470.4
-16848.2
-17852.1
-18805.5
-19697.8
-20521
-21269.5
-21940
-22531.3
-23043.4
-23477.5
-23835.3
-24118.5
-24329.2
-24468.6
-24538.1
-16919.3
-17947.9
-18922
-19830.2
-20664.5
-21419.6
-22093.1
-22684.4
-23194.6
-23625.7
-23979.9
-24259.7
-24467.3
-24604.7
-24673
-17029.5
-18096.7
-19102.5
-20034.7
-20885.1
-21649.4
-22326.2
-22916.6
-23422.9
-23848.5
-24196.6
-24470.7
-24673.6
-24807.5
-24874.1
-17183.5
-18305.1
-19354.9
-20319.1
-21190
-21964.6
-22643.7
-23230.6
-23729.8
-24146.3
-24485.2
-24750.7
-24946.5
-25075.4
-25139.4
-17388.7
-18583.7
-19690.9
-20695
-21589.3
-22373.3
-23051.4
-23630.1
-24117.1
-24519.7
-24844.8
-25098
-25283.9
-25406
-25466.4
-17656.6
-18948.5
-20128.2
-21179
-22096.7
-22886
-23556.3
-24119.3
-24586.5
-24968.4
-25273.9
-25510.3
-25682.9
-25795.8
-25851.6
-18005.2
-19423.9
-20692.4
-21794
-22730.6
-23515.4
-24166.4
-24702
-25138.9
-25491.1
-25769.9
-25983.8
-26139.1
-26240.3
-26290.2
-18462.8
-20047.8
-21421.7
-22572
-23514.2
-24276.5
-24889.6
-25381.2
-25773.7
-26085
-26328.4
-26513.5
-26647.1
-26733.7
-26776.4
-19077
-20881
-22372.4
-23556
-24475.5
-25184.6
-25732.1
-26156.8
-26487.3
-26744.5
-26942.8
-27092.3
-27199.4
-27268.7
-27302.7
-19932.8
-22024.9
-23628.9
-24801.9
-25644.9
-26252
-26695.1
-27024
-27271.8
-27460.4
-27603.7
-27710.8
-27787.1
-27836.3
-27860.4
-21194.8
-23654.9
-25314.1
-26375.6
-27047.9
-27481.1
-27769.7
-27969.6
-28113.1
-28219.1
-28298.4
-28357.4
-28399.4
-28426.5
-28439.8
-23223.2
-26083.4
-27594.9
-28335.8
-28687.5
-28852.4
-28930.5
-28968.9
-28989.3
-29001.8
-29011
-29018.2
-29023.9
-29027.8
-29029.8
-26930.9
-29858.2
-30643.8
-30682.6
-30510.9
-30308.1
-30128.5
-29983.3
-29870.6
-29785.5
-29722.8
-29678
-29647.4
-29628.3
-29619.2
-35076.7
-35771.8
-34436.7
-33237.3
-32362.2
-31738.2
-31289.2
-30962.1
-30721.4
-30544
-30414.1
-30320.8
-30256.5
-30216.1
-30196.6
25327.2
25332.5
25344.1
25364.7
25398.5
25452.6
25537.6
25670.7
25880
26213.1
26757.9
27693.2
29453.3
33375.2
44757.5
25761.5
25770.5
25789.8
25822.1
25872
25946.9
26058.3
26224.4
26474.9
26860.3
27470.6
28473.2
30185.9
33158
37689.7
26187.9
26199.8
26224.9
26265.6
26326.5
26414.3
26539.4
26717.7
26974.4
27349.6
27909.3
28758.5
30041.9
31855.8
33792.6
26604.5
26618.4
26647.3
26693.5
26760.6
26854.1
26981.9
27155.1
27389.8
27709
28145.4
28740.3
29527.6
30466.4
31264.2
27009.7
27024.9
27056.2
27105.2
27174.8
27268.5
27391.1
27548
27744.8
27985.4
28269.7
28586.6
28906.3
29173
29313.9
27402.6
27418.5
27450.9
27501
27570.4
27661.2
27774.9
27911.6
28067.4
28229.9
28369.6
28429.3
28319.9
27965.3
27485.5
27782.8
27799
27831.7
27881.6
27949.6
28036.2
28140.9
28260.1
28383.7
28488.3
28523.4
28387.8
27901.9
26842.8
25348.2
28150
28166.2
28198.7
28247.9
28314.1
28397
28495.2
28603.7
28711.4
28793.3
28794
28587.6
27880.3
26021.2
22197.4
28504.3
28520.3
28552.4
28600.7
28665.2
28745.6
28840.4
28946.1
29055.2
29152.8
29206.7
29133.7
28656.7
26562.5
16415.7
28845.6
28861.4
28892.9
28940.3
29003.5
29082.4
29176.3
29284.2
29405.1
29541
29705.5
29958.4
30554.6
32694.1
42816.7
29174.2
29189.7
29220.7
29267.2
29329.2
29407
29500.7
29611.4
29742.8
29907.4
30141.1
30543.1
31378.7
33280
37069.1
29490.2
29505.4
29535.8
29581.3
29642.2
29718.7
29811.5
29922.3
30055.6
30224.1
30457.8
30824.7
31460.7
32552.8
33979
29793.8
29808.7
29838.4
29883
29942.6
30017.4
30108
30215.5
30342.1
30493.7
30680.1
30917.6
31224.1
31591.5
31905.8
30085.2
30099.8
30128.8
30172.4
30230.5
30303.3
30390.9
30493.3
30609.6
30737.1
30865
30960.7
30943.3
30665
30077.4
30364.7
30378.9
30407.3
30449.7
30506.3
30577
30661.7
30759.4
30867.3
30978.3
31070.2
31080.5
30841.6
29951.5
27867.7
30632.3
30646.2
30673.9
30715.3
30770.5
30839.3
30921.5
31016.3
31121.2
31230.9
31330
31371.6
31190.1
30065.2
24237.9
30888.5
30902
30929.1
30969.5
31023.2
31090.3
31170.7
31264
31369.7
31488.9
31627.7
31815.6
32191.9
33442.5
39296.1
31133.3
31146.5
31172.9
31212.3
31264.8
31330.3
31409.1
31501
31606.9
31731.5
31889.2
32126.9
32584.4
33621.3
35739.4
31367
31379.9
31405.6
31444.1
31495.3
31559.3
31636.2
31726.1
31829.4
31949
32093.1
32283.5
32572.5
33047
33681.5
31589.8
31602.4
31627.5
31665
31715
31777.5
31852.5
31939.7
32038.4
32147.7
32262.8
32369.7
32429.8
32359.6
32092.5
31801.9
31814.2
31838.7
31875.3
31924.1
31985
32058.2
32143.1
32238.2
32340.2
32436.1
32486.4
32375.4
31806.7
30346.4
32003.5
32015.5
32039.4
32075.1
32122.7
32182.2
32253.8
32337.1
32431.4
32534.8
32638.9
32713
32636.9
31871.2
27614.5
32194.7
32206.4
32229.7
32264.6
32311
32369.1
32439.1
32521.3
32616.3
32726.9
32860.5
33042.1
33375.1
34357.8
38718.5
32375.8
32387.3
32410
32444
32489.2
32545.8
32614.1
32694.4
32788.3
32901.1
33046.6
33263.8
33660
34496.6
36116.4
32547
32558.2
32580.3
32613.4
32657.4
32712.4
32778.5
32855.8
32945.2
33050.4
33180.7
33359.2
33637.1
34089.1
34668.4
32708.5
32719.3
32740.9
32773.2
32816
32869.4
32933.1
33006.6
33089.2
33180.3
33279
33383.6
33491
33591.1
33652
32860.3
32870.9
32892
32923.5
32965.3
33017.2
33078.7
33148.8
33225.1
33302.9
33371.1
33403.9
33347.9
33118
32707.4
33002.7
33013.1
33033.8
33064.6
33105.5
33156.2
33216.4
33284.6
33357.8
33430.1
33485.5
33483.8
33323.4
32768.4
31507.1
33135.8
33146
33166.3
33196.6
33236.8
33286.8
33346.4
33414.5
33489.2
33566.9
33637.5
33671.9
33570.9
32907.1
29460.5
33259.8
33269.8
33289.7
33319.5
33359.2
33408.7
33468.2
33537.5
33616.5
33706.6
33812.3
33951.9
34206.9
34976.3
38444.2
33374.7
33384.5
33404.1
33433.5
33472.6
33521.7
33581.2
33651.5
33734
33833.4
33961.4
34149.6
34483.6
35169.2
36472.3
33480.7
33490.3
33509.6
33538.5
33577
33625.5
33684.5
33754.7
33837.6
33938.2
34066.3
34244
34513.9
34930.9
35435.5
33577.8
33587.3
33606.2
33634.5
33672.3
33720
33777.9
33846.6
33927
34021.6
34134.7
34272.1
34440
34629.7
34779.3
33666.3
33675.6
33694.1
33721.8
33758.8
33805.3
33861.8
33928.1
34004.2
34090.2
34183.8
34277
34348.5
34354.2
34257.4
33746.3
33755.3
33773.3
33800.4
33836.4
33881.8
33936.6
34000.4
34072.6
34151.4
34230.9
34294.9
34300.6
34147.8
33698.6
33817.8
33826.6
33844.2
33870.4
33905.6
33949.7
34002.8
34064.6
34134.2
34209.8
34286.6
34351
34360.4
34145.1
32858.3
33881.1
33889.6
33906.7
33932.2
33966.3
34009.2
34060.9
34121.2
34189.4
34265.3
34348.7
34443.2
34574.2
34884.2
36185
33936.4
33944.6
33961.1
33985.8
34018.8
34060.5
34110.9
34169.8
34237.1
34313.3
34400.8
34507.7
34661.4
34932.9
35416.1
33983.8
33991.7
34007.5
34031.3
34063.3
34103.6
34152.7
34210.3
34276.3
34351.4
34437
34537.6
34664.5
34832.4
35013.8
34023.5
34031.1
34046.2
34069
34099.7
34138.7
34186.3
34242.6
34307.1
34380
34460.5
34547
34636.7
34720.2
34768.5
34055.9
34063
34077.3
34099
34128.2
34165.7
34211.8
34266.7
34330
34401.2
34477.4
34551.9
34611
34630.1
34588
34081.2
34087.8
34101.1
34121.4
34149
34184.6
34229
34282.5
34345.2
34416.5
34493.1
34565.4
34610.7
34580.4
34409.3
34099.7
34105.8
34117.9
34136.5
34162
34195.3
34237.5
34289.6
34352.2
34426
34509.5
34595.3
34660.5
34626.1
34143.2
34112
34117.3
34128
34144.5
34167.4
34197.8
34237.1
34286.9
34349.1
34426.6
34522
34637.1
34777.2
34981
35532.1
34118.5
34122.9
34131.9
34145.9
34165.5
34192
34227.2
34273.1
34333.2
34412.5
34518.2
34659.2
34847.1
35092.1
35376.6
34119.8
34123.2
34130.2
34141.1
34156.6
34178.1
34207.5
34247.3
34301.6
34377.9
34487.4
34646.5
34874.8
35173.3
35450.7
34116.6
34118.9
34123.6
34130.9
34141.6
34156.8
34178.4
34208.8
34252.6
34318
34419.7
34583.2
34851.1
35266.3
35749.5
34109.8
34110.8
34112.9
34116.2
34121.3
34129
34140.9
34158.8
34186.3
34230.7
34306.4
34445.1
34722.5
35309.5
36415.8
34100.2
34099.9
34099.2
34098.1
34097
34096.4
34097
34099.7
34105.9
34119.4
34147
34208.3
34376.3
34989.4
37882.1
34088.9
34087.1
34083.5
34077.9
34070.4
34060.9
34049.5
34035.7
34018.5
33996
33961.8
33895
33718.5
33083.5
30139.2
34076.7
34073.6
34067.1
34057.1
34043.1
34024.8
34001.6
33971.8
33932.5
33878.5
33796.7
33655.5
33376.6
32778.9
31632
34064.8
34060.4
34051.2
34036.8
34016.7
33990.2
33956.1
33912.1
33854.7
33778.1
33670.6
33509.2
33253.5
32853.3
32358.7
34054.1
34048.4
34036.7
34018.5
33992.9
33959
33915.4
33859.5
33788.2
33697
33579.5
33426.1
33228.2
32990.8
32772.2
34045.3
34038.6
34024.8
34003.2
33973
33932.8
33881.1
33815.5
33733.3
33632.2
33510.9
33371.6
33228
33112.3
33063.7
34039.4
34031.9
34016.4
33992.1
33958
33912.7
33854.5
33780.9
33689.6
33579.5
33452.4
33318
33205.7
33184.4
33350.8
34036.9
34028.8
34012
33985.8
33949
33899.9
33836.7
33756.6
33657
33536.7
33397
33246.9
33117.9
33123.2
33782.2
34038.2
34029.7
34012.4
33985.1
33946.6
33895.3
33828.7
33743.8
33637
33505.5
33346.9
33159.2
32934.6
32605.4
31717.2
34043.6
34035.1
34017.7
33990.3
33951.5
33899.5
33831.6
33744.1
33632.4
33491.5
33315.1
33095.6
32822.5
32474.8
32040
34053.1
34045
34028.1
34001.6
33964
33913.2
33846.4
33759.5
33646.6
33500.6
33311.6
33067.8
32761.1
32404
32082.8
34066.7
34059.1
34043.5
34018.9
33983.9
33936.4
33873.6
33791
33682.2
33538
33344.5
33082.6
32733.7
32307.6
31923.8
34083.8
34077.2
34063.4
34041.7
34010.8
33968.7
33912.9
33839.1
33740.8
33608.1
33423.5
33156.5
32758.7
32181.1
31519
34103.9
34098.5
34087.2
34069.3
34043.7
34009.1
33963.2
33902.6
33822
33713
33558.3
33320.1
32907.6
32112.3
30674.9
34126.2
34122.2
34113.8
34100.5
34081.5
34055.8
34022.1
33978.2
33921.5
33848.1
33749.9
33603.4
33321
32488.3
28852.9
34149.7
34147.3
34142.2
34134.1
34122.4
34106.7
34086.4
34061.2
34031.2
33999.3
33973.6
33980.1
34115.5
34809.5
38336.5
34173.3
34172.7
34171.2
34168.6
34164.6
34159.3
34152.8
34145.9
34140.9
34144.8
34173.5
34266.2
34520.9
35162.5
36478.6
34195.9
34197.1
34199.3
34202.4
34206.3
34211.3
34218
34227.6
34243.2
34271.8
34327.6
34438.6
34656.5
35046.2
35553.9
34216.2
34219.2
34225.2
34234.1
34245.8
34260.8
34279.7
34303.7
34335.1
34378.8
34442
34535.7
34671.6
34846.8
35001.1
34232.9
34237.8
34247.6
34262.2
34281.6
34306.2
34336.4
34373
34417.3
34470.8
34534
34602.3
34658.3
34661.1
34574.5
34244.6
34251.5
34265.1
34285.4
34312.4
34346.2
34387.2
34435.6
34491.6
34554.7
34621
34676.4
34680.8
34536.4
34107
34250.2
34258.9
34276.4
34302.4
34336.9
34379.9
34431.5
34491.5
34559.6
34635.1
34714.2
34784.7
34805.4
34608.6
33360.5
34248.1
34258.9
34280.3
34312.1
34354.1
34406.3
34468.4
34540.1
34621.2
34711.6
34812
34926.4
35079.6
35409.7
36710.9
34237.1
34249.9
34275.3
34313.1
34362.9
34424.4
34497.2
34580.8
34674.8
34779.9
34898.7
35039.9
35229.7
35535.1
36041.1
34215.8
34230.7
34260.3
34304.2
34362.1
34433.2
34517
34612.6
34719.3
34837.2
34968.4
35118.2
35298.1
35519.4
35743.3
34182.7
34199.8
34233.8
34284.2
34350.5
34431.9
34527.3
34635.3
34754.5
34884
35023.6
35174.1
35336.1
35500.5
35621.6
34136.2
34155.7
34194.3
34251.7
34327.1
34419.4
34527.2
34648.6
34781.1
34922.3
35069.7
35220.6
35371
35510.2
35604.8
34074.7
34096.7
34140.4
34205.2
34290.4
34394.7
34516.3
34652.6
34800.1
34954.8
35111.9
35265.8
35412.2
35549.5
35674.4
33996.5
34021.2
34070.2
34143.1
34239
34356.5
34493.7
34647.3
34812.7
34984.3
35154.6
35314.9
35458.3
35595.9
35851.8
33899.8
33927.2
33981.9
34063.4
34171
34303.3
34458.2
34632.1
34819.5
35013.2
35202.7
35374.1
35506.8
35558.6
35374.7
33782.5
33812.9
33873.5
33964.2
34084.4
34233
34408.1
34605.9
34820.5
35043.3
35261.9
35458.6
35609.8
35683.1
35644.9
33642.6
33676
33742.7
33842.9
33976.5
34142.9
34340.6
34566.4
34814.2
35074.9
35334.5
35573.1
35765.3
35883.4
35910.5
33478.1
33514.4
33587.2
33697
33844.4
34029.6
34252.2
34509.8
34797.3
35105.8
35420.2
35718.1
35970.5
36145
36216.9
33286.9
33325.9
33404.4
33523.5
33684.5
33889
34138
34430.9
34764.4
35131
35515.5
35893.1
36228
36476.1
36595.2
33067.2
33108.5
33192
33319.3
33492.9
33716
33991.7
34322.1
34707
35142.1
35614
36096.2
36544.2
36894.9
37078.3
32817.4
32860.4
32947.6
33081.4
33265.6
33505.1
33805.9
34173.7
34613.3
35126
35703.7
36321.4
36926.1
37428.2
37710.7
32536.3
32580.1
32669.3
32807
32998.4
33250.4
33572
33973.8
34467.4
35063.1
35764
36553.9
37377.4
38112.3
38561.2
32223.3
32266.9
32355.8
32493.9
32687.6
32945.8
33280.8
33708.6
34249
34925.7
35760.7
36761.4
37888.5
38993.1
39745.5
31878.7
31920.6
32006.5
32140.8
32330.5
32586.5
32923.8
33363.4
33934.4
34676.7
35640.6
36879.5
38413.5
40116.8
41474.1
31503.6
31542.4
31622.2
31747.6
31926.1
32169.4
32494.3
32925.4
33499.5
34272.1
35327.8
36791
38819.1
41478.9
44167.1
31100.1
31134.3
31204.8
31316.1
31475.4
31694.2
31989.5
32386.6
32925
33669.6
34730.4
36308.5
38784.3
42819.2
48748.6
30671.4
30699.6
30757.7
30849.7
30982
31164.6
31412.5
31747.9
32206.1
32845.7
33772.2
35200.9
37664.9
42841.9
57469.4
-57896.4
-43050.5
-37786.3
-35278.9
-33826.2
-32886.1
-32239
-31777.3
-31440.8
-31193.3
-31011.8
-30880.9
-30790.3
-30733.2
-30705.6
-49024
-43010.8
-38914.5
-36400.4
-34798.9
-33724
-32971.7
-32429.3
-32030.9
-31735.8
-31518.1
-31360.2
-31250.3
-31180.8
-31147.1
-44357.7
-41637.1
-38941.4
-36885.6
-35403.6
-34335.9
-33556.4
-32979.2
-32547.1
-32222.8
-31980.9
-31804
-31680.2
-31601.5
-31563.3
-41611.5
-40243.5
-38521.5
-36970.1
-35718.1
-34745.6
-33998.7
-33425.9
-32986.4
-32650.5
-32396.5
-32208.9
-32076.6
-31992.1
-31950.9
-39846
-39093.1
-37980.6
-36844.3
-35836.1
-34996.4
-34317.9
-33777.7
-33351.7
-33019.3
-32764.1
-32573.3
-32437.6
-32350.5
-32307.9
-38634.4
-38190
-37453.8
-36627.2
-35834.8
-35133.2
-34538.7
-34047.9
-33649.9
-33332.5
-33084.8
-32897.4
-32762.9
-32675.9
-32633.2
-37762.5
-37487
-36987.4
-36384
-35768.1
-35193.4
-34685.4
-34251.5
-33889.8
-33595.3
-33361.6
-33182.6
-33052.8
-32968.5
-32926.9
-37112.9
-36937.1
-36590.8
-36147.1
-35670.3
-35205.2
-34778.4
-34402.4
-34081
-33813.8
-33598.4
-33431.3
-33309.1
-33229.2
-33189.6
-36616.5
-36503.4
-36259.5
-35930.8
-35561.9
-35188.3
-34834
-34513
-34232.2
-33994.4
-33799.6
-33646.7
-33533.9
-33459.6
-33422.7
-36229.9
-36158.1
-35984.9
-35739.9
-35454.5
-35155.7
-34864.2
-34593.4
-34351.5
-34142.9
-33969.7
-33832.1
-33729.7
-33661.9
-33628.1
-35924.3
-35881
-35757.9
-35574.9
-35354.1
-35116
-34877.7
-34651.5
-34445.4
-34264.8
-34112.8
-33990.9
-33899.4
-33838.4
-33807.9
-35679.9
-35656.8
-35570.3
-35433.8
-35263.2
-35074.3
-34880.7
-34693.2
-34519.3
-34364.7
-34233
-34126.2
-34045.6
-33991.5
-33964.4
-35482.8
-35474.5
-35415.1
-35314
-35182.8
-35033.6
-34877.3
-34723
-34577.6
-34446.5
-34333.6
-34241.3
-34171
-34123.7
-34099.8
-35322.7
-35325.5
-35286.5
-35212.7
-35112.7
-34995.6
-34870.2
-34744.3
-34623.8
-34513.7
-34417.9
-34338.9
-34278.3
-34237.3
-34216.6
-35191.9
-35203.1
-35179.9
-35127.5
-35052.2
-34961.1
-34861.4
-34759.5
-34660.4
-34568.8
-34488.3
-34421.4
-34369.8
-34334.7
-34316.9
-35084.6
-35102.3
-35091.4
-35055.8
-35000.3
-34930.4
-34852
-34770.2
-34689.6
-34614.1
-34547.1
-34491
-34447.5
-34417.7
-34402.6
-34996.4
-35019.1
-35017.9
-34995.6
-34956
-34903.4
-34842.6
-34777.9
-34713
-34651.4
-34596.2
-34549.7
-34513.4
-34488.4
-34475.7
-34923.5
-34950.3
-34956.8
-34945.2
-34918.5
-34880
-34833.8
-34783.3
-34731.7
-34682.1
-34637.2
-34599.1
-34569.1
-34548.4
-34537.8
-34863.4
-34893.3
-34906
-34903
-34886.7
-34859.9
-34825.7
-34787.2
-34746.8
-34707.4
-34671.4
-34640.5
-34616
-34599.1
-34590.4
-34813.7
-34846.2
-34863.8
-34867.8
-34860
-34842.7
-34818.5
-34789.9
-34759
-34728.3
-34699.8
-34675.1
-34655.5
-34641.8
-34634.7
-34772.6
-34807.2
-34828.8
-34838.4
-34837.6
-34828.1
-34812.2
-34791.8
-34768.9
-34745.5
-34723.4
-34704.1
-34688.5
-34677.6
-34671.9
-34738.8
-34775.1
-34799.9
-34814.1
-34818.9
-34815.8
-34806.6
-34793.2
-34776.9
-34759.6
-34742.9
-34728.1
-34716.1
-34707.5
-34703.1
-34711.1
-34748.8
-34776.1
-34794
-34803.4
-34805.5
-34801.9
-34794.1
-34783.3
-34771.1
-34759
-34748
-34738.9
-34732.4
-34729
-34688.6
-34727.3
-34756.7
-34777.6
-34790.7
-34797
-34797.9
-34794.8
-34788.5
-34780.5
-34772.1
-34764.3
-34757.7
-34752.8
-34750.2
-34670.4
-34710
-34741.1
-34764.3
-34780.3
-34790
-34794.6
-34795.2
-34792.6
-34788
-34782.7
-34777.5
-34772.9
-34769.4
-34767.6
-34656.1
-34696.3
-34728.7
-34753.8
-34772.1
-34784.4
-34791.9
-34795.4
-34795.7
-34793.9
-34791.1
-34788
-34785
-34782.7
-34781.4
-34645.1
-34685.8
-34719.2
-34745.6
-34765.7
-34780.1
-34789.7
-34795.6
-34798.1
-34798.5
-34797.6
-34796.1
-34794.4
-34793
-34792.1
-34637.2
-34678.2
-34712.3
-34739.7
-34761
-34776.8
-34788.1
-34795.5
-34799.8
-34801.7
-34802.3
-34802
-34801.4
-34800.6
-34800.1
-34632.1
-34673.3
-34707.7
-34735.7
-34757.8
-34774.5
-34786.8
-34795.4
-34800.7
-34803.8
-34805.4
-34806
-34806.1
-34805.8
-34805.6
-34629.5
-34670.8