/*--------------------------------*- C++ -*----------------------------------*\
| =========                 |                                                 |
| \\      /  F ield         | OpenFOAM: The Open Source CFD Toolbox           |
|  \\    /   O peration     | Version:  5.x                                   |
|   \\  /    A nd           | Web:      www.OpenFOAM.org                      |
|    \\/     M anipulation  |                                                 |
\*---------------------------------------------------------------------------*/
FoamFile
{
    version     2.0;
    format      ascii;
    class       volScalarField;
    location    "6.1";
    object      gradTx;
}
// * * * * * * * * * * * * * * * * * * * * * * * * * * * * * * * * * * * * * //

dimensions      [0 -1 0 1 0 0 0];

internalField   nonuniform List<scalar> 
6300
(
901.387
898.786
893.577
885.748
875.281
862.162
846.385
827.956
806.91
783.317
757.297
729.027
698.756
666.803
633.558
903.938
901.345
896.149
888.336
877.884
864.774
848.989
830.528
809.413
785.702
759.504
730.988
700.399
668.06
634.371
909.033
906.455
901.289
893.513
883.099
870.012
854.222
835.708
814.467
790.532
763.987
734.983
703.753
670.628
636.03
916.655
914.105
908.989
901.28
890.936
877.906
862.134
843.568
822.169
797.929
770.888
741.163
708.966
674.633
638.622
926.776
924.268
919.233
911.633
901.411
888.493
872.793
854.215
832.669
808.082
780.432
749.772
716.277
680.278
642.282
939.355
936.908
931.992
924.557
914.531
901.814
886.281
867.784
846.162
821.256
792.941
761.175
726.053
687.882
647.227
954.328
951.967
947.218
940.023
930.293
917.902
902.684
884.431
862.892
837.792
808.86
775.89
738.837
697.931
653.793
971.61
969.362
964.837
957.972
948.664
936.766
922.074
904.314
883.136
858.114
828.77
794.646
755.431
711.172
662.506
991.086
988.982
984.745
978.31
969.573
958.374
944.481
927.565
907.175
882.709
853.415
818.447
777.028
728.782
674.222
1012.61
1010.68
1006.8
1000.9
992.892
982.623
969.857
954.239
935.238
912.081
883.687
848.655
805.407
752.667
690.4
1036.01
1034.28
1030.81
1025.54
1018.42
1009.31
998.032
984.243
967.406
946.64
920.548
887.031
843.236
786.037
713.687
1061.08
1059.57
1056.55
1051.99
1045.87
1038.13
1028.66
1017.24
1003.45
986.472
964.785
935.635
894.422
834.518
749.345
1087.61
1086.32
1083.76
1079.94
1074.88
1068.62
1061.18
1052.55
1042.62
1030.96
1016.43
996.253
964.251
908.219
809.107
1115.36
1114.29
1112.18
1109.07
1105.04
1100.22
1094.82
1089.11
1083.46
1078.26
1073.68
1068.64
1058.06
1024.94
923.183
1144.12
1143.25
1141.54
1139.05
1135.92
1132.36
1128.71
1125.54
1123.77
1124.91
1131.31
1146.5
1174.33
1210.26
1183.65
602.355
573.666
544.986
516.598
488.774
461.764
435.789
411.034
387.652
365.76
345.444
326.757
309.73
294.368
280.661
268.581
258.087
249.129
241.644
235.562
230.802
227.272
224.873
223.493
223.01
223.292
224.198
225.584
227.302
229.208
231.166
233.055
234.766
236.211
237.316
238.02
238.273
238.029
237.245
235.879
233.893
231.253
227.938
223.94
219.266
213.939
207.993
201.469
194.41
186.848
178.809
170.301
161.32
151.85
141.865
131.333
120.224
108.508
96.1575
83.1481
69.4529
55.0406
39.8712
23.893
7.04098
-10.7641
-29.614
-49.6103
-70.8606
-93.4747
-117.56
-143.218
-170.542
-199.616
-230.511
-263.288
-297.991
-334.651
-373.276
-413.85
-456.325
-500.616
-546.591
-594.071
-642.818
-692.542
-742.899
-793.5
-843.921
-893.722
602.727
573.625
544.535
515.757
487.576
460.251
434.007
409.034
385.485
363.473
343.078
324.35
307.314
291.97
278.303
266.282
255.863
246.994
239.612
233.647
229.017
225.633
223.395
222.191
221.898
222.381
223.497
225.095
227.02
229.121
231.257
233.299
235.139
236.69
237.881
238.659
238.978
238.797
238.073
236.763
234.823
232.215
228.912
224.904
220.197
214.82
208.816
202.234
195.124
187.529
179.476
170.975
162.019
152.587
142.646
132.16
121.094
109.417
97.1039
84.1334
70.484
56.1299
41.0356
25.1522
8.41489
-9.25726
-27.9599
-47.8001
-68.8916
-91.3499
-115.287
-140.81
-168.013
-196.981
-227.789
-260.498
-295.158
-331.803
-370.45
-411.09
-453.687
-498.164
-544.398
-592.215
-641.379
-691.596
-742.511
-793.719
-844.775
-895.211
603.483
573.533
543.604
514.03
485.12
457.154
430.371
404.964
381.083
358.836
338.292
319.491
302.443
287.142
273.56
261.66
251.393
242.704
235.529
229.796
225.426
222.332
220.416
219.565
219.656
220.549
222.092
224.123
226.473
228.974
231.47
233.823
235.919
237.675
239.032
239.948
240.393
240.335
239.734
238.543
236.705
234.169
230.894
226.862
222.084
216.597
210.462
203.75
196.53
188.862
180.781
172.297
163.399
154.05
144.206
133.817
122.839
111.239
98.9944
86.094
72.5284
58.2843
43.3363
27.6416
11.1366
-6.26399
-24.6645
-44.1837
-64.9489
-87.0884
-110.725
-135.972
-162.93
-191.686
-222.316
-254.885
-289.449
-326.054
-364.731
-405.491
-448.317
-493.154
-539.898
-588.387
-638.391
-689.608
-741.663
-794.116
-846.475
-898.219
604.661
573.378
542.135
511.316
481.277
452.33
424.729
398.675
374.309
351.726
330.98
312.088
295.043
279.821
266.38
254.671
244.639
236.222
229.355
223.969
219.987
217.326
215.891
215.573
216.247
217.77
219.975
222.682
225.697
228.824
231.879
234.705
237.179
239.225
240.805
241.905
242.522
242.644
242.237
241.242
239.582
237.175
233.955
229.887
224.982
219.299
212.931
205.987
198.575
190.782
182.657
174.212
165.419
156.222
146.546
136.318
125.477
113.984
101.827
89.0099
75.5483
61.4512
46.7119
31.2985
15.1492
-1.82866
-19.7548
-38.7691
-59.0222
-80.6647
-103.837
-128.663
-155.249
-183.682
-214.037
-246.383
-280.786
-317.304
-355.994
-396.896
-440.029
-485.373
-532.858
-582.349
-633.626
-686.38
-740.207
-794.611
-849.022
-902.829
606.315
573.136
540.025
507.45
475.837
445.54
416.838
389.931
364.946
341.954
320.979
302.007
285.004
269.919
256.691
245.255
235.545
227.495
221.038
216.108
212.634
210.542
209.745
210.141
211.608
213.996
217.125
220.787
224.748
228.767
232.609
236.08
239.045
241.437
243.257
244.546
245.353
245.704
245.575
244.889
243.525
241.344
238.226
234.105
228.992
222.979
216.218
208.889
201.162
193.17
184.987
176.62
168.016
159.076
149.676
139.697
129.048
117.683
105.605
92.8522
79.4813
65.5416
51.0577
36.0156
20.3561
3.97426
-13.2751
-31.5667
-51.09
-72.0318
-94.5599
-118.813
-144.898
-172.897
-202.878
-234.908
-269.058
-305.41
-344.051
-385.068
-428.532
-474.482
-522.904
-573.706
-626.7
-681.573
-737.882
-795.054
-852.4
-909.162
608.532
572.763
537.11
502.172
468.473
436.429
406.339
378.395
352.693
329.261
308.074
289.075
272.189
257.329
244.407
233.341
224.049
216.461
210.511
206.138
203.282
201.883
201.871
203.158
205.632
209.143
213.498
218.45
223.708
228.951
233.862
238.176
241.723
244.461
246.462
247.869
248.831
249.443
249.703
249.501
248.633
246.852
243.933
239.742
234.289
227.727
220.315
212.355
204.123
195.827
187.574
179.362
171.091
162.586
153.635
144.037
133.645
122.405
110.35
97.5823
84.2311
70.4142
56.2066
41.6218
26.604
11.028
-5.29194
-22.5872
-41.1108
-61.109
-82.7923
-106.317
-131.782
-159.248
-188.758
-220.366
-254.145
-290.202
-328.669
-369.696
-413.433
-460.007
-509.493
-561.881
-617.036
-674.663
-734.28
-795.205
-856.578
-917.411
611.449
572.192
533.135
495.082
458.7
424.478
392.729
363.607
337.151
313.314
292
273.087
256.441
241.933
229.441
218.857
210.089
203.058
197.702
193.971
191.822
191.218
192.115
194.455
198.151
203.067
208.999
215.662
222.679
229.603
235.965
241.363
245.555
248.535
250.511
251.822
252.803
253.678
254.487
255.06
255.045
253.989
251.459
247.186
241.172
233.688
225.194
216.202
207.169
198.415
190.093
182.181
174.496
166.732
158.521
149.512
139.461
128.296
116.118
103.149
89.6494
75.8479
61.8975
47.8513
33.6559
19.1544
4.09772
-11.8356
-29.0041
-47.7547
-68.3675
-91.018
-115.776
-142.644
-171.608
-202.683
-235.938
-271.507
-309.582
-350.401
-394.227
-441.314
-491.878
-546.042
-603.78
-664.854
-728.757
-794.673
-861.489
-927.861
615.272
571.3
527.685
485.558
445.789
408.945
375.313
344.962
317.817
293.715
272.453
253.817
237.601
223.621
211.714
201.748
193.614
187.232
182.544
179.515
178.129
178.38
180.271
183.791
188.904
195.516
203.439
212.352
221.772
231.052
239.447
246.274
251.123
254.041
255.508
256.238
256.916
257.998
259.599
261.453
262.946
263.237
261.482
257.129
250.16
241.095
230.778
220.101
209.803
200.372
192.016
184.666
178.006
171.516
164.551
156.482
146.876
135.64
123.023
109.478
95.4993
81.494
67.7253
54.2952
41.1485
28.0813
14.7512
0.697164
-14.616
-31.7144
-51.0032
-72.6778
-96.7246
-123.013
-151.408
-181.848
-214.385
-249.188
-286.527
-326.76
-370.301
-417.592
-469.054
-525.029
-585.688
-650.937
-720.297
-792.808
-866.992
-940.942
620.333
569.862
520.066
472.611
428.643
388.767
353.152
321.684
294.085
270.012
249.11
231.047
215.529
202.309
191.182
181.989
174.608
168.957
164.988
162.686
162.067
163.174
166.07
170.824
177.491
186.068
196.442
208.304
221.058
233.762
245.177
254.02
259.462
261.623
261.555
260.719
260.435
261.558
264.335
268.355
272.566
275.42
275.234
270.83
262.155
250.295
236.872
223.444
211.18
200.776
192.481
186.149
181.267
176.977
172.163
165.658
156.634
144.97
131.257
116.429
101.384
86.7975
73.0644
60.3305
48.5265
37.3871
26.4485
15.045
2.34536
-12.5161
-30.1988
-50.9159
-74.438
-100.341
-128.252
-157.983
-189.559
-223.2
-259.289
-298.336
-340.956
-387.84
-439.708
-497.241
-560.958
-631.067
-707.262
-788.492
-872.789
-957.315
627.169
567.422
509.048
454.616
405.581
362.428
325.002
292.816
265.262
241.73
221.666
204.599
190.138
177.972
167.857
159.61
153.101
148.25
145.022
143.424
143.512
145.385
149.186
155.096
163.316
174.024
187.295
202.96
220.403
238.319
254.599
266.652
272.515
272.402
268.698
264.392
261.914
262.726
267.272
274.968
284.131
291.968
295.048
290.668
278.727
261.736
242.963
225.101
209.872
198.134
190.112
185.538
183.665
183.188
182.201
178.457
170.187
157.244
141.096
123.685
106.608
90.8689
76.9628
65.0257
54.9472
46.4038
38.816
31.2604
22.4218
10.7477
-5.02115
-25.1099
-48.7171
-74.7701
-102.469
-131.451
-161.745
-193.675
-227.776
-264.75
-305.453
-350.888
-402.183
-460.52
-526.993
-602.401
-686.939
-779.719
-878.215
-978.028
636.711
562.975
492.326
428.824
374.026
327.818
289.282
257.259
230.631
208.437
189.894
174.385
161.432
150.671
141.832
134.719
129.2
125.201
122.699
121.728
122.38
124.811
129.256
136.033
145.55
158.28
174.689
195.048
219.058
245.221
270.097
288.185
294.159
288.338
276.698
265.42
258.645
258.506
265.658
279.459
297.591
315.354
325.593
321.381
302.559
275.732
247.732
222.959
203.525
190.132
182.77
181.03
184.048
190.125
196.204
197.767
190.465
174.127
152.746
130.459
109.9
92.2979
78.0237
67.0428
59.1561
54.044
51.1373
49.3239
46.5825
39.9096
26.3797
5.76616
-19.4697
-46.8233
-74.8304
-103.02
-131.567
-161.014
-192.112
-225.779
-263.12
-305.479
-354.494
-412.06
-480.134
-560.555
-654.715
-762.677
-881.703
-1004.83
650.682
554.044
465.284
390.474
330.083
282.147
244.174
213.921
189.604
169.875
153.743
140.481
129.559
120.596
113.315
107.526
103.105
99.9872
98.1655
97.6897
98.6779
101.332
105.961
113.019
123.151
137.232
156.387
181.869
214.601
253.965
295.357
327.15
332.776
312.639
284.161
259.953
245.809
243.775
254.459
277.7
311.57
349.562
376.932
373.118
337.906
291.405
247.844
213.12
188.471
173.438
167.324
169.664
180.017
197.054
216.701
229.833
223.748
198.263
165.697
134.738
108.931
88.9326
74.3401
64.6031
59.3685
58.5078
61.8834
68.7236
76.4047
78.9463
67.982
43.3004
12.8303
-17.931
-46.9238
-74.0656
-100.086
-125.964
-152.737
-181.506
-213.543
-250.466
-294.473
-348.445
-415.471
-498.894
-602.582
-729.665
-879.236
-1040.89
672.593
533.737
418.128
331.343
268.183
222.112
187.933
162.023
141.958
126.127
113.451
103.197
94.8608
88.0907
82.6438
78.3563
75.1258
72.903
71.6887
71.5383
72.573
75.0024
79.1618
85.5754
95.0572
108.872
128.967
158.24
200.585
259.775
334.424
403.78
408.475
348.937
285.464
239.983
215.523
210.717
225.167
260.624
319.598
399.053
473.159
470.053
389.496
302.831
235.222
188.764
159.563
143.892
139.7
146.754
166.353
200.215
246.572
289.564
284.959
232.59
176.327
131.596
99.5911
77.7799
63.6625
55.6782
53.281
56.8702
67.6395
86.9112
113.626
137.43
129.337
89.1707
45.5513
8.41775
-21.6784
-46.7203
-68.805
-89.6168
-110.476
-132.517
-156.917
-185.237
-220.085
-266.01
-327.175
-408.025
-516.728
-664.237
-859.316
-1092.42
710.257
479.932
329.441
238.166
181.664
144.94
119.776
101.701
88.2066
77.827
69.6643
63.1475
57.9016
53.6753
50.2988
47.6605
45.6922
44.3627
43.6763
43.6765
44.4561
46.1781
49.1131
53.7086
60.7196
71.4631
88.3254
115.778
162.304
243.314
381.097
573.503
576.652
390.885
260.844
189.731
156.925
149.923
165.615
209.675
298.117
456.231
680.552
678.496
449.866
286.802
192.136
139.547
111.166
97.8103
95.8745
105.774
132.144
185.376
281.278
417.822
414.941
272.515
170.343
110.123
75.5697
55.5456
44.1514
38.7062
38.5716
44.8923
61.1503
94.3783
155.038
241.843
236.874
140.012
68.9327
24.6343
-3.7085
-23.6292
-39.3516
-53.1956
-66.5048
-80.1241
-94.6333
-110.594
-129.732
-161.609
-210.514
-277.027
-374.966
-530.274
-784.611
-1172.86
781.706
311.135
155.467
94.9024
66.655
51.1137
41.4044
34.7748
29.966
26.3308
23.5038
21.264
19.4712
18.033
16.8883
15.9974
15.3362
14.894
14.6732
14.6901
14.9798
15.6047
16.6708
18.3608
21.0043
25.2397
32.4297
45.8434
74.3614
145.085
349.096
1015.73
1016.84
352.569
151.353
84.3119
61.1592
56.4443
65.2067
94.8037
176.298
418.05
1213.9
1213.18
415.804
172.267
88.4482
55.4663
41.1296
35.2795
35.0034
41.0707
59.2469
109.086
257.451
746.834
745.852
254.461
103.945
51.6843
30.6236
20.8825
16.0725
14.0859
14.5654
18.6034
30.223
62.3412
158.795
478.404
476.728
153.725
53.748
17.8752
2.13501
-6.5816
-12.6001
-17.5408
-22.0823
-26.4435
-30.252
-31.3657
-21.0189
-32.6753
-68.4811
-100.76
-150.572
-253.677
-517.025
-1312.62
-947.194
-1003.48
-1056.91
-1106.92
-1153.09
-1195.11
-1232.79
-1266.06
-1294.9
-1319.38
-1339.56
-1355.56
-1367.46
-1375.34
-1379.26
-949.349
-1006.29
-1060.27
-1110.71
-1157.18
-1199.38
-1237.15
-1270.42
-1299.21
-1323.6
-1343.69
-1359.59
-1371.4
-1379.23
-1383.12
-953.729
-1012.02
-1067.12
-1118.43
-1165.49
-1208.03
-1245.94
-1279.2
-1307.87
-1332.07
-1351.94
-1367.64
-1379.28
-1386.98
-1390.81
-960.496
-1020.89
-1077.73
-1130.32
-1178.25
-1221.27
-1259.33
-1292.5
-1320.92
-1344.79
-1364.31
-1379.67
-1391.03
-1398.54
-1402.26
-969.91
-1033.28
-1092.51
-1146.84
-1195.86
-1239.41
-1277.55
-1310.48
-1338.47
-1361.81
-1380.78
-1395.63
-1406.59
-1413.8
-1417.37
-982.383
-1049.77
-1112.13
-1168.62
-1218.87
-1262.89
-1300.92
-1333.34
-1360.6
-1383.13
-1401.29
-1415.43
-1425.81
-1432.62
-1436
-998.543
-1071.24
-1137.56
-1196.57
-1248.06
-1292.29
-1329.82
-1361.31
-1387.41
-1408.73
-1425.76
-1438.93
-1448.54
-1454.82
-1457.93
-1019.37
-1099.05
-1170.23
-1231.99
-1284.45
-1328.35
-1364.71
-1394.59
-1418.93
-1438.54
-1454.03
-1465.91
-1474.52
-1480.13
-1482.9
-1046.43
-1135.29
-1212.27
-1276.66
-1329.32
-1371.87
-1406.02
-1433.34
-1455.13
-1472.38
-1485.85
-1496.07
-1503.44
-1508.21
-1510.56
-1082.34
-1183.38
-1266.85
-1332.99
-1384.27
-1423.71
-1454.08
-1477.56
-1495.8
-1509.95
-1520.84
-1529.02
-1534.88
-1538.65
-1540.51
-1131.82
-1248.98
-1338.68
-1404.12
-1450.97
-1484.57
-1508.96
-1526.96
-1540.47
-1550.71
-1558.46
-1564.22
-1568.31
-1570.95
-1572.24
-1204.08
-1341.98
-1434.73
-1493.75
-1530.87
-1554.55
-1570.14
-1580.79
-1588.35
-1593.88
-1597.98
-1601
-1603.14
-1604.51
-1605.19
-1319.45
-1480.07
-1564.42
-1605.24
-1624.12
-1632.56
-1636.18
-1637.64
-1638.2
-1638.41
-1638.51
-1638.59
-1638.65
-1638.71
-1638.73
-1529.71
-1694.34
-1737.58
-1738.58
-1727.75
-1715.31
-1704.29
-1695.32
-1688.31
-1682.97
-1678.99
-1676.1
-1674.1
-1672.85
-1672.24
-1991.71
-2029.94
-1952.9
-1883.64
-1832.91
-1796.57
-1770.26
-1750.95
-1736.67
-1726.09
-1718.29
-1712.64
-1708.73
-1706.26
-1705.06
1171.23
1170.5
1169.09
1167.07
1164.57
1161.84
1159.28
1157.59
1158.02
1162.78
1176.03
1206.24
1273.43
1437.4
1930.65
1196.33
1195.72
1194.53
1192.83
1190.74
1188.47
1186.41
1185.22
1186.1
1191.27
1204.86
1234.81
1296.26
1415.18
1607.01
1221.81
1221.29
1220.28
1218.81
1216.98
1214.92
1212.89
1211.36
1211.17
1213.86
1222.28
1241.46
1279.12
1342.27
1417.22
1247.6
1247.16
1246.29
1245.01
1243.33
1241.3
1238.99
1236.54
1234.19
1232.42
1232.18
1235.24
1244.24
1261.1
1280.15
1273.66
1273.29
1272.55
1271.43
1269.87
1267.81
1265.13
1261.59
1256.75
1249.87
1239.75
1224.83
1203.87
1178.35
1156.98
1299.92
1299.63
1299.04
1298.09
1296.71
1294.72
1291.83
1287.5
1280.69
1269.51
1250.6
1218.57
1166.61
1092.68
1019.63
1326.34
1326.14
1325.72
1325.02
1323.91
1322.2
1319.49
1315.09
1307.62
1294.46
1270.52
1226.11
1144.56
1006.34
832.234
1352.84
1352.75
1352.55
1352.16
1351.49
1350.31
1348.28
1344.75
1338.45
1326.85
1304.6
1259.41
1161.81
944.877
524.609
1379.36
1379.4
1379.45
1379.46
1379.35
1378.97
1378.08
1376.28
1372.89
1366.59
1354.57
1329.04
1261.88
1024.58
-74.1816
1405.81
1405.99
1406.33
1406.8
1407.35
1407.92
1408.45
1408.88
1409.3
1410.26
1413.86
1427.53
1480.07
1702.49
2790.54
1432.09
1432.41
1433.06
1434.02
1435.28
1436.86
1438.83
1441.43
1445.28
1452.03
1466.11
1498.98
1580.22
1779.19
2185.76
1458.09
1458.57
1459.53
1460.97
1462.93
1465.47
1468.74
1473.06
1479.17
1488.68
1505.25
1536.78
1598.57
1711.67
1864.09
1483.71
1484.34
1485.6
1487.51
1490.13
1493.53
1497.86
1503.41
1510.64
1520.36
1533.96
1553.5
1581.23
1616.77
1649.04
1508.85
1509.61
1511.16
1513.51
1516.72
1520.87
1526.09
1532.53
1540.31
1549.29
1558.48
1564.48
1558.4
1524.1
1457.17
1533.41
1534.3
1536.1
1538.85
1542.59
1547.42
1553.42
1560.68
1569.09
1578.01
1585.18
1583.79
1555.11
1454.02
1219.62
1557.29
1558.3
1560.33
1563.43
1567.65
1573.09
1579.83
1587.97
1597.46
1607.88
1617.75
1622
1602.04
1476.47
820.076
1580.42
1581.53
1583.77
1587.17
1591.82
1597.79
1605.21
1614.26
1625.11
1638.09
1654.17
1676.95
1722.27
1867.5
2533.64
1602.74
1603.93
1606.33
1610
1614.99
1621.42
1629.43
1639.24
1651.21
1666.09
1685.87
1716.2
1773.04
1896.72
2142.49
1624.17
1625.43
1627.97
1631.84
1637.11
1643.89
1652.33
1662.67
1675.23
1690.62
1710.2
1736.97
1777.34
1841.07
1922.87
1644.67
1645.98
1648.62
1652.64
1658.11
1665.14
1673.87
1684.5
1697.22
1712.2
1729.46
1748.22
1765.36
1772.8
1760.9
1664.21
1665.55
1668.26
1672.37
1677.97
1685.15
1694.04
1704.81
1717.56
1732.13
1747.61
1760.54
1760.06
1717.9
1591.52
1682.77
1684.12
1686.86
1691.01
1696.66
1703.9
1712.86
1723.71
1736.56
1751.36
1767.49
1782.09
1783.65
1721.43
1335.23
1700.33
1701.68
1704.41
1708.56
1714.18
1721.39
1730.32
1741.15
1754.13
1769.61
1788.37
1812.63
1851.46
1949.89
2358.13
1716.89
1718.23
1720.92
1725
1730.54
1737.63
1746.39
1757.04
1769.89
1785.53
1805.37
1832.97
1877.83
1963.13
2118.87
1732.47
1733.77
1736.4
1740.38
1745.76
1752.63
1761.1
1771.35
1783.65
1798.48
1816.92
1841.26
1876.06
1927.37
1988.65
1747.08
1748.34
1750.88
1754.71
1759.89
1766.46
1774.52
1784.17
1795.57
1808.85
1824.3
1842.23
1862.75
1884.62
1901.86
1760.77
1761.97
1764.39
1768.05
1772.97
1779.19
1786.77
1795.74
1806.1
1817.66
1829.9
1841.33
1848.45
1845.02
1827.93
1773.56
1774.7
1776.99
1780.45
1785.08
1790.92
1797.99
1806.29
1815.72
1825.93
1835.99
1843.35
1841.41
1814.85
1743.02
1785.5
1786.57
1788.72
1791.96
1796.29
1801.73
1808.3
1815.99
1824.73
1834.25
1843.9
1851.76
1851.39
1816.04
1609.12
1796.63
1797.63
1799.63
1802.64
1806.65
1811.69
1817.77
1824.91
1833.12
1842.41
1852.99
1865.83
1885.6
1936.31
2150.99
1807.02
1807.94
1809.79
1812.55
1816.24
1820.87
1826.45
1833.03
1840.69
1849.61
1860.45
1875
1898.27
1942.64
2024.26
1816.71
1817.56
1819.24
1821.76
1825.11
1829.31
1834.37
1840.34
1847.3
1855.43
1865.28
1878.05
1896.21
1923.05
1955.09
1825.77
1826.53
1828.04
1830.31
1833.33
1837.09
1841.61
1846.91
1853.02
1859.99
1868
1877.3
1888.07
1899.78
1909.06
1834.23
1834.91
1836.27
1838.29
1840.96
1844.29
1848.25
1852.85
1858.06
1863.77
1869.78
1875.45
1879.21
1878.12
1870.38
1842.17
1842.77
1843.96
1845.74
1848.08
1850.97
1854.39
1858.32
1862.68
1867.28
1871.73
1874.86
1873.65
1861.01
1827.21
1849.63
1850.16
1851.19
1852.73
1854.75
1857.22
1860.12
1863.42
1867.05
1870.85
1874.52
1877.21
1875.98
1858.52
1761.47
1856.68
1857.13
1858.01
1859.32
1861.03
1863.1
1865.52
1868.25
1871.24
1874.44
1877.94
1882.21
1889.51
1911.23
2009.53
1863.36
1863.73
1864.48
1865.57
1866.99
1868.69
1870.65
1872.83
1875.2
1877.76
1880.77
1885.03
1892.97
1910.7
1946.41
1869.71
1870.03
1870.64
1871.54
1872.68
1874.04
1875.56
1877.22
1878.95
1880.72
1882.67
1885.23
1889.56
1897.61
1908.98
1875.8
1876.05
1876.55
1877.26
1878.16
1879.2
1880.33
1881.49
1882.6
1883.5
1884.07
1884.14
1883.52
1882.14
1880.32
1881.65
1881.85
1882.24
1882.79
1883.47
1884.23
1885.02
1885.76
1886.31
1886.45
1885.76
1883.45
1877.93
1866.93
1851.26
1887.31
1887.47
1887.76
1888.17
1888.66
1889.19
1889.69
1890.09
1890.25
1889.9
1888.53
1884.94
1876.08
1854.91
1812.18
1892.81
1892.92
1893.14
1893.43
1893.76
1894.09
1894.37
1894.54
1894.48
1893.99
1892.78
1890
1882.73
1857.78
1744.3
1898.18
1898.25
1898.4
1898.59
1898.79
1898.97
1899.08
1899.09
1898.92
1898.54
1898.06
1898.12
1901.6
1922.07
2031.37
1903.43
1903.48
1903.57
1903.68
1903.78
1903.83
1903.81
1903.7
1903.45
1903.09
1902.9
1903.8
1908.6
1924.61
1962.29
1908.6
1908.62
1908.67
1908.71
1908.72
1908.68
1908.56
1908.34
1907.98
1907.47
1906.93
1906.7
1907.77
1912.05
1920.21
1913.69
1913.7
1913.71
1913.7
1913.64
1913.53
1913.33
1913.02
1912.55
1911.82
1910.67
1908.64
1904.64
1896.74
1884.64
1918.73
1918.72
1918.7
1918.65
1918.54
1918.37
1918.11
1917.75
1917.23
1916.41
1914.97
1911.88
1904.17
1884.29
1841.49
1923.72
1923.7
1923.65
1923.57
1923.43
1923.22
1922.92
1922.54
1922.05
1921.37
1920.35
1918.26
1912.1
1887.7
1769.45
1928.67
1928.64
1928.58
1928.47
1928.3
1928.06
1927.74
1927.35
1926.93
1926.52
1926.4
1927.42
1932.65
1956.2
2073.15
1933.58
1933.55
1933.47
1933.35
1933.16
1932.89
1932.55
1932.14
1931.72
1931.4
1931.63
1933.58
1940.42
1959.79
2001.84
1938.47
1938.43
1938.35
1938.21
1938
1937.72
1937.35
1936.89
1936.38
1935.86
1935.6
1936.28
1939.42
1947.58
1960.53
1943.33
1943.29
1943.2
1943.06
1942.85
1942.55
1942.15
1941.64
1940.97
1940.08
1938.86
1937.2
1934.9
1931.97
1929.02
1948.16
1948.12
1948.04
1947.9
1947.69
1947.39
1946.98
1946.43
1945.66
1944.46
1942.39
1938.49
1930.77
1916.33
1896.24
1952.98
1952.94
1952.86
1952.72
1952.52
1952.24
1951.85
1951.34
1950.59
1949.38
1947.14
1942.39
1931.24
1904.55
1850.31
1957.76
1957.73
1957.66
1957.54
1957.36
1957.11
1956.77
1956.35
1955.78
1954.96
1953.58
1950.67
1942.46
1911.84
1767.5
1962.52
1962.5
1962.44
1962.34
1962.18
1961.97
1961.7
1961.4
1961.09
1960.86
1961.03
1962.56
1969.19
1998.04
2140.33
1967.25
1967.23
1967.19
1967.11
1966.99
1966.82
1966.61
1966.41
1966.29
1966.45
1967.47
1970.86
1980.45
2005.4
2057.62
1971.94
1971.93
1971.91
1971.86
1971.77
1971.64
1971.47
1971.31
1971.22
1971.37
1972.23
1974.78
1981.01
1993.78
2011.93
1976.59
1976.59
1976.59
1976.57
1976.52
1976.42
1976.28
1976.1
1975.92
1975.76
1975.77
1976.1
1976.96
1978.38
1979.59
1981.19
1981.2
1981.23
1981.25
1981.24
1981.19
1981.06
1980.86
1980.54
1979.99
1979.02
1977
1972.49
1963.07
1948.83
1985.72
1985.76
1985.82
1985.89
1985.94
1985.94
1985.85
1985.65
1985.24
1984.47
1982.95
1979.58
1971.37
1951.06
1908.91
1990.18
1990.24
1990.35
1990.49
1990.62
1990.7
1990.68
1990.52
1990.14
1989.42
1988.11
1985.47
1978.61
1954.16
1840.47
1994.54
1994.64
1994.81
1995.04
1995.27
1995.46
1995.56
1995.5
1995.23
1994.72
1994.14
1994.24
1998.01
2019.18
2129.87
1998.79
1998.93
1999.18
1999.52
1999.9
2000.25
2000.49
2000.57
2000.42
2000.02
1999.66
2000.4
2005.3
2021.98
2060.82
2002.9
2003.09
2003.44
2003.93
2004.49
2005.04
2005.5
2005.76
2005.71
2005.23
2004.37
2003.61
2004.35
2009.33
2019.46
2006.83
2007.08
2007.56
2008.23
2009.02
2009.84
2010.59
2011.13
2011.25
2010.65
2008.97
2005.73
2000.41
1993.06
1985.88
2010.53
2010.86
2011.49
2012.39
2013.47
2014.64
2015.79
2016.74
2017.22
2016.77
2014.62
2009.23
1997.82
1976.64
1948.03
2013.96
2014.38
2015.19
2016.36
2017.79
2019.41
2021.08
2022.62
2023.77
2024.02
2022.45
2016.88
2001.95
1965.32
1891.05
2017.05
2017.57
2018.6
2020.08
2021.94
2024.08
2026.4
2028.73
2030.87
2032.49
2033.01
2030.96
2021.12
1980.1
1783.21
2019.72
2020.37
2021.64
2023.48
2025.83
2028.59
2031.66
2034.93
2038.29
2041.67
2045.32
2050.4
2061.87
2103.08
2298.85
2021.9
2022.68
2024.22
2026.47
2029.37
2032.82
2036.74
2041.02
2045.62
2050.61
2056.58
2065.33
2081.93
2118.68
2191.71
2023.48
2024.42
2026.26
2028.97
2032.47
2036.68
2041.51
2046.84
2052.61
2058.83
2065.86
2074.77
2087.95
2109.02
2136.02
2024.37
2025.47
2027.64
2030.85
2035.02
2040.06
2045.87
2052.31
2059.23
2066.43
2073.78
2081.17
2088.44
2095.2
2099.83
2024.45
2025.73
2028.26
2032.01
2036.91
2042.86
2049.75
2057.41
2065.59
2073.88
2081.64
2087.58
2089.24
2082.79
2067.61
2023.59
2025.06
2027.98
2032.31
2038
2044.95
2053.04
2062.09
2071.8
2081.65
2090.69
2096.92
2095.62
2076.4
2025.59
2021.66
2023.33
2026.66
2031.62
2038.15
2046.19
2055.62
2066.27
2077.86
2089.92
2101.66
2111.41
2114.4
2091.88
1949.04
2018.53
2020.41
2024.16
2029.77
2037.21
2046.41
2057.31
2069.75
2083.53
2098.35
2113.96
2130.55
2150.83
2190.85
2342.41
2014.04
2016.13
2020.32
2026.6
2034.97
2045.41
2057.87
2072.25
2088.42
2106.18
2125.52
2147.08
2173.5
2212.32
2273.44
2008.05
2010.35
2014.97
2021.93
2031.24
2042.95
2057.04
2073.47
2092.14
2112.85
2135.49
2160.16
2187.5
2218.23
2247.68
2000.42
2002.92
2007.94
2015.55
2025.8
2038.77
2054.53
2073.09
2094.37
2118.13
2144
2171.34
2199.08
2224.97
2243.14
1991
1993.67
1999.07
2007.28
2018.41
2032.61
2050.03
2070.77
2094.81
2121.9
2151.43
2182.16
2211.9
2237.01
2252
1979.67
1982.49
1988.2
1996.92
2008.83
2024.16
2043.17
2066.1
2093.07
2123.91
2157.96
2193.62
2227.88
2256.03
2272.02
1966.34
1969.26
1975.19
1984.3
1996.82
2013.1
2033.54
2058.58
2088.58
2123.65
2163.32
2205.98
2248.05
2283.42
2303.92
1950.92
1953.89
1959.93
1969.24
1982.14
1999.09
2020.67
2047.56
2080.52
2120.13
2166.56
2218.69
2272.82
2321.07
2350.82
1933.4
1936.34
1942.33
1951.62
1964.6
1981.82
2004.05
2032.29
2067.76
2111.83
2165.78
2229.94
2301.63
2371.5
2419.15
1913.8
1916.62
1922.4
1931.4
1944.06
1961.02
1983.22
2011.95
2048.96
2096.6
2157.87
2235.88
2331.64
2437.3
2521.33
1892.19
1894.81
1900.17
1908.57
1920.46
1936.53
1957.81
1985.81
2022.72
2071.86
2138.28
2229.44
2354.73
2518.05
2682.63
1868.71
1871.03
1875.8
1883.28
1893.91
1908.37
1927.7
1953.42
1987.93
2035.06
2101.45
2199.23
2351.35
2597.85
2958.98
1843.58
1845.51
1849.49
1855.73
1864.64
1876.79
1893.09
1914.89
1944.3
1984.82
2042.78
2131.22
2282.37
2597.97
3486.87
-3287.43
-2443.16
-2143.05
-1999.56
-1916.05
-1861.77
-1824.22
-1797.28
-1777.55
-1762.99
-1752.26
-1744.48
-1739.06
-1735.64
-1733.98
-2783.55
-2440.85
-2207.07
-2063.22
-1971.28
-1909.36
-1865.84
-1834.32
-1811.08
-1793.82
-1781.03
-1771.71
-1765.2
-1761.08
-1759.07
-2518.55
-2362.81
-2208.57
-2090.76
-2005.61
-1944.11
-1899.05
-1865.55
-1840.41
-1821.49
-1807.33
-1796.93
-1789.63
-1784.98
-1782.72
-2362.58
-2283.64
-2184.7
-2095.54
-2023.47
-1967.37
-1924.17
-1890.93
-1865.37
-1845.79
-1830.94
-1819.93
-1812.15
-1807.17
-1804.74
-2262.31
-2218.3
-2153.98
-2088.39
-2030.16
-1981.61
-1942.29
-1910.91
-1886.12
-1866.74
-1851.82
-1840.64
-1832.66
-1827.54
-1825.02
-2193.49
-2167.01
-2124.05
-2076.05
-2030.08
-1989.38
-1954.83
-1926.26
-1903.05
-1884.53
-1870.04
-1859.05
-1851.14
-1846.02
-1843.51
-2143.97
-2127.08
-2097.56
-2062.23
-2026.28
-1992.79
-1963.16
-1937.82
-1916.68
-1899.46
-1885.77
-1875.25
-1867.61
-1862.64
-1860.19
-2107.07
-2095.84
-2075.03
-2048.77
-2020.72
-1993.46
-1968.44
-1946.39
-1927.54
-1911.87
-1899.22
-1889.38
-1882.18
-1877.46
-1875.12
-2078.88
-2071.2
-2056.2
-2036.47
-2014.56
-1992.49
-1971.59
-1952.67
-1936.13
-1922.13
-1910.65
-1901.62
-1894.95
-1890.56
-1888.37
-2056.91
-2051.58
-2040.6
-2025.63
-2008.46
-1990.63
-1973.31
-1957.24
-1942.91
-1930.57
-1920.32
-1912.16
-1906.08
-1902.06
-1900.05
-2039.54
-2035.83
-2027.69
-2016.24
-2002.74
-1988.37
-1974.07
-1960.53
-1948.24
-1937.5
-1928.45
-1921.19
-1915.73
-1912.09
-1910.28
-2025.64
-2023.08
-2017.02
-2008.21
-1997.57
-1985.99
-1974.24
-1962.9
-1952.44
-1943.18
-1935.29
-1928.89
-1924.05
-1920.81
-1919.18
-2014.42
-2012.7
-2008.18
-2001.39
-1992.99
-1983.67
-1974.03
-1964.59
-1955.76
-1947.84
-1941.02
-1935.45
-1931.2
-1928.34
-1926.9
-2005.3
-2004.21
-2000.86
-1995.62
-1988.99
-1981.5
-1973.63
-1965.8
-1958.39
-1951.66
-1945.82
-1941.01
-1937.32
-1934.83
-1933.57
-1997.83
-1997.22
-1994.77
-1990.75
-1985.53
-1979.52
-1973.12
-1966.66
-1960.47
-1954.81
-1949.85
-1945.72
-1942.55
-1940.39
-1939.3
-1991.69
-1991.45
-1989.7
-1986.64
-1982.55
-1977.76
-1972.57
-1967.27
-1962.14
-1957.4
-1953.22
-1949.72
-1947
-1945.15
-1944.22
-1986.62
-1986.67
-1985.47
-1983.18
-1980
-1976.21
-1972.03
-1967.71
-1963.48
-1959.54
-1956.04
-1953.09
-1950.79
-1949.22
-1948.42
-1982.41
-1982.7
-1981.94
-1980.26
-1977.83
-1974.85
-1971.51
-1968.02
-1964.56
-1961.32
-1958.41
-1955.95
-1954.02
-1952.7
-1952.02
-1978.91
-1979.38
-1978.98
-1977.8
-1975.98
-1973.67
-1971.04
-1968.24
-1965.44
-1962.79
-1960.4
-1958.36
-1956.76
-1955.65
-1955.09
-1975.98
-1976.61
-1976.5
-1975.73
-1974.4
-1972.65
-1970.61
-1968.39
-1966.15
-1964.02
-1962.07
-1960.41
-1959.09
-1958.18
-1957.71
-1973.53
-1974.27
-1974.4
-1973.97
-1973.06
-1971.77
-1970.22
-1968.5
-1966.74
-1965.04
-1963.49
-1962.14
-1961.07
-1960.33
-1959.95
-1971.46
-1972.31
-1972.63
-1972.48
-1971.91
-1971.02
-1969.88
-1968.58
-1967.23
-1965.91
-1964.68
-1963.62
-1962.76
-1962.17
-1961.86
-1969.71
-1970.64
-1971.13
-1971.2
-1970.92
-1970.36
-1969.58
-1968.64
-1967.63
-1966.64
-1965.7
-1964.88
-1964.21
-1963.74
-1963.5
-1968.21
-1969.21
-1969.84
-1970.11
-1970.08
-1969.8
-1969.31
-1968.68
-1967.97
-1967.26
-1966.57
-1965.96
-1965.46
-1965.1
-1964.92
-1966.93
-1967.99
-1968.73
-1969.17
-1969.35
-1969.3
-1969.08
-1968.71
-1968.26
-1967.79
-1967.33
-1966.9
-1966.54
-1966.28
-1966.14
-1965.8
-1966.92
-1967.76
-1968.35
-1968.7
-1968.87
-1968.87
-1968.73
-1968.52
-1968.26
-1967.98
-1967.71
-1967.48
-1967.31
-1967.22
-1964.81
-1965.97
-1966.9
-1967.62
-1968.14
-1968.49
-1968.69
-1968.75
-1968.74
-1968.67
-1968.56
-1968.44
-1968.32
-1968.23
-1968.17
-1963.92
-1965.12
-1966.13
-1966.96
-1967.62
-1968.14
-1968.52
-1968.77
-1968.94
-1969.04
-1969.08
-1969.09
-1969.07