/*--------------------------------*- C++ -*----------------------------------*\
| =========                 |                                                 |
| \\      /  F ield         | OpenFOAM: The Open Source CFD Toolbox           |
|  \\    /   O peration     | Version:  5.x                                   |
|   \\  /    A nd           | Web:      www.OpenFOAM.org                      |
|    \\/     M anipulation  |                                                 |
\*---------------------------------------------------------------------------*/
FoamFile
{
    version     2.0;
    format      ascii;
    class       volScalarField;
    location    "1.8";
    object      gradTy;
}
// * * * * * * * * * * * * * * * * * * * * * * * * * * * * * * * * * * * * * //

dimensions      [0 -1 0 1 0 0 0];

internalField   nonuniform List<scalar> 
6300
(
6146.44
16425
26660.3
36823.4
46884.8
56814.8
66583
76158.9
85511.5
94610.2
103425
111927
120090
127890
135308
21.1986
63.7136
106.569
149.949
193.971
238.65
283.869
329.334
374.543
418.756
460.994
500.058
534.605
563.255
584.751
35.1998
105.809
177.03
249.2
322.55
397.148
472.838
549.171
625.338
700.114
771.834
838.429
897.529
946.669
983.57
48.9891
147.29
246.534
347.26
449.867
554.536
661.143
769.149
877.494
984.492
1087.76
1184.25
1270.37
1342.27
1396.35
62.4537
187.822
314.544
443.424
575.102
709.964
848.019
988.754
1130.96
1272.55
1410.42
1540.4
1657.36
1755.64
1829.75
75.4552
226.993
380.385
536.772
697.131
862.169
1032.18
1206.84
1384.98
1564.26
1740.91
1909.48
2062.94
2193.1
2291.66
87.826
264.299
443.214
626.126
814.45
1009.36
1211.64
1421.4
1637.8
1858.55
2079.38
2293.58
2491.73
2662.07
2791.96
99.3721
299.152
502.029
710.039
925.144
1149.15
1383.55
1629.26
1886.2
2152.65
2424.38
2693.63
2948.21
3171.37
3343.53
109.879
330.894
555.691
786.828
1026.9
1278.49
1544.09
1825.82
2125.01
2441.38
2771.76
3108.24
3435.97
3731.52
3964.01
119.125
358.841
602.989
854.649
1117.08
1393.77
1688.42
2004.83
2346.53
2715.98
3112.91
3531.48
3955.78
4354.58
4678.79
126.902
382.34
642.747
911.659
1192.96
1491.02
1810.91
2158.46
2540.21
2962.98
3432.3
3948.82
4500.9
5052.03
5526.06
133.038
400.853
673.974
956.243
1252
1566.39
1905.67
2277.78
2692.77
3163.31
3704.35
4330.43
5046.77
5826.35
6564.49
137.43
414.044
696.021
987.291
1292.38
1616.78
1967.54
2354.1
2789.65
3293
3891.19
4621.6
5529.15
6641.85
7877.13
140.061
421.853
708.747
1004.48
1313.37
1640.73
1993.5
2381.36
2818.61
3327.72
3945.62
4735.42
5806.13
7334.47
9511.51
141.018
424.543
712.6
1008.46
1315.85
1639.21
1984.3
2359.1
2775.61
3253.5
3827.96
4568.12
5625.22
7378.07
10947.4
141743
147312
152596
157596
162315
166759
170935
174854
178526
181965
185184
188197
191020
193666
196150
198487
200690
202772
204747
206626
208421
210143
211801
213404
214961
216478
217963
219419
220852
222264
223657
225034
226393
227736
229062
230370
231658
232925
234170
235389
236582
237745
238876
239972
241031
242049
243025
243956
244838
245670
246450
247176
247844
248452
248998
249478
249889
250228
250490
250670
250766
250770
250679
250485
250184
249768
249230
248560
247751
246791
245670
244376
242897
241219
239329
237211
234850
232231
229337
226153
222662
218849
214697
210194
205328
200087
194464
188454
182057
175273
597.005
602.154
601.239
594.434
582.132
564.908
543.459
518.545
490.939
461.377
430.538
399.016
367.319
335.869
305.007
275.006
246.082
218.41
192.13
167.367
144.232
122.833
103.278
85.6711
70.111
56.6804
45.4335
36.3817
29.4802
24.6192
21.6235
20.2635
20.2773
21.4008
23.3981
26.0858
29.3429
33.105
37.346
42.0503
47.1866
52.6883
58.4478
64.3261
70.1756
75.8684
81.3233
86.5233
91.5195
96.4231
101.386
106.575
112.151
118.242
124.938
132.282
140.285
148.943
158.252
168.236
178.955
190.512
203.048
216.733
231.746
248.263
266.433
286.371
308.142
331.764
357.211
384.415
413.283
443.695
475.51
508.55
542.593
577.344
612.419
647.321
681.427
713.982
744.107
770.83
793.128
809.988
820.49
823.884
819.672
807.663
1004.55
1013.25
1011.46
999.489
978.072
948.256
911.294
868.54
821.348
770.999
718.648
665.299
611.798
558.834
506.962
456.614
408.132
361.784
317.79
276.339
237.609
201.775
169.016
139.515
113.451
90.9816
72.2201
57.2065
45.8801
38.0581
33.4312
31.5816
32.0252
34.2731
37.8949
42.5684
48.1005
54.4145
61.509
69.4008
78.0678
87.4084
97.2278
107.259
117.211
126.827
135.946
144.53
152.681
160.612
168.616
177.012
186.098
196.109
207.195
219.416
232.763
247.193
262.671
279.214
296.915
315.95
336.573
359.092
383.836
411.123
441.226
474.348
510.603
550.017
592.531
638.021
686.322
737.238
790.544
845.97
903.176
961.709
1020.96
1080.13
1138.18
1193.83
1245.59
1291.76
1330.54
1360.1
1378.8
1385.25
1378.54
1358.29
1426.95
1439.39
1436.24
1418.06
1386.02
1341.8
1287.37
1224.83
1156.21
1083.4
1008.09
931.7
855.399
780.129
706.622
635.442
567.017
501.68
439.699
381.308
326.733
276.206
229.98
188.329
151.535
119.865
93.5316
72.6444
57.1563
46.8188
41.1624
39.5195
41.0971
45.0887
50.7982
57.7349
65.652
74.5193
84.4423
95.5524
107.896
121.354
135.617
150.221
164.641
178.415
191.247
203.073
214.068
224.607
235.191
246.364
258.619
272.334
287.722
304.834
323.587
343.837
365.46
388.428
412.854
439.002
467.269
498.147
532.162
569.824
611.566
657.705
708.409
763.697
823.452
887.466
955.481
1027.22
1102.4
1180.7
1261.72
1344.91
1429.5
1514.41
1598.23
1679.16
1754.99
1823.21
1881.06
1925.73
1954.59
1965.44
1956.76
1927.91
1871.44
1887.9
1882.63
1856.51
1811.44
1749.98
1675.09
1589.81
1497.04
1399.37
1299.05
1197.92
1097.47
998.844
902.895
810.267
721.424
636.715
556.413
480.762
410.007
344.426
284.343
230.138
182.231
141.055
106.992
80.3
61.009
48.8324
43.1078
42.814
46.6862
53.4237
61.9273
71.4824
81.8274
93.0952
105.657
119.918
136.108
154.131
173.504
193.433
212.988
231.345
247.983
262.797
276.096
288.517
300.902
314.139
329.021
346.128
365.748
387.868
412.234
438.48
466.289
495.519
526.287
558.973
594.178
632.653
675.206
722.615
775.54
834.45
899.576
970.899
1048.19
1131.1
1219.22
1312.2
1409.71
1511.46
1617.08
1726.03
1837.48
1950.18
2062.38
2171.72
2275.26
2369.49
2450.45
2514.02
2556.22
2573.65
2563.89
2525.9
2346.72
2367.6
2358.92
2322.17
2260.35
2177.41
2077.69
1965.52
1844.85
1719.1
1591.11
1463.13
1336.89
1213.66
1094.35
979.609
869.853
765.38
666.412
573.15
485.821
404.72
330.236
262.872
203.233
151.999
109.841
77.2996
54.6193
41.5575
37.2358
40.1116
48.1515
59.2174
71.5433
84.0933
96.6744
109.807
124.425
141.505
161.681
184.959
210.589
237.179
263.056
286.742
307.339
324.697
339.376
352.473
365.378
379.535
396.21
416.293
440.164
467.655
498.158
530.86
565.053
600.379
636.941
675.297
716.359
761.264
811.233
867.438
930.868
1002.21
1081.78
1169.47
1264.81
1367.18
1475.93
1590.59
1710.86
1836.58
1967.57
2103.48
2243.58
2386.6
2530.54
2672.55
2808.86
2934.76
3044.77
3132.96
3193.43
3220.91
3211.57
3163.63
2863.93
2889.76
2875.53
2823.86
2739.61
2628.91
2498.16
2353.41
2199.92
2042.03
1883.14
1725.83
1571.96
1422.82
1279.25
1141.78
1010.69
886.137
768.218
657.02
552.697
455.518
365.915
284.52
212.177
149.919
98.8865
60.1476
34.4279
21.7461
21.0488
30.0223
45.3084
63.2453
80.8848
96.7071
110.775
124.424
139.696
158.676
182.83
212.446
246.334
281.993
316.32
346.629
371.398
390.491
404.975
416.74
428.086
441.343
458.529
481.04
509.399
543.14
580.948
621.125
662.219
703.486
745.04
787.751
833.03
882.603
938.3
1001.87
1074.81
1158.15
1252.31
1357
1471.32
1594.05
1724.12
1860.87
2004.14
2154.08
2310.95
2474.86
2645.44
2821.63
3001.4
3181.53
3357.38
3522.83
3670.43
3791.75
3878.02
3921.11
3914.73
3855.75
3438.05
3469.46
3445.96
3372.34
3256.86
3109.16
2938.7
2753.79
2561.23
2366.29
2172.8
1983.49
1800.15
1623.89
1455.32
1294.7
1142.06
997.312
860.315
730.966
609.266
495.392
389.764
293.125
206.591
131.675
70.2289
24.2489
-4.5355
-15.3203
-9.06104
10.8451
38.6503
67.7023
92.8429
111.847
125.476
136.7
149.623
168.393
196.108
233.77
279.521
328.716
375.356
414.48
443.617
462.908
474.474
481.594
488.024
497.473
513.157
537.344
570.865
612.745
660.303
710.044
759.106
806.151
851.444
896.474
943.484
995.086
1053.99
1122.78
1203.73
1298.45
1407.62
1530.63
1665.65
1810.3
1962.62
2121.7
2287.71
2461.49
2644.12
2836.52
3039.09
3251.36
3471.63
3696.54
3920.71
4136.46
4333.78
4500.83
4624.63
4692.38
4693.45
4621.98
4090.53
4128.1
4088.39
3980.96
3820.36
3622.06
3399.89
3165.03
2925.86
2688.3
2456.33
2232.44
2018.03
1813.78
1619.84
1436.04
1261.99
1097.24
941.321
793.827
654.504
523.329
400.614
287.128
184.228
93.9879
19.2588
-36.4511
-69.457
-76.9683
-58.8609
-19.7458
30.1558
77.7494
113.594
134.679
143.596
146.482
151.083
165.178
195.01
243.392
307.694
379.058
445.156
496.651
529.946
546.384
550.306
547.372
543.547
544.555
555.471
580.135
620.217
674.098
736.439
799.859
858.816
911.257
958.141
1002.26
1047.24
1096.97
1155.33
1226.09
1312.69
1417.86
1542.89
1686.82
1846
2015.37
2191.22
2372.42
2559.96
2755.99
2963.03
3183.36
3418.6
3669.39
3934.95
4212.38
4495.96
4776.36
5040.46
5271.91
5451.68
5559.39
5576.35
5490.73
4854.35
4897.85
4828.15
4665.94
4437.97
4169.15
3879.22
3582.37
3288.06
3002.19
2728.16
2467.65
2221.24
1988.79
1769.74
1563.29
1368.51
1184.45
1010.2
844.93
688.021
539.103
398.201
265.917
143.668
34.0033
-59.0581
-129.802
-171.046
-175.462
-138.868
-65.8275
25.0239
104.752
155.636
175.064
170.433
153.826
138.905
139.335
167.231
230.118
325.726
437.006
536.003
605.051
640.562
647.9
636.026
614.447
592.126
577.386
578.001
600.74
649.713
723.278
811.032
896.109
967.912
1024.37
1068.82
1106.8
1144.14
1186.4
1238.82
1306.59
1394.9
1508.63
1650.94
1821
2011.65
2211.05
2412.08
2613.96
2819.89
3034.56
3262.74
3508.62
3775.59
4066.05
4381.02
4719.23
5075.63
5439.55
5793.98
6117.2
6382.28
6556.87
6606.76
6505.92
5785.1
5830.38
5700.91
5445.4
5114.22
4746.46
4368.35
3995.88
3637.95
3298.91
2980.41
2682.48
2404.26
2144.43
1901.44
1673.69
1459.57
1257.52
1066.1
883.981
710.023
543.328
383.381
230.262
84.999
-49.873
-169.491
-265.608
-325.642
-332.986
-271.336
-137.537
35.9256
173.302
242.983
250.104
214.525
158.753
104.631
73.9483
89.071
169.731
321.189
512.638
669.969
761.733
791.736
777.07
735.706
682.579
629.772
588.091
568.66
583.553
643.778
752.007
889.457
1011.45
1099.08
1154.73
1188.81
1212.2
1233.93
1261.17
1300.18
1357.44
1440.48
1558.18
1718.98
1925.49
2164.61
2404.28
2631.63
2849.59
3067.1
3293.54
3536.83
3803.38
4098.6
4427.24
4793.43
5199.69
5644.23
6116.19
6592.19
7045.92
7442.89
7733.62
7853.91
7741.38
6989.5
7014.31
6754.92
6333.6
5842.95
5338.47
4849.19
4388.31
3960.45
3565.91
3202.9
2868.79
2560.68
2275.7
2011.12
1764.39
1533.15
1315.22
1108.55
911.239
721.528
537.806
358.706
183.278
11.3564
-155.72
-313.766
-453.371
-556.107
-589.856
-507.695
-266.364
98.7816
339.315
420.4
386.614
287.676
161.286
36.5896
-57.4144
-83.4799
7.37183
259.037
637.365
898.309
1007.3
1007.18
944.637
852.281
750.201
651.355
566.711
509.846
501.044
568.669
738.606
990.089
1176.2
1276.23
1316.11
1324.1
1319.95
1315.72
1318.9
1335.21
1371.07
1436.09
1545.56
1721.13
1982.89
2316.65
2615.15
2864.56
3085.7
3301.33
3528.11
3777.23
4056.69
4373.28
4734.16
5147.92
5624.77
6173.07
6786.72
7422.12
8056.04
8656.11
9155.43
9435.94
9338.49
8714.25
8607.18
8041.78
7321.36
6591.31
5908.38
5288.93
4732.99
4234.85
3787.38
3383.67
3017.57
2683.73
2377.54
2095.04
1832.74
1587.56
1356.68
1137.5
927.56
724.417
525.645
328.767
131.275
-69.2243
-274.525
-484.545
-694.168
-885.851
-1013.58
-973.199
-573.434
341.114
734.958
763.251
616.964
400.38
161.407
-75.6168
-286.573
-424.356
-386.526
14.5153
931.134
1345.45
1410
1312.52
1155.12
982.852
813.168
652.488
505.332
381.828
308.484
346.235
607.779
1184.84
1464.9
1539.99
1523.39
1476.85
1427.77
1386.83
1357.72
1342.05
1342.67
1367.67
1437.71
1599.1
1936.56
2519.42
2896.63
3138.09
3329.66
3519.39
3730.37
3973.81
4256.38
4584.05
4964.73
5411.38
5946.73
6607.54
7425.66
8253.85
9114.58
10014
10891.9
11561.8
11624.1
11688.6
10859.7
9551.53
8322.63
7271.55
6386.62
5636.98
4994.23
4436.09
3945.65
3510.15
3119.77
2766.83
2445.18
2149.78
1876.38
1621.29
1381.23
1153.13
934.053
720.989
510.742
299.706
83.6013
-142.882
-386.515
-655.871
-960.766
-1307.65
-1679.32
-1956.18
-1621.77
1333.25
1656.97
1357.47
948.518
545.31
158.717
-225.36
-621.093
-1018.1
-1303.44
-972.443
1948.18
2296.22
2045.94
1704.1
1386.97
1109.65
863.13
634.108
409.862
181.548
-44.0824
-198.489
22.5639
1807.23
2048.71
1935.72
1773.72
1633.18
1523.8
1440.86
1377.11
1325.36
1279.1
1234.33
1198.24
1223.47
1536.76
3018.2
3373.46
3483.34
3576.09
3706.69
3885.73
4113.86
4390.93
4718.27
5100.09
5546.88
6087.75
6815.21
8049.72
9038.32
10116.9
11402.5
12927.4
14562.3
15564.6
18706.3
13801.7
10946.8
9067.47
7712.21
6669.78
5830.86
5133.45
4539.64
4024.67
3571.51
3167.93
2804.77
2474.94
2172.77
1893.58
1633.34
1388.51
1155.75
931.862
713.494
496.974
277.952
50.8895
-191.818
-461.429
-775.977
-1166.84
-1693.69
-2481.52
-3819.28
-6443.68
6114.42
3476.37
2109.27
1271.78
666.306
152.411
-358.297
-953.743
-1772.6
-3107.81
-5688.42
6669.68
4108.47
2813.69
2060.01
1561.46
1192.06
887.862
608.828
320.233
-22.6074
-499.217
-1283.88
-2814.26
4651.74
3142.87
2401.99
1993.05
1744.61
1581.71
1467.2
1379.16
1300.71
1213.33
1088.45
870.437
432.968
-545.262
5138.58
4203.49
3853.12
3767.87
3824.11
3970.21
4183.29
4452.9
4773.85
5141.68
5546.68
5959.83
6292.42
9027.54
9692.75
10820.8
12445.9
14803.8
18473
24866
167393
158264
148625
138506
127940
116965
105621
93948.8
81989.3
69783.6
57371.8
44793.2
32086.1
19287.9
6435.32
786.031
752.153
709.376
659.454
604.287
545.706
485.324
424.436
363.989
304.593
246.559
189.95
134.637
80.3464
26.7072
1321.41
1263.41
1190.18
1104.88
1010.9
911.489
809.417
706.887
605.467
506.132
409.342
315.143
223.261
133.19
44.2654
1874.45
1789.83
1682.96
1558.89
1422.89
1279.86
1133.91
988.173
844.813
705.088
569.509
438.005
310.07
184.887
61.4322
2453.67
2338.38
2192.86
2024.75
1841.83
1651.08
1458.11
1267.03
1080.47
899.848
725.561
557.274
394.115
234.851
78.0094
3069.29
2917.09
2725.27
2505.34
2268.54
2024.45
1780.38
1541.3
1310.15
1088.22
875.568
671.377
474.244
282.38
93.7618
3734.11
3535.31
3285.7
3002.71
2702.45
2397.73
2097.59
1807.6
1530.57
1267.27
1017.07
778.384
549.075
326.648
108.414
4464.83
4204.18
3879.34
3517.22
3140.68
2766.31
2404.55
2060.86
1737.2
1433.18
1147
875.978
616.994
366.702
121.651
5284.5
4936.97
4510.05
4045.92
3576.55
3122.14
2693.29
2293.99
1924.1
1581.21
1261.72
961.491
676.19
401.495
133.131
6226.52
5748.97
5177.78
4579.71
3997.33
3452.28
2952.38
2497.57
2083.89
1705.77
1357.14
1032.02
724.745
429.937
142.5
7341.04
6654.39
5872.18
5097.64
4380.6
3737.14
3166.25
2659.91
2208.06
1800.76
1428.96
1084.67
760.791
450.987
149.424
8705.09
7655
6558.6
5557.78
4690.09
3949.23
3315.41
2767.64
2287.58
1860.16
1473.23
1116.84
782.727
463.771
153.627
10427.9
8701.59
7149.18
5884.49
4872.55
4054.1
3378.37
2807.54
2314.34
1879.01
1486.88
1126.69
789.464
467.723
154.931
12571.5
9573.93
7451.77
5958.17
4861.32
4016.07
3336.28
2769.66
2283.12
1854.57
1468.52
1113.52
780.677
462.702
153.3
14446.8
9570.41
7125.43
5634.83
4598.26
3812.42
3180.83
2651.6
2193.81
1787.56
1419.05
1078.14
756.98
449.09
148.861
140.633
423.158
709.498
1002.32
1304.51
1619.3
1950.54
2303.11
2683.78
3103.06
3579.14
4147.05
4880.82
5950.43
7771.14
139.307
418.946
701.654
989.471
1284.41
1588.4
1903.19
2230.14
2569.81
2921.07
3278.98
3628.03
3916.7
3950.94
2914.06
137.267
412.589
690.241
971.646
1257.98
1549.94
1847.34
2148.28
2447.7
2734.36
2984.9
3150.84
3129.12
2695.17
1384.15
134.675
404.602
676.2
950.368
1227.61
1507.67
1788.97
2067.43
2334.37
2572.65
2749.48
2803.9
2627.7
2048.4
866.205
131.678
395.441
660.353
926.928
1195.23
1464.51
1732.54
1994.51
2240.87
2453.53
2598.98
2617.01
2406.16
1820.25
730.323
128.396
385.471
643.33
902.261
1162.15
1422.16
1680.27
1932.37
2170.71
2381.02
2536.91
2588.96
2445.03
1942.04
851.868
124.913
374.946
625.543
876.904
1128.94
1381.1
1632.13
1879.73
2119.96
2346.25
2546.86
2696.96
2733.16
2471.56
1399.47
121.285
364.017
607.205
851.052
1095.61
1340.79
1586.34
1832.14
2078.82
2329.28
2591.79
2884.01
3228.01
3563.84
3146.25
117.539
352.76
588.393
824.677
1061.84
1300.18
1540.33
1783.9
2034.99
2303.88
2616.01
3035.01
3728.46
5179.24
8972.75
113.693
341.209
569.11
797.668
1027.21
1258.28
1491.92
1730.39
1978.74
2248.41
2565.94
2995.36
3702.88
5167.61
8970.34
109.755
329.381
549.357
769.948
991.503
1214.57
1440.11
1669.97
1907.62
2159.66
2438.1
2762.5
3151.36
3532.25
3142.08
105.735
317.302
529.161
741.538
954.715
1169.1
1385.28
1604.09
1826.47
2052.52
2278.28
2484.8
2605.3
2432.26
1406.8
101.648
305.014
508.595
712.551
917.064
1122.35
1328.58
1535.71
1742.71
1945.54
2131.76
2266.78
2263.03
1924.15
913.258
97.5099
292.571
487.759
683.158
878.855
1074.9
1271.23
1467.38
1661.79
1850.06
2020.73
2145.08
2153.42
1882.68
986.094
93.3413
280.036
466.764
653.544
840.38
1027.24
1213.97
1400.21
1585.09
1766.77
1941.82
2103.87
2237.58
2275.79
1805.85
89.1627
267.47
445.723
623.876
801.871
979.626
1157.03
1333.97
1510.56
1688.04
1871.9
2082.31
2388
3021.71
4807.36
84.9945
254.938
424.741
594.302
763.509
932.238
1100.38
1267.93
1435.38
1604.83
1783.51
1994.52
2310.58
2967.62
4788.17
80.8561
242.496
403.916
564.961
725.461
885.237
1044.11
1201.94
1358.79
1515.17
1672.61
1833.74
1996.31
2105.47
1745.87
76.7659
230.201
383.342
535.983
687.899
838.844
988.535
1136.61
1282.48
1424.73
1559.12
1671.91
1719.1
1568.81
878.616
72.7411
218.104
363.106
507.494
650.994
793.301
934.06
1072.79
1208.65
1339.72
1460.61
1555.58
1579
1407.04
752.346
68.797
206.253
343.288
479.609
614.899
748.815
880.972
1010.93
1138.13
1261.73
1380.07
1488.91
1574.54
1580.48
1216.34
64.9476
194.687
323.957
452.426
579.743
705.53
829.39
950.958
1070.08
1187.37
1306.1
1438.31
1625.4
2010.87
3116.78
61.2042
183.444
305.173
426.032
545.635
663.564
779.378
892.665
1003.26
1111.97
1222.74
1349.58
1538.44
1940.92
3087.49
57.5763
172.551
286.985
400.497
512.673
623.05
731.099
836.214
937.742
1035.11
1128.19
1217.76
1303.1
1354.2
1116.02
54.0704
162.028
269.429
375.879
480.947
584.136
684.837
782.232
875.083
961.199
1036.04
1088.84
1091.49
968.343
529.161
50.6903
151.887
252.524
352.21
450.512
546.933
640.85
731.383
817.074
895.089
959.185
994.71
967.226
801.926
372.245
47.4365
142.129
236.274
329.49
421.368
511.451
599.193
683.873
764.371
838.616
902.138
944.306
938.634
819.084
433.933
44.3067
132.746
220.66
307.688
393.457
477.577
559.644
639.244
715.985
789.562
859.891
927.093
989.092
1020.66
830.826
41.2963
123.723
205.653
286.749
366.676
445.113
521.787
596.578
669.771
742.735
819.783
913.459
1060.65
1375.94
2249.78
38.3993
115.042
191.216
266.61
340.916
413.855
485.219
554.999
623.688
693.044
768.094
862.627
1015.43
1343.27
2237.47
35.6091
106.681
177.314
247.215
316.093
383.673
449.729
514.155
577.116
639.369
702.841
771.296
848.602
917.234
790.942
32.9188
98.6206
163.913
228.519
292.155
354.532
415.352
474.304
531.009
584.819
634.096
673.784
687.762
626.524
355.201
30.3213
90.8392
150.981
210.486
269.078
326.454
382.253
435.99
486.884
533.388
571.978
594.092
579.121
481.673
224.361
27.8087
83.3145
138.482
193.074
246.832
299.454
350.564
399.628
445.781
487.422
521.269
540.119
527.723
447.813
226.43
25.372
76.0198
126.375
176.231
225.358
273.487
320.276
365.264
407.783
446.84
480.943
507.81
523.176
512.165
389.232
23.0006
68.9231
114.607
159.883
204.563
248.431
291.218
332.589
372.162
409.669
445.607
483.452
536.905
654.198
1007.23
20.6822
61.9874
103.113
143.935
184.318
224.109
263.122
301.139
337.949
373.557
408.91
448.218
506.256
632.465
999.139
18.4034
55.1712
91.8225
128.281
164.47
200.308
235.695
270.501
304.542
337.591
369.432
399.938
428.222
443.684
363.195
16.15
48.4307
80.6571
112.802
144.851
176.801
208.652
240.369
271.797
302.432
330.847
353.164
359.05
321.494
175.76
13.9081
41.723
69.5395
97.3775
125.285
153.346
181.68
210.413
239.573
268.785
296.461
317.764
320.01
274.394
131.212
11.6656
35.0092
58.3983
81.8924
105.596
129.682
154.409
180.135
207.283
236.173
266.468
295.562
314.171
295.018
169.458
9.41275
28.2585
47.1756
66.2494
85.6269
105.553
126.422
148.845
173.756
202.553
237.272
280.604
334.518
389.5
355.85
7.14418
21.453
35.8353
50.383
65.2604
80.7513
97.3329
115.801
137.5
164.789
202.058
258.259
354.077
545.483
1013.07
4.85965
14.5911
24.3711
34.2753
44.452
55.1726
66.9111
80.4864
97.3337
120.061
153.659
208.358
307.207
509.607
998.786
2.5649
7.69001
12.8117
17.9655
23.2499
28.8677
35.1912
42.8734
53.0539
67.7502
90.5684
127.755
188.373
274.51
308.167
0.271601
0.785737
1.22077
1.552
1.79965
2.05332
2.5052
3.49891
5.60806
9.76707
17.4636
30.8412
51.774
75.8092
68.8887
-2.00337
-6.06925
-10.3076
-14.8167
-19.6716
-24.9187
-30.58
-36.6765
-43.2915
-50.7052
-59.6216
-71.3574
-87.0185
-101.43
-79.5367
-4.23915
-12.8102
-21.6576
-30.959
-40.8877
-51.6235
-63.3864
-76.5183
-91.6664
-110.166
-134.783
-170.867
-226.714
-303.912
-323.242
-6.41244
-19.3653
-32.7021
-46.6794
-61.561
-77.6363
-95.2661
-114.987
-137.743
-165.412
-202.015
-256.686
-351.617
-546.615
-1029.34
-8.49886
-25.66
-43.3121
-61.7862
-81.4234
-102.591
-125.719
-151.375
-180.44
-214.486
-256.735
-314.584
-407.066
-589.547
-1046.49
-10.474
-31.6201
-53.362
-76.1
-100.242
-126.207
-154.441
-185.427
-219.708
-257.898
-300.657
-348.465
-400.053
-441.924
-380.582
-12.3136
-37.1733
-62.7312
-89.4548
-117.813
-148.271
-181.278
-217.22
-256.294
-298.17
-341.107
-379.757
-399.823
-366.008
-200.687
-13.9942
-42.2487
-71.3029
-101.691
-133.946
-168.59
-206.106
-246.87
-290.969
-337.74
-384.573
-423.99
-437.045
-381.441
-184.732
-15.4923
-46.7764
-78.9607
-112.648
-148.443
-186.94
-228.708
-274.236
-323.827
-377.306
-433.228
-486.569
-521.981
-494.893
-288.756
-16.785
-50.687
-85.5879
-122.161
-161.086
-203.048
-248.73
-298.816
-354.022
-415.218
-483.717
-561.642
-650.36
-732.718
-650.697
-17.8498
-53.9123
-91.0682
-130.06
-171.645
-216.602
-265.729
-319.88
-380.102
-448.102
-527.707
-629.268
-783.202
-1084.74
-1859.46
-18.6655
-56.3874
-95.2889
-136.178
-179.891
-227.293
-279.276
-336.771
-400.827
-472.977
-556.504
-660.578
-813.595
-1108.24
-1868.69
-19.2131
-58.0531
-98.1454
-140.358
-185.603
-234.837
-289.037
-349.152
-415.984
-490.006
-571.089
-657.961
-745.703
-808.313
-681.324
-19.4766
-58.8595
-99.5468
-142.458
-188.578
-238.969
-294.735
-356.918
-426.202
-502.193
-581.717
-654.804
-695.327
-640.114
-352.094
-19.4455
-58.7712
-99.4226
-142.354
-188.621
-239.409
-296.025
-359.809
-431.824
-511.994
-596.886
-674.335
-711.507
-633.645
-311.896
-19.1164
-57.7743
-97.7351
-139.962
-185.561
-235.846
-292.389
-357.044
-431.852
-518.59
-617.303
-721.922
-807.653
-796.612
-481.481
-18.4964
-55.885
-94.4954
-135.257
-179.286
-227.985
-283.175
-347.293
-423.669
-516.954
-633.712
-782.724
-971.106
-1170.85
-1101
-17.6057
-53.1608
-89.7838
-128.316
-169.81
-215.665
-267.822
-329.1
-403.823
-499.108
-627.826
-816.301
-1126.8
-1732.44
-3201.33
-16.4812
-49.709
-83.7703
-119.35
-157.35
-199.024
-246.198
-301.645
-369.787
-458.143
-580.559
-765.273
-1077.69
-1694.79
-3186.61
-15.1771
-45.693
-76.7269
-108.74
-142.383
-178.619
-218.897
-265.453
-321.807
-393.632
-490.15
-625.7
-817.168
-1049.91
-1052.34
-13.7659
-41.3324
-69.0295
-97.0334
-125.664
-155.465
-187.308
-222.541
-263.181
-312.083
-372.762
-447.435
-528.142
-565.139
-381.472
-12.3356
-36.8968
-61.1455
-84.9295
-108.182
-130.953
-153.436
-175.962
-198.919
-222.473
-245.788
-265.127
-269.62
-233.744
-112.953
-10.9867
-32.6942
-53.6111
-73.2334
-91.0842
-106.705
-119.61
-129.172
-134.35
-133.15
-121.713
-93.2835
-39.2906
38.5451
82.5051
-9.82792
-29.0566
-47.003
-62.8064
-75.5864
-84.405
-88.1829
-85.5187
-74.3163
-51.0649
-9.58493
60.6413
174.3
334.185
422.978
-8.97101
-26.3255
-41.9102
-54.518
-62.8904
-65.6693
-61.3071
-47.8878
-22.7606
18.231
82.4211
184.221
355.569
678.938
1412.35
-8.52731
-24.8393
-38.9115
-49.2092
-54.1287
-51.9551
-40.7977
-18.4813
17.666
71.2854
148.144
259.305
431.01
738.562
1436.07
-8.60437
-24.9239
-38.5605
-47.6729
-50.3417
-44.5398
-28.1112
1.22868
45.8482
108.073
189.885
292.149
411.854
527.009
502.151
-9.30371
-26.8866
-41.3765
-50.6478
-52.4845
-44.562
-24.4608
10.2406
61.6974
131.134
217.276
312.705
395.641
412.434
248.171
-10.719
-31.0109
-47.8407
-58.8201
-61.4497
-53.0967
-31.0157
7.53535
64.9593
142.476
238.084
341.779
425.189
423.426
224.7
-12.9341
-37.5523
-58.3895
-72.823
-78.0837
-71.2164
-49.0697
-8.3509
54.1758
141.147
253.155
384.799
513.742
571.073
375.25
-16.0209
-46.7307
-73.4051
-93.2245
-103.178
-99.9943
-80.078
-39.4497
26.3352
122.336
254.479
429.573
651.897
894.404
910.928
-20.0361
-58.7215
-93.1986
-120.503
-137.429
-140.434
-125.521
-88.0813
-22.562
78.3419
225.872
441.437
775.907
1374.53
2723.15
-25.0172
-73.6433
-117.988
-155.009
-181.375
-193.35
-186.653
-156.268
-96.0973
1.89687
149.92
370.623
716.343
1333.65
2708.29
-30.9784
-91.5452
-147.877
-196.932
-235.339
-259.261
-264.266
-245.186
-195.955
-109.35
23.4175
212.9
468.06
766.667
863.786
-37.9064
-112.393
-182.829
-246.264
-299.378
-338.329
-358.63
-355.076
-321.809
-252.7
-142.531
9.4936
189.515
339.5
286.331
-45.7561
-136.058
-222.648
-302.774
-373.265
-430.363
-469.576
-485.62
-472.585
-424.597
-337.589
-213.407
-68.2309
53.3498
69.5962
-54.4464
-162.302
-266.958
-365.979
-456.46
-534.825
-596.617
-636.368
-647.65
-623.609
-558.484
-450.918
-309.625
-159.684
-39.212
-63.8561
-190.767
-315.181
-435.113
-548.07
-650.793
-738.962
-806.882
-847.244
-851.153
-808.859
-711.86
-557.039
-352.264
-118.827
-73.8211
-220.963
-366.511
-509.084
-646.778
-776.859
-895.356
-996.52
-1072.14
-1110.77
-1097.21
-1012.95
-839.137
-564.749
-201.368
-84.1321
-252.26
-419.898
-586.432
-750.757
-910.949
-1063.76
-1203.87
-1322.68
-1406.59
-1434.64
-1376.19
-1191.06
-839.016
-311.235
-94.5353
-283.89
-474.039
-665.296
-857.583
-1050.13
-1240.96
-1425.97
-1597.42
-1741.16
-1832.09
-1827.35
-1658.84
-1235.29
-486.842
-104.738
-314.961
-527.397
-743.421
-964.198
-1190.47
-1422.13
-1657.43
-1891.35
-2112.33
-2295.9
-2392.16
-2303.67
-1857.13
-818.833
-114.418
-344.483
-578.246
-818.22
-1066.96
-1327.01
-1600.72
-1889.79
-2194.17
-2509.38
-2820.24
-3085.15
-3197.04
-2889.84
-1567
-123.242
-371.424
-624.76
-886.899
-1161.82
-1454
-1768.57
-2111.45
-2489.37
-2909.36
-3376.36
-3884.26
-4381.25
-4627.76
-3572.82
-130.883
-394.773
-665.137
-946.663
-1244.65
-1565.38
-1916.67
-2308.67
-2755.26
-3276.55
-3903.91
-4690.77
-5739.18
-7269.26
-9808.11
10204.6
7602.43
6032.82
4955.57
4144.46
3494.66
2951.38
2482.66
2068.19
1694.09
1350.25
1028.96
723.994
430.114
142.668
3727.93
4855.7
4623.16
4122.59
3603.96
3122.18
2684.56
2286.87
1922.67
1585.65
1270.25
971.606
685.437
407.891
135.407
1645.66
3053.48
3399.47
3302.01
3037.76
2718.92
2389.92
2067.77
1758.19
1462.14
1178.57
905.562
640.871
382.14
126.983
871.309
1988.56
2483.6
2597.17
2509.37
2322.63
2090.45
1839.87
1584.26
1329.93
1079.52
833.713
592.147
353.896
117.729
531.208
1355.68
1832.58
2032.09
2049.59
1957.83
1803.7
1615.41
1409.39
1194.96
977.237
758.891
541.104
324.193
107.978
356.331
964.113
1374.12
1593.35
1665.63
1636.27
1540.6
1403.22
1240.32
1062.22
875.359
683.658
489.435
293.997
98.0449
254.275
709.864
1048.1
1256.59
1352.2
1360.7
1306.42
1208.71
1081.77
935.537
776.813
610.156
438.595
264.15
88.2042
188.989
537.085
812.152
998.198
1099.21
1128.7
1102.36
1034.47
936.571
817.498
683.753
540.039
389.744
235.336
78.6827
144.45
415.005
637.995
798.822
895.862
935.421
927.132
881.02
806.049
709.623
597.593
474.476
343.738
208.074
69.6533
112.644
325.942
506.986
643.716
732.402
775.341
778.136
747.587
690.401
612.561
519.113
414.19
301.144
182.72
61.2373
89.1608
259.267
406.737
521.953
600.687
643.115
652.271
632.626
589.074
526.319
448.586
359.532
262.274
159.485
53.5083
71.3804
208.302
328.873
425.509
494.165
533.974
546.385
534.249
501.064
450.462
385.908
310.56
227.238
138.458
46.5001
57.6524
168.687
267.621
348.481
407.661
443.842
457.528
450.471
425.132
384.28
330.714
267.116
195.986
119.633
40.2146
46.8882
137.468
218.913
286.497
337.115
369.316
383.062
379.373
359.961
326.915
282.476
228.895
168.354
102.934
34.6295
38.3424
112.589
179.822
236.285
279.349
307.594
320.69
319.184
304.247
277.45
240.577
195.501
144.104
88.2355
29.7062
31.4885
92.5771
148.206
195.369
231.865
256.381
268.448
268.31
256.76
234.974
204.367
166.491
122.954
75.382
25.3952
25.9449
76.3535
122.462
161.854
192.693
213.806
224.673
225.353
216.374
198.615
173.2
141.406
104.603
64.2029
21.6413
21.429
63.1133
101.38
134.274
160.269
178.339
187.965
189.096
182.077
167.566
146.456
119.796
88.7449
54.5231
18.3876
17.7274
52.2445
84.0241
111.48
133.344
148.731
157.15
158.492
152.976
141.096
123.56
101.232
75.0861
46.1706
15.5774
14.6763
43.275
69.6685
92.5646
110.913
123.955
131.246
132.646
128.29
118.55
103.988
85.3149
63.3482
38.9815
13.1568
12.148
35.8355
57.7392
76.8047
92.162
103.168
109.428
110.791
107.338
99.3469
87.2677
71.6823
53.2749
32.8035
11.0752
10.0421
29.6335
47.7789
63.6173
76.4297
85.6747
91.0066
92.2784
89.5323
82.98
72.9792
60.0068
44.633
27.4973
9.28625
8.27782
24.4345
39.419
52.5288
63.1719
70.8953
75.4011
76.5523
74.3667
69.0048
60.7516
49.9966
37.213
22.9368
7.74794
6.79031
20.0487
32.3593
43.1512
51.9393
58.3474
62.1224
63.1403
61.404
57.0346
50.2588
41.3932
30.828
19.0091
6.42255
5.52629
16.3202
26.3528
35.1632
42.3573
47.6254
50.7555
51.6382
50.2671
46.733
41.2149
33.9684
25.3121
15.6138
5.27638
4.44161
13.1198
21.1936
28.2961
34.1106
38.386
40.9468
41.6988
40.6299
37.8069
33.3694
27.521
20.5186
12.6615
4.27951
3.49908
10.3381
16.7079
22.3218
26.9308
30.335
32.3918
33.0215
32.2084
29.9998
26.5019
21.8733
16.3173
10.0731
3.40532
2.66681
7.8817
12.7459
17.0438
20.5859
23.2175
24.8258
25.3438
24.7537
23.086
20.4176
16.868
12.593
7.77798
2.63014
1.91674
5.66806
9.17606
12.2891
14.8713
16.8087
18.0145
18.4335
18.0452
16.8649
14.9436
12.365
9.24252
5.71334
1.93279
1.22347
3.62264
5.87927
7.90141
9.60266
10.9058
11.7473
12.0814
11.8843
11.1565
9.92409
8.23832
6.17331
3.82256
1.29426
0.563125
1.67541
2.74406
3.73489
4.6084
5.32128
5.83005
6.09587
6.08965
5.79626
5.21752
4.37338
3.30134
2.05434
0.697295
-0.0878188
-0.242374
-0.338507
-0.351994
-0.276498
-0.123956
0.0789137
0.296641
0.491902