/*--------------------------------*- C++ -*----------------------------------*\
| =========                 |                                                 |
| \\      /  F ield         | OpenFOAM: The Open Source CFD Toolbox           |
|  \\    /   O peration     | Version:  5.x                                   |
|   \\  /    A nd           | Web:      www.OpenFOAM.org                      |
|    \\/     M anipulation  |                                                 |
\*---------------------------------------------------------------------------*/
FoamFile
{
    version     2.0;
    format      ascii;
    class       volScalarField;
    location    "3.4";
    object      T;
}
// * * * * * * * * * * * * * * * * * * * * * * * * * * * * * * * * * * * * * //

dimensions      [0 0 0 1 0 0 0];

internalField   nonuniform List<scalar> 
6300
(
28.1338
64.3498
100.411
136.214
171.653
206.623
241.017
274.728
307.649
339.673
370.7
400.631
429.377
456.861
483.018
28.1846
64.5024
100.666
136.572
172.115
207.19
241.69
275.507
308.532
340.658
371.78
401.799
430.622
458.168
484.372
28.2859
64.8068
101.175
137.287
173.039
208.325
243.037
277.067
310.302
342.632
373.949
404.146
433.125
460.8
487.097
28.4373
65.2618
101.935
138.357
174.422
210.025
245.058
279.409
312.964
345.607
377.221
407.694
436.916
464.79
491.234
28.6381
65.8653
102.945
139.777
176.259
212.287
247.75
282.535
316.525
349.595
381.621
412.476
442.037
470.191
496.841
28.8872
66.6141
104.198
141.542
178.545
215.104
251.11
286.447
320.991
354.614
387.175
418.534
448.547
477.077
504.005
29.1829
67.5035
105.687
143.641
181.268
218.467
255.129
291.139
326.368
360.678
393.917
425.922
456.521
485.545
512.841
29.5233
68.5272
107.403
146.061
184.412
222.357
259.791
296.599
332.65
367.799
401.877
434.697
466.05
495.721
523.504
29.9054
69.677
109.33
148.784
187.954
226.749
265.069
302.803
339.822
375.975
411.08
444.921
477.244
507.765
536.198
30.3259
70.9425
111.453
151.786
191.864
231.606
270.922
309.71
347.846
385.182
421.529
456.644
490.218
521.877
551.202
30.7806
72.3113
113.751
155.036
196.102
236.881
277.294
317.255
356.657
395.364
433.193
469.889
505.089
538.299
568.896
31.2647
73.769
116.197
158.499
200.621
242.51
284.107
325.346
366.147
406.407
445.974
484.61
521.93
557.312
589.819
31.7732
75.2998
118.767
162.135
205.366
248.422
291.266
333.86
376.165
418.127
459.666
500.627
540.688
579.177
614.758
32.3007
76.8874
121.43
165.902
210.278
254.537
298.663
342.652
386.509
430.253
473.918
517.522
560.997
603.925
644.821
32.842
78.5159
124.161
169.759
215.299
260.773
306.186
351.561
396.949
442.443
488.209
534.526
581.828
630.68
681.105
505.737
525.419
544.123
561.852
578.618
594.443
609.356
623.394
636.599
649.016
660.696
671.691
682.053
691.838
701.097
709.885
718.253
726.249
733.924
741.321
748.484
755.453
762.266
768.955
775.552
782.082
788.567
795.024
801.467
807.904
814.34
820.776
827.21
833.635
840.045
846.431
852.782
859.086
865.332
871.507
877.596
883.586
889.461
895.205
900.804
906.242
911.506
916.581
921.456
926.118
930.556
934.758
938.714
942.41
945.835
948.974
951.812
954.334
956.52
958.355
959.817
960.887
961.544
961.764
961.521
960.789
959.538
957.734
955.34
952.318
948.625
944.214
939.036
933.04
926.171
918.372
909.585
899.752
888.81
876.699
863.36
848.735
832.768
815.41
796.616
776.351
754.587
731.311
706.52
680.223
507.116
526.806
545.505
563.214
579.949
595.731
610.592
624.569
637.706
650.051
661.656
672.573
682.858
692.565
701.748
710.462
718.757
726.684
734.293
741.627
748.732
755.648
762.412
769.058
775.617
782.115
788.575
795.013
801.443
807.873
814.308
820.748
827.189
833.624
840.047
846.448
852.815
859.137
865.402
871.597
877.707
883.718
889.614
895.381
901.001
906.46
911.743
916.837
921.728
926.407
930.861
935.08
939.053
942.768
946.213
949.374
952.235
954.781
956.994
958.856
960.348
961.45
962.14
962.396
962.194
961.505
960.301
958.55
956.213
953.253
949.627
945.287
940.184
934.266
927.479
919.765
911.065
901.318
890.464
878.44
865.185
850.639
834.746
817.451
798.71
778.483
756.743
733.471
708.665
682.334
509.892
529.6
548.287
565.958
582.628
598.322
613.074
626.927
639.927
652.125
663.577
674.339
684.467
694.017
703.047
711.61
719.761
727.549
735.025
742.235
749.223
756.03
762.696
769.255
775.738
782.172
788.581
794.981
801.386
807.804
814.237
820.684
827.141
833.599
840.049
846.479
852.879
859.237
865.539
871.773
877.926
883.98
889.922
895.733
901.396
906.897
912.219
917.348
922.274
926.984
931.47
935.721
939.728
943.48
946.966
950.17
953.078
955.674
957.94
959.857
961.408
962.571
963.328
963.656
963.532
962.93
961.821
960.174
957.952
955.117
951.623
947.426
942.474
936.714
930.091
922.547
914.02
904.45
893.773
881.925
868.841
854.458
838.713
821.551
802.918
782.772
761.079
737.818
712.983
686.583
514.107
533.842
552.511
570.12
586.688
602.244
616.828
630.487
643.275
655.248
666.466
676.989
686.878
696.191
704.988
713.325
721.256
728.834
736.11
743.131
749.942
756.586
763.103
769.529
775.897
782.235
788.567
794.91
801.279
807.679
814.113
820.575
827.059
833.553
840.045
846.522
852.972
859.382
865.741
872.035
878.251
884.373
890.383
896.262
901.993
907.557
912.937
918.12
923.094
927.851
932.382
936.68
940.737
944.544
948.089
951.359
954.337
957.008
959.353
961.353
962.99
964.245
965.1
965.533
965.525
965.051
964.084
962.593
960.543
957.895
954.603
950.621
945.896
940.375
934
926.712
918.449
909.148
898.741
887.162
874.341
860.209
844.697
827.741
809.28
789.263
767.648
744.408
719.532
693.028
519.825
539.597
558.239
575.758
592.18
607.54
621.887
635.276
647.769
659.432
670.328
680.526
690.089
699.08
707.562
715.593
723.23
730.525
737.532
744.298
750.871
757.295
763.61
769.857
776.068
782.275
788.503
794.771
801.093
807.475
813.914
820.403
826.929
833.476
840.029
846.57
853.087
859.568
866.002
872.376
878.678
884.892
890.997
896.973
902.796
908.446
913.905
919.158
924.194
929.008
933.595
937.951
942.072
945.949
949.574
952.932
956.006
958.778
961.229
963.338
965.089
966.462
967.443
968.014
968.156
967.849
967.069
965.785
963.964
961.566
958.545
954.852
950.434
945.234
939.193
932.251
924.345
915.407
905.369
894.158
881.701
867.918
852.734
836.072
817.859
798.03
776.534
753.331
728.404
701.758
527.137
546.957
565.559
582.954
599.175
614.27
628.298
641.329
653.434
664.689
675.169
684.947
694.093
702.675
710.757
718.401
725.664
732.602
739.268
745.713
751.984
758.127
764.186
770.202
776.213
782.253
788.349
794.523
800.79
807.154
813.61
820.144
826.735
833.36
839.995
846.62
853.222
859.789
866.313
872.787
879.199
885.532
891.764
897.868
903.815
909.578
915.135
920.472
925.58
930.458
935.107
939.527
943.721
947.685
951.409
954.879
958.075
960.977
963.561
965.807
967.695
969.212
970.344
971.078
971.401
971.297
970.745
969.718
968.184
966.101
963.423
960.096
956.065
951.271
945.653
939.149
931.694
923.22
913.655
902.922
890.939
877.619
862.873
846.609
828.737
809.175
787.851
764.713
739.729
712.901
536.169
556.049
574.592
591.817
607.768
622.51
636.121
648.686
660.295
671.036
680.993
690.249
698.881
706.959
714.553
721.725
728.536
735.04
741.294
747.346
753.249
759.049
764.792
770.524
776.286
782.116
788.049
794.11
800.315
806.669
813.161
819.769
826.46
833.195
839.941
846.671
853.372
860.036
866.664
873.254
879.799
886.285
892.682
898.955
905.063
910.97
916.648
922.08
927.264
932.204
936.911
941.396
945.668
949.73
953.574
957.184
960.535
963.599
966.347
968.755
970.804
972.482
973.782
974.699
975.226
975.355
975.07
974.35
973.161
971.462
969.202
966.323
962.764
958.464
953.358
947.386
940.481
932.575
923.594
913.457
902.073
889.346
875.17
859.434
842.024
822.831
801.758
778.726
753.688
726.634
547.088
567.043
585.5
602.489
618.077
632.353
645.422
657.395
668.38
678.482
687.799
696.422
704.435
711.913
718.927
725.541
731.817
737.81
743.576
749.166
754.631
760.02
765.384
770.77
776.228
781.801
787.532
793.455
799.593
805.95
812.513
819.243
826.087
832.982
839.875
846.732
853.54
860.303
867.035
873.75
880.452
887.129
893.744
900.244
906.567
912.658
918.478
924.012
929.264
934.251
938.999
943.536
947.884
952.054
956.042
959.828
963.375
966.642
969.588
972.184
974.411
976.263
977.739
978.847
979.592
979.975
979.99
979.622
978.839
977.598
975.839
973.496
970.499
966.782
962.281
956.934
950.679
943.448
935.168
925.756
915.113
903.132
889.686
874.641
857.851
839.17
818.46
795.605
770.526
743.198
560.125
580.17
598.496
615.154
630.248
643.907
656.276
667.498
677.708
687.03
695.576
703.446
710.729
717.505
723.846
729.815
735.474
740.878
746.081
751.135
756.09
760.998
765.911
770.884
775.97
781.227
786.707
792.46
798.521
804.904
811.591
818.522
825.606
832.738
839.829
846.831
853.74
860.58
867.396
874.23
881.109
888.027
894.938
901.754
908.372
914.701
920.687
926.317
931.61
936.606
941.357
945.915
950.322
954.607
958.768
962.779
966.583
970.111
973.3
976.111
978.526
980.548
982.194
983.486
984.445
985.091
985.43
985.458
985.146
984.446
983.285
981.577
979.24
976.199
972.391
967.759
962.249
955.801
948.344
939.796
930.054
918.996
906.478
892.334
876.375
858.405
838.226
815.661
790.578
762.923
575.597
595.749
613.868
630.048
644.458
657.294
668.756
679.031
688.286
696.666
704.297
711.286
717.725
723.696
729.268
734.506
739.467
744.205
748.771
753.214
757.586
761.937
766.322
770.801
775.436
780.297
785.458
790.989
796.954
803.39
810.282
817.548
825.025
832.519
839.876
847.033
854.004
860.859
867.696
874.611
881.675
888.903
896.234
903.516
910.558
917.203
923.375
929.074
934.349
939.28
943.959
948.474
952.904
957.3
961.677
965.994
970.155
974.033
977.524
980.573
983.172
985.342
987.125
988.568
989.717
990.613
991.286
991.748
991.98
991.925
991.484
990.534
988.963
986.688
983.654
979.818
975.141
969.575
963.063
955.525
946.859
936.934
925.585
912.61
897.769
880.794
861.402
839.316
814.312
786.27
593.96
614.234
632.004
647.466
660.908
672.631
682.916
692.004
700.094
707.352
713.913
719.886
725.366
730.429
735.142
739.565
743.751
747.749
751.605
755.366
759.079
762.794
766.567
770.46
774.544
778.905
783.641
788.861
794.678
801.183
808.403
816.234
824.389
832.461
840.179
847.467
854.4
861.132
867.85
874.744
881.968
889.599
897.562
905.591
913.28
920.35
926.711
932.404
937.547
942.283
946.76
951.122
955.497
959.987
964.637
969.4
974.1
978.478
982.349
985.65
988.399
990.659
992.512
994.039
995.318
996.422
997.413
998.335
999.193
999.926
1000.38
1000.35
999.664
998.239
996.04
993.057
989.279
984.682
979.227
972.846
965.446
956.893
947.005
935.545
922.208
906.637
888.428
867.149
842.397
813.908
615.915
636.297
653.437
667.768
679.803
690.011
698.772
706.383
713.072
719.014
724.344
729.17
733.576
737.635
741.404
744.936
748.276
751.465
754.545
757.556
760.538
763.538
766.608
769.811
773.223
776.942
781.095
785.842
791.378
797.915
805.612
814.421
823.84
832.881
841.065
848.381
855.053
861.389
867.717
874.366
881.644
889.78
898.764
908.119
916.858
924.487
930.971
936.494
941.298
945.624
949.694
953.716
957.892
962.408
967.401
972.86
978.475
983.616
987.962
991.486
994.294
996.53
998.335
999.832
1001.14
1002.36
1003.61
1004.98
1006.55
1008.29
1009.96
1011.07
1011.4
1010.87
1009.52
1007.41
1004.56
1001
996.691
991.607
985.663
978.742
970.662
961.153
949.835
936.252
919.85
899.957
875.836
846.874
642.654
663.005
678.888
691.345
701.303
709.446
716.255
722.062
727.097
731.526
735.472
739.025
742.257
745.225
747.977
750.551
752.984
755.308
757.554
759.754
761.939
764.149
766.427
768.828
771.426
774.323
777.662
781.653
786.603
792.943
801.19
811.694
823.8
834.503
843.168
850.187
856.156
861.624
867.089
873.047
880.052
888.703
899.398
911.502
921.997
930.235
936.582
941.582
945.701
949.297
952.661
956.055
959.76
964.106
969.458
976.059
983.5
989.862
994.726
998.318
1000.98
1002.99
1004.56
1005.87
1007.04
1008.23
1009.58
1011.31
1013.64
1016.73
1020.28
1022.91
1024.33
1024.65
1024.08
1022.78
1020.85
1018.34
1015.25
1011.57
1007.26
1002.23
996.345
989.336
980.694
969.9
956.27
938.824
916.22
886.942
676.581
696.117
709.245
718.494
725.384
730.773
735.153
738.82
741.963
744.705
747.134
749.312
751.287
753.097
754.773
756.339
757.819
759.232
760.599
761.94
763.275
764.63
766.035
767.53
769.169
771.035
773.257
776.05
779.797
785.191
793.484
806.627
825.749
839.027
847.606
853.473
857.944
861.831
865.716
870.186
876.055
884.648
897.967
917.166
930.354
938.672
944.098
947.905
950.821
953.272
955.549
957.91
960.672
964.32
969.68
978.014
990.046
998.229
1003.28
1006.46
1008.56
1010.04
1011.15
1012.06
1012.9
1013.81
1014.98
1016.72
1019.61
1024.49
1031.87
1036.47
1038.79
1039.67
1039.66
1039.04
1037.95
1036.47
1034.62
1032.42
1029.85
1026.92
1023.62
1019.84
1014.62
1007.6
998.156
985.091
966.188
937.702
723.925
738.428
745.157
749.011
751.598
753.521
755.045
756.305
757.375
758.304
759.125
759.859
760.524
761.132
761.695
762.221
762.717
763.192
763.651
764.101
764.55
765.007
765.483
765.991
766.553
767.202
767.996
769.043
770.585
773.234
778.76
792.919
836.079
850.285
855.914
858.733
860.542
862.004
863.466
865.277
868.102
873.753
888.034
931.451
945.686
951.241
953.908
955.477
956.575
957.461
958.279
959.155
960.271
962.034
965.587
974.606
1002.1
1011.07
1014.51
1016.12
1017.01
1017.58
1017.98
1018.32
1018.63
1018.99
1019.51
1020.47
1022.66
1028.63
1047.42
1053.29
1055.29
1055.96
1056.08
1055.92
1055.58
1055.09
1054.48
1053.76
1052.94
1052.1
1051.54
1052.38
1051.12
1048.76
1045.23
1039.74
1029.93
1008.49
649.668
614.263
576.877
537.623
496.633
454.05
410.031
364.732
318.313
270.935
222.752
173.918
124.583
74.8911
24.9872
651.721
616.226
578.727
539.343
498.209
455.474
411.297
365.84
319.264
271.731
223.396
174.415
124.935
75.1012
25.0571
655.851
620.173
582.446
542.796
501.37
458.327
413.832
368.055
321.163
273.319
224.681
175.404
125.636
75.5197
25.1962
662.112
626.151
588.069
548.009
506.133
462.616
417.637
371.375
324.004
275.692
226.599
176.88
126.681
76.1431
25.4033
670.587
634.23
595.652
555.021
512.522
468.353
422.712
375.792
327.775
278.836
229.137
178.831
128.061
76.9659
25.6767
681.394
644.509
605.271
563.883
520.566
475.549
429.054
381.293
332.46
282.733
232.276
181.24
129.764
77.9799
26.0135
694.695
657.121
617.023
574.656
530.293
484.206
436.65
387.855
338.027
287.35
235.987
184.082
131.771
79.1743
26.4099
710.706
672.237
631.025
587.406
541.728
494.319
445.471
395.438
344.434
292.646
240.231
187.327
134.058
80.5343
26.8612
729.718
690.075
647.414
602.198
554.879
505.856
455.465
403.978
351.616
298.56
244.957
190.933
136.595
82.0416
27.3611
752.127
710.91
666.338
619.075
569.717
518.747
466.54
413.38
359.482
305.011
250.097
194.845
139.345
83.6733
27.902
778.482
735.078
687.933
638.029
586.148
532.858
478.554
423.508
367.91
311.897
255.567
199.001
142.261
85.4024
28.475
809.571
762.966
712.267
658.941
603.972
547.968
491.295
434.175
376.744
319.088
261.267
203.324
145.291
87.1982
29.0699
846.547
794.926
739.207
681.477
622.812
563.729
504.469
445.141
385.791
326.436
267.082
207.729
148.378
89.0269
29.6757
891.051
830.961
768.134
704.927
642.05
579.651
517.697
456.116
394.83
333.772
272.887
212.128
151.46
90.8531
30.2806
944.728
869.707
797.419
728.026
660.794
595.109
530.538
466.783
403.63
340.927
278.556
216.43
154.478
92.6421
30.8734
33.3464
80.0329
126.702
173.343
219.953
266.535
313.106
359.705
406.406
453.35
500.788
549.19
599.481
653.738
717.743
33.8086
81.4225
129.027
176.619
224.198
271.774
319.369
367.026
414.824
462.909
511.539
561.193
612.758
667.913
729.612
34.2726
82.8167
131.358
179.898
228.439
276.993
325.58
374.238
423.032
472.076
521.566
571.852
623.526
677.523
734.924
34.7367
84.2108
133.688
183.171
232.665
282.181
331.734
381.346
431.055
480.918
531.027
581.53
632.662
684.751
738.071
35.1995
85.6009
136.009
186.431
236.87
287.336
337.836
388.376
438.959
489.577
540.199
590.754
641.115
691.105
740.593
35.6601
86.984
138.319
189.673
241.051
292.46
343.901
395.366
446.827
498.22
549.402
600.097
649.808
697.787
743.329
36.1174
88.3573
140.612
192.892
245.205
297.555
349.94
402.347
454.731
506.994
558.928
610.105
659.684
706.143
747.341
36.5705
89.7181
142.885
196.084
249.326
302.616
355.956
409.332
462.706
515.984
568.965
621.207
671.709
718.131
755.184
37.0183
91.0631
145.132
199.242
253.406
307.635
361.937
416.309
470.734
525.166
579.499
633.498
686.55
736.606
774.872
37.4597
92.3891
147.348
202.357
257.433
312.596
367.859
423.238
478.746
534.401
590.248
646.432
703.45
763.248
834.59
37.8935
93.6922
149.526
205.42
261.395
317.477
373.691
430.066
486.642
543.489
600.749
658.767
718.402
781.854
854.341
38.3184
94.9687
151.66
208.42
265.276
322.259
379.402
436.743
494.339
552.274
610.708
669.96
730.685
794.163
862.351
38.7331
96.2148
153.742
211.348
269.063
326.922
384.964
443.233
501.786
560.699
620.084
680.112
741.036
803.179
866.758
39.1366
97.4266
155.768
214.194
272.742
331.45
390.359
449.515
508.97
568.781
628.997
689.624
750.521
811.178
870.484
39.5276
98.6011
157.73
216.951
276.304
335.829
395.571
455.577
515.894
576.567
637.608
698.931
760.153
820.095
875.734
39.9052
99.7351
159.624
219.611
279.739
340.05
400.591
461.411
522.559
584.083
646.007
708.289
770.655
831.977
887.257
40.2686
100.826
161.446
222.169
283.04
344.103
405.407
467.004
528.95
591.305
654.141
717.57
781.863
848.033
920.805
40.617
101.872
163.192
224.619
286.2
347.98
410.01
472.345
535.044
598.178
661.848
726.232
791.747
859.483
932.175
40.9499
102.872
164.859
226.958
289.214
351.675
414.392
477.42
540.821
604.665
669.042
734.092
800.069
867.469
937.103
41.2669
103.823
166.446
229.182
292.078
355.183
418.547
482.226
546.278
610.766
675.752
741.289
807.382
873.883
940.309
41.5676
104.725
167.951
231.291
294.791
358.502
422.474
486.761
551.42
616.506
682.063
748.083
814.392
880.328
944.019
41.852
105.579
169.373
233.282
297.352
361.631
426.171
491.026
556.252
621.905
688.036
754.656
821.641
888.311
951.487
42.12
106.383
170.713
235.156
299.759
364.571
429.64
495.022
560.773
626.958
693.652
760.959
829.089
898.699
972.728
42.3717
107.137
171.97
236.914
302.016
367.322
432.883
498.75
564.981
631.643
698.825
766.673
835.49
905.997
979.909
42.6073
107.844
173.146
238.557
304.123
369.889
435.902
502.213
568.876
635.952
703.519
771.697
840.696
910.909
982.923
42.827
108.502
174.242
240.088
306.084
372.275
438.705
505.421
572.471
639.905
707.773
776.132
845.041
914.549
984.64
43.0313
109.115
175.26
241.509
307.904
374.486
441.299
508.385
575.787
643.541
711.67
780.169
848.95
917.762
986.108
43.2206
109.682
176.203
242.824
309.586
376.529
443.694
511.12
578.845
646.901
715.295
783.991
852.817
921.279
988.155
43.3952
110.205
177.073
244.037
311.136
378.41
445.897
513.635
581.662
650.01
718.695
787.704
856.918
925.877
992.601
43.5558
110.686
177.872
245.15
312.559
380.134
447.915
515.939
584.244
652.87
721.856
791.256
861.179
932.005
1005.52
43.7028
111.126
178.603
246.168
313.858
381.708
449.755
518.036
586.591
655.465
724.714
794.428
864.792
936.247
1009.83
43.8368
111.527
179.269
247.095
315.039
383.137
451.422
519.932
588.705
657.786
727.232
797.131
867.63
938.991
1011.57
43.9584
111.891
179.872
247.934
316.108
384.427
452.924
521.633
590.591
659.838
729.421
799.4
869.852
940.866
1012.47
44.0682
112.22
180.417
248.69
317.069
385.585
454.269
523.151
592.265
661.644
731.319
801.322
871.665
942.308
1013.1
44.1667
112.514
180.905
249.367
317.929
386.619
455.466
524.498
593.743
663.228
732.975
802.992
873.251
943.626
1013.78
44.2546
112.777
181.34
249.97
318.693
387.536
456.525
525.685
595.042
664.618
734.428
804.478
874.738
945.08
1014.98
44.3326
113.01
181.726
250.503
319.368
388.344
457.456
526.726
596.178
665.83
735.7
805.801
876.151
946.821
1018.21
44.4012
113.215
182.064
250.971
319.959
389.05
458.267
527.63
597.161
666.878
736.796
806.934
877.324
948.048
1019.32
44.461
113.394
182.359
251.378
320.471
389.661
458.966
528.408
598.004
667.772
737.725
807.877
878.248
948.872
1019.8
44.5128
113.548
182.613
251.728
320.911
390.183
459.562
529.067
598.716
668.524
738.5
808.652
878.978
949.464
1020.08
44.5569
113.68
182.83
252.025
321.283
390.623
460.061
529.617
599.306
669.144
739.139
809.291
879.58
949.95
1020.3
44.5942
113.791
183.012
252.273
321.593
390.986
460.47
530.063
599.782
669.643
739.655
809.819
880.108
950.434
1020.58
44.6252
113.883
183.162
252.477
321.844
391.277
460.794
530.411
600.148
670.022
740.051
810.245
880.594
951.022
1021.21
44.6504
113.958
183.283
252.641
322.043
391.504
461.039
530.666
600.406
670.281
740.318
810.548
881.009
951.763
1023.05
44.6708
114.017
183.38
252.768
322.194
391.67
461.211
530.833
600.559
670.414
740.436
810.676
881.203
952.12
1023.57
44.6868
114.064
183.454
252.864
322.304
391.784
461.317
530.918
600.609
670.419
740.39
810.588
881.11
952.088
1023.63
44.6994
114.101
183.511
252.935
322.38
391.854
461.366
530.93
600.565
670.298
740.172
810.26
880.685
951.644
1023.38
44.7094
114.13
183.554
252.986
322.43
391.889
461.37
530.883
600.44
670.065
739.791
809.684
879.873
950.641
1022.6
44.7177
114.153
183.589
253.025
322.461
391.9
461.342
530.793
600.258
669.748
739.279
808.886
878.642
948.79
1020.37
44.7253
114.175
183.619
253.057
322.485
391.9
461.299
530.682
600.046
669.388
738.702
807.968
877.122
945.926
1013.32
44.7332
114.197
183.651
253.091
322.51
391.902
461.259
530.573
599.837
669.035
738.143
807.112
875.829
944.023
1011.07
44.7423
114.222
183.689
253.134
322.547
391.919
461.237
530.489
599.66
668.729
737.665
806.414
874.881
942.899
1010.23
44.7536
114.255
183.739
253.194
322.607
391.964
461.25
530.449
599.541
668.502
737.301
805.896
874.229
942.231
1009.86
44.7681
114.297
183.805
253.277
322.697
392.048
461.313
530.471
599.499
668.373
737.064
805.543
873.788
941.802
1009.65
44.7866
114.352
183.892
253.389
322.827
392.184
461.439
530.57
599.55
668.355
736.956
805.335
873.489
941.47
1009.44
44.81
114.421
184.003
253.538
323.004
392.38
461.64
530.759
599.709
668.461
736.986
805.263
873.291
941.127
1009.02
44.8389
114.507
184.143
253.727
323.236
392.645
461.927
531.053
599.991
668.708
737.17
805.344
873.206
940.725
1007.77
44.874
114.611
184.315
253.962
323.529
392.988
462.309
531.462
600.41
669.114
737.533
805.622
873.337
940.63
1007.44
44.9157
114.736
184.521
254.247
323.887
393.414
462.796
531.998
600.981
669.7
738.105
806.138
873.736
940.843
1007.45
44.9643
114.881
184.762
254.582
324.315
393.93
463.394
532.67
601.717
670.485
738.914
806.933
874.452
941.374
1007.66
45.02
115.048
185.041
254.972
324.814
394.537
464.107
533.485
602.628
671.483
739.985
808.051
875.556
942.32
1008.13
45.0829
115.237
185.356
255.414
325.385
395.238
464.938
534.446
603.719
672.704
741.336
809.531
877.148
943.903
1009.16
45.1526
115.447
185.707
255.909
326.027
396.031
465.885
535.553
604.99
674.145
742.965
811.385
879.31
946.493
1011.84
45.2288
115.676
186.092
256.455
326.738
396.913
466.946
536.801
606.433
675.796
744.845
813.552
881.955
950.326
1019.91
45.3109
115.924
186.509
257.045
327.511
397.878
468.114
538.183
608.041
677.64
746.933
815.898
884.589
953.277
1022.73
45.398
116.186
186.952
257.676
328.34
398.918
469.38
539.691
609.805
679.668
749.22
818.402
887.189
955.658
1024.09
45.4889
116.461
187.416
258.34
329.215
400.022
470.733
541.313
611.717
681.885
751.732
821.146
889.97
958.022
1025.19
45.5824
116.744
187.895
259.026
330.125
401.177
472.157
543.035
613.769
684.294
754.513
824.262
893.248
960.958
1026.66
45.6767
117.029
188.38
259.724
331.055
402.363
473.631
544.834
615.937
686.886
757.587
827.87
897.371
965.243
1029.54
45.77
117.312
188.861
260.42
331.987
403.56
475.128
546.678
618.186
689.617
760.915
831.982
902.584
971.964
1036.85
45.8601
117.586
189.329
261.098
332.901
404.741
476.617
548.526
620.46
692.409
764.369
836.376
908.6
981.759
1059.14
45.9447
117.844
189.77
261.742
333.774
405.877
478.061
550.332
622.695
695.159
767.753
840.579
913.922
988.576
1066.48
46.0211
118.077
190.172
262.333
334.581
406.939
479.422
552.048
624.829
697.783
770.94
844.378
918.287
993.083
1069.46
46.0867
118.278
190.521
262.851
335.298
407.893
480.662
553.629
626.814
700.232
773.893
847.808
921.987
996.439
1071.14
46.1385
118.437
190.802
263.274
335.896
408.706
481.741
555.032
628.606
702.475
776.629
851.011
925.451
999.568
1072.69
46.1734
118.547
190.999
263.582
336.348
409.344
482.618
556.212
630.162
704.486
779.17
854.128
929.089
1003.34
1075.16
46.1883
118.596
191.097
263.752
336.623
409.769
483.249
557.118
631.426
706.209
781.48
857.198
933.175
1008.74
1081.07
46.18
118.576
191.078
263.759
336.69
409.941
483.585
557.691
632.328
707.558
783.44
860.042
937.5
1016.33
1099
46.1454
118.476
190.928
263.581
336.517
409.821
483.576
557.869
632.786
708.418
784.86
862.247
940.828
1021.19
1104.72
46.0812
118.288
190.629
263.193
336.074
409.366
483.169
557.584
632.717
708.678
785.583
863.579
942.872
1023.79
1106.74
45.9846
118.002
190.165
262.573
335.328
408.537
482.313
556.773
632.042
708.245
785.51
863.966
943.74
1024.93
1107.46
45.8528
117.61
189.523
261.699
334.25
407.294
480.957
555.373
630.686
707.039
784.569
863.394
943.578
1025.07
1107.62
45.6835
117.105
188.69
260.553
332.813
405.6
479.053
553.324
628.576
704.979
782.689
861.834
942.455
1024.44
1107.43
45.4748
116.48
187.655
259.118
330.995
403.423
476.556
550.564
625.637
701.974
779.773
859.203
940.336
1023.06
1106.95
45.2256
115.733
186.412
257.383
328.776
400.736
473.428
547.039
621.788
697.917
775.686
855.346
937.066
1020.81
1106.14
44.9356
114.862
184.958
255.343
326.148
397.521
469.636
542.697
616.949
692.685
770.247
850.015
932.343
1017.4
1104.85
44.6053
113.869
183.295
252.999
323.108
393.772
465.164
537.5
611.048
686.149
763.237
842.863
925.676
1012.29
1102.77
44.2365
112.759
181.431
250.36
319.669
389.496
460.013
531.434
604.039
678.198
754.425
833.453
916.324
1004.44
1099.12
43.8319
111.539
179.379
247.447
315.852
384.721
454.21
524.521
595.92
668.777
743.632
821.331
903.282
991.983
1091.73
43.3955
110.223
177.16
244.289
311.698
379.496
447.815
516.826
586.758
657.933
730.826
806.214
885.508
971.806
1073.87
998.919
902.697
821.588
747.198
676.54
608.24
541.547
475.995
411.275
347.171
283.522
220.208
157.133
94.2183
31.3961
1016.04
922.174
838.876
762.022
689.202
619.051
550.751
483.782
417.789
352.523
287.798
223.472
159.432
95.5854
31.8497
1023.17
934.292
851.673
774.029
699.996
628.562
559.021
490.881
423.79
357.492
291.79
226.532
161.595
96.8734
32.2775
1026.75
942.043
860.998
783.511
708.972
636.747
566.307
497.241
429.233
362.04
295.469
229.366
163.604
98.0727
32.6762
1028.84
947.231
867.835
790.93
716.327
643.678
572.626
502.855
434.102
366.148
298.816
231.958
165.449
99.1767
33.0437
1030.21
950.864
872.923
796.735
722.31
649.488
578.045
507.754
438.405
369.817
301.829
234.305
167.125
100.183
33.3789
1031.16
953.505
876.776
801.298
727.166
654.326
582.652
511.987
442.173
373.06
304.513
236.407
168.634
101.09
33.6817
1031.86
955.483
879.743
804.911
731.109
658.342
586.546
515.619
445.445
375.904
306.884
238.275
169.979
101.901
33.9529
1032.39
956.999
882.06
807.793
734.318
661.67
589.825
518.718
448.267
378.38
308.962
239.921
171.169
102.621
34.1937
1032.8
958.183
883.894
810.109
736.938
664.428
592.578
521.351
450.689
380.521
310.772
241.362
172.215
103.255
34.406
1033.12
959.12
885.359
811.981
739.083
666.715
594.887
523.581
452.759
382.365
312.339
242.616
173.129
103.81
34.5921
1033.38
959.87
886.54
813.504
740.845
668.612
596.821
525.466
454.521
383.945
313.69
243.701
173.921
104.293
34.7541
1033.59
960.475
887.498
814.749
742.297
670.188
598.441
527.056
456.018
385.295
314.849
244.636
174.607
104.71
34.8945
1033.75
960.967
888.28
815.77
743.496
671.498
599.797
528.396
457.286
386.444
315.84
245.438
175.196
105.07
35.0156
1033.89
961.369
888.921
816.612
744.489
672.589
600.932
529.523
458.358
387.42
316.685
246.124
175.701
105.38
35.1196
1034
961.699
889.449
817.306
745.312
673.498
601.881
530.471
459.263
388.247
317.404
246.709
176.133
105.644
35.2087
1034.1
961.97
889.885
817.881
745.996
674.255
602.676
531.266
460.026
388.947
318.013
247.206
176.5
105.869
35.2846
1034.17
962.195
890.245
818.358
746.564
674.886
603.34
531.934
460.669
389.537
318.529
247.627
176.812
106.061
35.3492
1034.24
962.38
890.543
818.753
747.036
675.413
603.896
532.494
461.208
390.034
318.964
247.983
177.076
106.223
35.4039
1034.29
962.533
890.789
819.08
747.428
675.851
604.359
532.962
461.66
390.452
319.33
248.283
177.299
106.36
35.4502
1034.33
962.66
890.994
819.352
747.754
676.215
604.746
533.352
462.039
390.802
319.637
248.535
177.486
106.476
35.4891
1034.37
962.765
891.162
819.577
748.024
676.517
605.066
533.678
462.354
391.094
319.894
248.746
177.643
106.572
35.5218
1034.4
962.851
891.301
819.762
748.247
676.767
605.332
533.947
462.615
391.337
320.107
248.922
177.774
106.653
35.549
1034.42
962.922
891.415
819.914
748.429
676.972
605.55
534.169
462.831
391.537
320.284
249.067
177.882
106.719
35.5715
1034.44
962.979
891.508
820.037
748.578
677.139
605.728
534.35
463.007
391.7
320.428
249.186
177.97
106.774
35.59
1034.45
963.025
891.582
820.136
748.697
677.273
605.871
534.495
463.149
391.832
320.544
249.282
178.042
106.818
35.6049
1034.47
963.06
891.639
820.213
748.79
677.378
605.983
534.61
463.261
391.936
320.636
249.358
178.099
106.853
35.6167
1034.48
963.087
891.683
820.271
748.86
677.457
606.068
534.697
463.346
392.016
320.707
249.416
178.142
106.88
35.6258
1034.48
963.106
891.713
820.312
748.91
677.514
606.129
534.759
463.407
392.073
320.757
249.458
178.174
106.9
35.6324
1034.49
963.117
891.732
820.337
748.94
677.548
606.166
534.798
463.445
392.11
320.79
249.486
178.194
106.912
35.6367
1034.49
963.121
891.738
820.346
748.952
677.562
606.182
534.815
463.463
392.127
320.806
249.499
178.204
106.919
35.6389
1034.49
963.118
891.733
820.34
748.945
677.556
606.177
534.811
463.46
392.125
320.805
249.499
178.205
106.919
35.6391
1034.48
963.107
891.716
820.318
748.92
677.529
606.15
534.785
463.437
392.105
320.789
249.486
178.196
106.914
35.6373
1034.48
963.088
891.685
820.278
748.875
677.481
606.101
534.738
463.393
392.067
320.756
249.461
178.177
106.902
35.6335
1034.47
963.059
891.64
820.22
748.807
677.408
606.027
534.667
463.328
392.008
320.707
249.421
178.149
106.885
35.6278
1034.45
963.019
891.578
820.14
748.715
677.31
605.928
534.571
463.239
391.929
320.64
249.368
178.11
106.862
35.62
1034.43
962.967
891.495
820.034
748.594