/*--------------------------------*- C++ -*----------------------------------*\
| =========                 |                                                 |
| \\      /  F ield         | OpenFOAM: The Open Source CFD Toolbox           |
|  \\    /   O peration     | Version:  5.x                                   |
|   \\  /    A nd           | Web:      www.OpenFOAM.org                      |
|    \\/     M anipulation  |                                                 |
\*---------------------------------------------------------------------------*/
FoamFile
{
    version     2.0;
    format      ascii;
    class       volScalarField;
    location    "14.4";
    object      T;
}
// * * * * * * * * * * * * * * * * * * * * * * * * * * * * * * * * * * * * * //

dimensions      [0 0 0 1 0 0 0];

internalField   nonuniform List<scalar> 
6300
(
10.121
10.3627
10.6032
10.842
11.0782
11.3111
11.5401
11.7644
11.9832
12.196
12.4022
12.601
12.792
12.9748
13.1491
10.1214
10.3637
10.605
10.8445
11.0814
11.3151
11.5447
11.7697
11.9892
12.2026
12.4093
12.6087
12.8002
12.9833
13.1577
10.1221
10.3659
10.6086
10.8495
11.0879
11.3229
11.554
11.7803
12.0012
12.2159
12.4238
12.6242
12.8165
13.0003
13.1752
10.1232
10.3691
10.614
10.8571
11.0976
11.3348
11.568
11.7964
12.0192
12.2359
12.4455
12.6476
12.8413
13.0261
13.2017
10.1246
10.3734
10.6212
10.8671
11.1105
11.3506
11.5866
11.8178
12.0435
12.2628
12.4749
12.6791
12.8748
13.0611
13.2377
10.1264
10.3788
10.6302
10.8797
11.1267
11.3704
11.61
11.8448
12.074
12.2967
12.512
12.7192
12.9174
13.1058
13.2837
10.1285
10.3853
10.6409
10.8948
11.1461
11.3942
11.6382
11.8774
12.1109
12.3378
12.5573
12.7682
12.9697
13.1607
13.3405
10.131
10.3928
10.6534
10.9123
11.1687
11.4219
11.6711
11.9155
12.1542
12.3864
12.6109
12.8266
13.0323
13.2269
13.409
10.1339
10.4013
10.6677
10.9323
11.1946
11.4536
11.7088
11.9593
12.2041
12.4424
12.6731
12.8948
13.106
13.3052
13.4907
10.1371
10.4108
10.6836
10.9547
11.2235
11.4892
11.7511
12.0085
12.2605
12.5061
12.7442
12.9733
13.1917
13.3972
13.5873
10.1406
10.4214
10.7012
10.9795
11.2554
11.5285
11.7979
12.0631
12.3231
12.5772
12.8241
13.0625
13.2901
13.5043
13.7013
10.1444
10.4329
10.7204
11.0064
11.2902
11.5713
11.8489
12.1226
12.3916
12.6553
12.9126
13.1622
13.402
13.6283
13.8359
10.1485
10.4453
10.7411
11.0355
11.3278
11.6174
11.9039
12.1867
12.4654
12.7395
13.0086
13.2716
13.527
13.7711
13.996
10.153
10.4586
10.7633
11.0666
11.3679
11.6666
11.9624
12.2549
12.5437
12.8288
13.1104
13.3886
13.6634
13.9328
14.1884
10.1577
10.4727
10.7869
11.0997
11.4104
11.7188
12.0242
12.3265
12.6255
12.9215
13.2154
13.5089
13.805
14.108
14.4196
13.3007
13.4324
13.5579
13.6773
13.7908
13.8985
14.0007
14.0976
14.1897
14.2771
14.3605
14.44
14.5162
14.5894
14.6601
14.7286
14.7955
14.861
14.9256
14.9897
15.0535
15.1175
15.182
15.2472
15.3135
15.381
15.45
15.5207
15.593
15.6672
15.7433
15.8212
15.901
15.9825
16.0656
16.1503
16.2364
16.3237
16.4119
16.501
16.5905
16.6803
16.77
16.8593
16.9479
17.0355
17.1218
17.2063
17.289
17.3694
17.4472
17.5223
17.5942
17.6627
17.7275
17.7882
17.8444
17.8957
17.9418
17.9822
18.0164
18.0441
18.0648
18.0779
18.0829
18.0792
18.0663
18.0434
18.0098
17.9647
17.9072
17.8363
17.7511
17.6505
17.5334
17.3986
17.245
17.0714
16.8764
16.659
16.4177
16.1515
15.8592
15.5396
15.192
14.8154
14.4093
13.9733
13.5075
13.0118
13.3095
13.4411
13.5665
13.6858
13.799
13.9063
14.0081
14.1045
14.196
14.283
14.3657
14.4447
14.5202
14.5929
14.6629
14.7309
14.7972
14.8621
14.9262
14.9897
15.0531
15.1166
15.1807
15.2455
15.3115
15.3787
15.4475
15.5179
15.5902
15.6643
15.7404
15.8184
15.8982
15.9799
16.0632
16.1481
16.2344
16.322
16.4106
16.5
16.5899
16.6801
16.7703
16.8601
16.9491
17.0372
17.1239
17.2089
17.2919
17.3727
17.451
17.5264
17.5988
17.6678
17.7331
17.7943
17.851
17.903
17.9496
17.9907
18.0256
18.0539
18.0753
18.0892
18.095
18.0923
18.0803
18.0585
18.0261
17.9822
17.926
17.8566
17.7729
17.6739
17.5584
17.4254
17.2735
17.1017
16.9086
16.6929
16.4534
16.1888
15.898
15.5798
15.2333
14.8575
14.452
14.0162
13.5501
13.0538
13.3271
13.4587
13.5839
13.7027
13.8154
13.922
14.0229
14.1184
14.2088
14.2947
14.3762
14.454
14.5284
14.5998
14.6687
14.7354
14.8006
14.8644
14.9273
14.9898
15.0522
15.1148
15.178
15.242
15.3073
15.374
15.4422
15.5123
15.5844
15.6584
15.7345
15.8125
15.8926
15.9745
16.0582
16.1436
16.2304
16.3185
16.4078
16.4979
16.5887
16.6797
16.7708
16.8615
16.9515
17.0405
17.1281
17.2139
17.2978
17.3794
17.4584
17.5347
17.608
17.6779
17.7442
17.8064
17.8643
17.9174
17.9653
18.0076
18.0438
18.0735
18.0963
18.1117
18.1192
18.1182
18.1082
18.0885
18.0584
18.0171
17.9636
17.8971
17.8164
17.7206
17.6085
17.4789
17.3306
17.1623
16.9728
16.7608
16.5248
16.2636
15.976
15.6606
15.3164
14.9424
14.5379
14.1025
13.6359
13.1383
13.3539
13.4855
13.6103
13.7285
13.8402
13.9457
14.0453
14.1393
14.2282
14.3123
14.3921
14.468
14.5406
14.6101
14.6772
14.7422
14.8055
14.8677
14.929
14.9899
15.0507
15.1119
15.1738
15.2367
15.3008
15.3666
15.4342
15.5038
15.5754
15.6493
15.7254
15.8037
15.884
15.9664
16.0506
16.1366
16.2242
16.3132
16.4034
16.4947
16.5867
16.6791
16.7716
16.8637
16.9552
17.0455
17.1344
17.2215
17.3066
17.3893
17.4696
17.5471
17.6216
17.693
17.7607
17.8246
17.8842
17.9391
17.9888
18.0329
18.071
18.1027
18.1276
18.1452
18.1551
18.1568
18.1497
18.1332
18.1066
18.0691
18.0197
17.9575
17.8815
17.7905
17.6834
17.559
17.416
17.2532
17.0692
16.8627
16.6322
16.3763
16.0935
15.7825
15.442
15.0709
14.6681
14.2333
13.766
13.2665
13.3902
13.5218
13.6461
13.7634
13.8739
13.9778
14.0756
14.1675
14.2541
14.3359
14.4133
14.4868
14.5568
14.6239
14.6885
14.7511
14.8121
14.8719
14.931
14.9898
15.0486
15.1078
15.1679
15.2292
15.2919
15.3565
15.4231
15.4919
15.5631
15.6368
15.713
15.7915
15.8723
15.9553
16.0403
16.1272
16.2157
16.3058
16.3974
16.4901
16.5838
16.678
16.7725
16.8667
16.9601
17.0524
17.143
17.2318
17.3184
17.4026
17.4844
17.5634
17.6396
17.7128
17.7826
17.8486
17.9105
17.9678
18.02
18.0666
18.1072
18.1415
18.169
18.1895
18.2025
18.2076
18.2044
18.1922
18.1702
18.1378
18.0939
18.0376
17.9678
17.8832
17.7828
17.6654
17.5296
17.3742
17.1978
16.9989
16.7759
16.5273
16.2515
15.9467
15.6115
15.2444
14.8444
14.4105
13.9424
13.4402
13.4368
13.5682
13.6919
13.808
13.9168
14.0187
14.114
14.2032
14.2869
14.3657
14.4399
14.5103
14.5771
14.6411
14.7026
14.7622
14.8202
14.8771
14.9333
14.9893
15.0456
15.1023
15.1601
15.2193
15.2802
15.3432
15.4085
15.4764
15.5471
15.6205
15.6968
15.7758
15.8573
15.9411
16.0271
16.115
16.2047
16.2962
16.3893
16.4839
16.5798
16.6764
16.7735
16.8704
16.9665
17.0612
17.1541
17.2449
17.3333
17.4192
17.5027
17.5835
17.6617
17.7372
17.8095
17.8783
17.9432
18.0035
18.0588
18.1085
18.1522
18.1896
18.2203
18.2442
18.2609
18.2702
18.2717
18.2647
18.2486
18.2226
18.1857
18.1368
18.0748
17.9984
17.9065
17.7979
17.6712
17.5252
17.3584
17.1693
16.9562
16.7173
16.4507
16.1544
15.8265
15.4653
15.0691
14.6368
14.1678
13.6621
13.4943
13.6256
13.7485
13.8631
13.9697
14.0688
14.1609
14.2467
14.3268
14.4017
14.4721
14.5385
14.6015
14.6616
14.7194
14.7752
14.8296
14.8829
14.9358
14.9885
15.0415
15.0952
15.1502
15.2067
15.2653
15.3262
15.3899
15.4567
15.5267
15.6
15.6766
15.7562
15.8387
15.9236
16.0107
16.0999
16.1909
16.284
16.3789
16.4757
16.5742
16.674
16.7745
16.875
16.9745
17.0724
17.1681
17.2611
17.3515
17.4392
17.5243
17.6071
17.6876
17.7657
17.8411
17.9135
17.9821
18.0463
18.1053
18.1587
18.206
18.2468
18.2811
18.3088
18.3298
18.3438
18.3507
18.35
18.341
18.3228
18.2945
18.2546
18.2021
18.1357
18.054
17.956
17.8403
17.7058
17.5508
17.3739
17.1733
16.9468
16.6923
16.4073
16.0893
15.7361
15.3454
14.9156
14.4458
13.9357
13.5639
13.6951
13.8169
13.9294
14.0331
14.1287
14.2168
14.2983
14.3738
14.444
14.5097
14.5715
14.6298
14.6854
14.7387
14.7901
14.8402
14.8894
14.9382
14.9869
15.0361
15.0862
15.1377
15.191
15.2466
15.3051
15.3668
15.4321
15.5013
15.5745
15.6517
15.7324
15.8163
15.9027
15.9913
16.0817
16.1741
16.2686
16.3655
16.4648
16.5666
16.6704
16.7754
16.8806
16.9846
17.0865
17.1854
17.2809
17.3732
17.4625
17.5491
17.6337
17.7165
17.7976
17.8769
17.9536
18.027
18.096
18.1597
18.2174
18.2686
18.3132
18.3512
18.3828
18.4081
18.4274
18.4404
18.4469
18.4462
18.4374
18.4193
18.3904
18.3492
18.2944
18.2248
18.1391
18.0364
17.9153
17.7745
17.6124
17.4272
17.2164
16.9774
16.7073
16.4027
16.0605
15.6777
15.2519
14.7815
14.266
13.647
13.7781
13.8984
14.0082
14.1081
14.1992
14.2822
14.3583
14.4282
14.4928
14.5529
14.6091
14.662
14.7123
14.7603
14.8067
14.8519
14.8963
14.9404
14.9845
15.0292
15.075
15.1223
15.1717
15.2238
15.279
15.3382
15.4016
15.4699
15.5432
15.6213
15.7039
15.7899
15.8784
15.9688
16.0606
16.1541
16.2497
16.3482
16.4501
16.5557
16.6646
16.7758
16.8875
16.9976
17.1046
17.2072
17.3052
17.3989
17.4891
17.5767
17.6626
17.7475
17.832
17.9158
17.9983
18.0779
18.1531
18.2225
18.285
18.3404
18.3886
18.4301
18.4654
18.495
18.5195
18.5391
18.5537
18.5627
18.5651
18.5593
18.5433
18.5155
18.4741
18.4182
18.3466
18.2584
18.1528
18.0285
17.884
17.7175
17.5262
17.3072
17.0565
16.7699
16.443
16.0716
15.652
15.1817
14.6597
13.7457
13.8767
13.9949
14.1009
14.1958
14.2809
14.3576
14.4269
14.49
14.5479
14.6014
14.6512
14.6979
14.7421
14.7843
14.825
14.8646
14.9035
14.9422
14.9811
15.0207
15.0614
15.1038
15.1484
15.196
15.2473
15.303
15.3641
15.4311
15.5046
15.5845
15.67
15.7596
15.8514
15.9439
16.0368
16.1306
16.2264
16.3257
16.4299
16.5397
16.6553
16.7751
16.8962
17.015
17.1285
17.2353
17.3353
17.4295
17.5192
17.6063
17.6924
17.779
17.867
17.9565
18.0466
18.1348
18.2184
18.2947
18.3627
18.4221
18.4734
18.5176
18.5557
18.589
18.6184
18.6446
18.6681
18.6884
18.7043
18.7135
18.7132
18.7008
18.6746
18.6337
18.5774
18.5053
18.4168
18.3112
18.1872
18.0429
17.8758
17.6821
17.457
17.1948
16.8893
16.5345
16.1248
15.6561
15.1262
13.8627
13.9936
14.1087
14.2094
14.2974
14.3748
14.4432
14.5043
14.5592
14.6092
14.655
14.6975
14.7371
14.7745
14.8102
14.8445
14.878
14.9108
14.9436
14.9766
15.0102
15.0451
15.0817
15.1207
15.1627
15.2089
15.2601
15.3176
15.3827
15.4565
15.5393
15.6301
15.726
15.8229
15.9182
16.0115
16.1039
16.1979
16.296
16.4011
16.5154
16.6396
16.7722
16.9081
17.0397
17.1619
17.273
17.3736
17.466
17.5529
17.637
17.7212
17.808
17.8994
17.9962
18.0972
18.1983
18.2935
18.3787
18.4525
18.5151
18.5682
18.6134
18.6528
18.6882
18.7214
18.7538
18.7867
18.8201
18.8528
18.8811
18.9
18.9056
18.8961
18.8711
18.8307
18.7754
18.7052
18.62
18.519
18.401
18.2633
18.102
17.9108
17.6817
17.4063
17.076
16.6825
16.2183
15.6788
14.0025
14.133
14.2432
14.3359
14.4143
14.4812
14.5393
14.5902
14.6355
14.6762
14.7134
14.7476
14.7794
14.8094
14.8378
14.8652
14.8919
14.9181
14.9443
14.9708
14.9979
15.0261
15.056
15.0882
15.1234
15.1629
15.2078
15.2601
15.3217
15.3952
15.4823
15.5825
15.6908
15.7966
15.8953
15.987
16.0749
16.1631
16.2561
16.3589
16.4762
16.6116
16.7644
16.9258
17.0777
17.2111
17.3252
17.4235
17.5103
17.5902
17.6673
17.746
17.8301
17.9237
18.0296
18.1473
18.2697
18.3827
18.479
18.5578
18.6217
18.6738
18.7174
18.7553
18.7903
18.825
18.862
18.904
18.9526
19.0072
19.062
19.1055
19.1317
19.1395
19.1301
19.1053
19.0665
19.0148
18.951
18.8752
18.7869
18.6846
18.5644
18.4187
18.235
18.0019
17.7082
17.3416
16.8887
16.3383
14.1724
14.3016
14.4029
14.4828
14.5473
14.6004
14.6453
14.684
14.718
14.7483
14.7758
14.8009
14.8242
14.8461
14.8669
14.8868
14.9062
14.9254
14.9445
14.9638
14.9838
15.0046
15.0268
15.051
15.0779
15.1087
15.1449
15.1887
15.2436
15.3141
15.406
15.5232
15.6587
15.7805
15.882
15.9679
16.0452
16.121
16.2019
16.2955
16.4109
16.5582
16.7441
16.9569
17.142
17.2876
17.4001
17.4895
17.5642
17.631
17.6953
17.7625
17.8383
17.93
18.0455
18.1901
18.3546
18.4956
18.6039
18.6844
18.7447
18.7913
18.8291
18.8617
18.8925
18.9249
18.9628
19.0113
19.0761
19.1611
19.2587
19.3355
19.3839
19.4073
19.4111
19.3995
19.3757
19.3417
19.299
19.2489
19.1926
19.1311
19.0634
18.9809
18.8591
18.6844
18.4452
18.1248
17.6989
17.1395
14.3872
14.5099
14.593
14.652
14.6963
14.7314
14.7601
14.7845
14.8057
14.8244
14.8412
14.8566
14.8709
14.8842
14.8968
14.909
14.9208
14.9324
14.9441
14.9559
14.9681
14.9809
14.9946
15.0097
15.0267
15.0466
15.0706
15.1012
15.1425
15.202
15.2932
15.4372
15.6462
15.7933
15.8909
15.9607
16.0176
16.0712
16.1291
16.2006
16.2993
16.4488
16.6847
17.0277
17.2631
17.4113
17.508
17.5763
17.6293
17.675
17.7188
17.7661
17.8235
17.9017
18.0192
18.2041
18.4728
18.6555
18.7684
18.8397
18.8872
18.9213
18.9477
18.9703
18.9921
19.0165
19.048
19.0947
19.1703
19.2964
19.4851
19.6061
19.6717
19.703
19.7136
19.711
19.6992
19.6807
19.6573
19.6311
19.6054
19.5864
19.5833
19.5994
19.5588
19.4594
19.2988
19.0594
18.7012
18.1528
14.685
14.7754
14.8176
14.842
14.8586
14.8711
14.8811
14.8894
14.8966
14.903
14.9086
14.9138
14.9186
14.9231
14.9273
14.9314
14.9354
14.9393
14.9432
14.9472
14.9513
14.9556
14.9602
14.9654
14.9712
14.9781
14.9867
14.9982
15.0151
15.0441
15.1042
15.2574
15.7228
15.877
15.9394
15.9721
15.9947
16.0147
16.0366
16.066
16.1145
16.2146
16.4708
17.2532
17.5092
17.6088
17.6566
17.6848
17.7048
17.7213
17.7371
17.7548
17.7783
17.8166
17.8954
18.0973
18.7143
18.9154
18.9927
19.0287
19.0488
19.0618
19.0716
19.0797
19.0878
19.0973
19.1111
19.136
19.1916
19.3411
19.8084
19.9562
20.0084
20.0282
20.0349
20.0353
20.032
20.0263
20.0192
20.0121
20.0084
20.0182
20.075
20.2995
20.3426
20.3223
20.2654
20.1648
19.9771
19.5603
12.4343
11.7633
11.0529
10.3055
9.52365
8.71021
7.86824
7.00088
6.11132
5.2027
4.27814
3.34066
2.39323
1.43874
0.480048
12.4751
11.8023
11.0898
10.3398
9.55504
8.73857
7.89346
7.02295
6.13025
5.21855
4.29097
3.35054
2.40024
1.44293
0.481438
12.5573
11.8809
11.1638
10.4085
9.61801
8.79538
7.94394
7.06706
6.16805
5.25017
4.31655
3.37025
2.4142
1.45126
0.484208
12.682
11.9999
11.2758
10.5124
9.71288
8.88081
8.01972
7.13317
6.22462
5.29741
4.35474
3.39963
2.43501
1.46367
0.488332
12.8507
12.1609
11.4269
10.6521
9.84016
8.99509
8.1208
7.22113
6.29972
5.36002
4.40526
3.43846
2.46248
1.48005
0.493773
13.066
12.3657
11.6185
10.8286
10.0004
9.13842
8.24712
7.33068
6.39299
5.4376
4.46774
3.48641
2.49637
1.50023
0.500476
13.3311
12.6171
11.8528
11.0433
10.1942
9.31088
8.3984
7.46135
6.50385
5.52952
4.54161
3.54299
2.53631
1.524
0.508367
13.6504
12.9185
12.1319
11.2974
10.4221
9.51232
8.57407
7.61233
6.6314
5.63494
4.62608
3.60757
2.58183
1.55107
0.517347
14.0298
13.2743
12.4586
11.5922
10.684
9.7421
8.77306
7.78235
6.77436
5.75264
4.72013
3.67931
2.63231
1.58106
0.527293
14.4772
13.6899
12.8359
11.9285
10.9796
9.99878
8.99355
7.9695
6.9309
5.88102
4.82241
3.75716
2.68702
1.61352
0.538054
15.0035
14.1721
13.2664
12.3061
11.3068
10.2797
9.23266
8.17105
7.0986
6.018
4.93123
3.83982
2.74502
1.64791
0.549452
15.6243
14.7282
13.7512
12.7225
11.6616
10.5804
9.48616
8.38326
7.27432
6.16105
5.04459
3.92579
2.80529
1.68363
0.561283
16.3619
15.3649
14.2875
13.1709
12.0364
10.8939
9.74817
8.60133
7.45422
6.30715
5.16021
4.0134
2.86667
1.71999
0.573326
17.248
16.0816
14.8626
13.6371
12.4188
11.2104
10.0111
8.81951
7.63392
6.453
5.27561
4.10084
2.92794
1.75629
0.585353
18.3133
16.8505
15.444
14.0958
12.7911
11.5175
10.2663
9.03147
7.80881
6.59519
5.38829
4.18634
2.98792
1.79185
0.597136
10.1622
10.4865
10.8098
11.1317
11.4517
11.7692
12.0837
12.3951
12.7032
13.0084
13.3119
13.6165
13.9282
14.2607
14.6514
10.1666
10.4995
10.8316
11.1622
11.4908
11.8169
12.14
12.4597
12.7757
13.0885
13.3988
13.7094
14.0257
14.3589
14.7289
10.1712
10.5132
10.8543
11.194
11.5317
11.8667
12.1986
12.5266
12.8505
13.1701
13.4855
13.7982
14.1115
14.4314
14.7666
10.1759
10.5274
10.8781
11.2273
11.5744
11.9187
12.2597
12.5964
12.9283
13.2544
13.574
13.8866
14.1924
14.4932
14.7923
10.1809
10.5423
10.9028
11.2619
11.6189
11.973
12.3236
12.6696
13.0099
13.3431
13.6672
13.9795
14.2767
14.5559
14.8169
10.186
10.5577
10.9286
11.298
11.6653
12.0298
12.3906
12.7466
13.0965
13.4381
13.7685
14.0827
14.3735
14.6311
14.8482
10.1913
10.5737
10.9553
11.3355
11.7137
12.0891
12.4608
12.8279
13.1887
13.5409
13.8808
14.2021
14.4932
14.7343
14.8988
10.1969
10.5903
10.983
11.3744
11.7639
12.1508
12.5343
12.9134
13.2867
13.652
14.006
14.3423
14.6474
14.8907
15.0028
10.2025
10.6074
11.0115
11.4145
11.8158
12.2148
12.6108
13.0029
13.3901
13.771
14.1435
14.504
14.8444
15.138
15.2679
10.2084
10.6249
11.0409
11.4558
11.8693
12.2808
12.6898
13.0957
13.4978
13.8957
14.2891
14.6796
15.0739
15.4989
16.0749
10.2143
10.6429
11.0709
11.4981
11.9241
12.3485
12.771
13.191
13.6084
14.0233
14.4366
14.8524
15.2818
15.7547
16.3434
10.2204
10.6611
11.1015
11.5412
11.9799
12.4175
12.8537
13.2881
13.7207
14.1518
14.5824
15.0156
15.4593
15.93
16.4553
10.2266
10.6796
11.1324
11.5848
12.0366
12.4875
12.9375
13.3864
13.834
14.2805
14.7261
15.1714
15.6179
16.0673
16.5216
10.2328
10.6983
11.1637
11.6288
12.0937
12.5581
13.022
13.4854
13.948
14.4098
14.8698
15.3264
15.7742
16.2011
16.5851
10.239
10.717
11.1951
11.673
12.151
12.629
13.1069
13.5848
14.0626
14.54
15.0159
15.4872
15.9449
16.3644
16.6855
10.2453
10.7358
11.2264
11.7172
12.2083
12.6997
13.1917
13.6842
14.1773
14.6711
15.1651
15.6574
16.142
16.596
16.9184
10.2515
10.7544
11.2576
11.7612
12.2653
12.7701
13.2759
13.7829
14.2915
14.802
15.3152
15.8327
16.36
16.9187
17.6083
10.2576
10.7729
11.2885
11.8047
12.3217
12.8398
13.3593
13.8806
14.4042
14.9309
15.4621
16.0011
16.5562
17.1504
17.8416
10.2637
10.7911
11.319
11.8477
12.3773
12.9084
13.4413
13.9765
14.5146
15.0565
15.6036
16.1581
16.725
17.3143
17.9435
10.2696
10.8091
11.349
11.8898
12.4319
12.9756
13.5215
14.0702
14.6223
15.1785
15.7397
16.3064
16.878
17.4505
18.0124
10.2755
10.8266
11.3784
11.9311
12.4852
13.0413
13.5998
14.1615
14.7269
15.2968
15.8718
16.4511
17.0303
17.5937
18.0971
10.2812
10.8437
11.407
11.9713
12.5372
13.1052
13.6759
14.25
14.8282
15.4115
16.0007
16.5956
17.1935
17.7783
18.2746
10.2867
10.8604
11.4348
12.0103
12.5876
13.1671
13.7495
14.3355
14.926
15.5221
16.1253
16.738
17.3655
18.0242
18.7868
10.2921
10.8766
11.4617
12.0482
12.6363
13.2269
13.8204
14.4177
15.0197
15.6275
16.2432
16.87
17.5155
18.1978
18.9596
10.2973
10.8922
11.4878
12.0847
12.6834
13.2845
13.8887
14.4966
15.1092
15.7275
16.3531
16.9888
17.6398
18.3159
19.0324
10.3023
10.9073
11.5129
12.1199
12.7287
13.34
13.9542
14.5722
15.1945
15.8221
16.4559
17.0969
17.7465
18.4057
19.0748
10.3072
10.9218
11.5372
12.1538
12.7723
13.3932
14.0171
14.6445
15.2761
15.9123
16.5534
17.1989
17.8461
18.4885
19.1131
10.3118
10.9357
11.5604
12.1864
12.8142
13.4443
14.0774
14.7139
15.3543
15.9989
16.6478
17.2994
17.949
18.5834
19.1692
10.3163
10.9491
11.5828
12.2176
12.8543
13.4933
14.1352
14.7804
15.4294
16.0825
16.74
17.401
18.0624
18.7117
19.2944
10.3206
10.962
11.6042
12.2476
12.8928
13.5403
14.1905
14.8441
15.5014
16.163
16.8296
17.5022
18.1839
18.886
19.6603
10.3247
10.9743
11.6247
12.2763
12.9296
13.5852
14.2435
14.905
15.5703
16.2399
16.9148
17.5969
18.2911
19.0098
19.7838
10.3286
10.9861
11.6442
12.3037
12.9648
13.6281
14.2941
14.9633
15.636
16.3129
16.9948
17.683
18.3809
19.095
19.8362
10.3323
10.9973
11.6629
12.3298
12.9984
13.6691
14.3425
15.0188
15.6987
16.3823
17.0701
17.7623
18.4593
19.1611
19.8675
10.3359
11.008
11.6807
12.3547
13.0304
13.7082
14.3886
15.0719
15.7585
16.4486
17.1421
17.8381
18.534
19.2238
19.8968
10.3393
11.0181
11.6977
12.3784
13.0609
13.7454
14.4325
15.1225
15.8158
16.5125
17.2123
17.9138
18.6128
19.298
19.9418
10.3425
11.0278
11.7137
12.4009
13.0898
13.7807
14.4743
15.1708
15.8706
16.574
17.281
17.9909
18.7009
19.4006
20.0446
10.3455
11.0369
11.7289
12.4222
13.1171
13.8142
14.5138
15.2166
15.9228
16.6329
17.3476
18.0677
18.796
19.5417
20.3481
10.3484
11.0454
11.7432
12.4422
13.1429
13.8457
14.5512
15.2598
15.972
16.6885
17.4101
18.1388
18.8786
19.6404
20.4494
10.3511
11.0535
11.7566
12.461
13.1671
13.8753
14.5863
15.3004
16.0181
16.7402
17.4676
18.2018
18.9459
19.7059
20.491
10.3536
11.061
11.7692
12.4786
13.1897
13.903
14.619
15.3382
16.0611
16.7882
17.5201
18.2577
19.0019
19.7539
20.5141
10.3559
11.068
11.7808
12.4949
13.2107
13.9287
14.6495
15.3734
16.101
16.8326
17.5686
18.3088
19.0522
19.7959
20.5335
10.358
11.0744
11.7915
12.5099
13.23
13.9524
14.6776
15.4059
16.1379
16.8738
17.6138
18.3573
19.1022
19.8419
20.5605
10.36
11.0803
11.8013
12.5236
13.2477
13.9741
14.7033
15.4358
16.1719
16.912
17.6564
18.4048
19.1554
19.9023
20.6193
10.3618
11.0856
11.8102
12.536
13.2638
13.9938
14.7267
15.4629
16.2029
16.9472
17.6961
18.4503
19.2111
19.9833
20.7905
10.3633
11.0903
11.8181
12.5471
13.2781
14.0114
14.7476
15.4873
16.2308
16.9788
17.732
18.4912
19.2586
20.0396
20.8478
10.3647
11.0945
11.825
12.5569
13.2907
14.0269
14.7661
15.5088
16.2555
17.0068
17.7634
18.5261
19.2964
20.0769
20.8716
10.3659
11.098
11.831
12.5653
13.3015
14.0402
14.782
15.5273
16.2768
17.0309
17.7903
18.5555
19.3268
20.104
20.8853
10.3669
11.101
11.8359
12.5722
13.3105
14.0513
14.7952
15.5428
16.2946
17.0512
17.8131
18.5804
19.3529
20.128
20.8989
10.3677
11.1033
11.8399
12.5778
13.3177
14.0602
14.8059
15.5553
16.309
17.0677
17.8318
18.6016
19.3768
20.1547
20.9239
10.3683
11.1051
11.8428
12.5819
13.323
14.0668
14.8137
15.5645
16.3198
17.0801
17.8463
18.6188
19.3986
20.1873
20.9937
10.3686
11.1062
11.8446
12.5845
13.3264
14.071
14.8188
15.5706
16.3269
17.0885
17.8562
18.6309
19.4139
20.2074
21.016
10.3688
11.1067
11.8455
12.5857
13.328
14.0729
14.8211
15.5733
16.3301
17.0923
17.8609
18.6369
19.4216
20.2167
21.0233
10.3688
11.1066
11.8452
12.5854
13.3275
14.0724
14.8205
15.5726
16.3294
17.0917
17.8604
18.6367
19.4219
20.2177
21.0243
10.3685
11.1058
11.8439
12.5835
13.3252
14.0695
14.817
15.5685
16.3247
17.0863
17.8544
18.63
19.4147
20.2108
21.0205
10.368
11.1044
11.8416
12.5802
13.3209
14.0642
14.8107
15.5611
16.316
17.0764
17.8429
18.6167
19.3994
20.1943
21.0087
10.3674
11.1024
11.8382
12.5755
13.3147
14.0565
14.8015
15.5503
16.3035
17.0619
17.8262
18.597
19.3753
20.1639
20.9759
10.3665
11.0998
11.8339
12.5693
13.3067
14.0466
14.7895
15.5362
16.2873
17.0433
17.8047
18.5718
19.3439
20.117
20.8748
10.3654
11.0966
11.8285
12.5617
13.2968
14.0344
14.7749
15.519
16.2674
17.0206
17.7791
18.5431
19.3114
20.0804
20.8396
10.3642
11.0928
11.8222
12.5528
13.2852
14.02
14.7576
15.4988
16.244
16.9941
17.7496
18.511
19.2784
20.0502
20.8224
10.3627
11.0885
11.8149
12.5425
13.2719
14.0035
14.7378
15.4755
16.2171
16.9635
17.7156
18.4746
19.242
20.0197
20.8083
10.3611
11.0836
11.8068
12.5311
13.257
13.9849
14.7155
15.4493
16.1868
16.9289
17.6768
18.4321
19.1983
19.9812
20.7893
10.3593
11.0783
11.7978
12.5184
13.2405
13.9645
14.691
15.4203
16.1531
16.8901
17.6324
18.3819
19.1427
19.9249
20.7522
10.3574
11.0724
11.788
12.5046
13.2226
13.9423
14.6642
15.3888
16.1164
16.8475
17.5829
18.3236
19.072
19.8372
20.6592
10.3553
11.0662
11.7776
12.4898
13.2034
13.9185
14.6356
15.355
16.077
16.8018
17.5296
18.2597
18.9896
19.7096
20.3774
10.3531
11.0595
11.7664
12.4741
13.183
13.8932
14.6052
15.3192
16.0354
16.7539
17.4745
18.1957
18.9137
19.6179
20.2829
10.3508
11.0525
11.7547
12.4576
13.1615
13.8666
14.5733
15.2817
15.9921
16.7045
17.4186
18.1337
18.8471
19.5534
20.2426
10.3484
11.0452
11.7424
12.4403
13.139
13.8389
14.5401
15.2428
15.9472
16.6536
17.362
18.0726
18.7854
19.5004
20.2173
10.3458
11.0376
11.7297
12.4224
13.1158
13.8101
14.5056
15.2025
15.9009
16.6011
17.3037
18.0097
18.7218
19.4457
20.1911
10.3432
11.0297
11.7165
12.4038
13.0917
13.7805
14.4702
15.161
15.8531
16.5468
17.2428
17.9424
18.6498
19.376
20.1475
10.3405
11.0216
11.703
12.3848
13.0671
13.7501
14.4338
15.1185
15.8041
16.4909
17.1791
17.8694
18.5646
19.2745
20.0439
10.3378
11.0134
11.6892
12.3653
13.0419
13.719
14.3967
15.0751
15.7541
16.4337
17.1136
17.793
18.469
19.1315
19.735
10.3349
11.0049
11.675
12.3454
13.0162
13.6874
14.3591
15.0312
15.7036
16.3763
17.0484
17.7186
18.3825
19.0291
19.6311
10.3321
10.9963
11.6607
12.3253
12.9902
13.6554
14.321
14.9868
15.6529
16.3189
16.9844
17.6483
18.3079
18.9574
19.5867
10.3292
10.9876
11.6461
12.3048
12.9638
13.6231
14.2826
14.9422
15.602
16.2618
16.9214
17.5809
18.2402
18.8995
19.5591
10.3262
10.9788
11.6314
12.2842
12.9372
13.5905
14.2439
14.8974
15.551
16.2045
16.8583
17.5133
18.1722
18.8413
19.5313
10.3233
10.9698
11.6165
12.2633
12.9104
13.5577
14.2051
14.8525
15.4998
16.1469
16.7942
17.4428
18.0969
18.7682
19.4855
10.3202
10.9608
11.6014
12.2423
12.8834
13.5247
14.1661
14.8075
15.4486
16.0891
16.7289
17.3682
18.0094
18.6631
19.377
10.3172
10.9516
11.5862
12.221
12.8561
13.4915
14.1271
14.7626
15.3977
16.0317
16.6638
17.2921
17.9132
18.5158
19.053
10.3141
10.9423
11.5707
12.1995
12.8286
13.4581
14.0879
14.7178
15.3473
15.9756
16.6011
17.2209
17.8294
18.4138
18.9458
10.3109
10.9328
11.555
12.1776
12.8007
13.4244
14.0487
14.6732
15.2977
15.9212
16.542
17.1574
17.7622
18.3479
18.9031
10.3077
10.9232
11.539
12.1553
12.7724
13.3903
14.009
14.6286
15.2486
15.8684
16.4867
17.1011
17.7081
18.3029
18.8817
10.3044
10.9133
11.5226
12.1325
12.7434
13.3554
13.9687
14.5835
15.1995
15.8166
16.4338
17.0497
17.6622
18.2688
18.868
10.301
10.9031
11.5057
12.109
12.7135
13.3195
13.9274
14.5373
15.1496
15.7645
16.3816
17.0006
17.6203
18.2395
18.8571
10.2974
10.8925
11.4881
12.0847
12.6826
13.2823
13.8844
14.4894
15.0979
15.7106
16.328
16.9507
17.5786
18.2112
18.8469
10.2938
10.8816
11.4699
12.0594
12.6503
13.2434
13.8393
14.4388
15.0431
15.6532
16.2707
16.897
17.5335
18.1803
18.8358
10.29
10.8702
11.451
12.0329
12.6165
13.2024
13.7916
14.385
14.984
15.5906
16.207
16.8361
17.4809
18.1433
18.8221
10.286
10.8583
11.4312
12.0053
12.581
13.1592
13.7408
14.327
14.9196
15.521
16.1344
16.7641
17.4157
18.0947
18.8028
10.2819
10.846
11.4106
11.9764
12.5437
13.1135
13.6866
14.2645
14.849
15.4429
16.0502
16.6768
17.3314
18.0258
18.7714
10.2777
10.8332
11.3893
11.9463
12.5047
13.0654
13.6291
14.1973
14.7718
15.3554
15.9525
16.5699
17.2192
17.9211
18.7105
10.2733
10.82
11.3672
11.9151
12.4642
13.015
13.5684
14.1255
14.688
15.2584
15.8404
16.4406
17.0704
17.7553
18.566
19.3834
17.5035
15.9231
14.4762
13.1037
11.7782
10.4849
9.21447
7.96069
6.71924
5.48696
4.26141
3.04068
1.82317
0.607522
19.7217
17.889
16.2657
14.7702
13.3549
11.9928
10.6677
9.36913
8.09008
6.82557
5.57191
4.32626
3.08636
1.85033
0.616535
19.8627
18.1289
16.5192
15.0083
13.5691
12.1816
10.8319
9.51009
8.20926
6.92427
5.65122
4.38706
3.12932
1.87592
0.625034
19.9334
18.2824
16.704
15.1963
13.7471
12.344
10.9765
9.63635
8.31734
7.01459
5.72428
4.44335
3.16923
1.89975
0.632955
19.9749
18.3852
16.8395
15.3434
13.893
12.4816
11.1019
9.74782
8.41401
7.09617
5.79077
4.49484
3.20588
1.92168
0.640256
20.0019
18.4572
16.9404
15.4585
14.0117
12.5968
11.2095
9.84506
8.49946
7.16902
5.85059
4.54144
3.23918
1.94166
0.646914
20.0208
18.5095
17.0168
15.549
14.1081
12.6929
11.3009
9.9291
8.57427
7.23344
5.9039
4.58321
3.26914
1.95968
0.65293
20.0347
18.5488
17.0756
15.6207
14.1863
12.7726
11.3782
10.0012
8.63923
7.28992
5.95099
4.62031
3.29587
1.9758
0.658317
20.0452
18.5789
17.1216
15.6779
14.25
12.8386
11.4433
10.0627
8.69529
7.33909
5.99227
4.65301
3.31953
1.99011
0.663102
20.0533
18.6023
17.158
15.7238
14.302
12.8934
11.498
10.115
8.7434
7.38164
6.02824
4.68165
3.34031
2.00271
0.667323
20.0598
18.6209
17.1871
15.761
14.3446
12.9388
11.5439
10.1594
8.78454
7.41828
6.0594
4.70657
3.35847
2.01374
0.671022
20.0649
18.6358
17.2106
15.7913
14.3796
12.9765
11.5823
10.1968
8.81958
7.44971
6.08627
4.72816
3.37425
2.02334
0.674246
20.069
18.6479
17.2296
15.816
14.4085
13.0079
11.6145
10.2285
8.84937
7.47658
6.10935
4.74678
3.38789
2.03166
0.677042
20.0723
18.6577
17.2452
15.8364
14.4324
13.034
11.6415
10.2552
8.87465
7.49949
6.12911
4.76277
3.39964
2.03885
0.679458
20.0751
18.6657
17.258
15.8532
14.4522
13.0557
11.6642
10.2777
8.89606
7.51899
6.14599
4.77648
3.40974
2.04502
0.681537
20.0773
18.6723
17.2685
15.867
14.4686
13.0739
11.6832
10.2967
8.91418
7.53555
6.16038
4.78819
3.41838
2.05032
0.683321
20.0792
18.6777
17.2773
15.8786
14.4824
13.0891
11.6992
10.3126
8.92951
7.54961
6.17263
4.79818
3.42577
2.05485
0.684848
20.0807
18.6822
17.2845
15.8882
14.4938
13.1019
11.7126
10.3261
8.94248
7.56154
6.18305
4.80669
3.43207
2.05872
0.686154
20.082
18.686
17.2906
15.8962
14.5034
13.1125
11.7239
10.3375
8.95346
7.57165
6.1919
4.81394
3.43745
2.06203
0.687269
20.083
18.6892
17.2956
15.9029
14.5115
13.1215
11.7334
10.3471
8.96276
7.58024
6.19943
4.82012
3.44203
2.06485
0.688221
20.0839
18.6918
17.2999
15.9086
14.5183
13.1291
11.7414
10.3553
8.97065
7.58754
6.20584
4.82539
3.44594
2.06726
0.689034
20.0847
18.694
17.3035
15.9134
14.524
13.1356
11.7483
10.3622
8.97736
7.59376
6.21131
4.82988
3.44929
2.06932
0.689729
20.0853
18.6959
17.3065
15.9174
14.5289
13.141
11.7541
10.3681
8.9831
7.59909
6.216
4.83374
3.45216
2.07109
0.690327
20.0859
18.6975
17.3091
15.9209
14.5331
13.1457
11.7591
10.3732
8.98803
7.60366
6.22003
4.83706
3.45463
2.07261
0.690841
20.0863
18.6989
17.3114
15.9239
14.5367
13.1498
11.7634
10.3776
8.99229
7.60763
6.22353
4.83994
3.45677
2.07393
0.691288
20.0867
18.7001
17.3133
15.9265
14.5398
13.1533
11.7672
10.3814
8.99603
7.6111
6.22659
4.84246
3.45865
2.07509
0.69168
20.0871
18.7012
17.3151
15.9288
14.5426
13.1565
11.7705
10.3848
8.99934
7.61417
6.2293
4.84469
3.46032
2.07612
0.692027
20.0874
18.7022
17.3166
15.9309
14.5451
13.1593
11.7735
10.3879
9.00232
7.61695
6.23174
4.84671
3.46182
2.07704
0.69234
20.0877
18.7031
17.3181
15.9329
14.5475
13.1619
11.7763
10.3907
9.00507
7.6195
6.23399
4.84856
3.4632
2.07789
0.692627
20.088
18.7039
17.3195
15.9347
14.5497
13.1644
11.7789
10.3934
9.00767
7.6219
6.23611
4.8503
3.46449
2.07869
0.692896
20.0883
18.7048
17.3209
15.9365
14.5519
13.1668
11.7815
10.396
9.01019
7.62423
6.23815
4.85197
3.46574
2.07946
0.693155
20.0886
18.7057
17.3222
15.9384
14.5541
13.1693
11.7841
10.3986
9.0127
7.62655
6.24018
4.85363
3.46697
2.08021
0.69341
20.0889
18.7066
17.3237
15.9403
14.5564
13.1719
11.7868
10.4013
9.01528
7.62892
6.24224
4.85532
3.46821
2.08098
0.693667
20.0893
18.7076
17.3253
15.9424
14.5589
13.1746
11.7897
10.4041
9.018
7.6314
6.24439
4.85706
3.4695
2.08177
0.693933
20.0897
18.7087
17.3271
15.9448
14.5617
13.1776
11.7928
10.4072
9.02094
7.63406
6.24668
4.85892
3.47086
2.0826
0.694213
20.0901
18.7101
17.3293
15.9475
14.5648
13.1811
11.7963
10.4107
9.02416
7.63695
6.24916