/*--------------------------------*- C++ -*----------------------------------*\
| =========                 |                                                 |
| \\      /  F ield         | OpenFOAM: The Open Source CFD Toolbox           |
|  \\    /   O peration     | Version:  5.x                                   |
|   \\  /    A nd           | Web:      www.OpenFOAM.org                      |
|    \\/     M anipulation  |                                                 |
\*---------------------------------------------------------------------------*/
FoamFile
{
    version     2.0;
    format      ascii;
    class       volScalarField;
    location    "6.2";
    object      gradTx;
}
// * * * * * * * * * * * * * * * * * * * * * * * * * * * * * * * * * * * * * //

dimensions      [0 -1 0 1 0 0 0];

internalField   nonuniform List<scalar> 
6300
(
854.124
851.658
846.72
839.298
829.376
816.942
801.987
784.522
764.578
742.222
717.567
690.784
662.108
631.841
600.353
856.544
854.086
849.16
841.753
831.845
819.418
804.456
786.96
766.949
744.481
719.658
692.641
663.663
633.03
601.121
861.378
858.934
854.036
846.664
836.791
824.385
809.418
791.869
771.739
749.057
723.905
696.424
666.838
635.459
602.689
868.611
866.192
861.342
854.032
844.224
831.87
816.919
799.32
779.038
756.065
730.441
702.276
671.773
639.249
605.139
878.215
875.837
871.061
863.853
854.159
841.91
827.024
809.411
788.987
765.684
739.48
710.427
678.693
644.589
608.598
890.153
887.832
883.167
876.115
866.604
854.542
839.811
822.272
801.773
778.164
751.328
721.224
687.946
651.783
613.272
904.364
902.123
897.616
890.788
881.555
869.799
855.363
838.051
817.626
793.829
766.404
735.158
700.047
661.291
619.478
920.769
918.635
914.338
907.819
898.983
887.69
873.747
856.897
836.809
813.08
785.261
752.916
715.755
673.82
627.715
939.259
937.26
933.234
927.121
918.821
908.184
894.992
878.935
859.587
836.378
808.6
775.452
736.197
690.483
638.795
959.7
957.865
954.169
948.56
940.947
931.186
919.055
904.219
886.178
864.202
837.268
804.051
763.06
713.085
654.095
981.926
980.279
976.968
971.955
965.173
956.508
945.773
932.66
916.658
896.936
872.173
840.382
798.867
744.666
676.124
1005.75
1004.31
1001.42
997.068
991.23
983.849
974.82
963.939
950.809
934.663
914.059
886.395
847.317
790.551
709.865
1030.96
1029.73
1027.28
1023.62
1018.78
1012.78
1005.67
997.416
987.925
976.799
962.958
943.775
913.412
860.311
766.428
1057.35
1056.32
1054.29
1051.3
1047.42
1042.79
1037.59
1032.08
1026.62
1021.6
1017.15
1012.29
1002.2
970.803
874.428
1084.71
1083.86
1082.21
1079.81
1076.78
1073.32
1069.76
1066.64
1064.84
1065.77
1071.7
1085.97
1112.23
1146.23
1121.08
570.802
543.634
516.477
489.6
463.259
437.693
413.109
389.684
367.563
346.857
327.646
309.983
293.894
279.388
266.453
255.063
245.18
236.755
229.731
224.04
219.605
216.341
214.152
212.931
212.563
212.923
213.877
215.286
217.011
218.914
220.866
222.75
224.465
225.923
227.056
227.806
228.123
227.965
227.288
226.053
224.223
221.766
218.661
214.9
210.491
205.454
199.824
193.639
186.94
179.76
172.121
164.034
155.493
146.484
136.981
126.954
116.376
105.216
93.4502
81.0542
68.0029
54.2667
39.8075
24.5761
8.51004
-8.46638
-26.4411
-45.5115
-65.7809
-87.3544
-110.335
-134.82
-160.899
-188.651
-218.146
-249.441
-282.58
-317.592
-354.485
-393.244
-433.825
-476.147
-520.083
-565.462
-612.059
-659.593
-707.737
-756.118
-804.329
-851.949
571.152
543.593
516.047
488.801
462.122
436.256
411.418
387.787
365.506
344.686
325.401
307.698
291.601
277.111
264.214
252.879
243.067
234.727
227.801
222.22
217.909
214.783
212.746
211.693
211.506
212.058
213.211
214.822
216.744
218.833
220.954
222.985
224.823
226.383
227.599
228.419
228.8
228.701
228.082
226.901
225.116
222.69
219.597
215.826
211.385
206.301
200.614
194.373
187.626
180.413
172.761
164.68
156.163
147.19
137.729
127.746
117.208
106.086
94.3552
81.9959
68.988
55.3071
40.9196
25.7787
9.82248
-7.02657
-24.8602
-43.781
-63.8982
-85.3225
-108.162
-132.517
-158.479
-186.131
-215.542
-246.773
-279.869
-314.866
-351.779
-390.602
-431.298
-473.797
-517.981
-563.683
-610.678
-658.685
-707.363
-756.325
-805.145
-853.373
571.864
543.501
515.161
487.159
459.789
433.316
407.967
383.924
361.329
340.285
320.859
303.086
286.978
272.527
259.71
248.49
238.822
230.652
223.92
218.56
214.496
211.645
209.914
209.197
209.375
210.316
211.877
213.9
216.227
218.697
221.162
223.489
225.571
227.327
228.701
229.654
230.157
230.177
229.677
228.61
226.924
224.566
221.5
217.707
213.198
208.008
202.195
195.828
188.976
181.692
174.013
165.948
157.486
148.592
139.224
129.334
118.879
107.829
96.1628
83.8696
70.9409
57.3645
43.1165
28.156
12.4222
-4.16663
-21.7106
-40.3238
-60.1283
-81.2472
-103.798
-127.89
-153.618
-181.067
-210.307
-241.403
-274.407
-309.364
-346.305
-385.24
-426.154
-468.996
-513.667
-560.012
-607.812
-656.777
-706.547
-756.702
-806.77
-856.251
572.973
543.347
513.761
484.58
456.14
428.737
402.613
377.955
354.901
333.539
313.919
296.06
279.954
265.578
252.893
241.853
232.406
224.494
218.055
213.023
209.326
206.886
205.612
205.401
206.134
207.675
209.865
212.533
215.493
218.56
221.558
224.336
226.778
228.812
230.4
231.53
232.198
232.392
232.079
231.202
229.687
227.455
224.441
220.613
215.981
210.603
204.565
197.976
190.939
183.534
175.813
167.784
159.423
150.674
141.466
131.729
121.404
110.456
98.8709
86.6561
73.8253
60.3883
46.3391
31.6476
16.2544
0.0708
-17.0183
-35.1473
-54.4609
-75.1036
-97.2103
-120.9
-146.272
-173.411
-202.389
-233.271
-266.118
-300.991
-337.941
-377.009
-418.214
-461.538
-506.917
-554.221
-603.239
-653.677
-705.146
-757.17
-809.205
-860.662
574.53
543.108
511.752
480.907
450.975
422.293
395.125
369.659
346.017
324.267
304.429
286.493
270.425
256.178
243.694
232.911
223.769
216.203
210.151
205.551
202.337
200.436
199.768
200.236
201.723
204.086
207.157
210.734
214.597
218.513
222.261
225.655
228.565
230.929
232.748
234.06
234.912
235.327
235.283
234.704
233.474
231.459
228.544
224.665
219.834
214.137
207.723
200.763
193.422
185.827
178.048
170.094
161.913
153.41
144.466
134.966
124.824
113.995
102.484
90.3275
77.5809
64.2926
50.4866
36.15
21.2261
5.61408
-10.8257
-28.2613
-46.8751
-66.8465
-88.3366
-111.478
-136.372
-163.097
-191.717
-222.295
-254.9
-289.609
-326.508
-365.682
-407.199
-451.1
-497.372
-545.931
-596.593
-649.061
-702.91
-757.587
-812.434
-866.723
576.62
542.743
508.978
475.894
443.985
413.647
385.163
358.714
334.392
312.223
292.184
274.221
258.262
244.226
232.031
221.597
212.849
205.72
200.148
196.075
193.446
192.203
192.279
193.594
196.038
199.472
203.708
208.515
213.613
218.697
223.464
227.661
231.127
233.823
235.816
237.243
238.246
238.914
239.246
239.133
238.381
236.752
234.027
230.081
224.922
218.698
211.658
204.091
196.264
188.376
180.529
172.724
164.862
156.776
148.261
139.125
129.227
118.515
107.022
94.8466
82.115
68.9411
55.3976
41.4983
27.1895
12.3509
-3.19647
-19.6756
-37.3303
-56.3974
-77.0792
-99.5245
-123.828
-150.045
-178.216
-208.39
-240.637
-275.059
-311.785
-350.96
-392.731
-437.223
-484.511
-534.586
-587.319
-642.428
-699.448
-757.724
-816.429
-874.619
579.368
542.186
505.197
469.161
434.71
402.308
372.251
344.686
319.648
297.094
276.933
259.049
243.316
229.612
217.821
207.843
199.588
192.985
187.975
184.509
182.549
182.059
182.999
185.314
188.921
193.691
199.43
205.866
212.641
219.327
225.478
230.708
234.791
237.717
239.688
241.026
242.051
242.977
243.839
244.474
244.543
243.61
241.259
237.235
231.535
224.425
216.343
207.784
199.186
190.858
182.946
175.427
168.128
160.753
152.948
144.375
134.8
124.155
112.539
100.164
87.2843
74.1203
60.8204
47.436
33.9162
20.1098
5.7764
-9.39406
-25.7477
-43.6187
-63.2767
-84.8889
-108.52
-134.17
-161.821
-191.486
-223.228
-257.177
-293.518
-332.483
-374.326
-419.299
-467.612
-519.386
-574.595
-633.011
-694.143
-757.206
-821.129
-884.626
582.973
541.324
500.016
460.12
422.46
387.574
355.732
327.001
301.309
278.502
258.388
240.764
225.436
212.229
200.991
191.595
183.939
177.948
173.568
170.766
169.527
169.848
171.73
175.166
180.121
186.505
194.14
202.721
211.786
220.717
228.807
235.4
240.108
242.975
244.462
245.248
245.99
247.12
248.749
250.618
252.137
252.499
250.893
246.79
240.172
231.541
221.707
211.527
201.713
192.734
184.787
177.809
171.496
165.344
158.734
151.062
141.91
131.191
119.143
106.208
92.8601
79.4939
66.3638
53.5686
41.0557
28.6284
15.9562
2.59352
-11.9768
-28.2628
-46.655
-67.3395
-90.2995
-115.404
-142.518
-171.578
-202.631
-235.837
-271.459
-309.843
-351.394
-396.545
-445.707
-499.212
-557.227
-619.653
-686.024
-755.414
-826.402
-897.159
587.746
539.941
492.777
447.834
406.196
368.436
334.715
304.924
278.801
256.019
236.244
219.16
204.491
192.001
181.498
172.83
165.885
160.583
156.88
154.764
154.25
155.381
158.216
162.823
169.254
177.509
187.479
198.869
211.113
223.311
234.28
242.795
248.067
250.211
250.232
249.527
249.356
250.537
253.303
257.256
261.388
264.212
264.111
259.957
251.699
240.38
227.559
214.735
203.031
193.115
185.228
179.229
174.624
170.588
166.045
159.873
151.275
140.134
127.024
112.842
98.4599
84.526
71.4237
59.2945
48.0719
37.5003
27.1316
16.322
4.2671
-9.87062
-26.7281
-46.5083
-68.984
-93.7382
-120.404
-148.791
-178.922
-211.004
-245.407
-282.626
-323.262
-367.993
-417.526
-472.521
-533.478
-600.583
-673.525
-751.285
-831.969
-912.856
594.198
537.606
482.317
430.764
384.326
343.461
308.023
277.55
251.467
229.195
210.211
194.068
180.396
168.902
159.353
151.578
145.454
140.906
137.9
136.447
136.599
138.451
142.142
147.845
155.752
166.034
178.764
193.781
210.496
227.665
243.275
254.851
260.521
260.491
257.04
253.024
250.766
251.662
256.135
263.625
272.515
280.124
283.158
279.023
267.623
251.371
233.408
216.322
201.766
190.568
182.944
178.636
176.926
176.557
175.695
172.175
164.294
151.91
136.442
119.763
103.411
88.358
75.0813
63.7138
54.1506
46.0801
38.9428
31.8448
23.5123
12.4407
-2.58905
-21.7912
-44.3819
-69.3133
-95.8014
-123.487
-152.39
-182.819
-215.286
-250.473
-289.218
-332.508
-381.456
-437.222
-500.85
-573.077
-654.057
-742.91
-837.205
-932.73
603.208
533.366
466.451
406.307
354.409
310.65
274.159
243.838
218.629
197.623
180.076
165.405
153.158
142.991
134.646
127.94
122.748
119.001
116.678
115.812
116.492
118.868
123.164
129.686
138.823
151.028
166.746
186.237
209.216
234.254
258.066
275.401
281.171
275.684
264.651
253.979
247.623
247.624
254.612
267.969
285.473
302.613
312.518
308.538
290.523
264.818
237.986
214.256
195.658
182.867
175.877
174.295
177.29
183.229
189.166
190.75
183.791
168.124
147.601
126.209
106.49
89.6293
75.9875
65.5338
58.0786
53.3161
50.6973
49.1462
46.7029
40.4536
27.5606
7.80878
-16.4052
-42.6412
-69.4688
-96.4202
-123.655
-151.687
-181.235
-213.184
-248.613
-288.856
-335.551
-390.579
-455.814
-532.94
-623.219
-726.663
-840.634
-958.476
616.41
524.877
440.807
369.953
312.757
267.36
231.401
202.754
179.732
161.057
145.791
133.244
122.917
114.447
107.573
102.115
97.9567
95.0377
93.3511
92.946
93.9356
96.5132
100.975
107.756
117.47
130.956
149.288
173.662
204.963
242.599
282.175
312.589
318.019
298.852
271.732
248.706
235.314
233.517
243.906
266.33
298.945
335.508
361.858
358.252
324.486
279.875
238.089
204.793
181.179
166.808
161.015
163.356
173.409
189.899
208.9
221.621
215.82
191.324
160.005
130.241
105.448
86.2639
72.3014
63.0347
58.1285
57.4645
60.9141
67.7322
75.3742
78.0341
67.5883
43.8361
14.4863
-15.1133
-42.9523
-68.9386
-93.7653
-118.362
-143.715
-170.873
-201.063
-235.897
-277.626
-329.219
-393.629
-473.838
-573.392
-695.223
-838.451
-993.142
637.129
505.611
396.112
313.915
254.096
210.463
178.096
153.561
134.563
119.577
107.58
97.8796
89.9963
83.5983
78.4557
74.4136
71.3755
69.2954
68.1747
68.067
69.0886
71.4403
75.4426
81.5966
90.6801
103.902
123.121
151.106
191.577
248.138
319.466
385.742
390.271
333.461
272.905
229.55
206.297
201.854
215.858
250.007
306.721
383.095
454.322
451.383
374.052
290.853
225.958
181.38
153.383
138.39
134.436
141.305
160.254
192.944
237.672
279.155
274.765
224.341
170.167
127.112
96.3274
75.3758
61.8514
54.2552
52.0687
55.6883
66.2793
85.1312
111.219
134.486
126.777
87.9248
45.739
9.8823
-19.1003
-43.1218
-64.2
-83.9421
-103.588
-124.185
-146.814
-172.994
-205.483
-249.383
-308.676
-386.854
-491.46
-632.94
-819.715
-1042.7
672.769
454.617
312.08
225.629
172.115
137.334
113.503
96.3865
83.61
73.784
66.0585
59.8928
54.9318
50.9376
47.7497
45.2624
43.4115
42.1679
41.5362
41.5583
42.3232
43.9869
46.8082
51.2145
57.9274
68.2047
84.3259
110.562
155.015
232.402
364.014
547.796
550.832
373.449
249.296
181.438
150.186
143.619
158.791
201.178
286.176
438.079
653.566
651.62
432.054
275.461
184.563
134.082
106.856
94.0693
92.2655
101.854
127.308
178.647
271.107
402.735
399.989
262.751
164.312
106.307
73.0444
53.7906
42.8634
37.6842
37.647
43.8722
59.7476
92.1089
151.123
235.542
230.809
136.813
67.8782
24.9806
-2.38956
-21.5397
-36.5543
-49.6545
-62.0863
-74.5606
-87.4432
-100.994
-116.893
-147.365
-196.509
-261.796
-356.403
-505.405
-748.81
-1120.06
740.424
294.712
147.268
89.904
63.1498
48.4305
39.2353
32.9573
28.4041
24.9627
22.287
20.1679
18.4724
17.1132
16.0324
15.1925
14.5707
14.1573
13.9543
13.9778
14.2614
14.8646
15.8889
17.5088
20.0392
24.0898
30.9623
43.7789
71.0211
138.572
333.421
970.099
971.172
336.768
144.612
80.6051
58.5243
54.0711
62.5292
90.983
169.275
401.485
1165.89
1165.21
399.357
165.456
84.9597
53.2915
39.5334
33.93
33.6872
39.5519
57.0836
105.129
248.132
719.801
718.865
245.281
100.227
49.8707
29.5861
20.2134
15.597
13.7078
14.2067
18.1589
29.4749
60.7051
154.439
464.971
463.374
149.61
52.5229
17.7199
2.48558
-5.91077
-11.6626
-16.3261
-20.519
-24.3434
-27.1037
-25.6036
-7.30598
-18.4484
-61.0825
-94.5028
-142.998
-241.899
-493.776
-1254.33
-903.08
-956.905
-1007.99
-1055.82
-1099.96
-1140.14
-1176.17
-1207.98
-1235.56
-1258.96
-1278.26
-1293.55
-1304.92
-1312.46
-1316.21
-905.142
-959.596
-1011.21
-1059.45
-1103.88
-1144.23
-1180.34
-1212.15
-1239.68
-1263
-1282.2
-1297.4
-1308.7
-1316.18
-1319.9
-909.335
-965.08
-1017.77
-1066.83
-1111.83
-1152.51
-1188.76
-1220.55
-1247.96
-1271.1
-1290.1
-1305.11
-1316.24
-1323.6
-1327.26
-915.811
-973.572
-1027.92
-1078.22
-1124.04
-1165.18
-1201.57
-1233.28
-1260.46
-1283.28
-1301.94
-1316.62
-1327.48
-1334.65
-1338.22
-924.823
-985.433
-1042.07
-1094.03
-1140.9
-1182.54
-1219.01
-1250.49
-1277.25
-1299.56
-1317.7
-1331.9
-1342.36
-1349.26
-1352.68
-936.765
-1001.22
-1060.85
-1114.87
-1162.93
-1205.01
-1241.37
-1272.37
-1298.43
-1319.96
-1337.33
-1350.84
-1360.76
-1367.27
-1370.5
-952.24
-1021.78
-1085.2
-1141.63
-1190.87
-1233.16
-1269.04
-1299.13
-1324.08
-1344.46
-1360.74
-1373.32
-1382.51
-1388.51
-1391.48
-972.187
-1048.4
-1116.48
-1175.54
-1225.7
-1267.67
-1302.43
-1330.98
-1354.25
-1372.99
-1387.79
-1399.14
-1407.37
-1412.73
-1415.37
-998.111
-1083.12
-1156.74
-1218.31
-1268.66
-1309.32
-1341.96
-1368.07
-1388.89
-1405.37
-1418.24
-1428
-1435.04
-1439.6
-1441.84
-1032.53
-1129.18
-1208.99
-1272.23
-1321.24
-1358.94
-1387.96
-1410.39
-1427.8
-1441.32
-1451.72
-1459.53
-1465.12
-1468.73
-1470.49
-1079.95
-1192.01
-1277.77
-1340.31
-1385.09
-1417.18
-1440.47
-1457.66
-1470.55
-1480.32
-1487.71
-1493.21
-1497.11
-1499.62
-1500.85
-1149.22
-1281.07
-1369.71
-1426.11
-1461.55
-1484.15
-1499.02
-1509.17
-1516.37
-1521.63
-1525.53
-1528.4
-1530.43
-1531.74
-1532.38
-1259.77
-1413.27
-1493.85
-1532.8
-1550.78
-1558.8
-1562.21
-1563.56
-1564.06
-1564.23
-1564.31
-1564.36
-1564.41
-1564.45
-1564.48
-1461.12
-1618.35
-1659.54
-1660.37
-1649.93
-1637.97
-1627.37
-1618.74
-1612
-1606.87
-1603.03
-1600.25
-1598.33
-1597.11
-1596.53
-1903.22
-1939.38
-1865.51
-1799.15
-1750.53
-1715.7
-1690.48
-1671.97
-1658.28
-1648.12
-1640.63
-1635.21
-1631.45
-1629.08
-1627.93
1110.51
1109.81
1108.43
1106.46
1104.02
1101.33
1098.79
1097.06
1097.31
1101.64
1114.01
1142.45
1205.95
1361.19
1828.44
1134.41
1133.82
1132.65
1130.98
1128.92
1126.66
1124.58
1123.3
1123.95
1128.63
1141.28
1169.41
1227.4
1339.89
1521.54
1158.69
1158.18
1157.18
1155.73
1153.9
1151.84
1149.77
1148.15
1147.75
1150.05
1157.74
1175.59
1210.96
1270.51
1341.37
1183.29
1182.85
1181.98
1180.69
1179.01
1176.96
1174.62
1172.11
1169.64
1167.68
1167.1
1169.58
1177.67
1193.22
1211.01
1208.15
1207.78
1207.03
1205.89
1204.32
1202.25
1199.55
1195.99
1191.14
1184.29
1174.29
1159.63
1139.15
1114.33
1093.61
1233.22
1232.92
1232.32
1231.35
1229.94
1227.93
1225.03
1220.72
1214
1203.05
1184.67
1153.69
1103.61
1032.54
962.432
1258.45
1258.24
1257.8
1257.07
1255.93
1254.18
1251.46
1247.08
1239.74
1226.92
1203.75
1160.97
1082.61
950.034
783.177
1283.79
1283.68
1283.45
1283.02
1282.29
1281.06
1278.99
1275.45
1269.24
1257.94
1236.41
1192.91
1099.23
891.295
488.664
1309.16
1309.17
1309.18
1309.13
1308.94
1308.47
1307.5
1305.64
1302.22
1296
1284.29
1259.65
1195.15
967.723
-84.8294
1334.47
1334.62
1334.91
1335.3
1335.75
1336.2
1336.58
1336.85
1337.1
1337.84
1341.11
1354.02
1404.18
1617.12
2659.32
1359.64
1359.93
1360.51
1361.37
1362.5
1363.92
1365.69
1368.04
1371.57
1377.88
1391.18
1422.47
1500.12
1690.57
2079.96
1384.55
1384.99
1385.87
1387.2
1389.01
1391.35
1394.36
1398.37
1404.07
1413.01
1428.7
1458.69
1517.67
1625.81
1771.7
1409.12
1409.7
1410.87
1412.65
1415.09
1418.25
1422.3
1427.48
1434.26
1443.4
1456.23
1474.73
1501.02
1534.78
1565.46
1433.25
1433.96
1435.4
1437.6
1440.6
1444.5
1449.39
1455.44
1462.75
1471.18
1479.79
1485.29
1479.14
1445.83
1381.24
1456.82
1457.66
1459.35
1461.93
1465.45
1469.99
1475.64
1482.47
1490.4
1498.78
1505.46
1503.89
1476.05
1378.57
1152.88
1479.78
1480.72
1482.64
1485.56
1489.54
1494.66
1501.02
1508.7
1517.67
1527.52
1536.81
1540.68
1521.28
1400.28
768.509
1502.02
1503.07
1505.17
1508.39
1512.77
1518.41
1525.44
1533.99
1544.27
1556.58
1571.86
1593.59
1637.01
1776.63
2417.65
1523.49
1524.62
1526.89
1530.35
1535.07
1541.16
1548.74
1558.04
1569.4
1583.54
1602.38
1631.37
1685.88
1804.74
2041.19
1544.14
1545.33
1547.73
1551.39
1556.38
1562.8
1570.8
1580.61
1592.53
1607.17
1625.81
1651.36
1690
1751.12
1829.7
1563.91
1565.14
1567.64
1571.45
1576.63
1583.29
1591.57
1601.65
1613.73
1627.97
1644.38
1662.22
1678.46
1685.31
1673.55
1582.76
1584.03
1586.59
1590.49
1595.79
1602.59
1611.03
1621.25
1633.35
1647.2
1661.91
1674.12
1673.38
1632.36
1510
1600.69
1601.98
1604.56
1608.5
1613.85
1620.71
1629.21
1639.5
1651.71
1665.78
1681.11
1694.96
1696.21
1635.84
1262.25
1617.68
1618.96
1621.55
1625.47
1630.8
1637.63
1646.09
1656.37
1668.7
1683.43
1701.3
1724.48
1761.78
1856.78
2251.5
1633.73
1634.99
1637.54
1641.41
1646.65
1653.36
1661.66
1671.76
1683.96
1698.83
1717.74
1744.14
1787.24
1869.5
2020.01
1648.85
1650.08
1652.56
1656.33
1661.42
1667.92
1675.94
1685.65
1697.31
1711.38
1728.92
1752.14
1785.45
1834.75
1893.83
1663.06
1664.25
1666.64
1670.27
1675.15
1681.37
1688.99
1698.12
1708.9
1721.47
1736.1
1753.07
1772.49
1793.17
1809.48
1676.39
1677.53
1679.81
1683.26
1687.91
1693.78
1700.93
1709.41
1719.18
1730.09
1741.59
1752.24
1758.59
1754.56
1737.25
1688.89
1689.96
1692.12
1695.38
1699.74
1705.25
1711.91
1719.73
1728.62
1738.22
1747.63
1754.33
1751.85
1725.1
1653.8
1700.58
1701.59
1703.61
1706.65
1710.73
1715.85
1722.03
1729.27
1737.49
1746.44
1755.48
1762.74
1761.89
1726.54
1521.63
1711.52
1712.46
1714.34
1717.16
1720.93
1725.66
1731.36
1738.07
1745.79
1754.53
1764.52
1776.73
1795.84
1845.66
2057.93
1721.76
1722.62
1724.35
1726.94
1730.39
1734.73
1739.95
1746.12
1753.31
1761.7
1771.95
1785.85
1808.4
1851.92
1932.48
1731.35
1732.13
1733.7
1736.06
1739.19
1743.11
1747.84
1753.41
1759.92
1767.53
1776.8
1788.92
1806.34
1832.39
1863.79
1740.34
1741.05
1742.46
1744.57
1747.38
1750.88
1755.08
1760.01
1765.69
1772.17
1779.61
1788.23
1798.22
1809.09
1817.71
1748.79
1749.42
1750.67
1752.55
1755.03
1758.11
1761.77
1766.03
1770.83
1776.07
1781.53
1786.54
1789.45
1787.28
1778.42
1756.75
1757.3
1758.4
1760.04
1762.2
1764.86
1768.01
1771.61
1775.6
1779.78
1783.72
1786.23
1784.15
1770.05
1733.79
1764.27
1764.75
1765.7
1767.11
1768.96
1771.22
1773.87
1776.88
1780.17
1783.59
1786.85
1789.05
1787.14
1768.14
1664.8
1771.41
1771.82
1772.62
1773.82
1775.37
1777.25
1779.43
1781.89
1784.58
1787.47
1790.65
1794.66
1801.96
1824.73
1929.14
1778.21
1778.55
1779.22
1780.21
1781.48
1783.01
1784.75
1786.69
1788.79
1791.08
1793.82
1797.92
1805.98
1824.57
1862.49
1784.72
1785
1785.55
1786.35
1787.36
1788.56
1789.89
1791.32
1792.81
1794.32
1796
1798.36
1802.63
1810.94
1822.96
1790.99
1791.21
1791.65
1792.27
1793.05
1793.95
1794.91
1795.87
1796.74
1797.38
1797.66
1797.4
1796.42
1794.68
1792.59
1797.05
1797.22
1797.56
1798.03
1798.61
1799.24
1799.87
1800.43
1800.77
1800.64
1799.64
1796.89
1790.68
1778.6
1761.56
1802.93
1803.06
1803.31
1803.65
1804.06
1804.47
1804.84
1805.08
1805.05
1804.46
1802.78
1798.71
1788.97
1765.9
1719.5
1808.68
1808.77
1808.95
1809.18
1809.43
1809.67
1809.84
1809.87
1809.65
1808.98
1807.53
1804.41
1796.46
1769.34
1646.01
1814.31
1814.37
1814.48
1814.63
1814.77
1814.87
1814.89
1814.78
1814.49
1813.98
1813.39
1813.41
1817.21
1839.55
1958.58
1819.84
1819.88
1819.94
1820.01
1820.06
1820.06
1819.97
1819.77
1819.43
1818.99
1818.75
1819.74
1825.02
1842.54
1883.69
1825.3
1825.32
1825.34
1825.36
1825.34
1825.25
1825.08
1824.8
1824.37
1823.81
1823.22
1823.02
1824.27
1829.08
1838.15
1830.7
1830.7
1830.69
1830.66
1830.59
1830.45
1830.22
1829.87
1829.36
1828.58
1827.36
1825.22
1821
1812.61
1799.7
1836.04
1836.03
1836
1835.94
1835.83
1835.65
1835.38
1835
1834.46
1833.6
1832.09
1828.82
1820.58
1799.21
1753.08
1841.34
1841.32
1841.28
1841.2
1841.06
1840.86
1840.57
1840.2
1839.71
1839.03
1837.98
1835.8
1829.23
1802.94
1675.2
1846.6
1846.57
1846.52
1846.43
1846.28
1846.06
1845.77
1845.42
1845.02
1844.66
1844.61
1845.78
1851.51
1877.07
2003.66
1851.82
1851.79
1851.74
1851.64
1851.49
1851.26
1850.97
1850.62
1850.26
1850.01
1850.34
1852.52
1859.98
1880.99
1926.54
1857.01
1856.98
1856.93
1856.83
1856.68
1856.46
1856.16
1855.78
1855.34
1854.9
1854.73
1855.54
1858.98
1867.81
1881.84
1862.16
1862.14
1862.09
1862
1861.86
1861.64
1861.34
1860.94
1860.37
1859.55
1858.38
1856.66
1854.19
1850.95
1847.67
1867.28
1867.27
1867.22
1867.15
1867.03
1866.83
1866.55
1866.15
1865.51
1864.4
1862.35
1858.25
1849.89
1834.07
1811.99
1872.37
1872.35
1872.33
1872.27
1872.18
1872.03
1871.81
1871.47
1870.91
1869.86
1867.69
1862.75
1850.72
1821.47
1761.76
1877.4
1877.4
1877.39
1877.36
1877.31
1877.22
1877.08
1876.89
1876.59
1876.04
1874.91
1872.11
1863.45
1829.98
1670.83
1882.39
1882.4
1882.41
1882.42
1882.41
1882.39
1882.35
1882.34
1882.37
1882.56
1883.24
1885.47
1893.35
1925.7
2083.17
1887.33
1887.34
1887.38
1887.42
1887.46
1887.5
1887.56
1887.69
1887.99
1888.69
1890.43
1894.87
1906.21
1934.47
1992.63
1892.19
1892.23
1892.28
1892.36
1892.45
1892.55
1892.67
1892.88
1893.27
1894.03
1895.71
1899.4
1907.28
1922.42
1943.25
1896.99
1897.04
1897.12
1897.23
1897.37
1897.51
1897.68
1897.9
1898.21
1898.7
1899.53
1900.97
1903.26
1906.38
1909.08
1901.71
1901.77
1901.88
1902.04
1902.22
1902.41
1902.6
1902.8
1902.98
1903.07
1902.89
1901.88
1898.6
1890.59
1877.56
1906.33
1906.41
1906.56
1906.76
1907
1907.24
1907.47
1907.66
1907.74
1907.57
1906.79
1904.31
1897.18
1878.22
1837.75
1910.84
1910.94
1911.14
1911.41
1911.72
1912.03
1912.32
1912.53
1912.62
1912.45
1911.8
1909.91
1903.93
1880.74
1770.6
1915.23
1915.36
1915.62
1915.96
1916.37
1916.78
1917.16
1917.45
1917.61
1917.61
1917.61
1918.31
1922.56
1943.6
2051.39
1919.48
1919.65
1919.97
1920.42
1920.95
1921.5
1922.01
1922.41
1922.65
1922.72
1922.89
1924.17
1929.49
1946.17
1984.14
1923.55
1923.77
1924.19
1924.77
1925.46
1926.19
1926.88
1927.44
1927.74
1927.7
1927.36
1927.17
1928.48
1933.88
1944.06
1927.42
1927.7
1928.23
1928.98
1929.88
1930.85
1931.79
1932.58
1933.02
1932.82
1931.66
1929.08
1924.58
1918.21
1911.82
1931.05
1931.4
1932.07
1933.02
1934.18
1935.47
1936.77
1937.92
1938.66
1938.57
1936.9
1932.24
1921.94
1902.49
1875.94
1934.39
1934.82
1935.66
1936.85
1938.34
1940.03
1941.8
1943.48
1944.82
1945.34
1944.17
1939.27
1925.61
1891.64
1822.41
1937.38
1937.9
1938.93
1940.42
1942.3
1944.47
1946.83
1949.23
1951.48
1953.24
1953.99
1952.31
1943.33
1905.21
1721.61
1939.95
1940.58
1941.84
1943.66
1945.99
1948.73
1951.78
1955.04
1958.4
1961.79
1965.42
1970.37
1981.24
2019.75
2202.25
1942.02
1942.78
1944.29
1946.49
1949.33
1952.7
1956.53
1960.73
1965.23
1970.11
1975.89
1984.25
1999.89
2034.23
2102.29
1943.51
1944.41
1946.2
1948.83
1952.22
1956.31
1960.98
1966.15
1971.74
1977.75
1984.52
1993.02
2005.48
2025.25
2050.42
1944.32
1945.37
1947.47
1950.56
1954.58
1959.44
1965.03
1971.23
1977.89
1984.81
1991.88
1998.97
2005.96
2012.44
2016.84
1944.33
1945.56
1947.99
1951.59
1956.29
1962
1968.6
1975.94
1983.78
1991.72
1999.16
2004.93
2006.72
2001.01
1987.15
1943.45
1944.85
1947.65
1951.8
1957.24
1963.88
1971.61
1980.26
1989.52
1998.91
2007.55
2013.57
2012.64
1995.19
1948.66
1941.53
1943.13
1946.31
1951.04
1957.28
1964.95
1973.94
1984.08
1995.11
2006.56
2017.71
2026.99
2029.98
2009.5
1878.68
1938.45
1940.25
1943.83
1949.18
1956.27
1965.04
1975.41
1987.24
2000.33
2014.36
2029.11
2044.7
2063.56
2100.36
2239.11
1934.08
1936.07
1940.06
1946.05
1954.02
1963.96
1975.81
1989.48
2004.81
2021.62
2039.86
2060.06
2084.62
2120.36
2176.33
1928.26
1930.45
1934.85
1941.48
1950.35
1961.49
1974.89
1990.5
2008.21
2027.82
2049.18
2072.35
2097.84
2126.26
2153.27
1920.87
1923.25
1928.04
1935.28
1945.04
1957.39
1972.37
1990.01
2010.21
2032.74
2057.19
2082.95
2108.96
2133.06
2149.81
1911.77
1914.32
1919.46
1927.28
1937.88
1951.39
1967.96
1987.69
2010.54
2036.25
2064.24
2093.31
2121.35
2144.91
2158.84
1900.84
1903.53
1908.97
1917.28
1928.62
1943.22
1961.31
1983.14
2008.8
2038.13
2070.48
2104.32
2136.79
2163.38
2178.39
1888
1890.79
1896.44
1905.11
1917.04
1932.55
1952.02
1975.87
2004.45
2037.84
2075.61
2116.21
2156.23
2189.83
2209.22
1873.17
1875.99
1881.74
1890.62
1902.91
1919.07
1939.62
1965.26
1996.68
2034.45
2078.73
2128.45
2180.08
2226.07
2254.36
1856.32
1859.12
1864.83
1873.68
1886.05
1902.46
1923.66
1950.58
1984.42
2026.48
2078
2139.28
2207.78
2274.53
2320.01
1837.48
1840.17
1845.67
1854.25
1866.31
1882.48
1903.65
1931.06
1966.39
2011.88
2070.43
2145.02
2236.62
2337.71
2418.08
1816.72
1819.21
1824.33
1832.33
1843.65
1858.97
1879.26
1905.97
1941.22
1988.16
2051.67
2138.88
2258.81
2415.2
2572.81
1794.18
1796.38
1800.92
1808.04
1818.17
1831.95
1850.37
1874.91
1907.86
1952.89
2016.38
2109.94
2255.61
2491.76
2837.84
1770.05
1771.89
1775.67
1781.61
1790.08
1801.65
1817.17
1837.96
1866.03
1904.73
1960.15
2044.76
2189.5
2491.92
3344.03
-3141.95
-2334.47
-2047.34
-1910.01
-1830.06
-1778.07
-1742.1
-1716.29
-1697.39
-1683.42
-1673.13
-1665.67
-1660.48
-1657.19
-1655.6
-2660.03
-2332.21
-2108.55
-1970.89
-1882.89
-1823.6
-1781.92
-1751.72
-1729.46
-1712.92
-1700.66
-1691.72
-1685.48
-1681.53
-1679.61
-2406.56
-2257.55
-2109.97
-1997.22
-1915.72
-1856.83
-1813.69
-1781.6
-1757.52
-1739.39
-1725.81
-1715.85
-1708.85
-1704.4
-1702.23
-2257.38
-2181.82
-2087.13
-2001.79
-1932.79
-1879.08
-1837.71
-1805.88
-1781.39
-1762.63
-1748.4
-1737.86
-1730.4
-1725.63
-1723.3
-2161.47
-2119.32
-2057.73
-1994.94
-1939.19
-1892.7
-1855.05
-1824.99
-1801.24
-1782.67
-1768.38
-1757.66
-1750.02
-1745.11
-1742.7
-2095.65
-2070.25
-2029.1
-1983.13
-1939.11
-1900.12
-1867.04
-1839.67
-1817.44
-1799.69
-1785.81
-1775.28
-1767.7
-1762.79
-1760.39
-2048.28
-2032.05
-2003.75
-1969.91
-1935.47
-1903.39
-1875.01
-1850.72
-1830.48
-1813.97
-1800.85
-1790.78
-1783.46
-1778.7
-1776.35
-2012.98
-2002.18
-1982.2
-1957.03
-1930.15
-1904.02
-1880.06
-1858.92
-1840.86
-1825.85
-1813.73
-1804.3
-1797.39
-1792.87
-1790.63
-1986.01
-1978.6
-1964.2
-1945.27
-1924.26
-1903.1
-1883.07
-1864.93
-1849.08
-1835.66
-1824.66
-1816.01
-1809.61
-1805.4
-1803.31
-1964.99
-1959.83
-1949.27
-1934.89
-1918.42
-1901.32
-1884.71
-1869.3
-1855.56
-1843.74
-1833.91
-1826.09
-1820.26
-1816.4
-1814.48
-1948.37
-1944.76
-1936.92
-1925.91
-1912.95
-1899.16
-1885.44
-1872.45
-1860.67
-1850.36
-1841.69
-1834.73
-1829.49
-1826.01
-1824.26
-1935.08
-1932.57
-1926.71
-1918.23
-1908
-1896.88
-1885.59
-1874.72
-1864.69
-1855.8
-1848.23
-1842.1
-1837.46
-1834.35
-1832.79
-1924.34
-1922.64
-1918.25
-1911.7
-1903.62
-1894.66
-1885.4
-1876.34
-1867.86
-1860.26
-1853.72
-1848.37
-1844.3
-1841.56
-1840.18
-1915.61
-1914.51
-1911.24
-1906.18
-1899.79
-1892.58
-1885.01
-1877.49
-1870.37
-1863.92
-1858.31
-1853.69
-1850.16
-1847.76
-1846.55
-1908.47
-1907.82
-1905.41
-1901.51
-1896.47
-1890.69
-1884.52
-1878.32
-1872.37
-1866.93
-1862.16
-1858.21
-1855.16
-1853.09
-1852.04
-1902.59
-1902.29
-1900.56
-1897.58
-1893.62
-1889
-1884
-1878.9
-1873.97
-1869.41
-1865.39
-1862.03
-1859.43
-1857.65
-1856.75
-1897.73
-1897.71
-1896.51
-1894.26
-1891.18
-1887.51
-1883.48
-1879.32
-1875.25
-1871.46
-1868.1
-1865.26
-1863.06
-1861.55
-1860.78
-1893.7
-1893.9
-1893.12
-1891.47
-1889.1
-1886.21
-1882.99
-1879.61
-1876.29
-1873.16
-1870.37
-1868
-1866.15
-1864.88
-1864.23
-1890.34
-1890.72
-1890.28
-1889.11
-1887.32
-1885.08
-1882.53
-1879.82
-1877.13
-1874.58
-1872.28
-1870.32
-1868.78
-1867.72
-1867.18
-1887.53
-1888.06
-1887.9
-1887.11
-1885.8
-1884.1
-1882.11
-1879.97
-1877.81
-1875.75
-1873.89
-1872.28
-1871.02
-1870.14
-1869.7
-1885.16
-1885.81
-1885.88
-1885.42
-1884.51
-1883.25
-1881.74
-1880.08
-1878.38
-1876.74
-1875.25
-1873.95
-1872.93
-1872.21
-1871.85
-1883.17
-1883.92
-1884.17
-1883.98
-1883.4
-1882.52
-1881.41
-1880.16
-1878.85
-1877.58
-1876.4
-1875.38
-1874.56
-1873.99
-1873.69
-1881.47
-1882.3
-1882.72
-1882.75
-1882.45
-1881.89
-1881.12
-1880.21
-1879.24
-1878.28
-1877.39
-1876.6
-1875.96
-1875.51
-1875.28
-1880.02
-1880.92
-1881.46
-1881.69
-1881.63
-1881.34
-1880.86
-1880.25
-1879.57
-1878.89
-1878.23
-1877.65
-1877.17
-1876.84
-1876.66
-1878.76
-1879.71
-1880.38
-1880.77
-1880.91
-1880.85
-1880.63
-1880.28
-1879.86
-1879.41
-1878.97
-1878.56
-1878.23
-1877.99
-1877.86
-1877.65
-1878.66
-1879.42
-1879.96
-1880.28
-1880.43
-1880.43
-1880.3
-1880.1
-1879.87
-1879.62
-1879.37
-1879.16
-1879
-1878.92
-1876.66
-1877.72
-1878.57
-1879.23
-1879.71
-1880.05
-1880.24
-1880.32
-1880.32
-1880.28
-1880.19
-1880.09
-1879.99
-1879.92
-1879.87
-1875.76
-1876.86
-1877.79
-1878.57
-1879.2
-1879.7
-1880.08
-1880.34
-1880.53
-1880.65
-1880.72
-1880.75
-1880.75
-1880.75
-1880.74
-1874.91