/*--------------------------------*- C++ -*----------------------------------*\
| =========                 |                                                 |
| \\      /  F ield         | OpenFOAM: The Open Source CFD Toolbox           |
|  \\    /   O peration     | Version:  5.x                                   |
|   \\  /    A nd           | Web:      www.OpenFOAM.org                      |
|    \\/     M anipulation  |                                                 |
\*---------------------------------------------------------------------------*/
FoamFile
{
    version     2.0;
    format      ascii;
    class       volScalarField;
    location    "6.2";
    object      gradTy;
}
// * * * * * * * * * * * * * * * * * * * * * * * * * * * * * * * * * * * * * //

dimensions      [0 -1 0 1 0 0 0];

internalField   nonuniform List<scalar> 
6300
(
1427.97
2282.69
3133.72
3978.57
4814.77
5639.8
6451.13
7246.24
8022.61
8777.77
9509.31
10215
10892.7
11540.8
12157.6
1.81223
5.44234
9.08851
12.7585
16.4548
20.173
23.8984
27.6037
31.2457
34.7643
38.081
41.1015
43.7208
45.8321
47.339
3.01398
9.05246
15.1209
21.2343
27.3999
33.613
39.8524
46.0753
52.2124
58.1635
63.7958
68.9462
73.43
77.0559
79.6487
4.20511
12.6321
21.1074
29.6569
38.2963
47.0252
55.821
64.6308
73.3629
81.879
89.9895
97.4542
103.993
109.309
113.123
5.37933
16.1628
27.0187
37.9884
49.1013
60.3683
71.7731
83.261
94.7257
105.996
116.825
126.883
135.773
143.056
148.308
6.52842
19.6203
32.8151
46.175
59.7499
73.5709
87.639
101.911
116.278
130.55
144.424
157.474
169.154
178.828
185.856
7.64222
22.9738
38.4451
54.1442
70.1497
86.5231
103.297
120.459
137.922
155.494
172.838
189.427
204.53
217.236
226.567
8.70868
26.1866
43.8456
61.8048
80.1785
99.0706
118.564
138.699
159.448
180.66
201.998
222.856
242.291
259.007
271.484
9.71418
29.217
48.944
69.0481
89.6852
111.012
133.181
156.32
180.503
205.69
231.625
257.697
282.759
305.002
322.025
10.6448
32.0216
53.6632
75.7553
98.4975
122.107
146.821
172.888
200.546
229.959
261.103
293.532
326.033
356.201
380.216
11.4876
34.5602
57.9295
81.809
106.438
132.092
159.1
187.857
218.82
252.487
289.282
329.279
371.626
413.536
449.091
12.2326
36.8006
61.683
87.11
113.347
140.715
169.624
200.608
234.38
271.875
314.244
362.661
417.637
477.207
533.281
12.8743
38.7251
64.8891
91.5971
119.119
147.792
178.063
210.56
246.204
286.376
333.142
389.467
459.033
544.346
639.285
13.4131
40.3349
67.5482
95.2661
123.735
153.263
184.266
217.355
253.489
294.268
342.465
403.012
484.656
601.829
770.571
13.856
41.6514
69.6999
98.1795
127.286
157.251
188.375
221.093
256.118
294.728
339.421
395.437
474.722
607.712
884.652
12693.5
13158
13599.5
14018.4
14414.9
14789.5
15143.2
15476.7
15791.1
16087.5
16367.3
16631.7
16882.1
17119.7
17345.8
17561.9
17769.1
17968.8
18162
18350
18533.9
18714.6
18893.2
19070.4
19247
19423.8
19601.2
19779.7
19959.6
20141.1
20324.4
20509.3
20695.8
20883.7
21072.8
21262.6
21452.9
21643.4
21833.5
22022.8
22211
22397.3
22581.3
22762.5
22940.3
23114.1
23283.4
23447.8
23606.7
23759.9
23906.9
24047.3
24180.8
24307
24425.5
24536
24637.8
24730.6
24813.9
24887.1
24949.8
25001.3
25041.1
25068.5
25083
25083.8
25070.1
25041.1
24995.7
24933
24851.8
24750.9
24629
24484.8
24316.7
24123.4
23903.2
23654.7
23376.2
23066.1
22722.9
22345.2
21931.3
21480.1
20990.4
20461.2
19891.8
19281.9
18631.4
17940.7
48.099
48.2936
47.9878
47.1969
45.9536
44.3047
42.3064
40.0197
37.5063
34.8252
32.0302
29.1692
26.2829
23.4056
20.5657
17.7867
15.0884
12.4882
10.002
7.64569
5.4353
3.38806
1.52223
-0.143274
-1.58979
-2.80044
-3.76202
-4.46727
-4.91679
-5.12041
-5.09719
-4.87387
-4.48165
-3.95189
-3.31179
-2.58118
-1.77145
-0.886886
0.0720025
1.10399
2.20283
3.35445
4.53645
5.72028
6.8757
7.97613
9.00363
9.95207
10.8279
11.6483
12.4382
13.2248
14.0338
14.8851
15.7909
16.7546
17.7735
18.8409
19.9509
21.1014
22.297
23.5497
24.8785
26.3072
27.8618
29.5673
31.4449
33.5094
35.768
38.22
40.8574
43.667
46.6321
49.7338
52.9524
56.2664
59.6513
63.0774
66.5075
69.8941
73.1778
76.2867
79.1365
81.6334
83.6783
85.1724
86.0255
86.164
85.5384
84.1299
80.955
81.2851
80.7506
79.3799
77.2332
74.3954
70.9675
67.058
62.7749
58.2202
53.486
48.6524
43.7872
38.9463
34.1756
29.5122
24.9874
20.6281
16.4595
12.5063
8.79493
5.35377
2.2139
-0.59163
-3.02934
-5.06797
-6.68211
-7.85644
-8.58995
-8.89893
-8.8177
-8.39592
-7.69237
-6.76619
-5.66774
-4.43179
-3.07525
-1.59991
0.000427212
1.73049
3.5844
5.53942
7.55472
9.57578
11.5436
13.4061
15.1283
16.6988
18.1309
19.4592
20.7319
22.0021
23.3187
24.7185
26.222
27.8328
29.5408
31.3293
33.1822
35.0923
37.0657
39.1234
41.3
43.6397
46.1908
48.9996
52.1052
55.5346
59.3
63.399
67.8158
72.5251
77.4967
82.6981
88.0968
93.6594
99.3484
105.118
110.911
116.65
122.239
127.554
132.454
136.774
140.339
142.973
144.512
144.821
143.808
141.438
115.043
115.519
114.715
112.678
109.505
105.333
100.319
94.6314
88.4319
81.8714
75.083
68.1798
61.2555
54.3858
47.6309
41.0388
34.6488
28.4947
22.6079
17.0205
11.7673
6.88767
2.42638
-1.56721
-5.04097
-7.94404
-10.2326
-11.8774
-12.8714
-13.2363
-13.0255
-12.3206
-11.2206
-9.82554
-8.21868
-6.45312
-4.54725
-2.49013
-0.255262
2.18125
4.82286
7.64004
10.5671
13.5103
16.3655
19.0403
21.4736
23.6469
25.5857
27.352
29.0311
30.7147
32.4856
34.4042
36.5004
38.7726
41.1943
43.7264
46.3328
48.9938
51.7144
54.5271
57.4878
60.6688
64.1494
68.0054
72.3
77.0762
82.3521
88.1205
94.3526
101.005
108.03
115.377
123.004
130.869
138.927
147.125
155.389
163.622
171.688
179.418
186.602
192.997
198.336
202.346
204.765
205.377
204.028
200.657
150.949
151.587
150.445
147.601
143.207
137.472
130.632
122.93
114.597
105.84
96.8339
87.7267
78.635
69.6501
60.8423
52.2653
43.9619
35.9679
28.3172
21.0455
14.194
7.81192
1.95822
-3.29827
-7.88117
-11.7116
-14.7169
-16.8422
-18.0652
-18.4091
-17.9514
-16.8209
-15.1805
-13.1968
-11.0051
-8.68368
-6.24435
-3.64377
-0.808958
2.32881
5.8004
9.5741
13.5478
17.5629
21.4383
25.0134
28.1843
30.9235
33.2794
35.3611
37.3139
39.2916
41.4299
43.8241
46.515
49.4868
52.6782
56.0061
59.3943
62.7984
66.2197
69.7066
73.347
77.2553
81.5559
86.3678
91.7893
97.886
104.682
112.162
120.271
128.937
138.083
147.641
157.555
167.785
178.289
189.019
199.899
210.816
221.606
232.051
241.869
250.723
258.231
263.99
267.606
268.738
267.144
262.718
189.387
190.208
188.619
184.746
178.831
171.192
162.177
152.13
141.366
130.156
118.722
107.243
95.8521
84.6515
73.7137
63.0912
52.823
42.9409
33.4753
24.4605
15.9401
7.97089
0.626029
-6.00309
-11.8084
-16.6708
-20.4713
-23.1094
-24.5278
-24.7393
-23.8493
-22.0586
-19.6379
-16.8706
-13.982
-11.0875
-8.17735
-5.13849
-1.80283
1.99154
6.33852
11.2155
16.4638
21.8114
26.9382
31.5628
35.5109
38.7462
41.3621
43.5499
45.5548
47.6311
49.9992
52.8098
56.1182
59.8778
63.9586
68.1915
72.4253
76.5708
80.6227
84.6569
88.8125
93.2683
98.2175
103.843
110.297
117.678
126.02
135.285
145.376
156.168
167.534
179.378
191.64
204.291
217.315
230.684
244.341
258.176
272.007
285.57
298.507
310.37
320.628
328.702
334.004
336.007
334.321
328.761
231.254
232.287
230.071
224.819
216.926
206.882
195.198
182.355
168.771
154.786
140.67
126.623
112.789
99.2684
86.1253
73.4016
61.1236
49.3101
37.9804
27.1605
16.89
7.22843
-1.73874
-9.89575
-17.0949
-23.1603
-27.9005
-31.1339
-32.7289
-32.6567
-31.045
-28.2043
-24.5957
-20.7203
-16.9687
-13.5154
-10.2973
-7.0623
-3.45895
0.856747
6.11146
12.32
19.2344
26.3747
33.1583
39.083
43.8606
47.4571
50.0577
51.9983
53.6894
55.5466
57.9276
61.0746
65.0675
69.8018
75.0149
80.3711
85.5782
90.4726
95.046
99.4268
103.84
108.565
113.899
120.12
127.463
136.081
146.021
157.209
169.466
182.562
196.287
210.503
225.154
240.251
255.83
271.922
288.516
305.528
322.78
339.975
356.679
372.312
386.156
397.388
405.136
408.575
407.06
400.264
277.754
279.036
275.882
268.686
258.11
244.925
229.883
213.645
196.748
179.606
162.519
145.698
129.278
113.343
97.9361
83.0741
68.7593
54.9877
41.757
29.0754
16.9695
5.49307
-5.26266
-15.1599
-24.0057
-31.5494
-37.4909
-41.509
-43.3216
-42.7821
-40.0014
-35.4472
-29.9291
-24.3833
-19.5173
-15.5961
-12.4331
-9.50849
-6.13271
-1.62202
4.5192
12.416
21.6875
31.4594
40.6226
48.2621
53.9184
57.609
59.7108
60.813
61.592
62.7153
64.7603
68.1288
72.9563
79.0431
85.8718
92.7718
99.1877
104.843
109.753
114.156
118.424
122.992
128.306
134.788
142.798
152.584
164.228
177.597
192.352
208.054
224.335
241.001
258.029
275.515
293.607
312.438
332.085
352.531
373.632
395.084
416.387
436.823
455.441
471.087
482.464
488.268
487.398
479.235
330.602
332.159
327.504
317.409
303.041
285.631
266.28
245.873
225.071
204.338
183.982
164.191
145.068
126.658
108.962
91.9593
75.6146
59.8884
44.7459
30.1651
16.1465
2.72472
-10.0176
-21.9322
-32.7853
-42.2394
-49.8441
-55.0531
-57.2944
-56.1278
-51.5047
-44.0713
-35.2956
-27.0608
-20.6993
-16.5787
-14.2198
-12.5985
-10.4352
-6.4434
0.404239
10.5378
23.425
37.4255
50.2857
60.3013
66.8113
70.0528
70.807
70.0969
69.0023
68.5606
69.691
73.0859
79.0353
87.22
96.6296
105.873
113.896
120.288
125.192
129.081
132.579
136.346
141.033
147.258
155.576
166.413
179.952
195.988
213.872
232.709
251.829
270.974
290.238
309.905
330.314
351.772
374.496
398.583
423.971
450.396
477.335
503.939
528.994
550.919
567.807
577.559
578.227
568.557
392.421
394.211
386.942
372.272
352.336
329.116
304.181
278.652
253.276
228.51
204.612
181.703
159.816
138.926
118.974
99.8829
81.5657
63.936
46.9139
30.4339
14.4538
-1.03187
-15.9738
-30.2416
-43.5875
-55.6003
-65.6546
-72.8775
-76.1814
-74.4579
-67.0619
-54.6355
-39.8908
-27.0491
-18.6627
-15.0333
-14.9529
-16.478
-17.3804
-15.3872
-8.45294
4.68342
23.548
45.0219
64.0324
77.3757
84.3975
86.065
83.9985
79.9205
75.4584
72.1275
71.3463
74.3495
81.8809
93.6176
107.612
120.714
130.936
137.862
142.075
144.553
146.327
148.356
151.527
156.695
164.707
176.333
192.06
211.696
233.997
256.937
279.261
300.753
321.842
343.198
365.485
389.254
414.916
442.73
472.784
504.938
538.732
573.251
607.017
637.971
663.386
679.894
683.905
672.673
467.622
469.285
457.014
434.694
406.338
375.053
342.921
311.201
280.591
251.422
223.809
197.738
173.123
149.839
127.744
106.689
86.5248
67.1075
48.3013
29.9833
12.0505
-5.56928
-22.8979
-39.875
-56.3054
-71.7765
-85.5369
-96.3397
-102.302
-100.951
-89.8572
-68.5332
-41.7417
-20.6181
-9.77361
-8.37494
-13.3718
-21.2514
-28.4921
-31.4424
-26.2379
-9.4168
19.9155
56.1667
85.94
103.552
109.693
107.453
100.086
90.2973
80.2855
72.0234
67.5522
69.0931
78.6705
96.7644
119.876
139.703
152.72
159.339
161.452
161.037
159.707
158.72
159.141
162.035
168.628
180.345
198.534
223.563
253.195
282.044
307.885
331.101
353.051
375.142
398.508
423.996
452.222
483.638
518.555
557.1
599.065
643.626
689.067
732.976
771.767
800.197
811.506
799.159
564.658
564.401
541.529
505.785
464.536
422.191
381.047
342.138
305.816
272.083
240.778
211.67
184.506
159.035
135.013
112.21
90.4073
69.3989
48.9863
28.9797
9.19878
-10.5227
-30.324
-50.2906
-70.3988
-90.4099
-109.671
-126.764
-138.947
-141.464
-127.377
-90.2976
-35.426
0.618655
12.721
7.4967
-7.63582
-26.9409
-45.7777
-59.2359
-60.7462
-41.5291
6.32251
76.6412
125.36
146.249
147.056
136.225
119.659
100.996
82.5938
66.4617
55.1024
52.2653
63.1979
92.6863
136.868
168.498
183.716
187.303
184.468
178.835
172.591
167.055
163.192
162.046
165.168
175.031
195.156
228.795
273.516
311.475
340.28
363.262
384.049
405.235
428.465
454.782
484.919
519.487
559.085
604.32
655.637
712.71
773.3
835.325
895.039
945.124
973.141
962.556
703.107
692.053
644.558
584.78
524.288
467.579
415.933
369.331
327.293
289.229
254.565
222.786
193.439
166.131
140.515
116.279
93.1377
70.8243
49.0795
27.6452
6.25643
-15.3652
-37.5154
-60.5044
-84.6333
-110.123
-136.926
-164.258
-189.51
-205.882
-198.008
-137.683
-2.00229
56.328
60.1613
37.6315
4.10473
-33.3082
-70.8109
-104.237
-125.104
-114.878
-39.6284
128.212
204.845
217.852
201.167
173.246
142.24
111.311
81.6249
54.0192
30.3731
15.6015
20.9967
67.4406
171.925
220.914
231.448
224.503
211.503
197.5
184.442
172.968
163.316
155.9
151.989
154.928
172.303
218.052
303.559
354.069
381.04
398.562
414.452
432.364
453.951
480.04
511.207
548.064
591.468
642.747
703.886
776.692
855.431
940.959
1032.13
1121.78
1190.31
1196.48
940.989
872.143
765.24
664.773
578.565
505.651
443.538
389.934
343.035
301.468
264.19
230.391
199.43
170.787
144.026
118.768
94.6748
71.4305
48.7264
26.2469
3.65214
-19.4425
-43.4942
-69.0706
-96.9007
-127.938
-163.41
-204.737
-252.85
-305.201
-344.154
-293.571
142.809
190.514
145.565
83.6029
21.4441
-39.5414
-101.708
-167.315
-234.228
-281.854
-218.903
311.119
375.948
332.207
271.452
214.708
164.711
119.834
77.6617
35.8768
-7.13259
-50.0989
-80.3114
-41.382
286.894
328.702
304.344
270.418
239.977
214.801
194.008
176.255
160.219
144.704
128.944
114.033
108.589
150.05
383.993
430.548
435.398
436.201
441.929
454.189
472.938
497.97
529.285
567.195
612.486
666.953
735.311
832.1
927.756
1038.43
1171.38
1328.81
1497.25
1600.43
1501.05
1106.99
876.613
724.197
613.668
528.143
458.864
400.861
351.078
307.515
268.789
233.894
202.072
172.724
145.363
119.572
94.9837
71.2538
48.0461
25.0117
1.76599
-22.1422
-47.277
-74.3897
-104.546
-139.362
-181.459
-235.435
-310.076
-423.799
-619.221
-1004.99
847.307
458.109
255.46
129.852
37.0908
-44.0732
-127.651
-228.507
-371.118
-608.049
-1070.76
1163.89
703.378
471.049
335.947
246.447
179.802
124.455
73.1362
19.4946
-44.7019
-134.165
-281.182
-566.865
814.367
531.754
391.007
311.305
260.859
225.779
199.189
177.062
156.362
133.851
104.67
59.4989
-22.6752
-195.136
734.25
567.064
495.564
466.73
459.98
466.65
482.856
506.831
537.839
575.668
620.259
671.124
725.757
889.108
978.42
1103.77
1275.34
1519.93
1898.09
2555.42
17137.3
16205.5
15220.8
14186.3
13105.5
11982.5
10821.2
9625.94
8401.04
7150.7
5879.08
4590.24
3288.13
1976.62
659.495
81.7354
78.0929
73.5601
68.3145
62.5485
56.4475
50.1744
43.86
37.5997
31.4547
25.4557
19.6079
13.8966
8.2924
2.75634
137.364
131.139
123.388
114.433
104.618
94.2693
83.6691
73.0395
62.5381
52.2627
42.2586
32.5285
23.042
13.7452
4.56807
194.767
185.704
174.414
161.406
147.215
132.338
117.19
102.088
87.2492
72.799
58.7877
45.2056
31.998
19.0782
6.33888
254.793
242.485
227.146
209.552
190.49
170.669
150.657
130.868
111.568
92.8943
74.8868
57.5082
40.6662
24.2309
8.04832
318.465
302.281
282.121
259.151
234.514
209.181
183.892
159.151
135.252
112.319
90.3546
69.2731
48.9274
29.1307
9.67214
387.078
366.04
339.893
310.409
279.223
247.639
216.571
186.584
157.959
130.767
104.935
80.2998
56.6385
33.6923
11.1819
462.338
434.9
400.996
363.361
324.324
285.573
248.163
212.65
179.227
147.846
118.312
90.3488
63.6326
37.8172
12.5452
546.587
510.211
465.815
417.702
369.129
322.156
277.854
236.624
198.448
163.071
130.113
99.1463
69.7234
41.3975
13.7266
643.209
593.508
534.323
472.476
412.314
356.046
304.457
257.534
214.865
175.868
139.918
106.395
74.7143
44.3214
14.6898
757.363
686.266
605.469
525.544
451.589
385.238
326.378
274.178
227.598
185.613
147.288
111.798
78.4143
46.4823
15.4007
896.997
788.703
675.729
572.624
483.245
406.926
341.627
285.191
235.728
191.688
151.816
115.09
80.6593
47.791
15.831
1073.36
895.777
736.082
605.956
501.818
417.573
348.001
289.22
238.426
193.586
153.191
116.083
81.3387
48.1897
15.9626
1292.94
984.931
766.826
613.276
500.477
413.525
343.571
285.249
235.159
191.031
151.272
114.706
80.42
47.6648
15.7921
1485.02
984.151
732.983
579.819
473.268
392.461
327.493
273.037
225.921
184.098
146.152
111.045
77.9678
46.2562
15.3327
14.1908
42.6428
71.3047
100.314
129.806
159.911
190.767
222.531
255.437
289.922
326.952
368.795
420.922
496.775
629.867
14.4409
43.3813
72.4934
101.878
131.614
161.736
192.216
222.916
253.524
283.448
311.61
335.92
351.381
341.925
242.56
14.65
43.9993
73.4906
103.196
133.149
163.308
193.507
223.357
252.079
278.188
298.931
309.176
299.136
249.498
123.133
14.8244
44.5177
74.337
104.34
134.535
164.845
195.032
224.576
252.44
276.647
293.531
296.507
274.38
210.346
86.9646
14.9676
44.9475
75.0539
105.346
135.839
166.462
196.998
226.955
255.333
280.18
297.78
301.265
278.713
212.4
85.8963
15.0797
45.2883
75.6396
106.211
137.046
168.134
199.36
230.423
260.669
288.737
311.824
324.093
313.427
256.246
116.276
15.1572
45.5291
76.0707
106.888
138.074
169.705
201.829
234.453
267.508
300.743
333.372
362.836
380.436
357.577
210.944
15.1947
45.6509
76.3085
107.306
138.789
170.929
203.946
238.178
274.214
313.157
357.113
409.805
475.53
544.851
496.757
15.1854
45.6319
76.3088
107.382
139.044
171.536
205.212
240.645
278.894
322.077
374.78
447.71
568.111
813.648
1439.1
15.1233
45.4522
76.0321
107.048
138.716
171.317
205.25
241.151
280.141
324.376
378.389
452.635
573.777
818.593
1441.19
15.0039
45.0971
75.4511
106.257
137.737
170.167
203.915
239.506
277.738
319.873
367.939
424.979
493.543
561.164
503.977
14.825
44.56
74.5545
104.996
136.095
168.097
201.293
236.02
272.617
311.241
351.245
389.31
413.947
390.392
227.002
14.5866
43.8417
73.3458
103.275
133.822
165.192
197.601
231.227
266.082
301.641
335.888
362.955
367.807
316.717
151.836
14.2909
42.9494
71.8399
101.124
130.973
161.562
193.059
225.576
259.05
292.943
325.508
352.016
360.507
322.053
173.049
13.9417
41.8947
70.0587
98.5789
127.607
157.297
187.802
219.253
251.721
285.16
319.325
353.579
385.797
404.151
331.128
13.5436
40.6926
68.0282
95.6784
123.776
152.462
181.885
212.218
243.709
276.866
313.071
356.546
420.705
549.696
898.386
13.1023
39.36
65.7775
92.4645
119.535
147.111
175.331
204.374
234.535
266.449
301.761
345.139
410.581
542.657
895.935
12.6239
37.9154
63.3382
88.9819
114.939
141.309
168.201
195.748
224.136
253.664
284.841
318.403
354.173
381.992
323.552
12.115
36.3787
60.7439
85.2791
110.054
135.141
160.612
186.534
212.942
239.727
266.257
290.124
303.276
281.219
159.958
11.5823
34.7707
58.0301
81.4077
104.95
128.702
152.704
176.978
201.48
225.962
249.517
269.28
276.824
249.332
134.312
11.033
33.1127
55.2331
77.4201
99.6977
122.087
144.605
167.258
190.029
212.834
235.404
256.915
274.694
278.221
215.335
10.4739
31.4257
52.3886
73.3678
94.3654
115.38
136.408
157.451
178.548
199.866
222.02
247.135
282.456
353.225
551.757
9.91193
29.7304
49.5317
69.3011
89.0192
108.661
128.197
147.605
166.91
186.312
206.576
230.263
265.594
339.498
545.982
9.35348
28.0464
46.6959
65.2686
83.7243
102.013
120.072
137.827
155.203
172.153
188.751
205.299
221.939
233.694
195.514
8.80461
26.392
43.9126
61.3161
78.5436
95.5219
112.155
128.311
143.787
158.236
170.956
180.268
181.671
162.562
90.0767
8.2707
24.7837
41.2096
57.4845
73.5344
89.2685
104.568
119.263
133.081
145.518
155.524
160.725
155.645
128.495
59.4062
7.7564
23.2353
38.6109
53.8083
68.7431
83.3152
97.3987
110.823
123.331
134.485
143.428
148.318
144.941
123.55
63.2649
7.26552
21.7584
36.1352
50.3135
64.2026
77.6997
90.6854
103.017
114.521
124.984
134.143
141.65
146.746
145.612
113.126
6.80104
20.3617
33.7969
47.0188
59.9331
72.4381
84.4248
95.784
106.432
116.387
126.003
136.655
152.876
189.445
297.547
6.36521
19.0519
31.6064
43.9369
55.9471
67.5355
78.5988
89.0438
98.8219
108.024
117.141
127.791
144.874
183.599
295.329
5.95967
17.8337
29.571
41.077
52.2533
62.9967
73.2013
82.7657
91.6109
99.7198
107.215
114.457
121.842
127.055
105.913
5.58552
16.7104
27.6958
38.4456
48.8596
58.8313
68.2476
76.9864
84.9103
91.8404
97.4642
101.023
100.317
88.8122
48.9171
5.24339
15.6837
25.9839
36.0472
45.7725
55.0511
63.7638
71.7725
78.8991
84.8676
89.147
90.549
86.2917
70.2841
32.1562
4.93347
14.7544
24.4363
33.8834
42.9952
51.6635
59.7685
67.1709
73.692
79.0673
82.8276
84.0054
80.426
67.1175
33.5791
4.65549
13.9215
23.0516
31.9524
40.5257
48.6667
56.261
63.1809
69.2804
74.3886
78.3019
80.7655
81.3171
77.9999
58.3496
4.40873
13.1829
21.8261
30.2486
38.3564
46.0496
53.2218
59.7607
65.5574
70.5398
74.7831
78.8542
84.8958
100.226
150.516
4.19207
12.5351
20.7539
28.7635
36.4749
43.7944
50.6225
56.8561
62.4001
67.2047
71.3846
75.5752
82.0252
98.1769
149.749
4.00399
11.9735
19.8271
27.4854
34.8657
41.8806
48.4361
54.4309
59.7566
64.3039
67.9796
70.7283
72.4187
71.5321
55.8742
3.84261
11.4925
19.036
26.4005
33.5105
40.2859
46.6394
52.4707
57.6542
62.009
65.2191
66.6175
64.6032
55.1468
28.7299
3.70575
11.0854
18.3694
25.4925
32.3878
38.9847
45.2059
50.9608
56.1278
60.51
63.7179
64.8776
61.9572
50.5407
23.1439
3.59101
10.745
17.8145
24.7429
31.4726
37.9446
44.0966
49.8597
55.1473
59.8271
63.6401
65.9721
65.2127
57.0333
30.6772
3.49581
10.4631
17.3578
24.1315
30.7368
37.1271
43.2581
49.0894
54.5897
59.7473
64.5917
69.215
73.6222
76.15
62.5158
3.41748
10.2319
16.9852
23.6374
30.1506
36.4902
42.6281
48.5497
54.2711
59.8861
65.698
72.6095
83.3386
106.492
171.716
3.35343
10.0434
16.6829
23.2401
29.6853
35.9938
42.149
48.1497
54.0272
59.8893
66.0419
73.3547
84.4287
107.622
172.27
3.30117
9.88986
16.4381
22.9207
29.3154
35.6045
41.7778
47.8359
53.7949
59.6918
65.5815
71.4893
77.1047
79.9677
64.5482
3.25841
9.76454
16.2391
22.6628
29.0192
35.2963
41.4874
47.5916
53.6067
59.5004
65.11
69.8286
71.6937
65.0113
35.7706
3.22313
9.66127
16.0756
22.4519
28.7786
35.0482
41.258
47.4101
53.5038
59.5074
65.2583
70.151
72.22
65.7219
36.3691
3.19351
9.57466
15.9387
22.2756
28.5781
34.8421
41.0695
47.2698
53.4643
59.6909
66.004
72.4355
78.6971
82.3053
67.097
3.168
9.50007
15.8208
22.1237
28.4046
34.662
40.9003
47.1342
53.4036
59.8154
66.6686
74.8393
87.0182
111.957
180.455
3.14523
9.43349
15.7154
21.9875
28.2477
34.4958
40.7348
46.9748
53.2449
59.6344
66.4195
74.461
86.4797
111.361
180.137
3.12404
9.37144
15.6169
21.8597
28.0995
34.3364
40.5694
46.795
53.0041
59.1799
65.2988
71.322
77.0105
80.2841
65.893
3.10336
9.3108
15.5205
21.7343
27.9538
34.18
40.4096
46.6273
52.7872
58.766
64.2455
68.4166
69.2196
61.4757
33.1745
3.0822
9.24867
15.4214
21.605
27.8039
34.0219
40.2585
46.5003
52.697
58.6996
64.1021
67.8513
67.3653
56.9445
26.8786
3.05963
9.18223
15.315
21.4652
27.641
33.8511
40.1043
46.4052
52.7421
59.0507
65.1078
70.2283
72.4113
66.0569
37.0354
3.03476
9.10878
15.1965
21.3078
27.4544
33.6508
39.9175
46.2856
52.8077
59.5774
66.765
74.6464
83.3878
90.9119
78.4775
3.00678
9.02584
15.0616
21.1261
27.2334
33.402
39.6604
46.0595
52.7018
59.8147
67.9413
78.4689
95.2113
129.629
220.283
2.97499
8.93132
14.9068
20.9147
26.9699
33.091
39.3059
45.6647
52.2694
59.3487
67.451
77.9767
94.7624
129.297
220.156
2.93878
8.82347
14.7294
20.6705
26.6607
32.7148
38.8516
45.0993
51.5077
58.1727
65.2786
73.1386
81.9895
89.8541
78.0612
2.89761
8.70082
14.5276
20.3922
26.3069
32.2812
38.3203
44.4221
50.5678
56.6906
62.5828
67.613
69.9028
64.0642
36.197
2.85087
8.56174
14.2993
20.0788
25.9116
31.8023
37.7451
43.7143
49.6434
55.3685
60.4856
63.9905
63.4613
53.5724
25.2549
2.79774
8.40402
14.0417
19.7283
25.4758
31.287
37.151
43.034
48.86
54.4682
59.5072
63.169
63.5189
55.8779
29.7238
2.73705
8.22434
13.75
19.3353
24.9952
30.7344
36.5433
42.3924
48.227
53.9623
59.4842
64.6463
69.1243
71.0381
57.3122
2.66716
8.01788
13.4164
18.8901
24.4591
30.1329
35.9067
41.76
47.662
53.6034
59.7092
66.5969
76.508
97.0564
154.966
2.58583
7.77801
13.0304
18.3783
23.8497
29.461
35.214
41.0926
47.068
53.1287
59.3893
66.4452
76.5013
97.1245
155.009
2.49016
7.49611
12.5776
17.7803
23.1423
28.69
34.4329
40.3564
46.4133
52.5132
58.5146
64.2074
69.1528
71.3116
57.4826
2.3766
7.1615
12.0402
17.071
22.3051
27.7823
33.525
39.5262
45.7267
51.964
57.8514
62.4856
63.7358
56.5976
30.1867
2.24094
6.76146
11.3968
16.22
21.2981
26.6892
32.4362
38.5558
45.0126
51.6553
58.0557
63.1105
64.1409
55.2643
26.4739
2.07838
6.2814
10.6225
15.1911
20.0729
25.3478
31.0871
37.3493
44.1671
51.5124
59.1913
66.5267
71.422
67.7566
39.5355
1.88359
5.70519
9.68962
13.944
18.5738
23.6824
29.3734
35.7551
42.9527
51.135
60.5622
71.6332
84.6439
97.2973
87.907
1.65092
5.01563
8.56878
12.4356
16.741
21.6113
27.1783
33.5921
41.0521
49.89
60.788
75.3882
98.1082
142.14
251.845
1.37451
4.19494
7.22967
10.6218
14.5149
19.0549
24.3937
30.7005
38.1921
47.211
58.4391
73.4995
96.7665
141.366
251.6
1.04842
3.22519
5.64193
8.45926
11.8386
15.9425
20.935
26.9843
34.269
42.9946
53.425
65.9069
80.604
95.0043
87.2004
0.666763
2.08856
3.77558
5.90581
8.65825
12.2116
16.7408
22.4082
29.343
37.5911
46.9824
56.7714
64.6422
64.0553
38.4871
0.223745
0.767563
1.6011
2.91969
4.92077
7.80193
11.7548
16.95
23.5027
31.3909
40.2601
48.964
54.549
50.4501
25.4697
-0.286214
-0.75479
-0.910528
-0.540871
0.57139
2.64694
5.9045
10.5473
16.733
24.5067
33.6495
43.3188
51.1769
51.3424
30.4775
-0.868322
-2.49451
-3.78724
-4.51752
-4.44755
-3.32977
-0.908921
3.07171
8.85843
16.6693
26.6704
38.9275
53.1429
66.8354
63.3234
-1.52715
-4.46585
-7.05468
-9.05018
-10.1946
-10.2121
-8.8064
-5.6593
-0.423512
7.30855
18.1221
33.1727
55.4677
94.271
181.675
-2.26623
-6.68017
-10.7342
-14.174
-16.7245
-18.0831
-17.9138
-15.8416
-11.4403
-4.19412
6.62939
22.3837
46.3239
87.9492
179.365
-3.08758
-9.14434
-14.8402
-19.9154
-24.0823
-27.0154
-28.343
-27.6417
-24.4333
-18.1826
-8.28937
5.9072
24.8948
47.044
55.9704
-3.99109
-11.859
-19.3769
-26.2873
-32.2969
-37.0627
-40.1813
-41.1828
-39.5395
-34.7016
-26.1979
-13.8985
1.26719
15.3173
16.5073
-4.97388
-14.8165
-24.3351
-33.2843
-41.3747
-48.2537
-53.4894
-56.5604
-56.8639
-53.7664
-46.743
-35.6955
-21.5875
-7.48084
0.795905
-6.02957
-17.9987
-29.6881
-40.8772
-51.293
-60.585
-68.3
-73.8589
-76.5493
-75.5567
-70.0824
-59.6178
-44.4417
-26.2312
-8.06285
-7.14758
-21.3749
-35.3878
-49.0063
-61.9906
-74.0104
-84.6065
-93.1479
-98.7907
-100.458
-96.886
-86.8111
-69.4026
-44.9523
-15.5031
-8.31256
-24.8994
-41.3607
-57.5746
-73.3568
-88.4229
-102.338
-114.448
-123.79
-128.996
-128.203
-119.095
-99.2522
-67.1438
-24.0243
-9.50389
-28.5106
-47.5044
-66.4414
-85.2185
-103.632
-121.32
-137.666
-151.66
-161.695
-165.29
-158.832
-137.617
-96.9803
-35.968
-10.6957
-32.1302
-53.6863
-75.4178
-97.3303
-119.344
-141.231
-162.513
-182.276
-198.861
-209.353
-208.813
-189.464
-140.964
-55.4969
-11.8574
-35.6646
-59.745
-84.2667
-109.37
-135.14
-161.559
-188.41
-215.092
-240.253
-261.072
-271.851
-261.549
-210.615
-92.7516
-12.9547
-39.0084
-65.496
-92.7098
-120.943
-150.481
-181.582
-214.419
-248.957
-284.655
-319.754
-349.52
-361.844
-326.736
-176.978
-13.9515
-42.0499
-70.7413
-100.443
-131.606
-164.734
-200.394
-239.24
-282.009
-329.464
-382.131
-439.29
-495.068
-522.46
-403.005
-14.8122
-44.6789
-75.2836
-107.159
-140.903
-177.222
-216.986
-261.329
-311.799
-370.644
-441.376
-530.004
-647.993
-820.144
-1105.79
1048.78
781.654
620.488
509.84
426.493
359.695
303.824
255.606
212.957
174.45
139.051
105.968
74.5629
44.2974
14.6934
383.189
499.271
475.493
424.117
370.844
321.329
276.333
235.429
197.955
163.27
130.802
100.055
70.5876
42.0062
13.9449
169.185
313.996
349.651
339.699
312.574
279.814
245.992
212.861
181.011
150.545
121.356
93.2493
65.9954
39.3528
13.0769
89.5944
204.513
255.469
267.197
258.207
239.029
215.165
189.397
163.101
136.93
111.155
85.8493
60.9771
36.4438
12.1237
54.6332
139.443
188.521
209.076
210.907
201.492
185.654
166.294
145.1
123.034
100.625
78.1461
55.7219
33.3858
11.1199
36.6543
99.1817
141.375
163.95
171.41
168.41
158.583
144.458
127.701
109.373
90.1392
70.4031
50.4042
30.278
10.0975
26.1611
73.0383
107.849
129.317
139.171
140.064
134.492
124.447
111.388
96.3391
80.0001
62.8407
45.1735
27.2072
9.08512
19.4484
55.2723
83.586
102.744
113.153
116.202
113.503
106.524
96.4531
84.1981
70.4285
55.6292
40.1494
24.2439
8.1059
14.8689
42.72
65.6788
82.2427
92.2431
96.3272
95.4845
90.7457
83.0324
73.1064
61.5701
48.8888
35.4199
21.4414
7.1777
11.5992
33.5641
52.2107
66.2972
75.439
79.871
80.1684
77.0301
71.1458
63.131
53.5051
42.6939
31.0432
18.8363
6.313
9.18566
26.7115
41.9076
53.7836
61.9033
66.2836
67.2358
65.2191
60.7367
54.2725
46.2617
37.0809
27.0519
16.4506
5.51942
7.35904
21.4759
33.909
43.877
50.9624
55.075
56.3628
55.1186
51.702
46.4867
39.8294
32.0559
23.4572
14.2934
4.80047
5.94968
17.409
27.6214
35.9706
42.0846
45.8262
47.2466
46.5252
43.915
39.7008
34.1712
27.603
20.2544
12.3644
4.15639
4.84574
14.2074
22.6266
29.6154
34.8528
38.1881
39.6163
39.2419
37.2405
33.8272
29.2333
23.6913
17.4268
10.6558
3.58499
3.97065
11.66
18.6245
24.4756
28.941
31.8731
33.2368
33.0875
31.5455
28.7726
24.953
20.2806
14.9506
9.15504
3.08235
3.2704
9.61556
15.395
20.2972
24.0933
26.6464
27.9069
27.8991
26.7044
24.4439
21.2642
17.3261
12.7971
7.8465
2.6435
2.70589
7.96369
12.7744
16.8863
20.1079
22.3165
23.457
23.5343
22.6027
20.7528
18.1014
14.7815
10.936
6.71301
2.26292
2.24826
6.62209
10.6386
14.0931
16.8256
18.7278
19.7446
19.8695
19.1379
17.6178
15.4023
12.6014
9.33676
5.73702
1.93489
1.87575
5.52846
8.89269
11.801
14.1194
15.7535
16.651
16.7991
16.22
14.9653
13.1092
10.743
7.96994
4.9014
1.65379
1.57178
4.63503
7.46318
9.91829
11.8878
13.2903
14.0774
14.233
13.7709
12.73
11.1701
9.16683
6.80807
4.19
1.41429
1.32356
3.90473
6.29254
8.37249
10.0498
11.2542
11.9418
12.0956
11.7234
10.8549
9.53843
7.83727
5.8261
3.58795
1.21147
1.1211
3.30862
5.33553
7.10606
8.53998
9.57655
10.1767
10.3232
10.0202
9.2905
8.17369
6.7228
5.0016
3.08186
1.04088
0.956603
2.82394
4.55644
6.07321
7.30585
8.20179
8.72623
8.86277
8.61292
7.99472
7.04074
5.79586
4.31483
2.6599
0.898567
0.823933
2.43283
3.92707
5.23753
6.30538
7.08482
7.54496
7.67044
7.46129
6.93192
6.10964
5.03279
3.74872
2.31175
0.781101
0.718311
2.12129
3.42523
4.57023
5.50504
6.18945
6.59593
6.71033
6.53187
6.07239
5.3552
4.41351
3.28872
2.02862
0.685528
0.636038
1.87849
3.0337
4.04882
4.87849
5.48697
5.8496
5.95348
5.79747
5.39172
4.75656
3.92129
2.92262
1.80308
0.609362
0.574329
1.69625
2.73942
3.65614
4.40546
4.95514
5.28288
5.377
5.23644
4.87027
4.29682
3.54248
2.64042
1.62903
0.550552
0.531184
1.56867
2.53292
3.37967
4.07105
4.57739
4.87836
4.96346
4.83203
4.49273
3.96264
3.26624
2.4341
1.50157
0.507444
0.505317
1.49195
2.40802
3.21108
3.86512
4.34226
4.62372
4.70027
4.57197
4.24766
3.74396
3.08426
2.29749
1.41688
0.478753
0.496119
1.46425
2.3616
3.14598
3.78206
4.24302
4.51141
4.57934
4.44805
4.12717
3.63362
2.99053
2.22604
1.37214
0.46352
0.50367
1.48571
2.39366
3.18392
3.82067
4.27755
4.53835
4.5968
4.45585
4.12664
3.62717
2.98114
2.21672
1.36542
0.461082
0.528801
1.55865
2.50751
3.32852
3.98425
4.44834
4.7059
4.7528
4.59448
4.2444
3.72255
3.05402
2.26777
1.39555
0.471035
0.573219
1.68788
2.71021
3.58798
4.281