/*--------------------------------*- C++ -*----------------------------------*\
| =========                 |                                                 |
| \\      /  F ield         | OpenFOAM: The Open Source CFD Toolbox           |
|  \\    /   O peration     | Version:  5.x                                   |
|   \\  /    A nd           | Web:      www.OpenFOAM.org                      |
|    \\/     M anipulation  |                                                 |
\*---------------------------------------------------------------------------*/
FoamFile
{
    version     2.0;
    format      ascii;
    class       volScalarField;
    location    "18.2";
    object      gradTy;
}
// * * * * * * * * * * * * * * * * * * * * * * * * * * * * * * * * * * * * * //

dimensions      [0 -1 0 1 0 0 0];

internalField   nonuniform List<scalar> 
6300
(
1002.66
1007.96
1013.24
1018.48
1023.66
1028.77
1033.8
1038.72
1043.52
1048.18
1052.7
1057.06
1061.24
1065.24
1069.05
0.0119222
0.0357609
0.0595809
0.0833557
0.107034
0.130529
0.153708
0.176376
0.198256
0.21899
0.238124
0.255128
0.269417
0.280405
0.287572
0.0198756
0.0596226
0.0993519
0.13903
0.178585
0.217891
0.25674
0.294821
0.331689
0.366744
0.399223
0.428207
0.45267
0.471562
0.483932
0.0278308
0.0834979
0.13917
0.194823
0.250383
0.305704
0.360535
0.414473
0.466927
0.51707
0.563811
0.605802
0.641488
0.669238
0.687536
0.0357811
0.107364
0.179002
0.250698
0.322406
0.393995
0.465205
0.535592
0.604458
0.670778
0.733132
0.789684
0.838226
0.876346
0.901729
0.0437096
0.131174
0.218769
0.306553
0.394539
0.482652
0.570685
0.658217
0.744521
0.828435
0.90824
0.981562
1.04537
1.09619
1.13048
0.051589
0.154846
0.258335
0.362194
0.466527
0.571371
0.676643
0.782048
0.886948
0.990175
1.0898
1.18292
1.2655
1.33251
1.37858
0.0593878
0.17828
0.297521
0.417347
0.537987
0.659644
0.782447
0.906361
1.03102
1.15549
1.27785
1.3948
1.50114
1.58975
1.65222
0.0670687
0.201358
0.336114
0.471673
0.608412
0.746749
0.887117
1.0299
1.17527
1.32287
1.47129
1.61723
1.75447
1.87307
1.95968
0.074595
0.223964
0.37389
0.524801
0.67722
0.831798
0.989346
1.15082
1.31724
1.48939
1.66715
1.84829
2.02638
2.18829
2.31274
0.0819387
0.246005
0.410665
0.576402
0.743845
0.913851
1.08761
1.26677
1.45345
1.65024
1.85957
2.0823
2.31436
2.54086
2.72885
0.0890898
0.267443
0.446349
0.626276
0.807879
0.992119
1.18046
1.37513
1.57951
1.79847
2.03852
2.3069
2.60779
2.93182
3.23451
0.0960631
0.28832
0.480993
0.674453
0.86925
1.06626
1.26693
1.47375
1.69094
1.92554
2.18903
2.49887
2.87795
3.34401
3.86625
0.102902
0.308768
0.514831
0.721272
0.928382
1.13669
1.34722
1.56196
1.78487
2.02363
2.29308
2.6215
3.06105
3.69994
4.64048
0.109676
0.329009
0.548272
0.767395
0.986285
1.20487
1.42324
1.64196
1.86289
2.09092
2.33807
2.63289
3.04472
3.75413
5.29718
1072.37
1075.25
1077.99
1080.59
1083.07
1085.41
1087.64
1089.75
1091.75
1093.65
1095.45
1097.18
1098.82
1100.41
1101.93
1103.41
1104.85
1106.26
1107.65
1109.02
1110.39
1111.76
1113.14
1114.53
1115.94
1117.37
1118.84
1120.33
1121.86
1123.43
1125.03
1126.66
1128.32
1130.02
1131.74
1133.48
1135.23
1137
1138.77
1140.54
1142.3
1144.04
1145.75
1147.42
1149.04
1150.6
1152.08
1153.48
1154.78
1155.97
1157.04
1157.98
1158.77
1159.39
1159.84
1160.09
1160.13
1159.93
1159.47
1158.74
1157.7
1156.33
1154.61
1152.5
1149.97
1146.99
1143.53
1139.53
1134.95
1129.76
1123.89
1117.29
1109.9
1101.67
1092.52
1082.38
1071.19
1058.87
1045.34
1030.53
1014.37
996.766
977.663
956.989
934.685
910.702
885.002
857.56
828.368
797.434
0.290283
0.289702
0.286068
0.279489
0.270169
0.258392
0.244492
0.22883
0.211767
0.193648
0.174788
0.155463
0.135912
0.116336
0.0969065
0.0777678
0.0590495
0.0408727
0.0233581
0.00663353
-0.00916077
-0.023869
-0.0373194
-0.0493276
-0.0597046
-0.0682684
-0.0748602
-0.079361
-0.081708
-0.0819038
-0.0800162
-0.076164
-0.0704904
-0.0631286
-0.0541688
-0.043637
-0.0314942
-0.0176577
-0.00204088
0.0153999
0.0346224
0.0554754
0.0777036
0.100985
0.12499
0.149458
0.174255
0.199413
0.225137
0.251775
0.279769
0.309588
0.34166
0.376322
0.413793
0.45417
0.497468
0.543675
0.592819
0.645031
0.700584
0.759909
0.823575
0.89225
0.96665
1.04747
1.13532
1.23069
1.33391
1.44513
1.56433
1.69136
1.82594
1.96766
2.11599
2.27022
2.42937
2.59213
2.75671
2.92079
3.08145
3.23513
3.3777
3.50458
3.61097
3.69215
3.74382
3.7625
3.74588
3.69308
0.488639
0.487668
0.481439
0.470146
0.454162
0.433998
0.410255
0.383573
0.354583
0.323882
0.292004
0.259414
0.226505
0.193606
0.160989
0.128884
0.0974924
0.0670037
0.0376079
0.00950912
-0.0170642
-0.0418527
-0.0645645
-0.0848802
-0.102465
-0.116992
-0.128168
-0.13577
-0.139678
-0.139898
-0.136565
-0.129918
-0.120252
-0.107841
-0.0928674
-0.0753764
-0.0552691
-0.0323454
-0.00638539
0.02275
0.0550275
0.0901865
0.127743
0.167063
0.207487
0.248477
0.289751
0.331354
0.373671
0.417365
0.463276
0.512289
0.565203
0.622624
0.684912
0.752179
0.824357
0.901317
0.983011
1.06959
1.16149
1.25946
1.3645
1.47782
1.60071
1.73442
1.88006
2.03849
2.21028
2.39566
2.59459
2.80675
3.03169
3.26875
3.51712
3.77573
4.04311
4.31721
4.59523
4.87339
5.14684
5.40957
5.65449
5.87363
6.05849
6.20064
6.2923
6.3271
6.3008
6.21172
0.69458
0.69324
0.684144
0.667604
0.644223
0.614814
0.580314
0.541703
0.499933
0.455881
0.410318
0.363897
0.317161
0.270548
0.224415
0.179054
0.134719
0.0916462
0.050077
0.0102768
-0.0274471
-0.0627345
-0.0951661
-0.124269
-0.149533
-0.170442
-0.186521
-0.197397
-0.202857
-0.202905
-0.197778
-0.187914
-0.173859
-0.156133
-0.13508
-0.110771
-0.0829854
-0.0512892
-0.0151849
0.0256945
0.0714036
0.121566
0.175366
0.231677
0.289291
0.347213
0.4049
0.462398
0.520352
0.579895
0.642452
0.70951
0.782391
0.862056
0.949001
1.04325
1.1445
1.25228
1.36631
1.48663
1.61381
1.74896
1.89364
2.04976
2.21933
2.40435
2.60653
2.82722
3.06722
3.32684
3.60591
3.90391
4.22012
4.55368
4.90364
5.26874
5.64729
6.0368
6.43367
6.83291
7.22779
7.60979
7.96853
8.29213
8.56764
8.78193
8.92274
8.97982
8.9462
8.81907
0.911651
0.909966
0.897553
0.874907
0.842964
0.802963
0.756301
0.704396
0.648589
0.59008
0.52989
0.468862
0.407666
0.346828
0.286758
0.227778
0.17016
0.114158
0.0600339
0.00809148
-0.041301
-0.0876892
-0.130521
-0.169145
-0.20283
-0.230804
-0.252325
-0.266777
-0.273784
-0.273319
-0.265767
-0.251898
-0.232709
-0.209171
-0.181935
-0.151124
-0.116287
-0.0765337
-0.0308128
0.0217328
0.0814156
0.147755
0.219424
0.294459
0.3707
0.446336
0.520367
0.592831
0.664796
0.738136
0.815196
0.898401
0.989862
1.09106
1.20262
1.32432
1.45526
1.59432
1.74059
1.89383
2.05471
2.22478
2.40638
2.60236
2.81578
3.0496
3.30642
3.58816
3.89595
4.23006
4.59002
4.97489
5.38359
5.81507
6.26837
6.74243
7.23573
7.74581
8.26876
8.79872
9.32733
9.8435
10.3332
10.7799
11.165
11.4691
11.6737
11.7632
11.7263
11.5584
1.14415
1.14215
1.12571
1.09562
1.05333
1.00074
0.939878
0.872756
0.801196
0.726762
0.65074
0.57414
0.497731
0.422084
0.347612
0.274623
0.203362
0.134054
0.0669408
0.00232784
-0.0593848
-0.117667
-0.171834
-0.221031
-0.264246
-0.300352
-0.328201
-0.346768
-0.355358
-0.353825
-0.342742
-0.323426
-0.297705
-0.267418
-0.233822
-0.197157
-0.156549
-0.110252
-0.0561472
0.00761672
0.0819676
0.166394
0.258761
0.355631
0.453105
0.547898
0.638215
0.724111
0.807386
0.891149
0.979228
1.07554
1.18346
1.30527
1.44178
1.5922
1.75449
1.92611
2.10496
2.29018
2.4825
2.68414
2.89856
3.12999
3.38297
3.66189
3.97055
4.31174
4.68694
5.09619
5.53838
6.01169
6.51438
7.04516
7.60334
8.18855
8.80012
9.43638
10.0939
10.7666
11.4449
12.1154
12.76
13.3565
13.8789
14.2995
14.5908
14.7285
14.695
14.4824
1.39738
1.39513
1.37351
1.33386
1.27852
1.21039
1.13245
1.04749
0.95793
0.865733
0.77243
0.679157
0.58672
0.495667
0.406354
0.319008
0.233784
0.15082
0.0702832
-0.00757403
-0.0823675
-0.153529
-0.220258
-0.281483
-0.335848
-0.381739
-0.417387
-0.441071
-0.451456
-0.448024
-0.431513
-0.404123
-0.369218
-0.330373
-0.290071
-0.248814
-0.204951
-0.155162
-0.0953391
-0.0216923
0.0680641
0.173652
0.291665
0.415987
0.539416
0.655954
0.762473
0.859206
0.949312
1.03798
1.13145
1.236
1.35709
1.49836
1.66095
1.84304
2.04034
2.24753
2.4602
2.67637
2.89688
3.12512
3.36628
3.62662
3.91284
4.23139
4.58788
4.98639
5.4289
5.91494
6.44192
7.00623
7.60473
8.23578
8.89941
9.59671
10.3289
11.0964
11.8972
12.7262
13.5738
14.4245
15.2561
16.0396
16.7395
17.3161
17.7289
17.9402
17.9215
17.6588
1.67841
1.67594
1.64721
1.59462
1.52206
1.43407
1.33502
1.22876
1.11836
1.00621
0.893997
0.782895
0.673648
0.566683
0.462206
0.360283
0.260903
0.164043
0.0697241
-0.0219278
-0.110617
-0.195807
-0.276637
-0.351841
-0.419678
-0.4779
-0.52382
-0.554543
-0.567466
-0.561076
-0.535967
-0.495658
-0.446427
-0.395445
-0.347721
-0.304247
-0.261913
-0.214553
-0.154474
-0.0742389
0.0313223
0.162973
0.315439
0.47758
0.635597
0.77838
0.900758
1.00377
1.09323
1.17783
1.26761
1.37258
1.50155
1.66069
1.85195
2.07189
2.31188
2.56094
2.8103
3.05618
3.30004
3.54739
3.80623
4.08587
4.39604
4.74614
5.14456
5.59755
6.10804
6.67459
7.29158
7.95139
8.64804
9.37933
10.1468
10.9544
11.8069
12.7081
13.6596
14.6589
15.698
16.7608
17.8214
18.8428
19.7772
20.5686
21.1568
21.483
21.499
21.1788
1.99719
1.99445
1.95519
1.884
1.78772
1.67354
1.54786
1.4158
1.28116
1.14659
1.01379
0.883798
0.757129
0.633959
0.514232
0.39775
0.284252
0.17347
0.0651921
-0.0406756
-0.144031
-0.244484
-0.341233
-0.432921
-0.517462
-0.591883
-0.65224
-0.693752
-0.711388
-0.701183
-0.662414
-0.600148
-0.526264
-0.455939
-0.399366
-0.358153
-0.326232
-0.29238
-0.242764
-0.163393
-0.0431338
0.122168
0.325125
0.544943
0.75354
0.930006
1.06674
1.16768
1.24393
1.31003
1.38167
1.47438
1.60236
1.77652
2.00143
2.27162
2.5701
2.87367
3.16515
3.43864
3.69793
3.95283
4.21594
4.50088
4.82141
5.19103
5.62235
6.1256
6.70612
7.36129
8.07926
8.84316
9.64113
10.4704
11.336
12.2471
13.2142
14.247
15.3526
16.534
17.7876
19.0998
20.4428
21.7709
23.0202
24.1131
24.9614
25.472
25.5603
25.1736
2.36889
2.36542
2.30902
2.20941
2.07906
1.92949
1.7698
1.60649
1.4438
1.28432
1.12947
0.97983
0.835493
0.696205
0.561514
0.430858
0.303631
0.179238
0.0571391
-0.0630861
-0.181667
-0.29853
-0.41315
-0.52432
-0.629843
-0.72614
-0.807815
-0.867358
-0.89542
-0.882437
-0.822717
-0.721391
-0.601003
-0.496658
-0.428924
-0.398711
-0.393353
-0.392927
-0.373925
-0.311457
-0.182492
0.0270895
0.310468
0.628392
0.917674
1.13876
1.28419
1.36708
1.40919
1.43418
1.4653
1.52531
1.63656
1.81919
2.08561
2.43047
2.82089
3.20368
3.54579
3.84139
4.10203
4.34632
4.59412
4.86452
5.17594
5.54693
5.99641
6.54224
7.19656
7.95739
8.8006
9.68567
10.5889
11.5091
12.4595
13.459
14.5268
15.6808
16.9362
18.3049
19.7926
21.3943
23.0854
24.812
26.4882
28.0096
29.252
30.0686
30.3053
29.8453
2.81899
2.81251
2.72497
2.57902
2.39803
2.20003
1.99706
1.79639
1.60194
1.41556
1.23778
1.06839
0.906755
0.752005
0.603163
0.45921
0.319121
0.181896
0.0465884
-0.0876602
-0.221563
-0.355593
-0.489816
-0.623624
-0.75528
-0.881221
-0.995021
-1.08606
-1.13832
-1.13076
-1.0427
-0.869851
-0.652407
-0.484428
-0.40422
-0.403248
-0.453133
-0.519968
-0.567416
-0.55501
-0.437676
-0.174003
0.246311
0.753324
1.18025
1.45669
1.5919
1.62544
1.59938
1.54979
1.50762
1.50278
1.56828
1.74148
2.05714
2.52402
3.08293
3.59256
3.99367
4.29477
4.52995
4.73505
4.94006
5.1694
5.44505
5.79014
6.23205
6.80297
7.5339
8.43519
9.46196
10.5023
11.5124
12.5046
13.5127
14.5726
15.7156
16.9689
18.3572
19.9045
21.6336
23.5602
25.6771
27.9258
30.1792
32.3081
34.1559
35.5007
36.0536
35.5331
3.39633
3.3763
3.22498
2.99906
2.7414
2.47759
2.22088
1.97717
1.74836
1.5343
1.33392
1.1457
0.968014
0.799214
0.6377
0.481931
0.330424
0.181736
0.0344617
-0.112777
-0.261318
-0.41241
-0.56711
-0.726049
-0.888965
-1.0538
-1.21501
-1.3606
-1.46736
-1.495
-1.38477
-1.08254
-0.632593
-0.345815
-0.265425
-0.334563
-0.488532
-0.674961
-0.847127
-0.949693
-0.903619
-0.600697
0.0572593
0.993528
1.65947
1.97791
2.04595
1.96953
1.82334
1.65461
1.49608
1.37885
1.34483
1.45854
1.81083
2.48491
3.41583
4.13759
4.58545
4.84293
5.00104
5.12376
5.25079
5.40745
5.61399
5.89378
6.28177
6.83313
7.62577
8.73212
10.1035
11.3624
12.4616
13.4769
14.4911
15.5661
16.7453
18.0623
19.5489
21.242
23.1898
25.4519
28.0785
31.0328
34.0488
37.0112
39.7836
42.0728
43.3473
42.8842
4.21426
4.12909
3.83232
3.46471
3.09353
2.74483
2.42589
2.1364
1.8734
1.63325
1.41242
1.20775
1.01639
0.835849
0.663887
0.498448
0.337602
0.179485
0.0222335
-0.136065
-0.297435
-0.464062
-0.638325
-0.822766
-1.0199
-1.2316
-1.4575
-1.69107
-1.91031
-2.05775
-2.0033
-1.50795
-0.377827
0.0899743
0.0886576
-0.143741
-0.4772
-0.850507
-1.22707
-1.55843
-1.73943
-1.53865
-0.532595
1.62294
2.63898
2.85962
2.70791
2.41402
2.07965
1.74465
1.42497
1.135
0.90857
0.831992
1.10103
2.07586
4.04979
5.07691
5.45119
5.53403
5.52293
5.50613
5.51869
5.57352
5.6773
5.84146
6.09607
6.51571
7.26572
8.64721
10.907
12.4521
13.5313
14.4505
15.3817
16.4094
17.5764
18.9113
20.4427
22.2125
24.2933
26.8182
30.0078
34.0506
37.9953
41.9873
46.1065
50.1054
53.1428
53.3932
5.61021
5.18632
4.54149
3.93531
3.41317
2.96914
2.58845
2.2575
1.96554
1.70438
1.46772
1.25065
1.04923
0.860189
0.680743
0.508418
0.340928
0.176067
0.0116019
-0.154835
-0.32588
-0.50461
-0.694768
-0.901087
-1.12972
-1.3888
-1.68881
-2.04199
-2.45649
-2.91107
-3.25654
-2.84726
0.830783
1.20138
0.775582
0.192709
-0.408367
-1.02122
-1.67195
-2.38348
-3.12479
-3.63601
-2.77754
3.89327
4.76391
4.27749
3.57465
2.91684
2.33695
1.81275
1.3112
0.799824
0.256678
-0.292075
-0.624917
0.22825
6.0472
6.95636
6.73662
6.36042
6.05307
5.84628
5.72583
5.66919
5.65379
5.65902
5.67288
5.72272
5.99646
7.29761
12.7398
14.2124
14.8317
15.4066
16.1335
17.0518
18.1659
19.4773
20.9935
22.7351
24.7573
27.2272
30.7086
37.2094
41.8737
46.7799
52.6026
59.5223
66.9514
71.4855
8.88577
6.56144
5.19485
4.28475
3.62014
3.10209
2.67923
2.32228
2.01319
1.74009
1.49469
1.27092
1.06413
0.870614
0.687254
0.511343
0.340394
0.172009
0.00374698
-0.167024
-0.343309
-0.528742
-0.727973
-0.947296
-1.19574
-1.48704
-1.84357
-2.30458
-2.94493
-3.92144
-5.59654
-8.89353
6.80202
3.45951
1.68861
0.555309
-0.322621
-1.13741
-2.02927
-3.16561
-4.84143
-7.70564
-13.3922
14.5157
8.84275
6.00683
4.37637
3.30726
2.51391
1.84809
1.21148
0.510313
-0.387189
-1.72708
-4.05873
-8.77013
15.1145
10.4611
8.24709
7.08744
6.43818
6.06189
5.84087
5.7053
5.60039
5.46399
5.19775
4.60719
3.24761
-0.0152029
20.2884
17.2012
16.1957
16.1436
16.6094
17.412
18.4709
19.748
21.2192
22.8535
24.5761
26.1793
27.061
43.0122
45.4033
50.252
57.5184
68.2051
84.9278
114.14
761.516
719.926
676.03
629.96
581.87
531.928
480.316
427.217
372.819
317.307
260.864
203.665
145.886
87.6957
29.2591
3.59595
3.44235
3.24754
3.01965
2.76745
2.49942
2.223
1.94418
1.66733
1.39527
1.12945
0.870151
0.616779
0.36808
0.122354
6.04602
5.78295
5.44927
5.05972
4.63
4.17503
3.70769
3.23813
2.77358
2.31855
1.87518
1.44367
1.02278
0.610168
0.202793
8.57845
8.19416
7.70689
7.13997
6.5178
5.86302
5.19461
4.52705
3.87029
3.23015
2.60901
2.00657
1.42049
0.847009
0.281439
11.2327
10.7084
10.0442
9.27546
8.43823
7.56465
6.68066
5.80517
4.95036
4.12271
3.32413
2.55308
1.80558
1.07593
0.357389
14.0559
13.3625
12.4859
11.4795
10.395
9.2767
8.15825
7.06259
6.00325
4.98618
4.01168
3.07603
2.17278
1.29373
0.429568
17.107
16.1996
15.0576
13.7615
12.3855
10.9889
9.61304
8.28373
7.01389
5.80707
4.66035
3.56654
2.51578
1.49662
0.496718
20.4634
19.2712
17.7831
16.1231
14.3967
12.6801
11.0213
9.44539
7.96151
6.56787
5.25611
4.01397
2.82714
1.68023
0.557397
24.2311
22.6383
20.6801
18.5509
16.3977
14.3133
12.3463
10.515
8.81887
7.24681
5.78222
4.40609
3.09856
1.83975
0.61003
28.5632
26.3705
23.748
21.0026
18.3297
15.8288
13.5354
11.4493
9.5521
7.81823
6.21987
4.72958
3.32123
1.97018
0.652995
33.6897
30.5326
26.9388
23.3818
20.09
17.1367
14.5172
12.1944
10.1219
8.25411
6.54943
4.9711
3.48659
2.06674
0.684757
39.9618
35.1312
30.0925
25.4955
21.5115
18.1108
15.2022
12.689
10.487
8.52681
6.75261
5.11877
3.58727
2.12542
0.704046
47.8758
39.9372
32.8043
26.9958
22.3496
18.5927
15.4916
12.8725
10.61
8.61349
6.8154
5.16408
3.61826
2.1436
0.710049
57.7093
43.9374
34.1915
27.3336
22.2981
18.4185
15.2988
12.6991
10.4671
8.50165
6.7314
5.10384
3.57808
2.12065
0.702595
66.2857
43.9113
32.6904
25.8487
21.0908
17.4842
14.586
12.1577
10.0578
8.19452
6.50469
4.94175
3.46954
2.05831
0.682267
0.115895
0.347599
0.579008
0.809814
1.03953
1.26742
1.49241
1.71309
1.92787
2.1357
2.33805
2.54388
2.78184
3.12973
3.78664
0.12161
0.364707
0.607381
0.849162
1.08927
1.32639
1.5584
1.78191
1.99165
2.17951
2.33325
2.43351
2.44379
2.26523
1.51909
0.127407
0.3821
0.636358
0.889656
1.14105
1.38888
1.63026
1.86027
2.07054
2.24694
2.36553
2.38557
2.23678
1.79487
0.843171
0.133286
0.399783
0.665986
0.931451
1.19529
1.45582
1.70997
1.95227
2.17291
2.35447
2.46619
2.4548
2.23323
1.67852
0.677401
0.139213
0.417659
0.69611
0.974355
1.2518
1.52715
1.79789
2.05925
2.30233
2.51046
2.65233
2.66986
2.46102
1.87212
0.757226
0.14512
0.435519
0.726359
1.01779
1.30973
1.60165
1.89226
2.17885
2.45595
2.71242
2.92478
3.04197
2.95271
2.43092
1.1145
0.150912
0.453061
0.756175
1.06086
1.36766
1.67704
1.98939
2.30498
2.62381
2.94494
3.26329
3.55732
3.74471
3.5415
2.10549
0.156473
0.469919
0.784881
1.10243
1.42375
1.75033
2.08423
2.42878
2.78999
3.17929
3.61864
4.1466
4.80786
5.5081
5.02348
0.161682
0.485711
0.81177
1.14134
1.47617
1.8185
2.17162
2.54096
2.93655
3.37877
3.91237
4.6432
5.84381
8.29737
14.5818
0.166424
0.500077
0.836195
1.17658
1.52334
1.87914
2.24771
2.63485
3.05066
3.5147
4.06905
4.81343
6.0095
8.42604
14.6327
0.1706
0.512718
0.85763
1.20736
1.5642
1.93088
2.31086
2.70878
3.13117
3.58781
4.09366
4.66987
5.32747
5.92249
5.19249
0.174135
0.523402
0.875697
1.23317
1.59817
1.97332
2.3615
2.76563
3.18783
3.62665
4.06928
4.46969
4.68876
4.33894
2.45703
0.176973
0.531969
0.890143
1.25372
1.62507
2.00667
2.401
2.80988
3.23286
3.66274
4.07413
4.3953
4.44497
3.81921
1.82716
0.179079
0.538314
0.900812
1.26884
1.64479
2.03114
2.43033
2.84426
3.27301
3.71159
4.14153
4.5093
4.67016
4.2482
2.35158
0.18043
0.542378
0.907617
1.27843
1.65725
2.04665
2.44936
2.86826
3.30625
3.76635
4.25203
4.76684
5.29997
5.70114
4.82493
0.181022
0.544142
0.910524
1.28244
1.66233
2.05285
2.4571
2.87892
3.32403
3.80322
4.34221
5.01153
6.02127
8.04101
13.391
0.18086
0.543627
0.909563
1.28088
1.65997
2.04949
2.45258
2.87334
3.31803
3.79847
4.34178
5.01967
6.04102
8.06801
13.4069
0.179967
0.540896
0.904838
1.2739
1.65033
2.03665
2.43573
2.85106
3.28712
3.74994
4.24777
4.78917
5.36225
5.79485
4.88727
0.178378
0.536058
0.896536
1.26176
1.63379
2.0149
2.40754
2.81433
3.23752
3.67699
4.12341
4.53656
4.78088
4.45222
2.52509
0.176141
0.529262
0.884916
1.24485
1.61092
1.98508
2.36946
2.76614
3.17654
3.59912
4.02203
4.40105
4.5973
4.21952
2.33165
0.173318
0.520693
0.870298
1.22366
1.58237
1.94813
2.32278
2.70835
3.10703
3.52094
3.95103
4.39233
4.81225
5.03538
4.06552
0.169976
0.51056
0.853047
1.19872
1.5489
1.90497
2.26847
2.64138
3.02684
3.43144
3.87216
4.39832
5.16375
6.67959
10.7723
0.16619
0.499092
0.833561
1.17063
1.5113
1.85659
2.20757
2.56562
2.93327
3.31675
3.73388
4.23802
4.99401
6.53408
10.7085
0.162035
0.486523
0.81225
1.13999
1.47046
1.80422
2.1417
2.48312
2.82861
3.17862
3.53508
3.90271
4.27965
4.55896
3.84229
0.157587
0.473081
0.789516
1.10744
1.42729
1.74923
2.07305
2.39774
2.72073
3.0359
3.32845
3.56082
3.63297
3.27538
1.81478
0.152911
0.458972
0.765725
1.07354
1.38262
1.69289
2.00374
2.31349
2.61822
2.90879
3.16353
3.33011
3.28461
2.7577
1.29343
0.148065
0.444369
0.741175
1.03872
1.3371
1.63612
1.93515
2.23267
2.52546
2.8065
3.05975
3.24656
3.2705
2.89089
1.55163
0.143092
0.429407
0.71609
1.00331
1.2911
1.57931
1.86755
2.15507
2.44079
2.72345
3.00206
3.27601
3.53656
3.69043
3.03478
0.138025
0.414177
0.690614
0.967464
1.24477
1.52245
1.8004
2.07865
2.35818
2.64315
2.94755
3.31466
3.87661
5.05206
8.2775
0.132884
0.398738
0.664834
0.931284
1.19814
1.46537
1.733
2.0013
2.27172
2.54926
2.84942
3.21791
3.79052
4.98994
8.25414
0.127679
0.383119
0.638788
0.894801
1.15121
1.408
1.66509
1.92243
2.18024
2.4396
2.70376
2.97934
3.26905
3.49383
2.95912
0.122415
0.367329
0.612488
0.858019
1.10399
1.35037
1.59696
1.84319
2.08762
2.32655
2.55009
2.7309
2.79256
2.52505
1.40261
0.117087
0.351359
0.585912
0.820908
1.05646
1.29258
1.52906
1.76515
1.99876
2.22412
2.42603
2.56513
2.54458
2.14991
1.01464
0.11169
0.335183
0.559013
0.783391
1.00851
1.2345
1.46137
1.68881
1.91557
2.13793
2.34553
2.51014
2.55637
2.28902
1.24748
0.10621
0.318764
0.531717
0.745341
0.959921
1.17577
1.39326
1.61289
1.83537
2.06195
2.29484
2.53726
2.78587
2.96569
2.48962
0.100636
0.302059
0.503941
0.706608
0.91043
1.11588
1.32364
1.53493
1.75227
1.98152
2.23748
2.56002
3.06308
4.09776
6.85891
0.0949532
0.285026
0.475606
0.667055
0.85979
1.05435
1.25153
1.45273
1.66086
1.88248
2.13383
2.45734
2.97102
4.03077
6.83354
0.0891522
0.267634
0.446653
0.62659
0.807863
0.990974
1.17659
1.3657
1.56001
1.76274
1.98002
2.22255
2.49966
2.75326
2.40717
0.0832252
0.24986
0.417051
0.585179
0.75464
0.925841
1.09919
1.27501
1.45329
1.63283
1.80862
1.96368
2.04456
1.89211
1.08371
0.0771678
0.231693
0.386786
0.542828
0.700187
0.859193
1.02005
1.18258
1.34565
1.50549
1.65157
1.75626
1.75145
1.48643
0.703978
0.0709764
0.213123
0.355852
0.499547
0.644573
0.79124
0.939709
1.08975
1.24021
1.38766
1.52322
1.62483
1.639
1.44004
0.758605
0.0646481
0.194144
0.324237
0.455327
0.587801
0.722016
0.85825
0.996604
1.13683
1.27806
1.41841
1.55407
1.67452
1.72865
1.39361
0.0581793
0.174742
0.291921
0.410133
0.529804
0.651372
0.775297
0.902122
1.03271
1.16903
1.31683
1.49381
1.75606
2.28747
3.73148
0.0515665
0.154908
0.258878
0.363914
0.470476
0.579074
0.690309
0.805004
0.924559
1.052
1.19494
1.37428
1.65063
2.21247
3.70381
0.0448075
0.134631
0.225088
0.316623
0.409721
0.50493
0.602902
0.704485
0.810904
0.924161
1.04776
1.18734
1.34691
1.49191
1.30506
0.0379019
0.11391
0.19054
0.268236
0.347488
0.428852
0.512973
0.600589
0.692474
0.78911
0.889435
0.986475
1.05326
1.00175
0.589109
0.030853
0.0927532
0.155246
0.218761
0.283777
0.350847
0.4206
0.49371
0.570721
0.651471
0.733365
0.806585
0.841742
0.762329
0.40479
0.023668
0.071181
0.119236
0.168234
0.21863
0.270967
0.325882
0.384105
0.446353
0.513016
0.583296
0.653091
0.709761
0.716027
0.534373
0.0163589
0.049229
0.0825676
0.116728
0.152128
0.189285
0.228855
0.271688
0.318899
0.372032
0.433548
0.508682
0.612758
0.800198
1.27997
0.00894326
0.0269489
0.0453238
0.0643555
0.0843994
0.10592
0.129553
0.156215
0.187312
0.225207
0.274331
0.344146
0.457838
0.681325
1.23254
0.00144412
0.00441013
0.00762045
0.0112758
0.0156402
0.0210815
0.0281396
0.0376499
0.0509892
0.0705655
0.100733
0.149119
0.22665
0.33483
0.375817
-0.00610961
-0.0182999
-0.0303947
-0.0422996
-0.0538708
-0.0648835
-0.0749814
-0.0835811
-0.0896766
-0.0914444
-0.0855283
-0.0661604
-0.0258421
0.0349786
0.0695091
-0.0136838
-0.0410776
-0.0685434
-0.0961092
-0.123772
-0.151486
-0.179146
-0.206555
-0.233355
-0.258799
-0.281138
-0.295999
-0.292582
-0.246628
-0.116286
-0.0212402
-0.0638057
-0.106624
-0.149853
-0.19364
-0.238129
-0.283485
-0.329955
-0.377976
-0.428311
-0.481944
-0.538537
-0.588861
-0.586841
-0.373074
-0.0287374
-0.0863588
-0.144419
-0.203208
-0.263019
-0.324168
-0.38705
-0.452277
-0.520991
-0.59553
-0.680688
-0.785432
-0.921484
-1.0741
-0.99957
-0.0361326
-0.108607
-0.181707
-0.255853
-0.331468
-0.409002
-0.488984
-0.572176
-0.65996
-0.75537
-0.865821
-1.01058
-1.2426
-1.71908
-2.96259
-0.0433824
-0.130419
-0.218269
-0.307475
-0.398581
-0.49213
-0.588685
-0.688881
-0.793627
-0.904759
-1.02712
-1.17512
-1.39394
-1.83137
-3.00564
-0.0504433
-0.151664
-0.253886
-0.357776
-0.463993
-0.573166
-0.685851
-0.802418
-0.92285
-1.04634
-1.1706
-1.29048
-1.39343
-1.43195
-1.14041
-0.0572717
-0.172211
-0.288341
-0.406457
-0.527346
-0.651757
-0.78031
-0.91326
-1.04994
-1.18738
-1.31709
-1.41759
-1.43765
-1.26172
-0.656603
-0.0638242
-0.19193
-0.321414
-0.453205
-0.588246
-0.727464
-0.871704
-1.0215
-1.17648
-1.33376
-1.48385
-1.60053
-1.61795
-1.38953
-0.664513
-0.0700578
-0.21069
-0.352879
-0.497692
-0.646236
-0.799674
-0.959228
-1.12613
-1.3014
-1.48511
-1.6738
-1.85237
-1.96895
-1.86217
-1.09186
-0.0759317
-0.228365
-0.382518
-0.539581
-0.700818
-0.867626
-1.04163
-1.22492
-1.42045
-1.63299
-1.87074
-2.14721
-2.47503
-2.79557
-2.50074
-0.081409
-0.244841
-0.410129
-0.578563
-0.751523
-0.930564
-1.11758
-1.31519
-1.52767
-1.76332
-2.04076
-2.40637
-2.98613
-4.15626
-7.17806
-0.0864585
-0.260024
-0.43555
-0.614392
-0.797993
-0.98795
-1.18615
-1.39512
-1.61877
-1.8646
-2.14953
-2.51675
-3.08721
-4.231
-7.20664
-0.091056
-0.273842
-0.45866
-0.646907
-0.840038
-1.03959
-1.24724
-1.46482
-1.69443
-1.93869
-2.20112
-2.48597
-2.79007
-3.03353
-2.59415
-0.095184
-0.286243
-0.479383
-0.676021
-0.877606
-1.0856
-1.30141
-1.52613
-1.75989
-2.00014
-2.23709
-2.44178
-2.53499
-2.31021
-1.27948
-0.0988306
-0.297193
-0.497667
-0.701687
-0.910708
-1.12617
-1.34938
-1.58114
-1.82081
-2.06384
-2.29544
-2.47495
-2.50068
-2.14654
-1.02605
-0.101989
-0.306671
-0.513482
-0.72387
-0.939321
-1.16134
-1.39138
-1.63062
-1.87936
-2.13545
-2.38991
-2.61487
-2.73013
-2.51503
-1.41954
-0.104655
-0.314667
-0.526803
-0.742523
-0.963357
-1.19093
-1.42698
-1.67348
-1.93278
-2.20816
-2.50484
-2.8309
-3.18896
-3.49486
-3.02384
-0.10683
-0.321182
-0.537625
-0.757614
-0.982701
-1.2146
-1.4553
-1.70741
-1.97499
-2.26603
-2.59934
-3.02467
-3.68395
-5.01417
-8.50074
-0.108524
-0.326238
-0.545974
-0.769151
-0.997299
-1.23213
-1.47568
-1.73056
-2.00088
-2.2945
-2.62988
-3.05591
-3.71294
-5.03592
-8.50916
-0.109752
-0.329885
-0.551925
-0.777221
-1.00724
-1.2436
-1.48815
-1.74298
-2.01054
-2.29393
-2.59744
-2.92668
-3.2794
-3.56436
-3.0515
-0.110543
-0.332201
-0.555604
-0.781998
-1.01275
-1.24937
-1.49347
-1.74651
-2.00916
-2.27933
-2.54709
-2.78108
-2.89286
-2.64677
-1.47584
-0.110933
-0.333299
-0.557195
-0.783734
-1.01417
-1.24993
-1.49254
-1.74335
-2.00253
-2.26637
-2.52013
-2.72031
-2.7548
-2.37137
-1.13679
-0.110974
-0.333329
-0.556938
-0.782747
-1.01188
-1.24571
-1.4859
-1.73434
-1.99262
-2.26038
-2.53034
-2.77454
-2.90691
-2.68702
-1.51923
-0.11073
-0.332482
-0.555143
-0.779438
-1.00631
-1.23704
-1.4735
-1.71846
-1.9761
-2.25281
-2.55839
-2.90637
-3.30359
-3.66089
-3.20073
-0.110282
-0.330997
-0.5522
-0.774328
-0.998032
-1.22437
-1.45518
-1.69374
-1.94628
-2.22516
-2.55697
-3.00395
-3.72794
-5.20237
-9.00805
-0.109725
-0.329166
-0.548604
-0.768107
-0.987907
-1.20858
-1.43144
-1.65929
-1.89811
-2.16071
-2.47551
-2.90911
-3.63107
-5.12483
-8.97696
-0.109171
-0.327331
-0.544949
-0.761663
-0.977154
-1.19126
-1.40421
-1.61719
-1.83339
-2.05997
-2.3115
-2.61396
-2.99816
-3.40944
-3.0965
-0.108739
-0.325866
-0.54191
-0.756052
-0.967346
-1.1747
-1.37692
-1.57283
-1.76141
-1.94184
-2.11209
-2.26201
-2.34638
-2.19693
-1.29935
-0.108549
-0.325145
-0.540178
-0.752401
-0.960251
-1.16169
-1.354
-1.53352
-1.69507
-1.83074
-1.92676
-1.95553
-1.85692
-1.50392
-0.683494
-0.108703
-0.325501
-0.540384
-0.75177
-0.957587
-1.15498
-1.33993
-1.50665
-1.64666
-1.74714
-1.7881
-1.73745
-1.5441
-1.13548
-0.447184
-0.109278
-0.327178
-0.543003
-0.754989
-0.960748
-1.15689
-1.33849
-1.4983
-1.62566
-1.70484
-1.71302
-1.61841
-1.38076
-0.961228
-0.353969
-0.110305
-0.330288
-0.548273
-0.762512
-0.970566
-1.16887
-1.35214
-1.51246
-1.63808
-1.71179
-1.70931
-1.59867
-1.34369
-0.917319
-0.330661
-0.111764
-0.334776
-0.556129
-0.77431
-0.987128
-1.19128
-1.3817
-1.55068
-1.6865
-1.77162
-1.78067
-1.67911
-1.42561
-0.984695
-0.359197
-0.113576
-0.340406
-0.566171
-0.789813
-1.00969
-1.22318
-1.42612
-1.6119
-1.77008
-1.88423
-1.9288
-1.86502
-1.63763
-1.18023
-0.452233
-0.115609
-0.346767
-0.577671
-0.807909
-1.03665
-1.26238
-1.48243
-1.69226
-1.88419
-2.0451
-2.15212
-2.1645
-2.00934
-1.56364
-0.667811
-0.117682
-0.353293
-0.589615
-0.827019
-1.06569
-1.3055
-1.54581
-1.78501
-2.0198
-2.24334
-2.44109
-2.58025
-2.58275
-2.25959
-1.18881
-0.119579
-0.359313
-0.600792
-0.845225
-1.0939
-1.34826
-1.60991
-1.8808
-2.16317
-2.45942
-2.77067
-3.09081
-3.38225
-3.47464
-2.61736
-0.121071
-0.364111
-0.609898
-0.860458
-1.11815
-1.38591
-1.66758
-1.96857
-2.29686
-2.66499
-3.09394
-3.62123
-4.31997
-5.34898
-7.08569
46.8059
34.875
27.6744
22.731
19.0085
16.0265
13.5335
11.383
9.48181
7.76604
6.18939
4.71637
3.3184
1.97137
0.653892
17.0992
22.2733
21.2061
18.9088
16.5286
14.3177
12.3097
10.4852
8.81455
7.26893
5.82271
4.45353
3.14172
1.86954
0.620622
7.54815
14.0056
15.592
15.1442
13.9312
12.4679
10.9583
9.48042
8.06043
6.70275
5.40249
4.15085
2.93749
1.75153
0.58202
3.99627
9.12049
11.3906
11.9108
11.5074
10.6503
9.58493
8.4354
7.26299
6.09666
4.94848
3.82156
2.7142
1.62211
0.539614
2.43625
6.21737
8.40424
9.31879
9.39851
8.97718
8.26994
7.40621
6.4613
5.47795
4.47969
3.47867
2.4803
1.48601
0.494937
1.63413
4.42134
6.30141
7.30646
7.63757
7.50257
7.06356
6.43338
5.68626
4.86956
4.01279
3.13392
2.24355
1.34765
0.449426
1.16605
3.25524
4.8062
5.7621
6.20028
6.23904
5.98992
5.54171
4.95951
4.28897
3.56121
2.79714
2.01062
1.21092
0.404345
0.866649
2.46289
3.7242
4.57724
5.04031
5.17538
5.05449
4.74306
4.2941
3.74809
3.13484
2.47592
1.78685
1.07893
0.360732
0.662419
1.90313
2.92569
3.66316
4.1081
4.28944
4.25137
4.03988
3.69606
3.25388
2.74017
2.17563
1.57615
0.954086
0.319383
0.516609
1.49484
2.32514
2.95221
3.35893
3.55585
3.56866
3.42856
3.16631
2.80933
2.38078
1.89958
1.38113
0.838009
0.280854
0.408982
1.18926
1.86572
2.39424
2.75543
2.95009
2.99213
2.90206
2.70232
2.41448
2.05792
1.6494
1.20323
0.731673
0.245483
0.327522
0.955781
1.50903
1.95247
2.26756
2.45029
2.50732
2.45171
2.29949
2.06734
1.77113
1.42535
1.04296
0.635491
0.213427
0.26466
0.774382
1.22858
1.59983
1.87159
2.03778
2.10072
2.06842
1.95217
1.76466
1.51875
1.22673
0.90009
0.549442
0.184696
0.215405
0.631538
1.00573
1.31628
1.54892
1.69697
1.76024
1.74342
1.65432
1.50254
1.29837
1.05214
0.773887
0.47318
0.159191
0.17634
0.517818
0.827067
1.08682
1.28498
1.41502
1.47539
1.46859
1.39999
1.27679
1.10719
0.899795
0.663271
0.406139
0.136737
0.145055
0.426477
0.682775
0.900116
1.06836
1.18143
1.23717
1.23667
1.18357
1.08325
0.94224
0.767671
0.566963
0.347615
0.117109
0.119803
0.352581
0.565534
0.747509
0.890028