/*--------------------------------*- C++ -*----------------------------------*\
| =========                 |                                                 |
| \\      /  F ield         | OpenFOAM: The Open Source CFD Toolbox           |
|  \\    /   O peration     | Version:  5.x                                   |
|   \\  /    A nd           | Web:      www.OpenFOAM.org                      |
|    \\/     M anipulation  |                                                 |
\*---------------------------------------------------------------------------*/
FoamFile
{
    version     2.0;
    format      ascii;
    class       volScalarField;
    location    "18.2";
    object      T;
}
// * * * * * * * * * * * * * * * * * * * * * * * * * * * * * * * * * * * * * //

dimensions      [0 0 0 1 0 0 0];

internalField   nonuniform List<scalar> 
6300
(
10.0265
10.0795
10.1322
10.1845
10.2363
10.2873
10.3375
10.3866
10.4345
10.4811
10.5262
10.5697
10.6115
10.6515
10.6896
10.0266
10.0797
10.1326
10.1851
10.237
10.2882
10.3385
10.3878
10.4358
10.4826
10.5278
10.5714
10.6133
10.6534
10.6915
10.0268
10.0802
10.1334
10.1862
10.2384
10.2899
10.3405
10.3901
10.4385
10.4855
10.531
10.5748
10.6169
10.6571
10.6953
10.027
10.0809
10.1346
10.1879
10.2406
10.2925
10.3436
10.3936
10.4425
10.4899
10.5358
10.58
10.6224
10.6628
10.7012
10.0273
10.0819
10.1362
10.1901
10.2434
10.296
10.3477
10.3984
10.4478
10.4958
10.5422
10.5869
10.6297
10.6705
10.7091
10.0277
10.0831
10.1382
10.1929
10.247
10.3004
10.3529
10.4044
10.4545
10.5033
10.5504
10.5958
10.6391
10.6803
10.7192
10.0282
10.0845
10.1406
10.1962
10.2513
10.3057
10.3592
10.4116
10.4627
10.5124
10.5604
10.6066
10.6506
10.6924
10.7317
10.0287
10.0862
10.1433
10.2001
10.2563
10.3118
10.3665
10.42
10.4723
10.5231
10.5722
10.6194
10.6644
10.707
10.7468
10.0294
10.0881
10.1465
10.2046
10.2621
10.3189
10.3748
10.4297
10.4833
10.5355
10.586
10.6345
10.6807
10.7242
10.7647
10.0301
10.0902
10.1501
10.2095
10.2685
10.3268
10.3842
10.4406
10.4958
10.5496
10.6017
10.6518
10.6995
10.7444
10.786
10.0309
10.0925
10.154
10.2151
10.2756
10.3355
10.3946
10.4527
10.5097
10.5653
10.6193
10.6714
10.7212
10.768
10.811
10.0317
10.0951
10.1583
10.2211
10.2834
10.3451
10.406
10.4659
10.5249
10.5826
10.6389
10.6934
10.7458
10.7952
10.8406
10.0327
10.0979
10.1629
10.2276
10.2918
10.3554
10.4182
10.4802
10.5413
10.6013
10.6601
10.7176
10.7733
10.8266
10.8757
10.0336
10.1009
10.1679
10.2346
10.3008
10.3664
10.4313
10.4954
10.5587
10.6211
10.6826
10.7434
10.8034
10.8621
10.9179
10.0347
10.1041
10.1732
10.242
10.3103
10.3781
10.4451
10.5114
10.577
10.6417
10.7059
10.77
10.8346
10.9006
10.9685
10.7227
10.7515
10.7789
10.805
10.8298
10.8533
10.8756
10.8967
10.9168
10.9358
10.9539
10.9712
10.9878
11.0037
11.019
11.0339
11.0483
11.0625
11.0764
11.0902
11.1039
11.1177
11.1315
11.1454
11.1596
11.174
11.1886
11.2036
11.2189
11.2345
11.2505
11.2668
11.2835
11.3004
11.3175
11.3349
11.3524
11.3701
11.3878
11.4054
11.4229
11.4402
11.4573
11.4739
11.49
11.5055
11.5202
11.5341
11.547
11.5588
11.5695
11.5787
11.5865
11.5927
11.597
11.5994
11.5996
11.5975
11.5928
11.5852
11.5747
11.5608
11.5434
11.522
11.4965
11.4664
11.4315
11.3912
11.3451
11.2927
11.2337
11.1673
11.0929
11.0101
10.9181
10.8162
10.7038
10.58
10.4442
10.2956
10.1334
9.95689
9.76539
9.55824
9.33486
9.09476
8.83759
8.56312
8.27125
7.96208
10.7247
10.7534
10.7808
10.8069
10.8316
10.855
10.8772
10.8982
10.9182
10.9371
10.9551
10.9723
10.9887
11.0045
11.0197
11.0344
11.0487
11.0627
11.0766
11.0902
11.1039
11.1175
11.1312
11.1451
11.1592
11.1735
11.1881
11.2031
11.2184
11.234
11.25
11.2663
11.283
11.3
11.3172
11.3346
11.3522
11.37
11.3877
11.4055
11.4232
11.4406
11.4578
11.4746
11.4908
11.5065
11.5214
11.5354
11.5485
11.5605
11.5713
11.5808
11.5888
11.5952
11.5998
11.6024
11.6029
11.6011
11.5967
11.5895
11.5794
11.5659
11.5489
11.528
11.503
11.4735
11.4391
11.3994
11.354
11.3024
11.2441
11.1786
11.1051
11.0233
10.9322
10.8314
10.72
10.5973
10.4626
10.315
10.1539
9.97843
9.78786
9.58154
9.35885
9.11929
8.86245
8.58809
8.29611
7.98659
10.7285
10.7573
10.7847
10.8106
10.8352
10.8585
10.8805
10.9013
10.921
10.9397
10.9574
10.9744
10.9905
11.006
11.0209
11.0354
11.0495
11.0633
11.0769
11.0903
11.1037
11.1172
11.1307
11.1444
11.1584
11.1726
11.1871
11.202
11.2173
11.2329
11.2489
11.2653
11.2821
11.2991
11.3165
11.334
11.3518
11.3697
11.3877
11.4057
11.4236
11.4413
11.4588
11.4759
11.4925
11.5084
11.5237
11.5381
11.5515
11.5639
11.5751
11.5849
11.5933
11.6002
11.6053
11.6085
11.6096
11.6083
11.6046
11.5981
11.5887
11.576
11.5598
11.5399
11.5158
11.4874
11.4542
11.4158
11.3718
11.3216
11.2649
11.2011
11.1295
11.0495
10.9604
10.8616
10.7524
10.6319
10.4993
10.354
10.195
10.0216
9.83295
9.62833
9.40708
9.16861
8.91247
8.63837
8.34617
8.03595
10.7344
10.7632
10.7905
10.8163
10.8407
10.8637
10.8854
10.9059
10.9253
10.9436
10.961
10.9775
10.9932
11.0083
11.0229
11.037
11.0507
11.0641
11.0773
11.0904
11.1035
11.1167
11.1299
11.1434
11.1571
11.1712
11.1856
11.2004
11.2156
11.2312
11.2473
11.2637
11.2806
11.2978
11.3153
11.3331
11.3511
11.3693
11.3876
11.406
11.4243
11.4424
11.4603
11.4779
11.495
11.5114
11.5272
11.5421
11.556
11.5689
11.5806
11.591
11.6001
11.6076
11.6135
11.6175
11.6194
11.6191
11.6164
11.6109
11.6026
11.5911
11.5762
11.5576
11.535
11.5081
11.4767
11.4402
11.3982
11.3503
11.296
11.2347
11.1658
11.0886
11.0026
10.9069
10.8009
10.6837
10.5545
10.4125
10.2568
10.0866
9.90095
9.69901
9.48002
9.2433
8.9883
8.71463
8.42213
8.11083
10.7424
10.7712
10.7983
10.824
10.8481
10.8708
10.8921
10.9121
10.931
10.9488
10.9656
10.9816
10.9969
11.0114
11.0254
11.039
11.0522
11.0651
11.0779
11.0905
11.1032
11.1159
11.1288
11.142
11.1554
11.1692
11.1834
11.1981
11.2132
11.2288
11.245
11.2616
11.2786
11.296
11.3137
11.3318
11.3502
11.3687
11.3874
11.4062
11.425
11.4438
11.4623
11.4805
11.4983
11.5154
11.5318
11.5473
11.5619
11.5755
11.5879
11.5991
11.609
11.6174
11.6243
11.6293
11.6324
11.6334
11.6319
11.6279
11.621
11.611
11.5977
11.5809
11.5602
11.5355
11.5063
11.4723
11.4331
11.3882
11.3371
11.2792
11.2139
11.1405
11.0585
10.967
10.8653
10.7526
10.628
10.4907
10.3396
10.1738
9.99232
9.79417
9.57843
9.34424
9.09092
8.81796
8.5251
8.21233
10.7527
10.7814
10.8084
10.8338
10.8575
10.8797
10.9005
10.92
10.9382
10.9554
10.9715
10.9868
11.0014
11.0153
11.0286
11.0415
11.0541
11.0664
11.0785
11.0906
11.1027
11.1149
11.1273
11.14
11.1531
11.1666
11.1805
11.195
11.2101
11.2257
11.242
11.2587
11.2759
11.2936
11.3117
11.3301
11.3488
11.3678
11.387
11.4064
11.4259
11.4454
11.4647
11.4838
11.5024
11.5204
11.5376
11.5539
11.5693
11.5836
11.5969
11.609
11.6199
11.6295
11.6375
11.644
11.6485
11.651
11.6512
11.6488
11.6437
11.6356
11.6243
11.6096
11.5913
11.5691
11.5428
11.5119
11.4761
11.4349
11.3878
11.3342
11.2734
11.2049
11.1279
11.0417
10.9456
10.8386
10.7199
10.5885
10.4434
10.2835
10.1076
9.91461
9.70332
9.47268
9.22177
8.9499
8.65666
8.342
10.7653
10.794
10.8209
10.8459
10.8691
10.8908
10.9109
10.9296
10.947
10.9633
10.9787
10.9931
11.0068
11.0199
11.0324
11.0445
11.0563
11.0678
11.0792
11.0906
11.102
11.1136
11.1254
11.1375
11.1501
11.1632
11.1768
11.1911
11.2061
11.2218
11.2381
11.2551
11.2726
11.2906
11.3091
11.3279
11.347
11.3665
11.3863
11.4064
11.4267
11.4471
11.4675
11.4876
11.5073
11.5263
11.5445
11.5618
11.5781
11.5933
11.6075
11.6206
11.6327
11.6435
11.6531
11.6612
11.6675
11.6719
11.674
11.6737
11.6706
11.6647
11.6557
11.6435
11.6279
11.6087
11.5857
11.5585
11.5268
11.4901
11.4478
11.3994
11.3442
11.2814
11.2106
11.1308
11.0413
10.9413
10.8299
10.706
10.5685
10.4161
10.2475
10.0613
9.85601
9.63024
9.38274
9.11253
8.819
8.50198
10.7806
10.8093
10.8359
10.8604
10.8831
10.904
10.9232
10.9409
10.9574
10.9727
10.987
11.0004
11.0131
11.0252
11.0367
11.0479
11.0587
11.0694
11.0799
11.0904
11.1011
11.1118
11.1229
11.1344
11.1464
11.1589
11.1722
11.1862
11.2011
11.2168
11.2333
11.2506
11.2686
11.287
11.3059
11.3251
11.3447
11.3647
11.3851
11.406
11.4272
11.4488
11.4706
11.4921
11.5132
11.5335
11.5528
11.5711
11.5883
11.6044
11.6195
11.6337
11.647
11.6594
11.6707
11.6808
11.6893
11.696
11.7004
11.7023
11.7016
11.6981
11.6916
11.6821
11.6696
11.6538
11.6345
11.6116
11.5847
11.5532
11.5166
11.4743
11.4255
11.3696
11.3059
11.2337
11.1521
11.0605
10.9578
10.843
10.7149
10.572
10.4127
10.2354
10.0381
9.819
9.57635
9.3087
9.01509
8.69517
10.7989
10.8275
10.8538
10.8778
10.8996
10.9194
10.9376
10.9542
10.9694
10.9835
10.9965
11.0088
11.0203
11.0312
11.0416
11.0517
11.0615
11.0711
11.0806
11.0901
11.0998
11.1097
11.1199
11.1305
11.1417
11.1536
11.1664
11.18
11.1948
11.2105
11.2274
11.2452
11.2637
11.2827
11.3021
11.3218
11.3418
11.3622
11.3832
11.4049
11.4273
11.4504
11.4738
11.4972
11.52
11.5419
11.5626
11.5819
11.5999
11.6169
11.6328
11.6481
11.6627
11.6767
11.6901
11.7026
11.7138
11.7231
11.7302
11.7348
11.7366
11.7356
11.7318
11.7252
11.7158
11.7036
11.6886
11.6705
11.649
11.6236
11.5937
11.5584
11.5171
11.469
11.4135
11.3499
11.2775
11.1955
11.1031
10.9992
10.8824
10.7513
10.6039
10.4382
10.2516
10.0416
9.80588
9.54219
9.24898
8.92555
10.8206
10.8492
10.875
10.8981
10.9188
10.9374
10.9541
10.9693
10.983
10.9956
11.0073
11.0181
11.0283
11.0379
11.047
11.0558
11.0644
11.0728
11.0812
11.0896
11.0982
11.107
11.1161
11.1257
11.136
11.1471
11.1591
11.1723
11.1868
11.2028
11.2201
11.2386
11.258
11.2779
11.2979
11.318
11.3382
11.3588
11.3802
11.4027
11.4264
11.4513
11.4771
11.503
11.5282
11.5521
11.5742
11.5944
11.6132
11.6306
11.6472
11.6632
11.6791
11.6949
11.7108
11.7262
11.7407
11.7534
11.7637
11.7711
11.7756
11.7771
11.7759
11.7722
11.766
11.7576
11.747
11.7342
11.7188
11.7004
11.6782
11.6512
11.6184
11.5791
11.5327
11.4786
11.4164
11.3454
11.2649
11.1737
11.0706
10.954
10.8216
10.6708
10.4985
10.3013
10.0756
9.81814
9.52629
9.19865
10.8463
10.8748
10.9
10.922
10.9412
10.958
10.973
10.9863
10.9983
11.0092
11.0191
11.0284
11.037
11.0451
11.0529
11.0603
11.0675
11.0747
11.0817
11.0889
11.0962
11.1037
11.1116
11.12
11.1291
11.1391
11.1502
11.1627
11.1768
11.1929
11.2109
11.2307
11.2517
11.2728
11.2935
11.3138
11.3339
11.3543
11.3757
11.3987
11.4237
11.4509
11.48
11.5098
11.5384
11.5647
11.5882
11.6092
11.6281
11.6455
11.6621
11.6786
11.6954
11.7131
11.7319
11.7512
11.7702
11.7872
11.8012
11.8116
11.8187
11.8225
11.8237
11.8225
11.8193
11.8146
11.8085
11.8013
11.7929
11.7827
11.7697
11.7521
11.7289
11.6992
11.6627
11.6191
11.568
11.5091
11.4418
11.3653
11.2783
11.1792
11.0657
10.9344
10.7813
10.6018
10.3909
10.1436
9.85508
9.52246
10.8769
10.9054
10.9295
10.9497
10.9668
10.9814
10.9941
11.0052
11.0151
11.0239
11.032
11.0395
11.0464
11.0529
11.0591
11.065
11.0708
11.0765
11.0822
11.0879
11.0937
11.0998
11.1063
11.1133
11.1209
11.1295
11.1392
11.1506
11.1641
11.1801
11.1992
11.2212
11.245
11.2682
11.2898
11.3099
11.3291
11.3484
11.3689
11.3916
11.4176
11.4478
11.482
11.5181
11.5518
11.5812
11.606
11.627
11.6451
11.6616
11.6773
11.6933
11.7105
11.7298
11.7519
11.7767
11.8024
11.8253
11.8436
11.857
11.8662
11.8718
11.8747
11.8755
11.8749
11.8734
11.8716
11.8702
11.8695
11.8691
11.8675
11.8612
11.8486
11.8291
11.8029
11.7701
11.7307
11.6848
11.632
11.5718
11.5033
11.4252
11.3351
11.2293
11.1021
10.9474
10.7587
10.5282
10.2474
9.90931
10.9142
10.9424
10.9645
10.9819
10.996
11.0076
11.0174
11.0258
11.0332
11.0398
11.0458
11.0513
11.0563
11.0611
11.0656
11.0699
11.0742
11.0783
11.0824
11.0866
11.0909
11.0954
11.1003
11.1055
11.1113
11.118
11.1259
11.1355
11.1475
11.163
11.1832
11.2091
11.239
11.2659
11.2882
11.3071
11.3241
11.3408
11.3588
11.3797
11.4056
11.4389
11.4812
11.5296
11.5716
11.6042
11.6292
11.6486
11.6646
11.6786
11.6921
11.7062
11.7223
11.7423
11.7681
11.8009
11.8385
11.87
11.8929
11.9085
11.9187
11.925
11.9287
11.9306
11.9316
11.9325
11.9342
11.938
11.9454
11.9574
11.9717
11.9794
11.9781
11.9688
11.9525
11.9304
11.9029
11.8704
11.8328
11.7901
11.7421
11.6882
11.6272
11.5551
11.4623
11.342
11.1866
10.985
10.722
10.3801
10.9612
10.988
11.0061
11.019
11.0287
11.0363
11.0426
11.0479
11.0525
11.0566
11.0603
11.0636
11.0667
11.0696
11.0724
11.075
11.0776
11.0801
11.0826
11.0852
11.0878
11.0906
11.0935
11.0968
11.1005
11.1048
11.1101
11.1168
11.1259
11.139
11.1592
11.1911
11.2374
11.27
11.2916
11.307
11.3196
11.3314
11.3443
11.3604
11.3828
11.417
11.4713
11.5505
11.6046
11.6384
11.6601
11.6752
11.6867
11.6965
11.7058
11.716
11.7286
11.7464
11.7739
11.8182
11.8834
11.9268
11.9526
11.9677
11.9766
11.982
11.9851
11.987
11.9884
11.9902
11.9936
12.0005
12.0148
12.0421
12.0856
12.1103
12.1192
12.1182
12.1105
12.0983
12.0823
12.063
12.0409
12.016
11.9892
11.9615
11.9353
11.9103
11.862
11.7872
11.6808
11.5303
11.3102
10.9772
11.0264
11.0461
11.0553
11.0606
11.0643
11.067
11.0692
11.071
11.0725
11.0739
11.0752
11.0763
11.0773
11.0783
11.0792
11.0801
11.081
11.0818
11.0827
11.0835
11.0844
11.0853
11.0864
11.0875
11.0887
11.0902
11.0921
11.0946
11.0984
11.1048
11.1181
11.1521
11.2556
11.2899
11.3037
11.311
11.316
11.3204
11.3253
11.332
11.3431
11.3662
11.4256
11.6075
11.6669
11.6898
11.7007
11.707
11.7113
11.7149
11.7183
11.7222
11.7275
11.7365
11.7556
11.8055
11.9595
12.0091
12.0276
12.0357
12.0397
12.0419
12.0432
12.044
12.0447
12.0456
12.0476
12.0525
12.0654
12.1033
12.2265
12.2636
12.2748
12.2769
12.2752
12.2714
12.2662
12.2599
12.2527
12.2448
12.2372
12.2328
12.2414
12.2992
12.2998
12.2776
12.2386
12.1755
12.0611
11.8099
7.60323
7.18783
6.74951
6.28956
5.80949
5.31096
4.79575
4.26569
3.72263
3.16842
2.60486
2.03375
1.4568
0.875726
0.292182
7.6271
7.21068
6.77109
6.30964
5.82791
5.32761
4.81056
4.27865
3.73375
3.17773
2.61241
2.03956
1.46093
0.878187
0.293
7.67515
7.25667
6.81446
6.34995
5.86484
5.36095
4.84021
4.30457
3.75597
3.19632
2.62745
2.05115
1.46914
0.883088
0.294629
7.74802
7.32634
6.88007
6.41083
5.9205
5.41111
4.88472
4.34341
3.78923
3.2241
2.64991
2.06844
1.48138
0.89039
0.297056
7.84672
7.42056
6.9686
6.49275
5.9952
5.47821
4.9441
4.39511
3.83338
3.26092
2.67963
2.09128
1.49755
0.900028
0.300258
7.97267
7.54051
7.08095
6.59634
6.08927
5.5624
5.01833
4.45952
3.88823
3.30656
2.71639
2.1195
1.51749
0.911909
0.304204
8.12784
7.68781
7.21832
6.72234
6.2031
5.66375
5.10727
4.53636
3.95345
3.36065
2.75987
2.1528
1.541
0.925903
0.308849
8.31481
7.8645
7.38211
6.87157
6.33698
5.78218
5.21059
4.62519
4.02851
3.4227
2.8096
2.19083
1.56781
0.941841
0.314138
8.5371
8.07323
7.57398
7.04481
6.49103
5.91735
5.32769
4.72527
4.11268
3.492
2.86499
2.23308
1.59755
0.959507
0.319997
8.79944
8.31727
7.79571
7.24259
6.66493
6.06844
5.45752
4.83549
4.20489
3.56763
2.92524
2.27895
1.62978
0.978636
0.326339
9.10837
8.60064
8.04894
7.46486
6.85762
6.23392
5.5984
4.95426
4.30372
3.64837
2.98939
2.32767
1.66397
0.998911
0.333057
9.47323
8.92792
8.33449
7.71023
7.06673
6.41118
5.74786
5.07938
4.40733
3.73272
3.05623
2.37837
1.69951
1.01997
0.340034
9.9076
9.30326
8.65079
7.97477
7.28786
6.59614
5.90245
5.20804
4.51346
3.81891
3.12444
2.43005
1.73572
1.04142
0.347138
10.4307
9.72667
8.99057
8.25014
7.51372
6.78303
6.05769
5.33683
4.61953
3.90498
3.19254
2.48165
1.77188
1.06284
0.354235
11.0618
10.182
9.33462
8.52144
7.73382
6.96451
6.20842
5.46202
4.7228
3.98894
3.25907
2.53213
1.80728
1.08383
0.36119
10.0357
10.1072
10.1784
10.2493
10.3196
10.3894
10.4585
10.5268
10.5944
10.6611
10.7274
10.7939
10.8618
10.9342
11.0192
10.0367
10.1101
10.1833
10.2562
10.3285
10.4002
10.4712
10.5414
10.6107
10.6791
10.7469
10.8146
10.8834
10.9558
11.0362
10.0378
10.1132
10.1885
10.2634
10.3378
10.4116
10.4845
10.5565
10.6275
10.6975
10.7663
10.8344
10.9025
10.9719
11.0445
10.0389
10.1165
10.1939
10.271
10.3475
10.4234
10.4984
10.5724
10.6452
10.7165
10.7863
10.8543
10.9207
10.9857
11.0503
10.04
10.1199
10.1996
10.2789
10.3577
10.4358
10.513
10.5891
10.6638
10.7367
10.8074
10.8754
10.9397
10.9999
11.0558
10.0412
10.1235
10.2055
10.2872
10.3684
10.4488
10.5284
10.6067
10.6835
10.7584
10.8305
10.8988
10.9617
11.0169
11.0629
10.0424
10.1272
10.2117
10.2959
10.3796
10.4625
10.5445
10.6254
10.7047
10.7819
10.8562
10.9261
10.9889
11.0404
11.0744
10.0437
10.131
10.2181
10.3049
10.3912
10.4768
10.5615
10.6451
10.7273
10.8075
10.8849
10.9581
11.0241
11.076
11.098
10.045
10.135
10.2248
10.3143
10.4033
10.4917
10.5793
10.6659
10.7512
10.8349
10.9165
10.9952
11.0691
11.1322
11.1581
10.0464
10.1391
10.2317
10.3239
10.4158
10.5071
10.5977
10.6875
10.7762
10.8638
10.9501
11.0355
11.1215
11.2143
11.341
10.0478
10.1433
10.2387
10.3339
10.4287
10.523
10.6167
10.7098
10.802
10.8935
10.9843
11.0754
11.1692
11.2726
11.402
10.0492
10.1477
10.246
10.3441
10.4419
10.5393
10.6362
10.7326
10.8284
10.9236
11.0183
11.1133
11.2103
11.313
11.4276
10.0507
10.1521
10.2533
10.3544
10.4553
10.5559
10.6561
10.7559
10.8552
10.9539
11.0521
11.1499
11.2474
11.345
11.4429
10.0522
10.1565
10.2608
10.365
10.4689
10.5727
10.6763
10.7795
10.8823
10.9846
11.0862
11.1866
11.2844
11.3766
11.458
10.0537
10.161
10.2683
10.3756
10.4827
10.5897
10.6966
10.8033
10.9097
11.0158
11.1212
11.225
11.3252
11.4158
11.4821
10.0552
10.1656
10.2759
10.3863
10.4966
10.6068
10.7171
10.8273
10.9374
11.0474
11.1571
11.266
11.3727
11.4716
11.5384
10.0567
10.1701
10.2835
10.397
10.5104
10.624
10.7376
10.8513
10.9651
11.0792
11.1935
11.3086
11.4256
11.5498
11.7053
10.0582
10.1746
10.2911
10.4076
10.5242
10.641
10.758
10.8752
10.9927
11.1107
11.2295
11.3497
11.4734
11.6061
11.7619
10.0597
10.1791
10.2986
10.4182
10.5379
10.6579
10.7782
10.8988
11.0199
11.1417
11.2643
11.3884
11.5149
11.6464
11.7868
10.0612
10.1836
10.306
10.4286
10.5515
10.6746
10.7981
10.9221
11.0466
11.172
11.2982
11.4253
11.5531
11.6803
11.804
10.0626
10.1879
10.3133
10.4389
10.5648
10.691
10.8176
10.9449
11.0728
11.2016
11.3314
11.4617
11.5916
11.7167
11.8256
10.0641
10.1922
10.3205
10.449
10.5778
10.7071
10.8368
10.9672
11.0984
11.2307
11.364
11.4985
11.6333
11.7642
11.8717
10.0655
10.1964
10.3276
10.4589
10.5906
10.7227
10.8555
10.9889
11.1233
11.2588
11.3959
11.535
11.6776
11.828
12.0052
10.0668
10.2006
10.3344
10.4685
10.603
10.738
10.8736
11.01
11.1473
11.2859
11.4263
11.5691
11.7165
11.8731
12.0502
10.0682
10.2046
10.3411
10.4779
10.6151
10.7528
10.8912
11.0303
11.1704
11.3118
11.4548
11.6001
11.749
11.904
12.0692
10.0695
10.2084
10.3476
10.487
10.6268
10.7671
10.9081
11.0499
11.1927
11.3365
11.4817
11.6285
11.7771
11.9277
12.0804
10.0707
10.2122
10.3539
10.4958
10.6381
10.781
10.9245
11.0689
11.2141
11.3603
11.5075
11.6556
11.8037
11.95
12.0908
10.0719
10.2158
10.3599
10.5043
10.6491
10.7944
10.9404
11.0871
11.2348
11.3833
11.5327
11.6826
11.8316
11.9759
12.1063
10.0731
10.2194
10.3658
10.5125
10.6597
10.8073
10.9557
11.1048
11.2548
11.4057
11.5576
11.7102
11.8626
12.0115
12.1414
10.0742
10.2227
10.3714
10.5204
10.6698
10.8198
10.9704
11.1218
11.2741
11.4274
11.5819
11.7378
11.8962
12.0601
12.2443
10.0753
10.226
10.3769
10.528
10.6796
10.8318
10.9846
11.1381
11.2926
11.4482
11.6051
11.7638
11.9258
12.0946
12.2789
10.0764
10.2291
10.3821
10.5353
10.689
10.8433
10.9981
11.1538
11.3104
11.468
11.6269
11.7875
11.9507
12.1183
12.2936
10.0774
10.2321
10.3871
10.5423
10.698
10.8543
11.0112
11.1689
11.3274
11.4869
11.6476
11.8093
11.9724
12.1367
12.3023
10.0783
10.235
10.3919
10.549
10.7066
10.8648
11.0236
11.1832
11.3437
11.5051
11.6673
11.8303
11.9931
12.1542
12.3105
10.0792
10.2377
10.3964
10.5554
10.7148
10.8748
11.0355
11.197
11.3593
11.5226
11.6867
11.8512
12.015
12.1749
12.3231
10.0801
10.2403
10.4007
10.5615
10.7226
10.8844
11.0469
11.2101
11.3743
11.5395
11.7056
11.8725
12.0395
12.2036
12.352
10.0809
10.2427
10.4048
10.5672
10.73
10.8934
11.0576
11.2226
11.3885
11.5556
11.7239
11.8938
12.066
12.2432
12.4374
10.0817
10.2451
10.4086
10.5726
10.737
10.902
11.0677
11.2343
11.402
11.5708
11.7412
11.9135
12.089
12.2708
12.4659
10.0824
10.2472
10.4122
10.5776
10.7435
10.91
11.0772
11.2453
11.4145
11.585
11.7569
11.9309
12.1077
12.289
12.4775
10.083
10.2492
10.4156
10.5823
10.7495
10.9174
11.086
11.2556
11.4262
11.598
11.7713
11.9462
12.1231
12.3023
12.4839
10.0837
10.2511
10.4187
10.5867
10.7552
10.9243
11.0942
11.2651
11.437
11.6101
11.7845
11.9602
12.1369
12.3138
12.4893
10.0842
10.2528
10.4215
10.5907
10.7603
10.9306
11.1017
11.2737
11.4469
11.6212
11.7967
11.9733
12.1504
12.3263
12.4966
10.0847
10.2543
10.4241
10.5943
10.7649
10.9363
11.1085
11.2817
11.4559
11.6314
11.8081
11.9861
12.1648
12.3426
12.5125
10.0852
10.2557
10.4264
10.5975
10.7691
10.9414
11.1146
11.2888
11.4641
11.6407
11.8186
11.9982
12.1797
12.3644
12.5588
10.0856
10.2569
10.4284
10.6003
10.7728
10.946
11.12
11.2951
11.4713
11.6489
11.828
12.009
12.1923
12.3795
12.5742
10.0859
10.2579
10.4301
10.6028
10.7759
10.9499
11.1247
11.3005
11.4776
11.6561
11.8361
12.018
12.2021
12.3893
12.5805
10.0862
10.2588
10.4316
10.6048
10.7786
10.9531
11.1286
11.3051
11.4829
11.6621
11.8428
12.0254
12.2098
12.3962
12.584
10.0865
10.2595
10.4327
10.6064
10.7807
10.9557
11.1317
11.3088
11.4871
11.6669
11.8483
12.0314
12.2162
12.402
12.5873
10.0866
10.26
10.4336
10.6076
10.7822
10.9576
11.134
11.3115
11.4903
11.6706
11.8526
12.0363
12.2217
12.4081
12.5929
10.0867
10.2603
10.4341
10.6084
10.7832
10.9589
11.1355
11.3133
11.4924
11.6731
11.8555
12.0399
12.2264
12.4153
12.6086
10.0868
10.2604
10.4343
10.6087
10.7836
10.9594
11.1362
11.3141
11.4934
11.6744
11.8571
12.042
12.2293
12.4195
12.6135
10.0868
10.2604
10.4342
10.6085
10.7835
10.9592
11.136
11.3139
11.4933
11.6743
11.8572
12.0424
12.2302
12.4209
12.6149
10.0867
10.2601
10.4338
10.608
10.7827
10.9583
11.1349
11.3127
11.4919
11.6728
11.8557
12.0409
12.2289
12.4201
12.6146
10.0865
10.2597
10.4331
10.6069
10.7814
10.9567
11.133
11.3105
11.4894
11.67
11.8525
12.0375
12.2253
12.4168
12.6129
10.0863
10.2591
10.432
10.6055
10.7795
10.9543
11.1302
11.3072
11.4856
11.6657
11.8477
12.0319
12.2191
12.4103
12.6084
10.0861
10.2582
10.4307
10.6036
10.777
10.9513
11.1265
11.3029
11.4807
11.6601
11.8412
12.0244
12.2099
12.3989
12.5963
10.0857
10.2572
10.429
10.6012
10.774
10.9475
11.122
11.2977
11.4746
11.6531
11.8333
12.0151
12.1983
12.3816
12.559
10.0853
10.2561
10.427
10.5984
10.7704
10.9431
11.1167
11.2914
11.4675
11.645
11.8241
12.0048
12.1867
12.3684
12.5462
10.0849
10.2547
10.4248
10.5952
10.7662
10.938
11.1106
11.2843
11.4593
11.6357
11.8137
11.9936
12.1751
12.3578
12.54
10.0844
10.2532
10.4222
10.5917
10.7616
10.9322
11.1037
11.2762
11.45
11.6252
11.8021
11.9812
12.1627
12.3474
12.5352
10.0838
10.2515
10.4194
10.5877
10.7564
10.9259
11.0961
11.2673
11.4396
11.6134
11.789
11.9669
12.1482
12.3346
12.529
10.0832
10.2497
10.4164
10.5834
10.7508
10.9189
11.0877
11.2575
11.4283
11.6004
11.7742
11.9503
12.1299
12.3163
12.517
10.0826
10.2477
10.4131
10.5787
10.7448
10.9114
11.0787
11.2469
11.416
11.5862
11.7578
11.9311
12.1069
12.288
12.4873
10.0819
10.2456
10.4095
10.5737
10.7383
10.9034
11.0691
11.2355
11.4028
11.571
11.7402
11.9102
12.0801
12.247
12.3974
10.0811
10.2434
10.4058
10.5685
10.7315
10.8949
11.0589
11.2236
11.389
11.5552
11.722
11.8892
12.0555
12.2175
12.3672
10.0803
10.241
10.4019
10.5629
10.7243
10.8861
11.0483
11.2111
11.3746
11.5387
11.7035
11.8688
12.0336
12.1965
12.3542
10.0795
10.2386
10.3978
10.5572
10.7168
10.8768
11.0372
11.1982
11.3597
11.5218
11.6847
11.8485
12.0132
12.179
12.3459
10.0787
10.2361
10.3936
10.5512
10.7091
10.8673
11.0258
11.1848
11.3442
11.5043
11.6653
11.8275
11.992
12.1607
12.3371
10.0778
10.2335
10.3892
10.5451
10.7012
10.8575
11.0141
11.171
11.3283
11.4862
11.6449
11.8049
11.9677
12.1371
12.3222
10.0769
10.2308
10.3848
10.5389
10.6931
10.8474
11.002
11.1569
11.312
11.4675
11.6235
11.7803
11.9388
12.1025
12.2867
10.076
10.2281
10.3803
10.5325
10.6848
10.8372
10.9898
11.1425
11.2954
11.4485
11.6016
11.7545
11.9063
12.0535
12.1805
10.0751
10.2254
10.3757
10.526
10.6764
10.8269
10.9774
11.128
11.2787
11.4293
11.5797
11.7294
11.8769
12.0185
12.1448
10.0742
10.2226
10.3711
10.5195
10.668
10.8165
10.965
11.1135
11.2619
11.4102
11.5583
11.7057
11.8516
11.9941
12.1297
10.0733
10.2199
10.3664
10.513
10.6596
10.8061
10.9525
11.0989
11.2452
11.3913
11.5372
11.683
11.8287
11.9744
12.1202
10.0724
10.2171
10.3618
10.5065
10.6511
10.7957
10.9401
11.0844
11.2285
11.3725
11.5163
11.6604
11.8057
11.9546
12.1107
10.0714
10.2143
10.3572
10.5
10.6427
10.7853
10.9278
11.07
11.212
11.3536
11.4951
11.6368
11.7803
11.9296
12.0949
10.0705
10.2115
10.3525
10.4935
10.6343
10.7751
10.9156
11.0558
11.1956
11.3349
11.4736
11.6119
11.7507
11.8936
12.0574
10.0696
10.2088
10.348
10.4871
10.6261
10.7649
10.9035
11.0418
11.1795
11.3165
11.4525
11.5867
11.7181
11.8429
11.9448
10.0687
10.2061
10.3434
10.4807
10.6179
10.7549
10.8917
11.0281
11.164
11.2989
11.4324
11.5635
11.6902
11.8082
11.9077
10.0678
10.2033
10.3389
10.4744
10.6098
10.7451
10.8801
11.0148
11.149
11.2822
11.4139
11.5432
11.6682
11.7861
11.8932
10.0669
10.2006
10.3344
10.4681
10.6018
10.7353
10.8688
11.0019
11.1346
11.2665
11.3972
11.5258
11.6511
11.7715
11.8861
10.066
10.1979
10.3299
10.4618
10.5938
10.7257
10.8576
10.9893
11.1207
11.2517
11.3818
11.5106
11.6372
11.761
11.8818
10.0651
10.1952
10.3254
10.4556
10.5858
10.7161
10.8464
10.9768
11.1072
11.2374
11.3674
11.4968
11.6253
11.7526
11.8786
10.0642
10.1925
10.3208
10.4492
10.5778
10.7064
10.8352
10.9643
11.0936
11.2233
11.3533
11.4836
11.6142
11.745
11.8759
10.0632
10.1897
10.3162
10.4428
10.5696
10.6966
10.8239
10.9516
11.0799
11.2089
11.3389
11.4702
11.6029
11.7373
11.8731
10.0623
10.1869
10.3116
10.4363
10.5613
10.6866
10.8122
10.9385
11.0655
11.1938
11.3236
11.4556
11.5905
11.7286
11.8699
10.0613
10.184
10.3068
10.4297
10.5528
10.6762
10.8001
10.9247
11.0504
11.1775
11.3067
11.4391
11.5756
11.7177
11.8656
10.0604
10.1811
10.3019
10.4229
10.544
10.6655
10.7875
10.9103
11.0341
11.1597
11.2877
11.4195
11.557
11.7025
11.8588
10.0594
10.1781
10.297
10.4159
10.535
10.6545
10.7744
10.895
11.0167
11.1401
11.2661
11.3961
11.5326
11.68
11.8458
10.0584
10.1751
10.2919
10.4088
10.5258
10.6431
10.7607
10.8789
10.9981
11.1187
11.2415
11.368
11.5006
11.6446
11.8152
11.6986
10.5697
9.61857
8.74664
7.91873
7.1187
6.33766
5.57015
4.81252
4.06221
3.31734
2.57646
1.83843
1.10233
0.367323
11.8998
10.7985
9.82167
8.92076
8.06744
7.24563
6.44573
5.66157
4.88899
4.12503
3.36752
2.61476
1.86542
1.11837
0.372646
11.9836
10.9409
9.972
9.06179
8.19421
7.35733
6.54282
5.74491
4.95943
4.18336
3.41438
2.65068
1.8908
1.13349
0.377666
12.0256
11.0319
10.0815
9.17317
8.29962
7.45343
6.62837
5.81957
5.02333
4.23675
3.45756
2.68394
1.91438
1.14756
0.382346
12.0502
11.0929
10.1618
9.2603
8.386
7.53483
6.70257
5.8855
5.08048
4.28497
3.49686
2.71438
1.93603
1.16052
0.38666
12.0662
11.1356
10.2216
9.32848
8.45626
7.60305
6.7662
5.94301
5.13102
4.32805
3.53222
2.74192
1.95571
1.17233
0.390595
12.0774
11.1666
10.2669
9.38208
8.51329
7.65987
6.8203
5.99272
5.17525
4.36613
3.56374
2.76661
1.97343
1.18298
0.39415
12.0856
11.1898
10.3017
9.42451
8.5596
7.70704
6.86603
6.03537
5.21367
4.39953
3.59158
2.78854
1.98922
1.19251
0.397334
12.0918
11.2076
10.3289
9.45837
8.5973
7.74613
6.90454
6.07177
5.24682
4.4286
3.61598
2.80787
2.00321
1.20096
0.400162
12.0967
11.2215
10.3505
9.48557
8.62807
7.77853
6.93689
6.1027
5.27528
4.45376
3.63725
2.8248
2.01549
1.20841
0.402657
12.1005
11.2325
10.3677
9.50757
8.65328
7.80539
6.96402
6.12891
5.29959
4.47542
3.65566
2.83953
2.02623
1.21493
0.404843
12.1035
11.2413
10.3816
9.52547
8.67399
7.8277
6.98676
6.15107
5.32031
4.494
3.67154
2.85229
2.03555
1.22061
0.406749
12.1059
11.2485
10.3928
9.54011
8.69107
7.84623
7.00581
6.16978
5.33792
4.50988
3.68518
2.86329
2.04361
1.22552
0.408401
12.1079
11.2543
10.402
9.55213
8.70519
7.86166
7.02177
6.18555
5.35285
4.52341
3.69686
2.87274
2.05055
1.22976
0.409827
12.1095
11.259
10.4096
9.56205
8.71689
7.87451
7.03515
6.19883
5.36549
4.53492
3.70682
2.88082
2.05651
1.23341
0.411054
12.1108
11.2629
10.4158
9.57025
8.7266
7.88524
7.04636
6.21002
5.37618
4.54469
3.71531
2.88773
2.0616
1.23653
0.412106
12.1119
11.2661
10.421
9.57705
8.73469
7.8942
7.05576
6.21944
5.38522
4.55298
3.72253
2.89362
2.06596
1.2392
0.413006
12.1128
11.2688
10.4253
9.58271
8.74144
7.9017
7.06366
6.22738
5.39285
4.55999
3.72865
2.89863
2.06966
1.24148
0.413773
12.1136
11.271
10.4288
9.58742
8.74707
7.90798
7.07029
6.23406
5.39929
4.56593
3.73385
2.90288
2.07282
1.24342
0.414428
12.1142
11.2728
10.4318
9.59136
8.75179
7.91325
7.07586
6.23969
5.40473
4.57096
3.73826
2.9065
2.0755
1.24507
0.414985
12.1147
11.2744
10.4343
9.59466
8.75575
7.91768
7.08056
6.24444
5.40933
4.57521
3.74199
2.90956
2.07778
1.24647
0.415458
12.1152
11.2756
10.4363
9.59743
8.75907
7.92141
7.08451
6.24845
5.41322
4.57881
3.74516
2.91217
2.07972
1.24767
0.415861
12.1155
11.2767
10.4381
9.59976
8.76188
7.92455
7.08786
6.25184
5.41652
4.58187
3.74785
2.91438
2.08136
1.24868
0.416204
12.1158
11.2776
10.4396
9.60173
8.76425
7.92721
7.09069
6.25472
5.41932
4.58447
3.75014
2.91627
2.08277
1.24955
0.416496
12.1161
11.2784
10.4408
9.6034
8.76626
7.92948
7.0931
6.25717
5.4217
4.58669
3.75209
2.91788
2.08397
1.25029
0.416746
12.1163
11.2791
10.4419
9.60483
8.76798
7.93141
7.09516
6.25927
5.42374
4.58859
3.75377
2.91926
2.085
1.25092
0.416961
12.1165
11.2797
10.4428
9.60606
8.76946
7.93308
7.09694
6.26108
5.42551
4.59022
3.75522
2.92045
2.08588
1.25147
0.417146
12.1167
11.2802
10.4436
9.60713
8.77075
7.93453
7.09849
6.26265
5.42704
4.59165
3.75647
2.92149
2.08666
1.25195
0.417307
12.1168
11.2806
10.4443
9.60808
8.77189
7.93581
7.09985
6.26404
5.42839
4.59291
3.75758
2.9224
2.08734
1.25237
0.417449
12.117
11.281
10.445
9.60893
8.77291
7.93696
7.10108
6.26528
5.4296
4.59403
3.75857
2.92321
2.08794
1.25274
0.417575
12.1171
11.2813
10.4455
9.60971
8.77385
7.93801
7.10219
6.26642
5.4307
4.59505
3.75947
2.92395
2.0885
1.25308
0.41769
12.1172
11.2817
10.4461
9.61045
8.77474
7.939
7.10324
6.26748
5.43173
4.596
3.7603
2.92464
2.089
1.25339
0.417796
12.1173
11.282
10.4467
9.61117
8.77561
7.93996
7.10426
6.2685
5.43271
4.59691
3.7611
2.92529
2.08949
1.25369
0.417896
12.1174
11.2824
10.4472
9.61191
8.77648
7.94093
7.10527
6.26951
5.43368
4.59779
3.76187
2.92592
2.08995
1.25397
0.417992
12.1176
11.2828
10.4478
9.61268
8.77738
7.94192
7.1063
6.27054
5.43466
4.59869
3.76264
2.92655
2.09041
1.25426
0.418087
12.1177
11.2832
10.4484
9.61351
8.77836
7.94299
7.1074
6.27162
5.43567
4.5996
3.76343