/*--------------------------------*- C++ -*----------------------------------*\
| =========                 |                                                 |
| \\      /  F ield         | OpenFOAM: The Open Source CFD Toolbox           |
|  \\    /   O peration     | Version:  5.x                                   |
|   \\  /    A nd           | Web:      www.OpenFOAM.org                      |
|    \\/     M anipulation  |                                                 |
\*---------------------------------------------------------------------------*/
FoamFile
{
    version     2.0;
    format      ascii;
    class       volScalarField;
    location    "15.1";
    object      gradTx;
}
// * * * * * * * * * * * * * * * * * * * * * * * * * * * * * * * * * * * * * //

dimensions      [0 -1 0 1 0 0 0];

internalField   nonuniform List<scalar> 
6300
(
18.1204
18.0657
17.9565
17.7927
17.5746
17.3023
16.9766
16.5984
16.1691
15.691
15.1673
14.6023
14.0015
13.3718
12.7211
18.1743
18.1196
18.0103
17.8464
17.6279
17.3551
17.0285
16.6487
16.2172
15.736
15.2081
14.6375
14.0299
13.3921
12.7324
18.2821
18.2274
18.118
17.9538
17.7348
17.4611
17.1327
16.7501
16.3144
15.8271
15.2907
14.7092
14.0879
13.4337
12.7556
18.4438
18.3891
18.2797
18.1154
17.8958
17.6209
17.2903
16.9041
16.4625
15.9665
15.418
14.8201
14.178
13.4989
12.792
18.6594
18.6049
18.4956
18.3313
18.1115
17.8356
17.5029
17.1127
16.6643
16.1578
15.5939
14.9747
14.3047
13.5911
12.8441
18.9289
18.8746
18.7658
18.602
18.3826
18.1064
17.7723
17.3786
16.9237
16.4059
15.8243
15.1795
14.4745
13.716
12.9156
19.2518
19.198
19.0902
18.9277
18.7096
18.4345
18.1006
17.7052
17.2452
16.7171
16.1174
15.4439
14.6971
13.8824
13.0124
19.6277
19.5747
19.4684
19.3081
19.0928
18.8208
18.4895
18.0955
17.6341
17.0992
16.4837
15.781
14.9869
14.1034
13.1435
20.0559
20.004
19.8998
19.7428
19.532
19.2654
18.9404
18.5527
18.0958
17.561
16.9366
16.2089
15.3654
14.4004
13.3244
20.5352
20.4846
20.3832
20.2307
20.026
19.7678
19.4533
19.0781
18.6348
18.1118
17.492
16.7519
15.8646
14.8077
13.5813
21.0642
21.0151
20.917
20.7697
20.5729
20.3256
20.0262
19.6709
19.2527
18.7587
18.1668
17.4415
16.5328
15.384
13.9626
21.6414
21.5939
21.4992
21.3575
21.1693
20.9348
20.6541
20.3258
19.9456
19.5028
18.9741
18.3137
17.4403
16.2324
14.5657
22.2651
22.2191
22.1275
21.991
21.811
21.5894
21.3287
21.0316
20.7001
20.3319
19.9125
19.3983
18.6817
17.5388
15.6099
22.934
22.8891
22.7997
22.6672
22.4935
22.2823
22.0388
21.7711
21.4906
21.2112
20.9449
20.6845
20.3486
19.6306
17.6637
23.6469
23.6025
23.5142
23.3835
23.2128
23.0065
22.7721
22.5225
22.2789
22.0764
21.9708
22.0453
22.3966
22.9705
22.4687
12.1145
11.5604
11.0101
10.4691
9.9429
9.43634
8.95381
8.49905
8.07511
7.6844
7.32871
7.00928
6.72685
6.48175
6.27396
6.10316
5.96874
5.86989
5.80555
5.77443
5.77498
5.8054
5.8636
5.94714
6.0533
6.17899
6.32089
6.4754
6.63883
6.80746
6.97764
7.14595
7.30924
7.46462
7.60946
7.7413
7.85773
7.95631
8.03458
8.09
8.12019
8.12297
8.09661
8.03998
7.95257
7.83446
7.68619
7.50849
7.30206
7.06724
6.8039
6.51126
6.188
5.83226
5.44191
5.0147
4.54845
4.04115
3.49097
2.89619
2.255
1.56527
0.824394
0.0290492
-0.824877
-1.74231
-2.72893
-3.79098
-4.93511
-6.1681
-7.49666
-8.92724
-10.4659
-12.1182
-13.8893
-15.7835
-17.8047
-19.9557
-22.2381
-24.652
-27.1955
-29.864
-32.6499
-35.5421
-38.5256
-41.5818
-44.6881
-47.8192
-50.9472
-54.0433
12.1168
11.5546
10.9961
10.4475
9.91416
9.40134
8.91346
8.4543
8.02691
7.63364
7.27619
6.95569
6.6728
6.42775
6.22044
6.05049
5.91728
5.81996
5.75748
5.72857
5.73172
5.76517
5.82685
5.91434
6.0249
6.15542
6.30245
6.46229
6.63108
6.80493
6.98005
7.15291
7.32032
7.47948
7.62787
7.76317
7.88309
7.98526
8.06712
8.12602
8.15931
8.16457
8.13988
8.08398
7.99644
7.87756
7.72823
7.54956
7.34261
7.10801
6.84576
6.55508
6.23446
5.88182
5.49472
5.07066
4.60731
4.10265
3.55498
2.96283
2.32468
1.63875
0.902669
0.113265
-0.733545
-1.6428
-2.62038
-3.67285
-4.80719
-6.03049
-7.34973
-8.77155
-10.3021
-11.9472
-13.7118
-15.6006
-17.6176
-19.7661
-22.0484
-24.4651
-27.0151
-29.6945
-32.4964
-35.41
-38.4205
-41.5088
-44.6517
-47.8227
-50.9924
-54.1302
12.1219
11.5427
10.9677
10.4032
9.85553
9.33002
8.83138
8.36346
7.92925
7.53098
7.17014
6.84766
6.56397
6.31913
6.11287
5.94469
5.8139
5.71962
5.66083
5.6363
5.64461
5.68407
5.75268
5.84809
5.96753
6.10781
6.26531
6.43604
6.6158
6.8003
6.98542
7.16741
7.34301
7.50956
7.66483
7.80688
7.93372
8.04311
8.13241
8.1986
8.23847
8.24899
8.22773
8.17321
8.0851
7.96421
7.81218
7.63104
7.42266
7.18831
6.92827
6.64171
6.32676
5.98072
5.60048
5.18294
4.72542
4.22584
3.68284
3.09548
2.463
1.78429
1.05757
0.280006
-0.552421
-1.44499
-2.40407
-3.43691
-4.55119
-5.75474
-7.05507
-8.4592
-9.97351
-11.6038
-13.3552
-15.2328
-17.2409
-19.3838
-21.6647
-24.0859
-26.6478
-29.3482
-32.1814
-35.1378
-38.2026
-41.3564
-44.5743
-47.8273
-51.0828
-54.3065
12.13
11.5245
10.9234
10.3345
9.76455
9.21962
8.7047
8.22372
7.77953
7.37408
7.00854
6.68347
6.39893
6.15468
5.95019
5.78479
5.65768
5.56795
5.5146
5.49652
5.51241
5.56074
5.63969
5.74699
5.87991
6.03516
6.20884
6.39653
6.5934
6.79449
6.99503
7.1908
7.37845
7.55556
7.72053
7.87216
8.00914
8.12957
8.23066
8.30874
8.35955
8.37884
8.36315
8.31046
8.22063
8.09536
7.93772
7.7514
7.5398
7.30528
7.04865
6.76894
6.46353
6.12858
5.75967
5.35255
4.90382
4.41135
3.87433
3.29293
2.66767
1.99879
1.28551
0.525617
-0.284819
-1.15149
-2.08166
-3.08372
-4.1667
-5.33962
-6.61092
-7.98816
-9.47786
-11.0857
-12.817
-14.6767
-16.67
-18.8023
-21.0787
-23.5038
-26.0808
-28.8101
-31.6887
-34.7087
-37.8562
-41.1109
-44.4456
-47.8273
-51.2181
-54.5774
12.1422
11.4991
10.8614
10.238
9.63714
9.06562
8.52883
8.03066
7.5737
7.15941
6.78839
6.46061
6.17563
5.93271
5.73098
5.56953
5.44739
5.36365
5.31738
5.3076
5.33326
5.39312
5.48562
5.60875
5.75991
5.93572
6.13196
6.34354
6.56467
6.78921
7.01121
7.2256
7.42875
7.61875
7.79514
7.95823
8.10807
8.24354
8.36172
8.45783
8.52568
8.55874
8.55151
8.50086
8.40685
8.27278
8.10425
7.90786
7.68963
7.45379
7.20197
6.93288
6.64256
6.32508
5.97362
5.58181
5.14495
4.66077
4.12952
3.5533
2.93499
2.27704
1.58041
0.843875
0.0636439
-0.766681
-1.6558
-2.61409
-3.65276
-4.78284
-6.01423
-7.35513
-8.81198
-10.3899
-12.0936
-13.928
-15.8988
-18.013
-20.2783
-22.7028
-25.2938
-28.0565
-30.9919
-34.0955
-37.3549
-40.7494
-44.2486
-47.8135
-51.3981
-54.9518
12.1596
11.4657
10.7782
10.1087
9.46706
8.86124
8.29698
7.77796
7.30614
6.88214
6.50569
6.17588
5.89149
5.65116
5.45355
5.2974
5.18159
5.10519
5.06736
5.06742
5.10465
5.17827
5.28721
5.42994
5.60417
5.80663
6.03274
6.27654
6.53077
6.78731
7.03807
7.27629
7.4977
7.70121
7.8886
8.06307
8.22738
8.38207
8.52424
8.64728
8.74157
8.79631
8.80206
8.75334
8.65045
8.49947
8.31058
8.09543
7.86448
7.62501
7.37985
7.12711
6.86043
6.57022
6.24539
5.87568
5.45396
4.97774
4.44923
3.87407
3.2592
2.6108
1.9326
1.22492
0.484119
-0.297318
-1.13041
-2.02877
-3.00725
-4.08021
-5.25985
-6.5551
-7.97165
-9.51298
-11.182
-12.9826
-14.921
-17.0058
-19.2483
-21.6616
-24.2594
-27.0537
-30.0526
-33.2572
-36.6587
-40.2364
-43.9561
-47.7707
-51.6216
-55.4432
12.1845
11.4225
10.6688
9.93879
9.24497
8.59663
7.99964
7.45698
6.9694
6.53616
6.15557
5.8255
5.54366
5.30788
5.11619
4.96695
4.85885
4.79094
4.76261
4.77349
4.82344
4.91234
5.03994
5.20553
5.40757
5.64322
5.90779
6.19428
6.4933
6.79344
7.08273
7.3509
7.5921
7.8066
8.00035
8.1822
8.36021
8.53828
8.71397
8.87777
9.01406
9.1041
9.13068
9.08347
8.96294
8.7804
8.55438
8.3054
8.05129
7.80407
7.56837
7.34109
7.11191
6.86494
6.5815
6.24417
5.8412
5.36974
4.83588
4.25178
3.63149
2.98726
2.32709
1.65348
0.962982
0.246318
-0.511133
-1.32817
-2.22574
-3.224
-4.339
-5.58042
-6.95162
-8.45208
-10.0807
-11.8388
-13.7321
-15.7712
-17.972
-20.3546
-22.9416
-25.7559
-28.8166
-32.1347
-35.7082
-39.5182
-43.5265
-47.6748
-51.8865
-56.0723
12.2201
11.3667
10.525
9.71629
8.95698
8.25767
7.62369
7.05632
6.55412
6.11408
5.73247
5.40542
5.1293
4.90089
4.7175
4.57704
4.47802
4.41952
4.40117
4.42312
4.48593
4.5905
4.73776
4.92841
5.16236
5.43796
5.75101
6.09375
6.45393
6.81492
7.15749
7.46406
7.72463
7.94155
8.1289
8.30653
8.49261
8.69757
8.92049
9.14749
9.35279
9.50293
9.56518
9.51883
9.36435
9.12357
8.8309
8.52243
8.22783
7.96618
7.74444
7.55748
7.38871
7.21189
6.99495
6.70688
6.32681
5.85133
5.29463
4.68138
4.03804
3.38647
2.74074
2.10617
1.47938
0.848558
0.193837
-0.511692
-1.29933
-2.19973
-3.23614
-4.41885
-5.74546
-7.20657
-8.79287
-10.5003
-12.333
-14.3037
-16.4338
-18.7528
-21.2962
-24.1028
-27.2095
-30.644
-34.4166
-38.5139
-42.8946
-47.4868
-52.1877
-56.8709
12.2719
11.2934
10.3331
9.42226
8.58223
7.82427
7.15146
6.56146
6.049
5.60757
5.23054
4.9118
4.64604
4.42885
4.25679
4.12729
4.03867
3.9901
3.98153
4.01371
4.08813
4.20697
4.37289
4.58876
4.85698
5.17852
5.55127
5.96785
6.41314
6.86264
7.28382
7.64314
7.91971
8.11875
8.27112
8.41839
8.59746
8.83068
9.12074
9.44808
9.77055
10.0279
10.1557
10.1095
9.88967
9.54109
9.12981
8.71912
8.35661
8.07047
7.87009
7.74733
7.67678
7.6163
7.51053
7.30178
6.94951
6.44962
5.83454
5.15406
4.45623
3.77708
3.13813
2.54747
2.00141
1.48507
0.97184
0.422908
-0.21062
-0.979722
-1.92264
-3.05012
-4.34564
-5.78077
-7.33046
-8.9815
-10.7351
-12.6063
-14.6235
-16.8276
-19.2714
-22.0172
-25.1301
-28.666
-32.6568
-37.1008
-41.9576
-47.1412
-52.5137
-57.888
12.3492
11.1935
10.0697
9.02584
8.08901
7.26803
6.55972
5.9547
5.44134
5.00805
4.64443
4.34167
4.09262
3.89167
3.73461
3.61849
3.5415
3.5029
3.50304
3.5433
3.62621
3.75547
3.93594
4.17351
4.47462
4.84514
5.2882
5.80036
6.36601
6.95089
7.49891
7.94109
8.2261
8.36286
8.42034
8.4841
8.62401
8.88161
9.26695
9.75529
10.2817
10.7392
10.9962
10.9499
10.6
10.0485
9.4275
8.84611
8.37512
8.05093
7.88367
7.86164
7.95003
8.0856
8.17407
8.10305
7.78449
7.2135
6.46835
5.6515
4.84729
4.10962
3.4658
2.92436
2.48046
2.11693
1.80111
1.47919
1.07319
0.490482
-0.343474
-1.43945
-2.74481
-4.19
-5.72204
-7.31494
-8.96753
-10.6986
-12.5439
-14.5571
-16.8115
-19.4026
-22.4411
-26.0324
-30.244
-35.0927
-40.549
-46.5231
-52.8359
-59.2022
12.4685
11.0473
9.69073
8.47492
7.42865
6.54928
5.81906
5.21579
4.7182
4.30804
3.97051
3.69404
3.46978
3.29112
3.15333
3.0532
2.98888
2.9598
2.96662
3.01133
3.09741
3.23007
3.4166
3.66661
3.99213
4.40712
4.92539
5.5556
6.29093
7.09192
7.86613
8.46505
8.74563
8.72083
8.56017
8.43984
8.48071
8.74827
9.26449
10.0073
10.8916
11.7387
12.2729
12.2272
11.6
10.6557
9.66774
8.81377
8.18195
7.80514
7.6878
7.81664
8.15501
8.6224
9.06694
9.26048
8.98264
8.22788
7.20515
6.13046
5.14233
4.30681
3.64587
3.16066
2.84363
2.67994
2.63901
2.6564
2.61132
2.32235
1.61289
0.472662
-0.942693
-2.47418
-4.02597
-5.56239
-7.08693
-8.62607
-10.2227
-11.9388
-13.8666
-16.1433
-18.9558
-22.5053
-26.9131
-32.2093
-38.3942
-45.4166
-53.0801
-60.944
12.6615
10.8074
9.10874
7.67942
6.52751
5.61531
4.8952
4.32439
3.86893
3.50322
3.20849
2.97107
2.78111
2.63161
2.51769
2.4362
2.38541
2.36489
2.37552
2.41966
2.50138
2.62699
2.80572
3.0508
3.38064
3.82018
4.4012
5.15924
6.12103
7.27122
8.48547
9.44709
9.70455
9.27411
8.64159
8.16309
8.01061
8.25649
8.93526
10.0554
11.5546
13.1882
14.3844
14.3413
13.0562
11.3256
9.71458
8.46114
7.62116
7.18537
7.13711
7.4696
8.17386
9.19176
10.3209
11.0963
10.8672
9.62779
8.01651
6.48447
5.21734
4.25239
3.57266
3.15459
2.9858
3.06601
3.39276
3.92339
4.50047
4.75958
4.18939
2.78084
1.02657
-0.729203
-2.35211
-3.82693
-5.1853
-6.47078
-7.72912
-9.01548
-10.4193
-12.1123
-14.409
-17.7417
-22.3026
-28.0455
-35.0326
-43.3859
-53.0352
-63.341
12.9937
10.3433
8.13847
6.48414
5.28105
4.40467
3.75621
3.26676
2.89024
2.59607
2.3638
2.17962
2.03408
1.92073
1.83525
1.7749
1.73824
1.725
1.73609
1.77378
1.84206
1.94727
2.09921
2.31281
2.61106
3.02934
3.62191
4.46928
5.67961
7.35799
9.46825
11.4427
11.6536
10.118
8.50084
7.41657
6.96658
7.14106
7.97014
9.55708
12.0239
15.2668
18.28
18.2434
15.1535
11.8226
9.24617
7.51287
6.4781
6.0073
6.03785
6.58693
7.74074
9.6006
12.0838
14.3782
14.2063
11.5628
8.71345
6.45675
4.85704
3.78709
3.12252
2.78939
2.76925
3.09688
3.85275
5.12331
6.84729
8.39074
7.97291
5.58663
2.99787
0.824359
-0.891486
-2.25913
-3.38859
-4.3545
-5.19517
-5.92297
-6.55529
-7.21196
-8.37002
-11.2095
-15.9895
-22.0896
-29.7031
-39.4885
-52.044
-66.8237
13.6149
9.23697
6.37531
4.63884
3.56383
2.86559
2.38808
2.04638
1.79285
1.59965
1.44977
1.33243
1.24061
1.16966
1.11656
1.07942
1.05728
1.05001
1.05828
1.08378
1.12948
1.20021
1.30379
1.45285
1.66852
1.98741
2.47557
3.25646
4.56399
6.82257
10.6462
15.9775
16.1173
11.079
7.59237
5.75637
5.02301
5.08272
5.91342
7.79135
11.3751
17.6758
26.5665
26.5414
17.5973
11.2327
7.56325
5.55841
4.52265
4.10706
4.19166
4.8332
6.2906
9.11145
14.1183
21.211
21.1041
13.7936
8.5567
5.48268
3.73368
2.73786
2.19496
1.97334
2.05177
2.51096
3.57143
5.67009
9.45379
14.8458
14.5907
8.68377
4.37106
1.71875
0.0676504
-1.03435
-1.82739
-2.41855
-2.82369
-2.9679
-2.65619
-1.58952
0.0902592
-1.8827
-7.77544
-13.9541
-21.2457
-31.6014
-47.8488
-72.2811
14.877
5.94692
2.99146
1.84086
1.30392
1.00855
0.824297
0.698921
0.608514
0.54079
0.488826
0.448447
0.417021
0.392845
0.374821
0.362279
0.354879
0.352579
0.355635
0.364666
0.38078
0.405816
0.442811
0.496907
0.577288
0.701641
0.907583
1.28516
2.07867
4.03326
9.65245
27.9875
28.0366
9.80506
4.30672
2.50812
1.93723
1.91397
2.34844
3.56888
6.81372
16.3542
47.6908
47.6818
16.3259
6.76152
3.48297
2.20825
1.67398
1.48639
1.54329
1.90447
2.87686
5.47416
13.1484
38.4106
38.3742
13.038
5.28506
2.60036
1.5256
1.03631
0.804673
0.725136
0.7859
1.05909
1.79498
3.79018
9.74395
29.4323
29.3465
9.48494
3.35309
1.17128
0.236031
-0.254485
-0.556888
-0.750457
-0.827929
-0.669355
0.155771
3.14998
13.8104
13.0885
0.850513
-4.21601
-8.37547
-15.2297
-31.8668
-81.6646
-57.3736
-60.8841
-64.2198
-67.3446
-70.2305
-72.8577
-75.2143
-77.2946
-79.0983
-80.6285
-81.8903
-82.89
-83.6336
-84.1262
-84.3715
-57.5042
-61.0578
-64.4296
-67.5824
-70.488
-73.1272
-75.4892
-77.57
-79.3705
-80.8954
-82.1511
-83.1448
-83.8832
-84.372
-84.6154
-57.7704
-61.4122
-64.8573
-68.0663
-71.0106
-73.6727
-76.0442
-78.1242
-79.917
-81.4301
-82.6725
-83.6533
-84.3808
-84.8619
-85.1012
-58.1828
-61.9622
-65.5202
-68.8137
-71.8143
-74.5075
-76.8893
-78.9643
-80.7419
-82.2342
-83.454
-84.4136
-85.1235
-85.592
-85.8248
-58.759
-62.7327
-66.4464
-69.8527
-72.9244
-75.6523
-78.0401
-80.1006
-81.8507
-83.3093
-84.4945
-85.4223
-86.1061
-86.5563
-86.7797
-59.5268
-63.762
-67.679
-71.2251
-74.3772
-77.1357
-79.517
-81.5457
-83.2498
-84.6566
-85.7909
-86.6734
-87.321
-87.746
-87.9564
-60.5286
-65.1085
-69.2814
-72.9903
-76.2222
-78.9952
-81.345
-83.3141
-84.9448
-86.2751
-87.3375
-88.1582
-88.7571
-89.1486
-89.3421
-61.8305
-66.861
-71.3466
-75.2313
-78.5248
-81.2764
-83.5521
-85.4194
-86.9385
-88.16
-89.1246
-89.8633
-90.399
-90.7478
-90.9198
-63.5377
-69.157
-74.0115
-78.0621
-81.3678
-84.032
-86.1664
-87.8712
-89.228
-90.3004
-91.1361
-91.7699
-92.2264
-92.5223
-92.6678
-65.8252
-72.2168
-77.4791
-81.6367
-84.8508
-87.3163
-89.2091
-90.6693
-91.8002
-92.6758
-93.3479
-93.8523
-94.2129
-94.4457
-94.5598
-69.0026
-76.4048
-82.0502
-86.1533
-89.0809
-91.1717
-92.6833
-93.7952
-94.6261
-95.253
-95.7259
-96.0767
-96.3259
-96.4861
-96.5645
-73.666
-82.3483
-88.1619
-91.8441
-94.1461
-95.6044
-96.5559
-97.2006
-97.6541
-97.9826
-98.2242
-98.4012
-98.5263
-98.6066
-98.6459
-81.1078
-91.1591
-96.4032
-98.9139
-100.053
-100.542
-100.734
-100.796
-100.805
-100.797
-100.785
-100.776
-100.77
-100.766
-100.765
-94.5853
-104.776
-107.376
-107.354
-106.609
-105.775
-105.04
-104.441
-103.972
-103.613
-103.343
-103.146
-103.009
-102.923
-102.881
-123.917
-125.98
-120.971
-116.514
-113.251
-110.908
-109.207
-107.957
-107.028
-106.337
-105.825
-105.454
-105.196
-105.033
-104.954
24.3402
24.2958
24.2073
24.076
23.9039
23.6951
23.4574
23.2048
22.9631
22.78
22.7452
23.0382
24.0691
27.0171
36.3586
25.0007
24.9559
24.8665
24.7331
24.5569
24.3406
24.09
23.8168
23.5438
23.316
23.2209
23.4277
24.2575
26.2553
29.77
25.6917
25.6464
25.5557
25.4193
25.237
25.0092
24.7377
24.4279
24.0924
23.7593
23.4863
23.3837
23.6344
24.4392
25.6319
26.4133
26.3677
26.2759
26.1366
25.948
25.7073
25.4112
25.056
24.6387
24.1602
23.6326
23.0935
22.6257
22.3531
22.3317
27.166
27.1204
27.0283
26.8875
26.6944
26.4431
26.1251
25.7265
25.2268
24.5946
23.7862
22.7533
21.4807
20.0921
19.0266
27.9496
27.9048
27.8139
27.674
27.4803
27.2246
26.8939
26.4666
25.9063
25.1507
24.095
22.5788
20.4156
17.606
14.9916
28.7635
28.7204
28.6327
28.4972
28.3085
28.0574
27.729
27.2983
26.7208
25.9144
24.723
22.8528
19.7989
14.9839
9.15096
29.6067
29.5662
29.4839
29.3566
29.1791
28.9429
28.6344
28.2311
27.6935
26.9447
25.8217
23.9482
20.4045
13.0685
-0.730125
30.4771
30.4403
30.3655
30.25
30.0896
29.8777
29.6046
29.2566
28.8121
28.2339
27.441
26.2028
23.6428
15.6406
-20.1831
31.3723
31.3401
31.2746
31.1739
31.035
30.8539
30.6261
30.3482
30.023
29.6713
29.3687
29.3748
30.6597
37.5328
72.6515
32.2891
32.2621
32.2073
32.1235
32.0089
31.8616
31.6812
31.4719
31.2517
31.0735
31.0811
31.6579
33.7948
39.8091
52.7321
33.2239
33.2025
33.1593
33.0936
33.0044
32.8913
32.7553
32.6025
32.4506
32.3456
32.3972
32.8569
34.2361
37.2868
41.7998
34.1726
34.1572
34.1261
34.0791
34.0157
33.9358
33.8401
33.7314
33.6163
33.508
33.4291
33.4164
33.5156
33.7478
34.0147
35.1312
35.1218
35.1031
35.075
35.0374
34.9902
34.9329
34.8638
34.7765
34.6487
34.414
33.8974
32.7016
30.184
26.4281
36.0954
36.0921
36.0858
36.0766
36.0648
36.0505
36.0327
36.008
35.964
35.8627
35.5935
34.8493
32.8046
27.4793
16.2467
37.0608
37.0636
37.0695
37.079
37.0929
37.1119
37.1363
37.1646
37.1905
37.1921
37.1018
36.7034
35.1848
28.8761
-1.72145
38.0234
38.032
38.0497
38.0774
38.1164
38.1684
38.2359
38.322
38.4331
38.5841
38.8231
39.3345
40.8903
47.1393
77.6281
38.9791
38.9932
39.022
39.0669
39.1296
39.2131
39.3212
39.4611
39.6471
39.9137
40.3541
41.2392
43.3354
48.5681
59.6139
39.9239
39.9431
39.9822
40.0429
40.1275
40.2393
40.3833
40.5671
40.8044
41.1212
41.575
42.302
43.6009
45.9587
49.2861
40.8544
40.8782
40.9265
41.0013
41.1052
41.2418
41.4163
41.635
41.9055
42.2323
42.6051
42.9665
43.1298
42.6748
41.2849
41.7673
41.7951
41.8515
41.9385
42.0589
42.2168
42.4173
42.6659
42.9665
43.3101
43.642
43.7674
43.0867
40.039
32.3345
42.66
42.691
42.7541
42.8513
42.9855
43.161
43.3834
43.6597
43.9969
44.3946
44.8209
45.1272
44.686
40.6361
18.0501
43.5299
43.5636
43.6321
43.7372
43.8821
44.0711
44.3106
44.6101
44.9842
45.4578
46.082
47.0048
48.79
54.1043
77.5038
44.3753
44.4111
44.4835
44.5945
44.7468
44.9448
45.1949
45.5074
45.9015
46.415
47.1344
48.2823
50.4418
55.012
63.8184
45.1948
45.2319
45.3071
45.4218
45.5785
45.7809
46.0342
46.3471
46.735
47.2277
47.8879
48.8562
50.4179
52.9767
56.2661
45.9872
46.0253
46.102
46.2187
46.3773
46.5802
46.8307
47.1335
47.4947
47.9225
48.4259
49.017
49.7001
50.4325
51.0161
46.7522
46.7906
46.8681
46.9855
47.1439
47.3449
47.5895
47.878
48.2073
48.5632
48.9018
49.1125
48.9464
47.9906
46.1893
47.4892
47.5278
47.6053
47.7224
47.8797
48.0777
48.3162
48.5931
48.9005
49.2143
49.4652
49.4686
48.7398
46.1345
40.1296
48.1981
48.2367
48.3139
48.4302
48.5859
48.781
49.0148
49.2856
49.5882
49.9074
50.199
50.332
49.8346
46.6381
29.9181
48.8792
48.9175
48.9942
49.1095
49.2633
49.4557
49.6862
49.955
50.2635
50.618
51.0417
51.6319
52.8024
56.5319
73.5347
49.5324
49.5704
49.6465
49.7606
49.9127
50.1023
50.3295
50.5954
50.9059
51.2788
51.7672
52.5277
53.9915
57.2068
63.5569
50.1579
50.1957
50.2712
50.3842
50.5345
50.7213
50.9442
51.2037
51.5038
51.8579
52.3024
52.9339
53.9626
55.7033
58.0081
50.756
50.7935
50.8685
50.9807
51.1295
51.3137
51.532
51.7824
52.0633
52.3724
52.7062
53.0629
53.4378
53.8066
54.079
51.3267
51.3641
51.4389
51.5505
51.6984
51.8809
52.0957
52.3387
52.6022
52.8681
53.0927
53.178
52.9156
51.9757
50.3584
51.8701
51.9075
51.9823
52.094
52.2417
52.424
52.6382
52.8796
53.1384
53.3906
53.5746
53.5333
52.8624
50.6138
45.5341
52.3862
52.4238
52.4989
52.611
52.7596
52.9433
53.1602
53.4071
53.678
53.959
54.2113
54.3245
53.9033
51.2166
37.2019
52.8749
52.9127
52.9884
53.1015
53.2516
53.438
53.6597
53.9164
54.2098
54.5454
54.9433
55.4854
56.5159
59.6848
73.9525
53.336
53.3742
53.4506
53.5649
53.717
53.9063
54.1331
54.3992
54.7111
55.0867
55.5737
56.3058
57.6419
60.4441
65.8356
53.7692
53.8078
53.8851
54.0009
54.1549
54.3471
54.5776
54.8487
55.1671
55.549
56.0322
56.7056
57.748
59.4038
61.4832
54.1742
54.2133
54.2916
54.4089
54.565
54.7594
54.9922
55.2641
55.5779
55.9392
56.3571
56.8478
57.4266
58.068
58.5951
54.5507
54.5904
54.6698
54.7887
54.9468
55.1435
55.3779
55.6489
55.9546
56.2884
56.6298
56.9274
57.0599
56.8101
56.0934
54.8982
54.9385
55.0191
55.1399
55.3003
55.4996
55.7364
56.0084
56.3108
56.6306
56.9313
57.1205
56.957
55.875
53.1146
55.2164
55.2574
55.3394
55.4621
55.6253
55.8279
56.0687
56.3454
56.6539
56.984
57.3089
57.5571
57.4902
56.1042
48.2393
55.5047
55.5465
55.6299
55.755
55.9212
56.1281
56.3744
56.659
56.9809
57.3393
57.738
58.2114
58.9376
60.8314
68.9538
55.7627
55.8052
55.8903
56.0178
56.1875
56.399
56.6517
56.9453
57.2813
57.6649
58.1137
58.6887
59.5725
61.2317
64.2988
55.9898
56.0331
56.1198
56.2499
56.4232
56.6396
56.8988
57.2008
57.5475
57.9435
58.4
58.9504
59.6672
60.6528
61.7947
56.1855
56.2296
56.3179
56.4505
56.6275
56.8488
57.1143
57.424
57.7786
58.178
58.6196
59.095
59.5736
59.9639
60.1046
56.3491
56.3939
56.4838
56.6189
56.7994
57.0256
57.2973
57.6147
57.9772
58.3816
58.8139
59.2362
59.5394
59.4469
58.5332
56.4802
56.5257
56.617
56.7543
56.9382
57.1689
57.4469
57.7725
58.1458
58.5639
59.0137
59.4588
59.7782
59.4989
56.3483
56.5783
56.6244
56.7168
56.8561
57.0428
57.2777
57.5616
57.8958
58.2823
58.7222
59.2151
59.7674
60.4309
61.5435
65.1761
56.643
56.6895
56.7827
56.9234
57.1124
57.3506
57.6395
57.9815
58.3805
58.8419
59.3737
59.9973
60.7699
61.8367
63.3682
56.674
56.7207
56.8144
56.9559
57.1462
57.3865
57.6788
58.0263
58.4343
58.9108
59.4668
60.1225
60.9029
61.8057
62.6451
56.6713
56.7179
56.8116
56.9531
57.1436
57.3845
57.678
58.0276
58.4394
58.9225
59.4893
60.1597
60.949
61.8172
62.5261
56.6347
56.6811
56.7742
56.915
57.1045
57.3442
57.6364
57.9844
58.3941
58.8741
59.4382
60.1129
60.9386
61.9378
62.9208
56.5646
56.6104
56.7024
56.8415
57.0288
57.2658
57.5543
57.8971
58.2987
58.7655
59.3087
59.9598
60.806
62.0681
64.0193
56.4612
56.5062
56.5966
56.7332
56.9171
57.1497
57.4326
57.7675
58.1569
58.6019
59.1026
59.6699
60.3829
61.7185
66.4939
56.3253
56.3692
56.4573
56.5906
56.7701
56.9971
57.2729
57.5988
57.9753
58.3979
58.8487
59.2774
59.5255
58.9788
54.6412
56.1575
56.2
56.2854
56.4145
56.5885
56.8087
57.0766
57.3937
57.7606
58.1725
58.6083
59.0092
59.2183
58.8703
57.462
55.9588
55.9997
56.0817
56.2059
56.3733
56.5855
56.8443
57.1526
57.5136
57.9287
58.3908
58.8727
59.2961
59.4966
59.3259
55.7304
55.7693
55.8475
55.9659
56.1255
56.328
56.5759
56.8734
57.2278
57.6505
58.1578
58.7755
59.527
60.3794
61.092
55.4736
55.5104
55.5842
55.6958
55.8463
56.0373
56.2713
56.5535
56.8937
57.3116
57.8465
58.584
59.6862
61.3579
63.3739
55.19
55.2243
55.2932
55.3973
55.5375
55.7149
55.9316
56.1918
56.5046
56.8896
57.3929
58.138
59.4481
62.0957
67.0766
54.8811
54.9129
54.9765
55.0725
55.2013
55.3635
55.5599
55.7922
56.0643
56.3836
56.7699
57.2982
58.2796
61.2116
74.2591
54.5489
54.5779
54.636
54.7235
54.8404
54.9865
55.1614
55.3638
55.5901
55.8291
56.0468
56.1425
55.7548
53.3013
40.5076
54.1952
54.2214
54.2739
54.3527
54.4576
54.5879
54.7422
54.9174
55.1061
55.2878
55.4068
55.3211
54.663
52.5704
47.9072
53.8219
53.8454
53.8923
53.9625
54.0556
54.1709
54.3067
54.4604
54.6259
54.788
54.9076
54.896
54.5658
53.6233
52.0884
53.4311
53.4518
53.4931
53.5549
53.6368
53.7378
53.8572
53.9938
54.1471
54.3161
54.4978
54.691
54.8921
55.0863
55.2238
53.0245
53.0425
53.0785
53.1322
53.203
53.2904
53.3939
53.5144
53.6565
53.8334
54.0787
54.4792
55.2217
56.5874
58.4745
52.604
52.6195
52.6504
52.6962
52.7564
52.8302
52.9171
53.0186
53.1407
53.3015
53.5503
54.0287
55.1167
57.7252
63.0554
52.1715
52.1846
52.2106
52.2489
52.2988
52.3591
52.4286
52.5072
52.5972
52.7066
52.861
53.1537
53.9541
56.9714
71.3577
51.7285
51.7394
51.761
51.7924
51.8326
51.8798
51.9321
51.9866
52.0391
52.0789
52.0741
51.9248
51.2504
48.3212
33.9602
51.2767
51.2857
51.3032
51.3285
51.3599
51.3955
51.4324
51.4661
51.4888
51.4805
51.386
51.0594
50.1111
47.6086
42.3187
50.8173
50.8247
50.8389
50.8589
50.883
50.9088
50.9331
50.952
50.9592
50.9401
50.8578
50.6247
50.0495
48.8305
47.0226
50.3515
50.3577
50.3694
50.3853
50.4035
50.4214
50.436
50.4449
50.4468
50.4421
50.4328
50.4263
50.4334
50.4601
50.49
49.8802
49.8856
49.8956
49.9088
49.9228
49.9346
49.9413
49.9414
49.938
49.9456
50.0044
50.2175
50.8021
52.0862
53.9969
49.404
49.4091
49.4185
49.4305
49.4421
49.4499
49.4497
49.439
49.4206
49.4117
49.4676
49.7494
50.6835
53.2759
58.8496
48.9229
48.9284
48.9385
48.9511
48.9628
48.969
48.9638
48.9407
48.8957
48.8312
48.7727
48.827
49.4118
52.3941
67.5915
48.4367
48.4433
48.4555
48.471
48.486
48.4946
48.4886
48.4566
48.3833
48.245
47.9979
47.5352
46.4736
43.0283
27.5127
47.9447
47.9532
47.9691
47.9901
48.0122
48.0288
48.0299
48
47.915
47.7327
47.3714
46.6584
45.1892
42.0435
36.0702
47.4456
47.4567
47.4779
47.5072
47.5408
47.5723
47.5911
47.5805
47.5134
47.3432
46.9877
46.3055
45.0676
43.0211
40.4976
46.9376
46.9519
46.98
47.0202
47.0696
47.123
47.1711
47.1991
47.1824
47.0808
46.8295
46.3376
45.506
44.3291
43.1902
46.4185
46.4365
46.4724
46.5255
46.5944
46.6758
46.7637
46.8475
46.9096
46.9208
46.837
46.6045
46.1828
45.6095
45.1098
45.8857
45.9076
45.9517
46.0187
46.1091
46.2226
46.3575
46.5098
46.671
46.8253
46.9463
47.0016
46.9634
46.8375
46.7002
45.3365
45.362
45.4141
45.4946
45.6064
45.7529
45.9378
46.1648
46.4364
46.7514
47.1
47.4624
47.8036
48.0723
48.2129
44.7685
44.797
44.8555
44.9476
45.0784
45.2551
45.4874
45.7876
46.1708
46.6526
47.2428
47.9369
48.6925
49.3948
49.841
44.1796
44.2098
44.2726
44.3725
44.5171
44.7173
44.9883
45.3515
45.8358
46.4768
47.312
48.3677
49.6167
50.8941
51.7964
43.5686
43.599
43.6627
43.7653
43.916
44.1287
44.4237
44.8304
45.3912
46.1647
47.2267
48.6629
50.5198
52.6525
54.396
42.9353
42.9641
43.0248
43.1235
43.2706
43.4816
43.78
44.201
44.7979
45.6508
46.8802
48.6648
51.2298
54.6799
58.2239
42.2808
42.306
42.3593
42.447
42.5794
42.7724
43.0499
43.4485
44.0259
44.8739
46.1469
48.1235
51.3236
56.6408
64.5302
41.6078
41.6273
41.6689
41.7384
41.8451
42.0031
42.2341
42.5709
43.0651
43.8004
44.9236
46.7313
49.9455
56.8142
76.3324
-205.061
-151.899
-132.925
-123.814
-118.494
-115.023
-112.614
-110.882
-109.61
-108.667
-107.97
-107.464
-107.111
-106.888
-106.78
-173.337
-151.719
-136.939
-127.819
-121.973
-118.024
-115.24
-113.22
-111.727
-110.614
-109.787
-109.184
-108.762
-108.494
-108.365
-156.645
-146.789
-137.022
-129.548
-124.135
-120.214
-117.335
-115.191
-113.578
-112.36
-111.447
-110.776
-110.304
-110.003
-109.857
-146.817
-141.794
-135.511
-129.845
-125.258
-121.68
-118.919
-116.792
-115.153
-113.894
-112.937
-112.228
-111.725
-111.404
-111.248
-140.497
-137.673
-133.57
-129.39
-125.678
-122.577
-120.062
-118.052
-116.462
-115.216
-114.255
-113.534
-113.02
-112.689
-112.528
-136.159
-134.438
-131.682
-128.61
-125.671
-123.065
-120.852
-119.02
-117.53
-116.339
-115.405
-114.696
-114.186
-113.856
-113.694
-133.037
-131.919
-130.01
-127.738
-125.43
-123.28
-121.377
-119.749
-118.39
-117.28
-116.397
-115.718
-115.226
-114.905
-114.747
-130.71
-129.95
-128.589
-126.888
-125.079
-123.321
-121.71
-120.289
-119.075
-118.064
-117.246
-116.61
-116.145
-115.84
-115.689
-128.932
-128.396
-127.401
-126.112
-124.69
-123.26
-121.908
-120.685
-119.616
-118.71
-117.967
-117.382
-116.951
-116.666
-116.525
-127.547
-127.159
-126.417
-125.428
-124.305
-123.143
-122.016
-120.973
-120.044
-119.243
-118.577
-118.047
-117.653
-117.392
-117.262
-126.451
-126.165
-125.603
-124.836
-123.944
-123
-122.064
-121.181
-120.38
-119.68
-119.09
-118.617
-118.261
-118.025
-117.907
-125.575
-125.361
-124.93
-124.33
-123.618
-122.85
-122.074
-121.33
-120.645
-120.038
-119.521
-119.102
-118.786
-118.575
-118.469
-124.868
-124.707
-124.373
-123.899
-123.329
-122.703
-122.061
-121.437
-120.854
-120.332
-119.883
-119.516
-119.237
-119.05
-118.956
-124.292
-124.171
-123.911
-123.535
-123.077
-122.566
-122.036
-121.513
-121.02
-120.573
-120.185
-119.867
-119.623
-119.459
-119.376
-123.822
-123.731
-123.527
-123.228
-122.858
-122.442
-122.004
-121.567
-121.151
-120.771
-120.439
-120.164
-119.953
-119.81
-119.737
-123.434
-123.367
-123.207
-122.969
-122.671
-122.331
-121.969
-121.606
-121.257
-120.935
-120.652
-120.416
-120.234
-120.11
-120.047
-123.115
-123.065
-122.941
-122.751
-122.51
-122.233
-121.935
-121.633
-121.341
-121.07
-120.83
-120.628
-120.473
-120.367
-120.313
-122.849
-122.815
-122.718
-122.567
-122.373
-122.147
-121.902
-121.653
-121.409
-121.182
-120.979
-120.808
-120.676
-120.585
-120.54
-122.629
-122.606
-122.531
-122.412
-122.256
-122.073
-121.872
-121.667
-121.464
-121.275
-121.104
-120.961
-120.849
-120.772
-120.733
-122.444
-122.431
-122.375
-122.281
-122.157
-122.009
-121.845
-121.676
-121.51
-121.352
-121.21
-121.09
-120.996
-120.931
-120.898
-122.289
-122.284
-122.243
-122.17
-122.072
-121.953
-121.821
-121.683
-121.547
-121.417
-121.299
-121.199
-121.121
-121.067
-121.039
-122.159
-122.16
-122.131
-122.076
-122
-121.906
-121.8
-121.688
-121.577
-121.471
-121.375
-121.292
-121.227
-121.182
-121.16
-122.048
-122.054
-122.036
-121.996
-121.938
-121.864
-121.781
-121.692
-121.603
-121.517
-121.439
-121.371
-121.318
-121.282
-121.263
-121.954
-121.965
-121.955
-121.927
-121.884
-121.829
-121.764
-121.695
-121.624
-121.556
-121.494
-121.44
-121.397
-121.367
-121.352
-121.873
-121.887
-121.885
-121.868
-121.838
-121.798
-121.749
-121.697
-121.643
-121.59
-121.541
-121.499
-121.465
-121.441
-121.429
-121.802
-121.82
-121.824
-121.816
-121.798
-121.771
-121.736
-121.698
-121.659
-121.619
-121.582
-121.55
-121.524
-121.506
-121.497
-121.739
-121.76
-121.77
-121.77
-121.762
-121.747
-121.725
-121.7
-121.673
-121.645
-121.619
-121.596
-121.577
-121.564
-121.557
-121.683
-121.706
-121.721
-121.729
-121.73
-121.725
-121.715
-121.701
-121.686
-121.669
-121.652
-121.637