/*--------------------------------*- C++ -*----------------------------------*\
| =========                 |                                                 |
| \\      /  F ield         | OpenFOAM: The Open Source CFD Toolbox           |
|  \\    /   O peration     | Version:  5.x                                   |
|   \\  /    A nd           | Web:      www.OpenFOAM.org                      |
|    \\/     M anipulation  |                                                 |
\*---------------------------------------------------------------------------*/
FoamFile
{
    version     2.0;
    format      ascii;
    class       volScalarField;
    location    "15.1";
    object      gradTy;
}
// * * * * * * * * * * * * * * * * * * * * * * * * * * * * * * * * * * * * * //

dimensions      [0 -1 0 1 0 0 0];

internalField   nonuniform List<scalar> 
6300
(
1009.08
1027.21
1045.27
1063.18
1080.9
1098.38
1115.56
1132.39
1148.81
1164.77
1180.24
1195.15
1209.48
1223.18
1236.24
0.040425
0.121268
0.202073
0.282761
0.363176
0.443037
0.521895
0.59908
0.673656
0.744379
0.809693
0.867763
0.916578
0.954113
0.978552
0.0673817
0.202148
0.336904
0.471559
0.605894
0.739493
0.871665
1.00135
1.12702
1.24662
1.35751
1.45652
1.54011
1.60466
1.64689
0.094333
0.283036
0.471825
0.660658
0.849322
1.03735
1.22389
1.40759
1.58641
1.75752
1.91715
2.06065
2.18264
2.2775
2.33999
0.12124
0.363825
0.606688
0.849902
1.09336
1.33665
1.57892
1.81866
2.05348
2.27985
2.49288
2.68622
2.85226
2.98267
3.06944
0.148041
0.444322
0.741172
1.03887
1.33752
1.63693
1.93642
2.23458
2.52892
2.81544
3.0882
3.339
3.5574
3.73135
3.84869
0.174639
0.524237
0.874784
1.22685
1.58088
1.93707
2.29519
2.65426
3.01211
3.3647
3.70538
4.02408
4.30688
4.53648
4.69429
0.200906
0.60318
1.00684
1.41282
1.82201
2.23521
2.65292
3.07508
3.50044
3.92574
4.34439
4.74489
5.10937
5.41319
5.62739
0.226703
0.68071
1.13655
1.59553
2.05908
2.52875
3.00613
3.49258
3.9887
4.49328
5.00137
5.50152
5.97227
6.37926
6.67656
0.251892
0.756387
1.26307
1.77361
2.28996
2.81451
3.35015
3.90027
4.46837
5.05712
5.66606
6.28732
6.89865
7.45473
7.88228
0.27636
0.829845
1.38571
1.94583
2.51257
3.08907
3.67958
4.28982
4.92721
5.60055
6.31817
7.08275
7.87999
8.65844
9.30463
0.300055
0.900898
1.50404
2.11135
2.72533
3.34952
3.98914
4.65203
5.34989
6.09946
6.92303
7.8452
8.87983
9.9941
11.0346
0.323007
0.969625
1.61814
2.27013
2.92779
3.5944
4.27526
4.9791
5.7206
6.52411
7.42898
8.49489
9.79971
11.4031
13.198
0.345345
1.03642
1.7287
2.42317
3.12119
3.82492
4.53822
5.26831
6.02905
6.84711
7.77361
8.90536
10.4206
12.6203
15.8523
0.367282
1.10198
1.83703
2.57259
3.30876
4.04572
4.7842
5.52664
6.27992
7.06139
7.91271
8.93203
10.3567
12.8046
18.1111
1247.6
1257.47
1266.86
1275.8
1284.3
1292.35
1299.99
1307.24
1314.12
1320.66
1326.89
1332.83
1338.52
1344
1349.28
1354.41
1359.41
1364.31
1369.15
1373.95
1378.74
1383.54
1388.38
1393.28
1398.26
1403.35
1408.54
1413.87
1419.32
1424.92
1430.67
1436.55
1442.58
1448.75
1455.04
1461.44
1467.96
1474.56
1481.24
1487.98
1494.75
1501.55
1508.33
1515.08
1521.76
1528.37
1534.86
1541.21
1547.41
1553.42
1559.22
1564.79
1570.11
1575.14
1579.87
1584.26
1588.27
1591.89
1595.06
1597.76
1599.94
1601.57
1602.61
1603.01
1602.73
1601.72
1599.91
1597.26
1593.69
1589.14
1583.53
1576.77
1568.78
1559.46
1548.72
1536.46
1522.57
1506.94
1489.47
1470.04
1448.54
1424.86
1398.9
1370.57
1339.78
1306.45
1270.53
1232
1190.83
1147.05
0.98771
0.985573
0.972957
0.950219
0.918051
0.877414
0.829449
0.775385
0.716456
0.653839
0.588603
0.521694
0.453921
0.385966
0.318404
0.251721
0.186347
0.122682
0.0611208
0.00208136
-0.0539801
-0.106557
-0.155091
-0.198987
-0.237635
-0.270455
-0.296952
-0.31677
-0.329751
-0.335967
-0.335716
-0.329483
-0.317841
-0.301339
-0.280389
-0.255193
-0.225739
-0.191867
-0.153408
-0.110335
-0.0629107
-0.0117657
0.0421128
0.0974999
0.153132
0.20794
0.261254
0.312932
0.363372
0.413432
0.464259
0.517075
0.572966
0.63271
0.696682
0.764851
0.836884
0.912325
0.9908
1.07221
1.15688
1.24555
1.33939
1.43986
1.54852
1.6669
1.79629
1.93762
2.09136
2.25755
2.43583
2.62554
2.82586
3.03587
3.25459
3.48093
3.71358
3.95078
4.19017
4.4286
4.66192
4.88501
5.09178
5.27542
5.42872
5.54457
5.61653
5.6394
5.60977
5.52642
1.66286
1.65935
1.63778
1.59878
1.54365
1.47411
1.39221
1.30014
1.20006
1.09398
0.983753
0.870945
0.756899
0.642725
0.529342
0.417518
0.307924
0.201181
0.0979138
-0.00121372
-0.0954577
-0.183974
-0.265815
-0.339943
-0.405277
-0.460767
-0.505491
-0.538771
-0.560291
-0.570172
-0.568988
-0.557688
-0.537412
-0.509254
-0.474014
-0.432036
-0.383188
-0.326998
-0.262931
-0.190717
-0.110666
-0.023853
0.0678912
0.162209
0.256625
0.349034
0.43812
0.523615
0.606323
0.68794
0.770711
0.857012
0.948927
1.0479
1.15456
1.2687
1.38947
1.51579
1.64672
1.78191
1.92181
2.06774
2.22183
2.38677
2.56546
2.76071
2.97488
3.20964
3.46582
3.74338
4.04155
4.35906
4.69438
5.04596
5.41224
5.79161
6.18215
6.58127
6.98535
7.38933
7.78641
8.16793
8.52343
8.84099
9.10782
9.31119
9.4394
9.48295
9.43554
9.29484
2.36391
2.35907
2.32759
2.27052
2.18991
2.08852
1.96957
1.83639
1.69224
1.5401
1.3826
1.22198
1.06006
0.898354
0.738045
0.580117
0.42541
0.274698
0.128768
-0.0115151
-0.145154
-0.270974
-0.387611
-0.493525
-0.587058
-0.666544
-0.730467
-0.777666
-0.807549
-0.820268
-0.816788
-0.798776
-0.768294
-0.727329
-0.677304
-0.618738
-0.551175
-0.473442
-0.384153
-0.282352
-0.168129
-0.0430127
0.0899912
0.226801
0.363032
0.494931
0.620174
0.738326
0.850859
0.960798
1.07209
1.18888
1.31474
1.45205
1.6017
1.763
1.93409
2.11261
2.29653
2.48485
2.67804
2.87818
3.08867
3.31388
3.55856
3.82727
4.12381
4.45083
4.80949
5.19952
5.61941
6.06689
6.53947
7.03484
7.551
8.08617
8.63831
9.20458
9.78064
10.3599
10.9332
11.4883
12.0097
12.4795
12.8782
13.1859
13.3841
13.4574
13.3955
13.1947
3.10322
3.09717
3.05426
2.97617
2.86609
2.72826
2.56744
2.38849
2.19598
1.994
1.78604
1.57496
1.36305
1.15209
0.943451
0.738219
0.537288
0.341481
0.151652
-0.0312191
-0.205935
-0.371018
-0.524664
-0.664745
-0.788872
-0.89453
-0.979319
-1.04129
-1.07931
-1.09348
-1.0853
-1.0576
-1.01405
-0.958229
-0.892675
-0.818174
-0.733589
-0.636308
-0.523171
-0.391658
-0.24106
-0.0733099
0.106832
0.292445
0.475896
0.650628
0.812655
0.961341
1.09934
1.23191
1.36578
1.50791
1.66425
1.83866
2.03228
2.24343
2.46823
2.70188
2.94022
3.18096
3.4245
3.6739
3.93451
4.21315
4.51726
4.85393
5.22907
5.64664
6.1082
6.61285
7.15771
7.73875
8.35192
8.99392
9.66254
10.3564
11.0742
11.8139
12.5713
13.3393
14.1065
14.8571
15.5702
16.2205
16.7798
17.2185
17.5085
17.6263
17.5557
17.2901
3.89531
3.88819
3.83143
3.72772
3.58207
3.40092
3.19125
2.95993
2.71318
2.45635
2.19381
1.929
1.66454
1.40236
1.14385
0.890035
0.641705
0.399582
0.164446
-0.0627263
-0.280643
-0.487578
-0.68129
-0.858977
-1.01731
-1.15259
-1.26106
-1.3394
-1.38544
-1.39889
-1.38192
-1.33929
-1.2775
-1.20317
-1.12096
-1.03217
-0.934324
-0.822053
-0.688704
-0.528508
-0.338756
-0.121523
0.115715
0.361118
0.601228
0.824521
1.02424
1.19963
1.35553
1.50102
1.64743
1.80635
1.9876
2.19747
2.43749
2.70405
2.98945
3.28426
3.58026
3.87289
4.16233
4.45331
4.75418
5.07555
5.42885
5.825
6.27302
6.77888
7.34462
7.96807
8.64365
9.36409
10.1226
10.9144
11.7375
12.5918
13.4784
14.3974
15.3465
16.3193
17.3034
18.2795
19.2206
20.0923
20.8545
21.4646
21.8805
22.0663
21.9961
21.6593
4.75853
4.75053
4.676
4.53948
4.34899
4.11442
3.84602
3.55334
3.24465
2.92666
2.60459
2.28231
1.96254
1.64715
1.33731
1.03377
0.737017
0.447464
0.16563
-0.107698
-0.371288
-0.623296
-0.861101
-1.08118
-1.27904
-1.44935
-1.58626
-1.68412
-1.73859
-1.74815
-1.71558
-1.64864
-1.55911
-1.45953
-1.35883
-1.25928
-1.15594
-1.03825
-0.893014
-0.708048
-0.476169
-0.198697
0.112677
0.437238
0.750588
1.03216
1.27067
1.46576
1.6265
1.76855
1.91082
2.07237
2.26946
2.5126
2.80418
3.13724
3.49685
3.86461
4.22485
4.56911
4.89761
5.21815
5.544
5.8916
6.27838
6.72098
7.23328
7.82452
8.49751
9.24779
10.0646
10.9342
11.8448
12.7894
13.7668
14.7803
15.8354
16.9369
18.0871
19.2823
20.5111
21.7517
22.9702
24.1209
25.1479
25.9894
26.5833
26.874
26.8199
26.4022
5.71709
5.70841
5.60956
5.42867
5.17912
4.87639
4.53549
4.16957
3.78923
3.40257
3.01541
2.63171
2.25399
1.88369
1.52147
1.16752
0.821752
0.484038
0.154382
-0.166861
-0.478772
-0.779617
-1.06658
-1.33549
-1.58056
-1.79432
-1.96781
-2.09141
-2.15651
-2.15821
-2.09883
-1.99063
-1.8553
-1.71762
-1.59517
-1.49198
-1.39834
-1.29427
-1.15468
-0.955301
-0.679416
-0.32489
0.0904314
0.529268
0.945465
1.30154
1.57937
1.78106
1.92414
2.0355
2.14614
2.28693
2.48467
2.75766
3.1108
3.53184
3.99215
4.45543
4.89205
5.28765
5.64395
5.97493
6.30213
6.65079
7.04712
7.51614
8.07941
8.75195
9.53864
10.4312
11.4089
12.4448
13.5175
14.6165
15.7435
16.9084
18.1247
19.4059
20.7621
22.1963
23.7012
25.2548
26.8168
28.3269
29.7074
30.8698
31.7219
32.1772
32.1666
31.6546
6.8053
6.79586
6.661
6.41646
6.08563
5.69315
5.26093
4.80651
4.34291
3.8792
3.42123
2.9725
2.53477
2.1086
1.69376
1.28953
0.894964
0.50909
0.131117
-0.239354
-0.602065
-0.955789
-1.29792
-1.62397
-1.927
-2.19709
-2.42102
-2.58277
-2.66551
-2.65604
-2.5522
-2.37152
-2.15468
-1.95363
-1.80358
-1.71077
-1.65561
-1.60127
-1.50224
-1.31255
-0.995742
-0.538479
0.0344502
0.654008
1.22701
1.68368
1.9978
2.18085
2.26754
2.30359
2.33817
2.41961
2.59164
2.88738
3.31973
3.86997
4.4832
5.0847
5.61834
6.06281
6.42677
6.73718
7.02939
7.3414
7.71122
8.17563
8.7682
9.51503
10.4273
11.4921
12.6691
13.9027
15.152
16.4032
17.6658
18.9622
20.3203
21.7668
23.3245
25.0084
26.821
28.7456
30.7378
32.7193
34.5808
36.1965
37.4318
38.1511
38.2348
37.6109
8.07535
8.06367
7.87021
7.52833
7.08075
6.56701
6.01825
5.45667
4.89686
4.34767
3.81392
3.29765
2.79912
2.31743
1.85101
1.39789
0.955936
0.523061
0.0973563
-0.322694
-0.737959
-1.1483
-1.55204
-1.94521
-2.3205
-2.66592
-2.96334
-3.18749
-3.30688
-3.28933
-3.11582
-2.80407
-2.4309
-2.1158
-1.92917
-1.87493
-1.91129
-1.97222
-1.97996
-1.85243
-1.51391
-0.918224
-0.0882844
0.84616
1.67645
2.27145
2.60533
2.71973
2.68421
2.57417
2.46311
2.42227
2.52087
2.82079
3.35929
4.1178
4.99153
5.81207
6.47341
6.95425
7.28707
7.526
7.72852
7.94912
8.23952
8.65097
9.23524
10.0403
11.0965
12.3919
13.8482
15.3382
16.7839
18.174
19.5394
20.9277
22.3886
23.9678
25.7055
27.6352
29.7795
32.1392
34.6744
37.2844
39.8083
42.0708
43.8846
45.0403
45.3218
44.5682
9.61469
9.59302
9.29294
8.79222
8.17093
7.49097
6.79367
6.10387
5.43508
4.79353
4.18105
3.59691
3.03888
2.50398
1.98883
1.48988
1.00358
0.52647
0.0552353
-0.413125
-0.881128
-1.35048
-1.82153
-2.29233
-2.75713
-3.20398
-3.61126
-3.94315
-4.14553
-4.14729
-3.87858
-3.32516
-2.62358
-2.09312
-1.86421
-1.90874
-2.13172
-2.41991
-2.65265
-2.69631
-2.40257
-1.63551
-0.361739
1.18803
2.46444
3.23491
3.52864
3.47414
3.20784
2.84584
2.48653
2.22371
2.15984
2.41023
3.08164
4.19926
5.57603
6.76822
7.58794
8.05835
8.28208
8.36673
8.40106
8.45578
8.59291
8.87689
9.38381
10.2033
11.4206
13.0593
14.9782
16.8367
18.4951
19.9795
21.3791
22.7878
24.2858
25.9397
27.809
29.952
32.4269
35.2789
38.5021
41.9723
45.411
48.5901
51.2837
53.1872
53.8981
53.0211
11.5908
11.5228
11.0042
10.2293
9.3452
8.43963
7.55803
6.7206
5.93384
5.1973
4.5072
3.85837
3.24518
2.66196
2.10319
1.56356
1.03795
0.521362
0.00894414
-0.504079
-1.02234
-1.5502
-2.09134
-2.64803
-3.2195
-3.79892
-4.36765
-4.88515
-5.27292
-5.39458
-5.05119
-4.05948
-2.56978
-1.63613
-1.40545
-1.68558
-2.25818
-2.94735
-3.59752
-4.02597
-3.97275
-3.08239
-1.03262
1.92349
3.98085
4.88472
4.95322
4.53341
3.86914
3.11353
2.37094
1.73857
1.34618
1.39335
2.16135
3.90743
6.42613
8.2605
9.20521
9.51741
9.47712
9.27967
9.04401
8.84354
8.73462
8.78156
9.08207
9.79302
11.1378
13.323
16.1948
18.623
20.4565
21.9068
23.2052
24.5189
25.958
27.6008
29.5176
31.7904
34.5308
37.8832
41.9736
46.7047
51.3867
55.8077
59.8198
63.0502
64.7598
63.9136
14.3925
14.101
13.0838
11.8232
10.55
9.35343
8.25853
7.26417
6.36018
5.53411
4.77387
4.06851
3.40834
2.78476
2.19005
1.61715
1.0594
0.510378
-0.0363314
-0.587322
-1.14956
-1.73058
-2.33854
-2.98219
-3.67017
-4.40896
-5.19748
-6.01365
-6.78313
-7.31119
-7.157
-5.51062
-1.71499
-0.166692
-0.210943
-1.04104
-2.21655
-3.53071
-4.86136
-6.04891
-6.74805
-6.19849
-3.00839
3.95323
7.15833
7.73747
7.08097
5.94469
4.66202
3.3626
2.09676
0.908053
-0.100236
-0.661327
-0.167164
2.50314
8.26175
11.0339
11.7333
11.484
10.8984
10.2476
9.63632
9.09954
8.65195
8.32118
8.18942
8.47008
9.645
12.5978
18.0502
21.2656
22.9693
24.0526
25.0093
26.0691
27.3364
28.8674
30.7133
32.9552
35.7529
39.4245
44.5219
51.5072
57.7378
63.6131
69.4806
75.1023
79.3011
79.4242
19.1769
17.7239
15.5133
13.4348
11.6439
10.1205
8.81379
7.67721
6.67392
5.77577
4.96119
4.2133
3.51855
2.86575
2.24531
1.64872
1.06812
0.495918
-0.0755639
-0.654463
-1.24983
-1.8722
-2.53438
-3.25253
-4.04763
-4.94734
-5.98738
-7.20927
-8.64082
-10.2101
-11.4114
-10.0566
2.37587
3.59592
2.11508
0.100825
-1.9753
-4.0903
-6.33121
-8.77506
-11.3214
-13.1169
-10.4152
11.3921
14.1168
12.3691
9.89923
7.56644
5.47871
3.56301
1.71128
-0.182457
-2.19077
-4.23569
-5.62947
-3.34853
14.3975
16.7914
15.6269
13.9344
12.4132
11.1582
10.1209
9.22666
8.40067
7.57388
6.70251
5.85906
5.59158
8.27295
23.1262
26.0842
26.3748
26.3802
26.6639
27.3198
28.3344
29.6796
31.3378
33.319
35.7158
38.9115
44.3507
57.3952
64.5991
71.4286
79.4937
89.2016
99.7094
106.016
30.4053
22.4372
17.752
14.6315
12.3523
10.5751
9.12382
7.89811
6.83608
5.89697
5.05238
4.28147
3.56831
2.90012
2.26622
1.6573
1.06481
0.480501
-0.104013
-0.697766
-1.31106
-1.95631
-2.64941
-3.41181
-4.27421
-5.28332
-6.51508
-8.10261
-10.2998
-13.6382
-19.3463
-30.5537
22.6126
11.2478
5.20921
1.33189
-1.67786
-4.46831
-7.50844
-11.3532
-16.9753
-26.5106
-45.3336
46.3097
27.5151
18.0404
12.5199
8.83518
6.04764
3.67133
1.38643
-1.1078
-4.2283
-8.74735
-16.383
-31.4696
42.64
27.6727
20.2803
16.138
13.5444
11.7552
10.3993
9.25552
8.15058
6.8908
5.17553
2.41879
-2.70803
-13.5793
45.3309
34.7437
30.1903
28.3069
27.7819
28.0538
28.8559
30.0407
31.4968
33.0837
34.5278
35.1674
33.2275
71.6927
71.9984
77.4635
87.1402
102.148
126.166
168.577
1096.05
1036.81
974.111
908.159
839.184
767.44
693.199
616.737
538.334
458.268
376.81
294.226
210.775
126.71
42.2772
5.37686
5.14321
4.84874
4.50566
4.12706
3.72554
3.31213
2.89565
2.48255
2.07696
1.68092
1.29481
0.917687
0.547616
0.182027
9.03965
8.63948
8.1352
7.54889
6.90394
6.22252
5.52368
4.8224
4.12931
3.45101
2.79052
2.14806
1.52164
0.907711
0.301673
12.8242
12.2398
11.5037
10.6507
9.71726
8.73689
7.73767
6.74095
5.7613
4.80722
3.88207
2.98523
2.11307
1.25989
0.418616
16.7887
15.9918
14.9889
13.8329
12.5774
11.2701
9.94913
8.64241
7.36774
6.13449
4.9453
3.79767
2.68549
1.60016
0.531501
21.0026
19.9493
18.6268
17.1143
15.4891
13.8166
12.1462
10.5117
8.93271
7.41772
5.96694
4.57464
3.23103
1.92371
0.638726
25.5529
24.1756
22.454
20.508
18.4478
16.3605
14.3072
12.3253
10.4335
8.63667
6.9301
5.30291
3.74025
2.22492
0.738414
30.5534
28.7456
26.5049
24.0155
21.4331
18.8699
16.3962
14.0484
11.8391
9.76519
7.81383
5.96663
4.20212
2.49729
0.828424
36.1601
33.7482
30.8042
27.6157
24.3989
21.2896
18.3589
15.6327
13.1091
10.7709
8.59326
6.5476
4.60429
2.73367
0.906417
42.5958
39.2827
35.3481
31.244
27.2569
23.5309
20.1172
17.014
14.1932
11.6159
9.24056
7.02613
4.93373
2.92665
0.969992
50.1919
45.4374
40.0604
34.7547
29.8529
25.4594
21.5648
18.1127
15.0335
12.2588
9.72675
7.38253
5.17779
3.06919
1.01688
59.4547
52.2138
44.7004
37.8608
31.9398
26.8885
22.5694
18.8381
15.5689
12.6589
10.025
7.59934
5.32566
3.15539
1.04522
71.0936
59.2623
48.6661
40.0477
33.1567
27.585
22.9858
19.101
15.7449
12.7827
10.1147
7.66413
5.37004
3.18145
1.05383
85.4746
65.0741
50.6533
40.5063
33.0535
27.3087
22.6874
18.835
15.5265
12.6121
9.98666
7.57238
5.30884
3.1465
1.04248
97.8457
64.9048
48.3661
38.27
31.2415
25.9085
21.6199
18.0246
14.9138
12.1525
9.64734
7.32979
5.14638
3.05319
1.01205
0.387265
1.16171
1.93578
2.70886
3.47975
4.24637
5.00558
5.75313
6.4843
7.1963
7.89504
8.61198
9.44557
10.6626
12.9458
0.405483
1.21625
2.02623
2.83429
3.63821
4.43404
5.21507
5.97039
6.68275
7.3255
7.85788
8.21484
8.27247
7.69311
5.17895
0.423833
1.27131
2.11798
2.96252
3.8022
4.63186
5.44225
6.2173
6.92934
7.5312
7.9424
8.02529
7.54145
6.06703
2.85891
0.442308
1.32689
2.21116
3.09406
3.97305
4.84293
5.69383
6.50776
7.25226
7.86912
8.25469
8.22906
7.49822
5.64463
2.28167
0.460793
1.38268
2.30525
3.22826
4.15015
5.06705
5.97093
6.84626
7.66364
8.36742
8.85225
8.92232
8.23452
6.27027
2.53795
0.479064
1.43795
2.39899
3.36315
4.33061
5.30007
6.26767
7.22483
8.15375
9.01756
9.73753
10.1417
9.85695
8.1236
3.72721
0.496796
1.4917
2.4905
3.49569
4.50957
5.53423
6.57148
7.62279
8.68891
9.76738
10.8417
11.8394
12.485
11.826
7.03999
0.513606
1.54271
2.57753
3.62211
4.68094
5.7595
6.86531
8.01025
9.21528
10.5199
11.9987
13.7814
16.0187
18.3941
16.8067
0.529094
1.58971
2.65773
3.73856
4.83852
5.9657
7.13176
8.35572
9.67227
11.1512
12.9442
15.4075
19.456
27.7137
48.8133
0.542883
1.63153
2.72897
3.84165
4.97708
6.14475
7.35781
8.63662
10.0163
11.5641
13.4237
15.9322
19.9698
28.1146
48.9721
0.554659
1.6672
2.78956
3.92885
5.09315
6.29212
7.53802
8.84725
10.2431
11.7604
13.4523
15.3947
17.6309
19.6864
17.3356
0.564185
1.69601
2.83832
3.99859
5.18502
6.40677
7.67405
8.99748
10.3854
11.8349
13.3067
14.6526
15.4169
14.3176
8.14339
0.571301
1.71749
2.87454
4.05008
5.25223
6.48964
7.77089
9.10272
10.4845
11.8938
13.2483
14.3138
14.4969
12.4725
5.97361
0.575914
1.73138
2.89784
4.08298
5.29485
6.54189
7.83241
9.17301
10.5644
11.9903
13.3901
14.5876
15.1095
13.7344
7.58722
0.577989
1.73758
2.90812
4.09721
5.31291
6.56379
7.85895
9.20783
10.6199
12.1047
13.672
15.3301
17.0391
18.3099
15.4696
0.57754
1.73615
2.90545
4.09288
5.30641
6.55477
7.84798
9.19852
10.6248
12.1614
13.8904
16.0369
19.2726
25.7397
42.8647
0.574627
1.72726
2.89011
4.07033
5.27559
6.51444
7.79699
9.13637
10.5527
12.0843
13.8186
15.987
19.2616
25.7677
42.892
0.569355
1.71122
2.86265
4.03029
5.22131
6.44362
7.70632
9.02049
10.4005
11.866
13.445
15.1684
17.006
18.4211
15.5893
0.561879
1.68851
2.82385
3.97394
5.14519
6.34458
7.57972
8.85869
10.1884
11.5687
12.9708
14.27
15.0435
14.0233
7.97158
0.552392
1.65972
2.77476
3.90279
5.04942
6.22056
7.4225
8.66137
9.94109
11.256
12.5677
13.7363
14.3263
13.1193
7.22265
0.541121
1.62555
2.71656
3.81866
4.9365
6.07501
7.23944
8.43548
9.66904
10.9452
12.2638
13.6041
14.8566
15.4716
12.4101
0.528319
1.58676
2.65061
3.72351
4.80913
5.91131
7.03426
8.18333
9.36721
10.6045
11.9445
13.5325
15.8293
20.3765
32.7077
0.514255
1.54418
2.57832
3.61943
4.67015
5.73304
6.81076
7.90682
9.02806
10.1924
11.4525
12.9686
15.2387
19.8755
32.4899
0.499197
1.49863
2.50114
3.5086
4.5226
5.54433
6.57436
7.61263
8.65877
9.71355
10.7826
11.8806
13.0043
13.8341
11.6512
0.483405
1.45092
2.42047
3.39314
4.3696
5.34972
6.33206
7.31276
8.28328
9.2246
10.0922
10.7744
10.9738
9.88436
5.4784
0.467114
1.40176
2.33756
3.27499
4.21397
5.15346
6.09073
7.01979
7.92785
8.78659
9.53046
10.0034
9.83802
8.23758
3.85468
0.450523
1.35176
2.25348
3.1557
4.05789
4.95862
5.85495
6.74124
7.60648
8.42815
9.15661
9.67524
9.69859
8.52287
4.54093
0.433788
1.30139
2.16901
3.03636
3.90273
4.76672
5.62603
6.47714
7.31519
8.13424
8.92824
9.69089
10.3916
10.7567
8.76867
0.417023
1.25099
2.08467
2.91764
3.74913
4.57798
5.40267
6.22195
7.03695
7.85757
8.7214
9.74937
11.3174
14.6246
23.7943
0.4003
1.20077
2.00079
2.79988
3.59729
4.39202
5.18293
5.96959
6.75463
7.55074
8.40037
9.43258
11.0352
14.4208
23.7176
0.383659
1.15083
1.91751
2.68322
3.44724
4.2086
4.96603
5.71822
6.46448
7.20659
7.95235
8.71944
9.51468
10.1117
8.5203
0.367113
1.10121
1.83486
2.56766
3.29898
4.02782
4.75266
5.47081
6.17707
6.85974
7.48935
7.98654
8.13156
7.32212
4.05139
0.35065
1.05186
1.75278
2.4531
3.15235
3.84975
4.54382
5.23153
5.9059
6.5496
7.11815
7.49802
7.4111
6.24161
2.93797
0.334242
1.0027
1.67106
2.33921
3.00695
3.6739
4.33929
5.0014
5.6559
6.29149
6.8778
7.3335
7.44224
6.64303
3.6108
0.317845
0.953582
1.58946
2.22557
2.86204
3.49905
4.13695
4.77643
5.41893
6.06745
6.72801
7.40977
8.10375
8.59499
7.19285
0.30141
0.904348
1.50766
2.11163
2.71669
3.32351
3.93342
4.54926
5.17765
5.83493
6.56332
7.47741
8.90587
11.8616
19.7911
0.284885
0.854838
1.42536
1.9969
2.57006
3.14576
3.72568
4.31327
4.91622
5.55291
6.26953
7.18771
8.64718
11.674
19.7202
0.268226
0.804915
1.34233
1.88101
2.42161
2.965
3.51254
4.06651
4.63123
5.21529
5.83561
6.52195
7.29985
8.00048
6.96267
0.251398
0.754472
1.25839
1.76374
2.27116
2.78131
3.29485
3.81219
4.33272
4.85236
5.35573
5.79245
6.00604
5.53401
3.15466
0.234371
0.703427
1.17343
1.64501
2.11877
2.59521
3.07445
3.55555
4.03474
4.50063
4.92203
5.21776
5.18824
4.39196
2.07574
0.21712
0.65171
1.08735
1.52473
1.96449
2.40712
2.85268
3.30017
3.74591
4.1797
4.5755
4.86883
4.90278
4.30534
2.27125
0.199622
0.599252
1.00004
1.40276
1.80817
2.21693
2.62952
3.04595
3.46529
3.88505
4.30001
4.69994
5.05568
5.21629
4.20867
0.181853
0.545978
0.911371
1.2789
1.64947
2.02404
2.40364
2.78962
3.18433
3.59365
4.03488
4.56164
5.34396
6.93842
11.2916
0.163788
0.491813
0.821198
1.1529
1.48798
1.82761
2.17329
2.52716
2.89316
3.28004
3.71024
4.24578
5.06815
6.74461
11.2211
0.145409
0.436693
0.729398
1.02455
1.32328
1.62694
1.93718
2.25623
2.58742
2.93627
3.31236
3.73066
4.19912
4.60617
3.98478
0.126702
0.380577
0.635888
0.893682
1.15515
1.42167
1.69492
1.97682
2.26937
2.57353
2.88511
3.18061
3.37265
3.18183
1.85127
0.107667
0.323457
0.540641
0.760251
0.983474
1.21171
1.44661
1.68996
1.94319
2.2056
2.46896
2.70233
2.81199
2.5489
1.36494
0.088314
0.265361
0.443698
0.624297
0.808301
0.997104
1.1924
1.39621
1.6106
1.83695
2.07359
2.30991
2.51012
2.55543
1.95214
0.0686682
0.206365
0.345176
0.485965
0.629781
0.777963
0.93227
1.09507
1.26968
1.46112
1.6784
1.94251
2.31577
3.01231
4.83167
0.0487709
0.14659
0.245276
0.345523
0.448217
0.554554
0.666218
0.785714
0.91705
1.06731
1.25065
1.4993
1.89687
2.68939
4.7022
0.02868
0.0862113
0.144287
0.203375
0.264116
0.327434
0.394711
0.468116
0.551262
0.650526
0.777525
0.952627
1.20367
1.51901
1.51823
0.00846973
0.0254532
0.0425928
0.0600758
0.0782217
0.0975587
0.118938
0.143742
0.17427
0.214472
0.270977
0.353206
0.465789
0.568121
0.442368
-0.0117712
-0.0354136
-0.0593394
-0.0836832
-0.108499
-0.133736
-0.159214
-0.184614
-0.209442
-0.232905
-0.253438
-0.2673
-0.264977
-0.224383
-0.106435
-0.0319423
-0.0960824
-0.16098
-0.227111
-0.294924
-0.364857
-0.437415
-0.513361
-0.594098
-0.682308
-0.78248
-0.899037
-1.02231
-1.0706
-0.721153
-0.0519353
-0.156223
-0.261759
-0.369365
-0.479869
-0.594146
-0.713254
-0.838769
-0.97355
-1.12339
-1.30013
-1.52608
-1.83171
-2.19299
-2.09478
-0.0716375
-0.215494
-0.361094
-0.509599
-0.662183
-0.820065
-0.984627
-1.15772
-1.34252
-1.54575
-1.78357
-2.09777
-2.60241
-3.63442
-6.30959
-0.0909345
-0.273549
-0.458403
-0.64699
-0.840803
-1.04133
-1.25005
-1.46852
-1.69867
-1.94404
-2.21395
-2.53715
-3.00682
-3.93468
-6.42473
-0.109711
-0.330044
-0.553111
-0.780738
-1.01474
-1.25688
-1.50868
-1.77117
-2.04421
-2.32526
-2.60727
-2.87474
-3.09298
-3.14998
-2.47159
-0.127854
-0.384635
-0.644639
-0.91004
-1.18302
-1.46568
-1.75985
-2.06646
-2.38413
-2.70576
-3.01062
-3.24647
-3.29103
-2.87592
-1.48005
-0.14525
-0.436978
-0.732406
-1.03406
-1.34454
-1.66647
-2.00235
-2.35402
-2.72126
-3.09786
-3.46182
-3.75098
-3.80821
-3.28288
-1.57476
-0.161791
-0.486742
-0.815835
-1.15194
-1.49808
-1.85753
-2.23382
-2.63073
-3.05181
-3.49865
-3.96488
-4.41646
-4.72988
-4.51114
-2.67039
-0.177377
-0.533621
-0.894379
-1.26281
-1.64235
-2.03685
-2.45094
-2.8906
-3.36441
-3.88591
-4.47803
-5.17779
-6.02099
-6.86569
-6.19654
-0.191925
-0.577354
-0.967574
-1.36596
-1.77619
-2.20252
-2.65024
-3.1267
-3.64381
-4.22405
-4.91633
-5.8394
-7.31093
-10.2714
-17.8642
-0.205372
-0.617749
-1.03508
-1.46085
-1.89882
-2.3533
-2.82951
-3.3345
-3.87928
-4.48431
-5.19424
-6.12
-7.56673
-10.4599
-17.9361
-0.217679
-0.654692
-1.09671
-1.54723
-2.00995
-2.48894
-2.98874
-3.51459
-4.07283
-4.67161
-5.32216
-6.03868
-6.8179
-7.4655
-6.43147
-0.228833
-0.688144
-1.15242
-1.6251
-2.10974
-2.61007
-3.1298
-3.67211
-4.23814
-4.82287
-5.40417
-5.91367
-6.16032
-5.63874
-3.14119
-0.238842
-0.718133
-1.20228
-1.69462
-2.19859
-2.71768
-3.25512
-3.81308
-4.39036
-4.9764
-5.53592
-5.97105
-6.03612
-5.18404
-2.47919
-0.247728
-0.744735
-1.24643
-1.75604
-2.27691
-2.81248
-3.36612
-3.94055
-4.5364
-5.14825
-5.75392
-6.28531
-6.54869
-6.01588
-3.38208
-0.255532
-0.768067
-1.28506
-1.8096
-2.34496
-2.89468
-3.46261
-4.05306
-4.67124
-5.32427
-6.02337
-6.78556
-7.61402
-8.30662
-7.15322
-0.262309
-0.788292
-1.31842
-1.8556
-2.403
-2.96418
-3.54337
-4.14622
-4.78178
-5.4682
-6.24886
-7.23966
-8.77352
-11.8791
-20.0583
-0.268133
-0.805624
-1.34685
-1.89447
-2.45143
-3.02111
-3.60763
-4.21658
-4.85692
-5.54657
-6.3283
-7.31648
-8.84136
-11.9281
-20.0768
-0.273099
-0.820349
-1.37081
-1.92682
-2.49097
-3.06628
-3.65624
-4.26503
-4.8977
-5.5609
-6.26421
-7.02045
-7.82437
-8.46162
-7.21328
-0.277329
-0.832827
-1.3909
-1.95346
-2.52272
-3.1012
-3.69171
-4.29679
-4.91717
-5.54726
-6.16324
-6.69115
-6.92296
-6.3044
-3.50117
-0.280972
-0.843499
-1.40784
-1.97543
-2.54801
-3.12771
-3.71697
-4.31784
-4.92978
-5.54331
-6.1233
-6.56732
-6.61196
-5.66417
-2.70505
-0.284203
-0.852892
-1.4225
-1.99389
-2.56829
-3.14752
-3.73409
-4.33112
-4.94118
-5.56254
-6.17763
-6.72072
-6.99001
-6.42057
-3.61096
-0.28723
-0.861627
-1.4359
-2.01021
-2.58517
-3.16215
-3.74388
-4.33524
-4.94462
-5.586
-6.28183
-7.06414
-7.95034
-8.73252
-7.5809
-0.290296
-0.87043
-1.44924
-2.02605
-2.60058
-3.17343
-3.7469
-4.32675
-4.92575
-5.57155
-6.32582
-7.33528
-8.98275
-12.3872
-21.28
-0.293672
-0.880131
-1.46395
-2.04343
-2.61711
-3.18419
-3.74539
-4.30487
-4.87427
-5.48165
-6.19246
-7.16321
-8.79485
-12.2303
-21.2156
-0.297656
-0.891648
-1.48163
-2.06478
-2.63817
-3.19897
-3.74499
-4.27599
-4.79632
-5.31983
-5.87843
-6.53205
-7.35408
-8.21922
-7.36261
-0.302551
-0.905932
-1.50402
-2.09286
-2.66792
-3.22394
-3.75493
-4.25444
-4.71603
-5.13353
-5.4983
-5.78378
-5.88323
-5.40357
-3.14047
-0.308635
-0.923872
-1.53279
-2.13047
-2.71084
-3.26622
-3.78664
-4.25911
-4.66627
-4.98372
-5.17313
-5.16458
-4.81442
-3.82632
-1.70843
-0.316124
-0.946175
-1.56935
-2.18004
-2.77106
-3.33269
-3.85157
-4.30903
-4.67871
-4.92272
-4.9853
-4.78249
-4.18852
-3.03357
-1.17839
-0.32513
-0.973235
-1.61452
-2.24323
-2.85162
-3.42878
-3.95906
-4.41982
-4.77831
-4.98759
-4.98164
-4.67193
-3.95208
-2.72702
-0.99668
-0.335626
-1.00501
-1.66839
-2.32048
-2.9538
-3.55735
-4.11475
-4.60152
-4.98144
-5.20182
-5.18879
-4.84611
-4.06638
-2.77129
-0.997599
-0.347415
-1.04092
-1.73007
-2.41072
-3.07659
-3.7179
-4.31938
-4.85732
-5.29525
-5.57802
-5.62474
-5.32366
-4.53847
-3.14785
-1.15232
-0.360118
-1.07982
-1.79761
-2.51117
-3.21636
-3.90601
-4.56803
-5.18244
-5.71667
-6.11799
-6.30206
-6.13726
-5.43088
-3.94441
-1.52166
-0.373184
-1.12002
-1.86805
-2.61738
-3.36686
-4.11323
-4.84963
-5.56312
-6.23024
-6.80868
-7.22147
-7.32678
-6.8649
-5.39106
-2.3219
-0.385917
-1.15936
-1.93755
-2.72343
-3.51945
-4.32728
-5.14702
-5.97586
-6.80522
-7.61422
-8.35421
-8.91
-9.0015
-7.94546
-4.21553
-0.397525
-1.19537
-2.00168
-2.82236
-3.66378
-4.53297
-5.43797
-6.3881
-7.39415
-8.46746
-9.61462
-10.8154
-11.9348
-12.3566
-9.3736
-0.407184
-1.22548
-2.05577
-2.90684
-3.78875
-4.71372
-5.69746
-6.76131
-7.93612
-9.26915
-10.8376
-12.7772
-15.3519
-19.132
-25.4788
68.9715
51.4914
40.9125
33.6335
28.1428
23.7383
20.0525
16.8705
14.0556
11.5139
9.17738
6.99381
4.92108
2.92358
0.969753
25.2118
32.8879
31.3447
27.971
24.4645
21.2016
18.2345
15.5361
13.0635
10.7746
8.63196
6.60282
4.65822
2.77207
0.920251
11.1376
20.6864
23.0477
22.4002
20.6169
18.4593
16.2298
14.0448
11.9437
9.9336
8.00763
6.15304
4.3547
2.59669
0.862878
5.90094
13.4759
16.8397
17.618
17.0289
15.7666
14.1939
12.4949
10.7605
9.03408
7.33366
5.66413
4.02314
2.40449
0.799901
3.59958
9.18968
12.4272
13.7851
13.9082
13.2892
12.2457
10.9694
9.57179
8.11637
6.63816
5.15533
3.67602
2.2025
0.733591
2.41557
6.53712
9.31965
10.8095
11.3029
11.1063
10.459
9.52801
8.42308
7.2144
5.94581
4.64402
3.32486
1.99727
0.666078
1.72428
4.81436
7.10971
8.52587
9.17654
9.23614
8.86932
8.20728
7.3463
6.35397
5.27644
4.14474
2.9795
1.79451
0.59923
1.28193
3.64344
5.51022
6.77369
7.46053
7.66204
7.48452
7.02459
6.36066
5.55262
4.64464
3.66869
2.64783
1.59888
0.534584
0.980103
2.81603
4.32965
5.42186
6.08148
6.35104
6.29574
5.98348
5.47503
4.82062
4.05997
3.22379
2.33565
1.41389
0.473313
0.764562
2.21243
3.44165
4.37038
4.97321
5.26557
5.28533
5.07856
4.6907
4.16234
3.52772
2.81494
2.04678
1.24195
0.416239
0.605442
1.76062
2.76229
3.54517
4.08048
4.36933
4.43218
4.29932
4.00389
3.57779
3.04972
2.4445
1.78336
1.08448
0.363861
0.485
1.41539
2.23483
2.89182
3.35886
3.62997
3.7149
3.63293
3.40776
3.06402
2.62524
2.11287
1.54612
0.942108
0.316409
0.39206
1.14719
1.82015
2.37036
2.77327
3.01986
3.11347
3.06594
2.89394
2.61622
2.25183
1.81899
1.33472
0.814786
0.273897
0.31925
0.936024
1.4907
1.95115
2.29621
2.51594
2.61003
2.58535
2.45348
2.22859
1.92592
1.5608
1.14808
0.702002
0.236178
0.261523
0.767973
1.22668
1.61204
1.90614
2.09924
2.18903
2.17917
2.07759
1.89494
1.64337
1.33564
0.9846
0.60292
0.202992
0.215316
0.633068
1.01357
1.3363
1.5862
1.75426
1.83721
1.83667
1.75798
1.60913
1.39979
1.14053
0.842386
0.516501
0.17401
0.178053
0.524025
0.840566
1.11112
1.32308
1.46836
1.54336
1.5484
1.48706
1.36532
1.19085
0.972417
0.719424
0.441609
0.148863
0.147827
0.435412
0.699491
0.926609
1.10624
1.23126
1.29806
1.30622
1.25807
1.1581
1.01243
0.828291
0.61369
0.377079
0.127174
0.123204
0.363119
0.584076
0.775071
0.927299
1.03458
1.09346
1.10312
1.06504
0.982608
0.860698
0.705312
0.523235
0.321775
0.108569
0.103087
0.303989
0.489459
0.650445
0.779569
0.871486
0.923033
0.933173
0.902812
0.834516
0.732207
0.600861
0.446232
0.274624
0.092695
0.0866305
0.25557
0.411839
0.547939
0.657666
0.73642
0.781347
0.791337
0.766912
0.710033
0.623872
0.51257
0.381015
0.234635
0.079223
0.0731741
0.215947
0.348222
0.46374
0.557265
0.624837
0.663913
0.673389
0.653539
0.605877
0.532987
0.438337
0.326088
0.200917
0.0678566
0.0621999