/*--------------------------------*- C++ -*----------------------------------*\
| =========                 |                                                 |
| \\      /  F ield         | OpenFOAM: The Open Source CFD Toolbox           |
|  \\    /   O peration     | Version:  5.x                                   |
|   \\  /    A nd           | Web:      www.OpenFOAM.org                      |
|    \\/     M anipulation  |                                                 |
\*---------------------------------------------------------------------------*/
FoamFile
{
    version     2.0;
    format      ascii;
    class       volScalarField;
    location    "1.4";
    object      gradTx;
}
// * * * * * * * * * * * * * * * * * * * * * * * * * * * * * * * * * * * * * //

dimensions      [0 -1 0 1 0 0 0];

internalField   nonuniform List<scalar> 
2048
(
-0.000779147
-0.00218612
-0.00312522
-0.00328081
-0.00233609
3.20432e-05
0.00412295
0.0102011
0.0184781
0.0290949
0.0421096
0.0574909
0.075111
0.0947372
0.116017
0.138461
0.161425
0.184107
0.205564
0.224757
0.24064
0.252271
0.258937
0.26026
0.256262
0.247357
0.234292
0.218031
0.199623
0.18009
0.160333
0.141081
0.122871
0.10606
0.0908459
0.0773025
0.0654092
0.0550824
0.0461995
0.0386178
0.0321886
0.0267658
0.022212
0.0184021
0.0152241
0.0125797
0.0103839
0.00856332
0.00705586
0.00580876
0.00477764
0.00392524
0.0032204
0.00263707
0.00215349
0.00175151
0.00141596
0.00113411
0.000895301
0.000690449
0.000511749
0.000352342
0.00020617
6.78426e-05
-0.00242978
-0.00684597
-0.00988657
-0.0106121
-0.0080804
-0.00132852
0.0105454
0.0283397
0.052693
0.0840311
0.122532
0.168109
0.220392
0.278704
0.342019
0.408901
0.477454
0.545291
0.60958
0.667186
0.71492
0.749895
0.769913
0.773809
0.761643
0.734702
0.695282
0.646338
0.591075
0.532585
0.473575
0.416214
0.362085
0.312222
0.267186
0.227164
0.192073
0.161646
0.135503
0.113213
0.0943267
0.0784087
0.0650501
0.0538793
0.0445654
0.0368184
0.0303873
0.0250568
0.0206439
0.0169938
0.0139763
0.0114821
0.00941994
0.00771341
0.00629881
0.00512298
0.00414147
0.00331711
0.00261863
0.00201952
0.00149694
0.00103065
0.000602692
0.000198092
-0.00435033
-0.0123366
-0.0180976
-0.0200913
-0.0167601
-0.00649987
0.0122115
0.0407278
0.0801339
0.131153
0.194093
0.268826
0.354769
0.450853
0.55545
0.666265
0.780217
0.893377
1.001
1.09775
1.17813
1.23709
1.27076
1.27707
1.25612
1.21019
1.14333
1.06071
0.967865
0.870073
0.771884
0.67688
0.587621
0.505726
0.432028
0.366749
0.309676
0.260311
0.217991
0.181973
0.151505
0.125859
0.104362
0.086402
0.0714397
0.0590028
0.0486842
0.0401355
0.0330612
0.0272116
0.0223772
0.0183821
0.0150796
0.012347
0.0100823
0.00819994
0.00662882
0.00530931
0.00419136
0.00323258
0.00239644
0.00165039
0.000964088
0.00031609
-0.00669488
-0.0191228
-0.0285447
-0.0328434
-0.0298467
-0.017285
0.00702707
0.0450483
0.0983504
0.167978
0.254379
0.357396
0.476267
0.6096
0.755265
0.910222
1.07031
1.23009
1.38285
1.52084
1.63593
1.7205
1.76866
1.7772
1.74628
1.6794
1.58273
1.46406
1.33162
1.1931
1.05496
0.92219
0.798213
0.685111
0.583849
0.494562
0.416812
0.349797
0.292516
0.243893
0.202851
0.168369
0.139509
0.115431
0.0953936
0.0787534
0.0649579
0.0535361
0.0440891
0.0362812
0.0298306
0.0245017
0.0200977
0.0164546
0.0134357
0.0109269
0.00883316
0.00707483
0.00558515
0.00430761
0.00319379
0.00220072
0.00128457
0.000419953
-0.00956263
-0.0275107
-0.0417619
-0.0496569
-0.0484035
-0.0350239
-0.00659621
0.0395229
0.105455
0.192594
0.301532
0.432079
0.583322
0.753624
0.940486
1.14029
1.34794
1.55656
1.75738
1.93995
2.09303
2.20585
2.26988
2.28046
2.23779
2.14696
2.01685
1.85851
1.68335
1.50178
1.3223
1.15123
0.992737
0.849177
0.721468
0.6095
0.512483
0.429219
0.358314
0.298315
0.247806
0.205467
0.170099
0.140638
0.116153
0.0958428
0.0790201
0.0651027
0.0535991
0.0440964
0.0362493
0.0297691
0.0244153
0.0199878
0.0163197
0.0132719
0.0107286
0.00859301
0.00678377
0.00523206
0.00387932
0.00267478
0.00156049
0.000508696
-0.0130053
-0.0376672
-0.0580622
-0.0710311
-0.0731544
-0.0606825
-0.0298498
0.0227893
0.0999936
0.203539
0.334139
0.491541
0.674692
0.881793
1.11015
1.35578
1.6129
1.87331
2.12611
2.35784
2.55348
2.69824
2.78015
2.79256
2.73572
2.61683
2.44836
2.24547
2.02344
1.79577
1.57311
1.363
1.17014
0.996919
0.84398
0.710778
0.596025
0.49803
0.414934
0.344873
0.286076
0.236916
0.195938
0.161867
0.133593
0.11017
0.0907886
0.0747687
0.0615369
0.0506133
0.0415973
0.0341551
0.0280088
0.0229274
0.0187185
0.0152222
0.012305
0.00985566
0.00778082
0.00600107
0.00444938
0.00306972
0.00179013
0.000581881
-0.0170319
-0.0496339
-0.0775603
-0.0972115
-0.104534
-0.0949209
-0.0636129
-0.00619461
0.0808519
0.199712
0.35116
0.534803
0.749421
0.993139
1.26328
1.55581
1.86456
2.18026
2.48989
2.7766
3.02075
3.2024
3.30493
3.31893
3.24474
3.09243
2.87925
2.62567
2.35169
2.0743
1.80634
1.5564
1.32942
1.12749
0.950711
0.797881
0.667062
0.55596
0.462191
0.383445
0.31758
0.262665
0.216999
0.179103
0.147708
0.121734
0.100266
0.0825389
0.067908
0.0558373
0.0458799
0.0376644
0.0308821
0.0252768
0.0206353
0.0167803
0.0135643
0.0108645
0.00857764
0.00661568
0.00490473
0.00338584
0.00197352
0.000639546
-0.021612
-0.0633366
-0.10019
-0.128215
-0.142723
-0.138145
-0.10852
-0.0482294
0.0471742
0.180304
0.351881
0.561211
0.806827
1.08686
1.39891
1.73929
2.10189
2.47677
2.84891
3.19767
3.49786
3.72282
3.84963
3.86499
3.76933
3.57673
3.3109
2.99916
2.66726
2.33612
2.02069
1.73028
1.46964
1.24021
1.04121
0.870545
0.725469
0.602984
0.500124
0.414108
0.342416
0.28282
0.233385
0.192445
0.158587
0.130614
0.107523
0.088473
0.0727635
0.0598117
0.0491335
0.0403276
0.0330609
0.0270573
0.0220874
0.0179605
0.0145181
0.0116287
0.00918145
0.00708137
0.0052494
0.00362569
0.00211195
0.00068211
-0.0266781
-0.0785936
-0.125714
-0.163845
-0.187676
-0.190544
-0.16502
-0.103943
-0.00170239
0.144756
0.335891
0.570435
0.846522
1.16236
1.5161
1.90494
2.32345
2.76158
3.2026
3.62186
3.98744
4.26396
4.41985
4.43634
4.31391
4.07231
3.74401
3.36527
2.96875
2.57959
2.21462
1.8834
1.58995
1.33456
1.11523
0.928728
0.771341
0.639281
0.528956
0.4371
0.360821
0.297605
0.2453
0.202075
0.166389
0.136949
0.112677
0.0926716
0.0761882
0.0626077
0.0514176
0.042194
0.0345859
0.0283025
0.0231025
0.0187854
0.0151848
0.0121629
0.00960373
0.00740689
0.00548977
0.00379342
0.0022076
0.000710277
-0.0321292
-0.0951225
-0.153739
-0.203704
-0.239132
-0.252123
-0.233419
-0.173857
-0.0663108
0.0927092
0.303059
0.562474
0.868428
1.21924
1.61401
2.05138
2.52742
3.0328
3.54968
4.04927
4.49169
4.83028
5.02158
5.03895
4.88294
4.58132
4.17864
3.72262
3.25412
2.80266
2.38647
2.01459
1.68964
1.41023
1.17275
0.972607
0.804976
0.66521
0.549066
0.452794
0.373143
0.307336
0.253025
0.208237
0.171326
0.14092
0.11588
0.0952637
0.0782903
0.0643156
0.0528073
0.043326
0.0355086
0.0290548
0.0237154
0.0192833
0.0155873
0.0124855
0.00985885
0.00760317
0.00563384
0.00389424
0.00226329
0.000724978
-0.0378335
-0.112549
-0.183716
-0.2472
-0.296629
-0.322719
-0.313931
-0.258446
-0.147116
0.0239693
0.253533
0.537666
0.872805
1.25741
1.69191
2.17715
2.71166
3.28796
3.88803
4.47919
5.01235
5.42636
5.6614
5.6794
5.481
5.10551
4.61404
4.06901
3.52074
3.00297
2.53444
2.1227
1.76814
1.46709
1.21396
1.00256
0.826846
0.681277
0.560955
0.461661
0.379811
0.312394
0.256893
0.21122
0.173644
0.142735
0.11731
0.0963964
0.0791926
0.0650376
0.0533873
0.0437936
0.0358869
0.0293617
0.0239648
0.019486
0.0157511
0.0126169
0.0099629
0.00768248
0.00569062
0.00393409
0.0022823
0.000727352
-0.0436328
-0.130417
-0.21496
-0.293553
-0.359496
-0.402009
-0.406708
-0.35821
-0.244584
-0.0615274
0.187733
0.496712
0.860282
1.27706
1.74927
2.28078
2.87376
3.52395
4.21464
4.90997
5.55059
6.05698
6.34669
6.36509
6.11286
5.64607
5.04857
4.40141
3.76543
3.17791
2.65676
2.20678
1.82514
1.50528
1.23927
1.01914
0.837576
0.688111
0.56522
0.464247
0.381312
0.313203
0.257272
0.211337
0.173609
0.142616
0.117152
0.0962263
0.0790254
0.0648818
0.0532472
0.0436708
0.0357815
0.0292731
0.0238918
0.0194265
0.0157031
0.0125785
0.00993274
0.00765769
0.00566964
0.00391929
0.00226832
0.000718773
-0.0493484
-0.148202
-0.246657
-0.341794
-0.426856
-0.489512
-0.511874
-0.47374
-0.359246
-0.163746
0.106358
0.440682
0.83187
1.27873
1.78581
2.36091
3.01111
3.73715
4.52558
5.33889
6.10688
6.72709
7.086
7.10455
6.78351
6.20346
5.47952
4.71585
3.98447
3.32471
2.75176
2.26607
1.86057
1.52516
1.24929
1.02309
0.837919
0.686437
0.562526
0.461146
0.378166
0.310216
0.254545
0.208914
0.171494
0.140795
0.1156
0.0949128
0.077921
0.0639578
0.0524774
0.043032
0.0352538
0.0288393
0.0235372
0.0191384
0.0154703
0.012392
0.00978536
0.0075418
0.00558063
0.00385646
0.00222541
0.000700872
-0.0547878
-0.165331
-0.277888
-0.390778
-0.497604
-0.584568
-0.629545
-0.605799
-0.491789
-0.28258
0.0103926
0.371037
0.788977
1.26331
1.80154
2.41632
3.12104
3.92343
4.81593
5.76192
6.68069
7.44185
7.88929
7.90779
7.49815
6.77723
5.9029
5.00746
4.17371
3.44058
2.81795
2.30012
1.87464
1.52736
1.24484
1.01527
0.828728
0.677045
0.553584
0.452981
0.370912
0.303889
0.249102
0.204276
0.167573
0.137499
0.112841
0.0926129
0.0760092
0.0623728
0.0511664
0.0419503
0.0343637
0.0281094
0.0229412
0.0186542
0.0150789
0.0120782
0.0095373
0.00734751
0.00543328
0.00375234
0.00215798
0.000675542
-0.059753
-0.181201
-0.307648
-0.439191
-0.570393
-0.686309
-0.75984
-0.755414
-0.643141
-0.417867
-0.0988628
0.289634
0.733393
1.23207
1.7968
2.44608
3.20093
4.07829
5.0798
6.17355
7.27023
8.20656
8.76845
8.78668
8.26209
7.36564
6.31329
5.2704
4.3287
3.52284
2.85418
2.30881
1.86788
1.51273
1.2269
0.996677
0.810932
0.660773
0.539128
0.440386
0.360087
0.294679
0.241322
0.197743
0.16211
0.132947
0.109059
0.0894771
0.0734144
0.0602293
0.0493986
0.0404949
0.033168
0.0271299
0.0221419
0.0180047
0.0145539
0.0116572
0.00920434
0.00708697
0.00523699
0.00361373
0.00207069
0.000644858
-0.0640501
-0.195208
-0.334887
-0.485569
-0.643617
-0.793607
-0.902871
-0.923977
-0.814584
-0.569391
-0.219762
0.198736
0.667267
1.18658
1.77231
2.44959
3.24839
4.19707
5.31036
6.56654
7.87196
9.02643
9.7378
9.75557
9.08064
7.96525
6.70354
5.49796
4.44483
3.56907
2.8597
2.29245
1.84116
1.48236
1.19661
0.968387
0.785507
0.638475
0.519893
0.423984
0.346217
0.283023
0.231573
0.189618
0.155358
0.127348
0.104424
0.0856472
0.0702533
0.0576235
0.0472531
0.0387308
0.0317201
0.0259444
0.0211746
0.0172188
0.0139184
0.0111475
0.00880126
0.00677163
0.00500079
0.00344739
0.00196828
0.000610911
-0.0674994
-0.206775
-0.358541
-0.528326
-0.715386
-0.905001
-1.05871
-1.11338
-1.00788
-0.736862
-0.350256
0.101006
0.593065
1.12875
1.7291
2.42671
3.2614
4.27509
5.49997
6.93174
8.48009
9.90634
10.8148
10.832
9.95869
8.57034
7.06464
5.68264
4.51756
3.57734
2.83426
2.25175
1.79562
1.43754
1.15522
0.931537
0.753448
0.611005
0.4966
0.404379
0.329806
0.26934
0.2202
0.180186
0.14755
0.120895
0.0990971
0.0812537
0.0666334
0.0546435
0.0448023
0.0367174
0.0300686
0.0245928
0.0200719
0.0163229
0.0131938
0.0105662
0.00834169
0.00641203
0.0047331
0.00325987
0.00185521
0.000575523
-0.069945
-0.215384
-0.377585
-0.565795
-0.783521
-1.0186
-1.22733
-1.32615
-1.22545
-0.919857
-0.487819
-0.000507158
0.513494
1.06067
1.66857
2.37773
3.23846
4.30797
5.64043
7.25797
9.08582
10.8502
12.0211
12.0374
10.9003
9.17223
7.38553
5.8164
4.54268
3.54628
2.7782
2.18785
1.7327
1.3797
1.10404
0.88729
0.715748
0.579196
0.469942
0.382145
0.311325
0.254017
0.20752
0.169709
0.138903
0.113764
0.0932216
0.0764157
0.0626522
0.0513695
0.0421118
0.0345086
0.0282576
0.023111
0.0188631
0.0153407
0.0123992
0.00992863
0.00783802
0.00601786
0.00444163
0.00305735
0.00173531
0.000539921
-0.0712644
-0.220603
-0.391083
-0.596283
-0.845548
-1.13199
-1.40845
-1.5657
-1.47054
-1.1177
-0.629351
-0.102398
0.431415
0.984596
1.5924
2.30351
3.1788
4.2919
5.72323
7.53194
9.67659
11.8602
13.3834
13.3989
11.9076
9.75847
7.6531
5.89091
4.51658
3.47531
2.69248
2.10232
1.65406
1.31042
1.04446
0.836808
0.673374
0.543846
0.440574
0.357816
0.291211
0.237412
0.193826
0.158424
0.12961
0.106115
0.0869281
0.0712397
0.058397
0.0478728
0.0392402
0.0321522
0.0263263
0.0215311
0.0175743
0.0142934
0.0115518
0.00924856
0.00730138
0.00559785
0.00413314
0.00284536
0.00161137
0.00050444
-0.0713753
-0.222115
-0.398242
-0.618145
-0.898728
-1.24204
-1.60136
-1.83649
-1.7475
-1.3293
-0.771069
-0.200958
0.349732
0.90283
1.50248
2.2054
3.08245
4.22393
5.74005
7.73844
10.2351
12.9354
14.9355
14.95
12.9797
10.3119
7.85226
5.89807
4.43657
3.36474
2.57866
1.99708
1.56158
1.23132
0.977858
0.781227
0.627251
0.505704
0.409101
0.331882
0.26986
0.219846
0.179378
0.146545
0.119844
0.0980881
0.0803319
0.0658199
0.0539448
0.0442167
0.0362392
0.0296906
0.0243093
0.0198812
0.0162285
0.0131997
0.0106667
0.00853806
0.00674163
0.00515982
0.00381337
0.00262855
0.00148495
0.00046839
-0.0702415
-0.219738
-0.398461
-0.629866
-0.940112
-1.34483
-1.80463
-2.14445
-2.06213
-1.55281
-0.908378
-0.292264
0.271265
0.817611
1.4009
2.08526
2.95035
4.1023
5.68324
7.86059
10.7385
14.0694
16.72
16.7334
14.1105
10.8097
7.96632
5.83045
4.30118
3.2158
2.4389
1.87436
1.45724
1.14409
0.905577
0.721632
0.578245
0.465462
0.376076
0.304786
0.24763
0.201605
0.164409
0.134259
0.109759
0.0898084
0.073534
0.0602388
0.049363
0.0404562
0.0331537
0.0271605
0.0222367
0.018186
0.0148456
0.0120758
0.00975699
0.00780769
0.00616737
0.00471069
0.00348688
0.00241039
0.00135638
0.000430203
-0.0678745
-0.213438
-0.391382
-0.630162
-0.966637
-1.43549
-2.0156
-2.4973
-2.42203
-1.78521
-1.03576
-0.372299
0.198613
0.731019
1.2898
1.9454
2.78438
3.9267
5.54648
7.88057
11.1573
15.248
18.7913
18.8035
15.2855
11.2225
7.97762
5.68193
4.11035
3.03074
2.27591
1.73664
1.3431
1.05035
0.828916
0.659039
0.527154
0.423746
0.341995
0.276923
0.224834
0.182942
0.149122
0.12173
0.0994862
0.0813828
0.066622
0.0545675
0.0447097
0.0366384
0.0300225
0.0245936
0.0201342
0.0164665
0.0134428
0.0109358
0.00883404
0.00706651
0.00558591
0.00425656
0.00315712
0.00219313
0.00122524
0.000387922
-0.064333
-0.203331
-0.376916
-0.618083
-0.975276
-1.5081
-2.22979
-2.90514
-2.83718
-2.02169
-1.1467
-0.437126
0.134013
0.644887
1.17131
1.78849
2.58733
3.69843
5.32541
7.78052
11.455
16.4443
21.2185
21.2295
16.4782
11.5139
7.86843
5.44838
3.86569
2.81272
2.0928
1.58652
1.22121
0.9517
0.749094
0.594382
0.474699
0.381118
0.307297
0.248638
0.201746
0.164076
0.133691
0.109098
0.0891396
0.0729035
0.0596703
0.0488667
0.0400342
0.0328039
0.0268783
0.0220166
0.0180238
0.0147406
0.0120347
0.00979125
0.00790754
0.00632227
0.00500334
0.00380266
0.00282654
0.00197771
0.00109101
0.000339978
-0.0597184
-0.189675
-0.355264
-0.59311
-0.963242
-1.55567
-2.43997
-3.38108
-3.3206
-2.2547
-1.23365
-0.483108
0.0792112
0.56073
1.04753
1.61743
2.36281
3.42051
5.01827
7.5439
11.5876
17.6132
24.0903
24.1002
17.6434
11.6401
7.62236
5.12824
3.5705
2.56574
1.89301
1.42667
1.09358
0.849632
0.667228
0.528505
0.421523
0.338072
0.272365
0.22023
0.178603
0.145193
0.118265
0.096484
0.0788154
0.0644482
0.052742
0.0431876
0.0353781
0.0289864
0.0237488
0.0194522
0.0159239
0.0130233
0.0106334
0.00865225
0.00698563
0.00558157
0.00442456
0.00335343
0.00249687
0.00176409
0.000954004
0.000286091
-0.0541682
-0.172858
-0.326913
-0.55524
-0.928241
-1.57029
-2.63496
-3.9421
-3.88918
-2.47278
-1.28819
-0.507174
0.0353531
0.479701
0.920379
1.43532
2.11509
3.09765
4.62649
7.15714
11.5049
18.6834
27.5205
27.5291
18.7098
11.551
7.22598
4.72311
3.22977
2.29446
1.68013
1.25973
0.962116
0.745524
0.584326
0.462155
0.368186
0.295033
0.237526
0.191954
0.155604
0.126452
0.10297
0.0839868
0.068594
0.0560815
0.0458894
0.0375726
0.0307759
0.025214
0.0206569
0.0169189
0.0138497
0.011327
0.00924909
0.00752693
0.0060751
0.00484995
0.00385337
0.00291245
0.00216946
0.00155152
0.000816072
0.000227989
-0.0478466
-0.153362
-0.292614
-0.505041
-0.868767
-1.54338
-2.79799
-4.61008
-4.56471
-2.6589
-1.30132
-0.507126
0.00290903
0.402574
0.791613
1.24524
1.84893
2.73611
4.15499
6.61164
11.1522
19.5464
31.6543
31.6617
19.5691
11.1917
6.67078
4.23811
2.85
2.00402
1.45783
1.08823
0.828568
0.640616
0.501279
0.395983
0.31517
0.252366
0.203058
0.164025
0.132915
0.107982
0.0879098
0.0716893
0.0585413
0.0478567
0.0391553
0.0320563
0.0262557
0.0215095
0.0176211
0.0144319
0.0118136
0.00966193
0.00789001
0.00642194
0.00518145
0.00413205
0.0032926
0.00248239
0.00184575
0.00133918
0.000680802
0.000169581
-0.0409339
-0.131742
-0.253334
-0.443667
-0.784414
-1.46636
-2.90459
-5.41307
-5.37517
-2.78841
-1.26406
-0.481955
-0.0183553
0.329762
0.662772
1.05021
1.56936
2.34338
3.61236
5.90578
10.4743
20.0434
36.6772
36.6834
20.0624
10.5073
5.95525
3.68198
2.43893
1.69978
1.22963
0.914503
0.694524
0.536
0.418856
0.33054
0.262881
0.210371
0.16919
0.136617
0.110673
0.0898913
0.0731678
0.0596582
0.0487107
0.0398163
0.0325741
0.0266666
0.02184
0.0178912
0.0146564
0.0120034
0.00982553
0.00803605
0.00656275
0.0053426
0.00430909
0.00343172
0.00274428
0.00206507
0.00152756
0.00112658
0.000552915
0.000116321
-0.033615
-0.108584
-0.210197
-0.372828
-0.676171
-1.33154
-2.92001
-6.38681
-6.35626
-2.82635
-1.16842
-0.432132
-0.029351
0.26136
0.535168
0.853058
1.28141
1.92782
3.01066
5.04686
9.42169
19.9476
42.825
42.83
19.9628
9.44831
5.08678
3.06689
2.0051
1.3871
0.998884
0.740689
0.561376
0.432616
0.337709
0.266291
0.211655
0.169298
0.136107
0.109872
0.0889861
0.0722636
0.0588108
0.0479464
0.0391443
0.0319941
0.026173
0.0214252
0.0175466
0.0143736
0.0117744
0.00964283
0.00789313
0.0064557
0.00527247
0.00429304
0.00346141
0.00275212
0.00220985
0.00166137
0.00121733
0.000914042
0.000436734
7.36536e-05
-0.0260691
-0.0844743
-0.164413
-0.294695
-0.546641
-1.13363
-2.79588
-7.57652
-7.55316
-2.72424
-1.00882
-0.35983
-0.0315788
0.1972
0.409888
0.656367
0.989942
1.49817
2.36479
4.05262
7.96042
18.9428
50.3949
50.3988
18.9545
7.98078
4.08319
2.40787
1.55743
1.07112
0.768619
0.568646
0.430315
0.331252
0.258374
0.203612
0.161762
0.129345
0.103958
0.0839009
0.0679404
0.0551652
0.0448905
0.0365944
0.0298741
0.0244158
0.0199726
0.0163489
0.0133888
0.0109674
0.00898396
0.0073574
0.00602231
0.00492566
0.0040231
0.00327642
0.00264095
0.00209573
0.00169038
0.00127135
0.000918086
0.000702734
0.000334016
4.48372e-05
-0.0184602
-0.0599687
-0.117201
-0.211761
-0.400129
-0.871675
-2.46635
-9.03898
-9.02259
-2.41609
-0.784096
-0.269005
-0.0269831
0.136935
0.287804
0.462392
0.699413
1.06309
1.69166
2.9518
6.08479
16.5981
59.7601
59.7628
16.6063
6.09908
2.97325
1.72191
1.10474
0.756525
0.541495
0.399962
0.302332
0.232551
0.181285
0.142802
0.113414
0.090663
0.0728543
0.0587893
0.0476
0.0386458
0.0314454
0.0256324
0.0209241
0.0171004
0.013988
0.0114498
0.00937648
0.00768055
0.00629146
0.0051523
0.00421731
0.0034494
0.00281749
0.00229505
0.00184949
0.00146444
0.00118676
0.000894407
0.000633147
0.000494542
0.000241917
2.88541e-05
-0.0109317
-0.0355735
-0.0697236
-0.126657
-0.242521
-0.551738
-1.84348
-10.8448
-10.8352
-1.81388
-0.500152
-0.16527
-0.0177591
0.080114
0.169593
0.273042
0.413762
0.630657
1.00892
1.78333
3.83493
12.3375
71.3841
71.3857
12.3423
3.84335
1.79597
1.02675
0.655217
0.447459
0.319761
0.235942
0.178225
0.137022
0.106778
0.0840887
0.0667704
0.0533679
0.0428798
0.0345982
0.0280111
0.0227404
0.0185026
0.0150816
0.012311
0.0100609
0.00822959
0.00673616
0.00551633
0.00451854
0.00370129
0.00303108
0.00248101
0.00202929
0.00165761
0.00135052
0.00108816
0.000859501
0.000699829
0.000529487
0.000365538
0.000291646
0.000152395
1.95946e-05
-0.00360355
-0.0117327
-0.0230271
-0.0419412
-0.0808765
-0.190246
-0.812005
-13.0811
-13.0779
-0.802274
-0.173287
-0.0554779
-0.00613191
0.0262526
0.0557637
0.0898662
0.136299
0.208019
0.333644
0.59377
1.31879
5.40585
85.8379
85.8384
5.40744
1.32156
0.597924
0.339507
0.216097
0.147385
0.105244
0.0776191
0.0586129
0.0450523
0.0351023
0.02764
0.0219455
0.0175392
0.0140915
0.0113695
0.0092045
0.00747234
0.00607968
0.00495551
0.00404507
0.00330573
0.00270397
0.00221327
0.00181246
0.00148461
0.00121609
0.000995881
0.000815144
0.000666745
0.00054465
0.000443858
0.000357606
0.000281608
0.000230509
0.000175402
0.000117258
9.61599e-05
5.47833e-05
7.86659e-06
)
;

boundaryField
{
    left
    {
        type            calculated;
        value           uniform 0;
    }
    right
    {
        type            calculated;
        value           uniform 0;
    }
    interface
    {
        type            calculated;
        value           nonuniform List<scalar> 
64
(
-0.00360355
-0.0117327
-0.0230271
-0.0419412
-0.0808765
-0.190246
-0.812005
-13.0811
-13.0779
-0.802274
-0.173287
-0.0554779
-0.00613191
0.0262526
0.0557637
0.0898662
0.136299
0.208019
0.333644
0.59377
1.31879
5.40585
85.8379
85.8384
5.40744
1.32156
0.597924
0.339507
0.216097
0.147385
0.105244
0.0776191
0.0586129
0.0450523
0.0351023
0.02764
0.0219455
0.0175392
0.0140915
0.0113695
0.0092045
0.00747234
0.00607968
0.00495551
0.00404507
0.00330573
0.00270397
0.00221327
0.00181246
0.00148461
0.00121609
0.000995881
0.000815144
0.000666745
0.00054465
0.000443858
0.000357606
0.000281608
0.000230509
0.000175402
0.000117258
9.61599e-05
5.47833e-05
7.86659e-06
)
;
    }
    bottom
    {
        type            calculated;
        value           nonuniform List<scalar> 
64
(
-0.000779147
-0.00218612
-0.00312522
-0.00328081
-0.00233609
3.20432e-05
0.00412295
0.0102011
0.0184781
0.0290949
0.0421096
0.0574909
0.075111
0.0947372
0.116017
0.138461
0.161425
0.184107
0.205564
0.224757
0.24064
0.252271
0.258937
0.26026
0.256262
0.247357
0.234292
0.218031
0.199623
0.18009
0.160333
0.141081
0.122871
0.10606
0.0908459
0.0773025
0.0654092
0.0550824
0.0461995
0.0386178
0.0321886
0.0267658
0.022212
0.0184021
0.0152241
0.0125797
0.0103839
0.00856332
0.00705586
0.00580876
0.00477764
0.00392524
0.0032204
0.00263707
0.00215349
0.00175151
0.00141596
0.00113411
0.000895301
0.000690449
0.000511749
0.000352342
0.00020617
6.78426e-05
)
;
    }
    defaultFaces
    {
        type            empty;
    }
}


// ************************************************************************* //
