/*--------------------------------*- C++ -*----------------------------------*\
| =========                 |                                                 |
| \\      /  F ield         | OpenFOAM: The Open Source CFD Toolbox           |
|  \\    /   O peration     | Version:  5.x                                   |
|   \\  /    A nd           | Web:      www.OpenFOAM.org                      |
|    \\/     M anipulation  |                                                 |
\*---------------------------------------------------------------------------*/
FoamFile
{
    version     2.0;
    format      ascii;
    class       volScalarField;
    location    "1.4";
    object      gradTy;
}
// * * * * * * * * * * * * * * * * * * * * * * * * * * * * * * * * * * * * * //

dimensions      [0 -1 0 1 0 0 0];

internalField   nonuniform List<scalar> 
2048
(
-16.4148
-16.4183
-16.4248
-16.4327
-16.44
-16.4441
-16.4415
-16.428
-16.3991
-16.3498
-16.2748
-16.1688
-16.0268
-15.8439
-15.6162
-15.3403
-15.0144
-14.6379
-14.2124
-13.7417
-13.2317
-12.691
-12.1298
-11.5598
-10.9929
-10.4406
-9.91307
-9.41851
-8.96271
-8.54915
-8.17914
-7.85219
-7.56643
-7.31901
-7.10656
-6.92539
-6.77182
-6.64231
-6.53355
-6.44255
-6.36663
-6.30346
-6.251
-6.20752
-6.17154
-6.14179
-6.11723
-6.09697
-6.08027
-6.06652
-6.0552
-6.0459
-6.03826
-6.032
-6.02689
-6.02271
-6.01933
-6.0166
-6.01443
-6.01274
-6.01145
-6.01053
-6.00993
-6.00964
-16.4113
-16.4154
-16.4229
-16.4325
-16.4421
-16.449
-16.4496
-16.4399
-16.415
-16.3699
-16.2992
-16.1973
-16.0591
-15.8796
-15.6544
-15.3802
-15.0546
-14.6768
-14.2483
-13.7726
-13.2559
-12.7068
-12.1362
-11.5564
-10.9802
-10.4197
-9.88558
-9.38628
-8.92766
-8.51303
-8.14341
-7.81796
-7.53448
-7.28981
-7.0803
-6.90211
-6.75141
-6.62457
-6.51823
-6.42939
-6.35536
-6.29383
-6.24278
-6.2005
-6.16553
-6.13663
-6.11279
-6.09312
-6.07692
-6.06358
-6.05261
-6.04359
-6.03618
-6.03011
-6.02515
-6.02111
-6.01783
-6.01519
-6.01308
-6.01144
-6.0102
-6.0093
-6.00872
-6.00844
-16.4044
-16.4095
-16.419
-16.4317
-16.4455
-16.4577
-16.4647
-16.4621
-16.445
-16.408
-16.3454
-16.2515
-16.1207
-15.9476
-15.7275
-15.4565
-15.1317
-14.7518
-14.3177
-13.8325
-13.3027
-12.7374
-12.1486
-11.5498
-10.9554
-10.379
-9.83218
-9.3239
-8.86006
-8.4436
-8.07497
-7.75263
-7.47368
-7.23439
-7.03062
-6.85816
-6.71295
-6.59118
-6.48944
-6.40468
-6.33422
-6.27578
-6.22737
-6.18734
-6.15427
-6.12697
-6.10447
-6.08592
-6.07064
-6.05807
-6.04774
-6.03924
-6.03228
-6.02656
-6.02189
-6.01809
-6.015
-6.01252
-6.01054
-6.00899
-6.00782
-6.00698
-6.00643
-6.00617
-16.3937
-16.4002
-16.4126
-16.4297
-16.4495
-16.4692
-16.4851
-16.4928
-16.4869
-16.4616
-16.4108
-16.3284
-16.2082
-16.0445
-15.8321
-15.5661
-15.243
-14.8605
-14.4186
-13.9201
-13.3713
-12.7823
-12.1665
-11.5398
-10.9187
-10.3189
-9.75378
-9.23281
-8.76191
-8.34339
-7.97674
-7.65935
-7.3873
-7.156
-6.96062
-6.79646
-6.6591
-6.54457
-6.44933
-6.37031
-6.30486
-6.25073
-6.20601
-6.16911
-6.13867
-6.11359
-6.09293
-6.07593
-6.06194
-6.05043
-6.04097
-6.03321
-6.02684
-6.02162
-6.01735
-6.01387
-6.01105
-6.00878
-6.00698
-6.00557
-6.0045
-6.00372
-6.00322
-6.00298
-16.3788
-16.3871
-16.403
-16.4255
-16.4528
-16.482
-16.5095
-16.5303
-16.5387
-16.5285
-16.4929
-16.4252
-16.3189
-16.1676
-15.9654
-15.7066
-15.3864
-15.0013
-14.5502
-14.0349
-13.4618
-12.8416
-12.1901
-11.526
-10.8694
-10.2391
-9.65023
-9.11342
-8.63426
-8.21408
-7.85094
-7.54074
-7.2782
-7.05757
-6.87319
-6.71973
-6.59241
-6.48702
-6.39995
-6.32809
-6.26885
-6.22006
-6.17988
-6.14681
-6.11961
-6.09723
-6.07883
-6.06371
-6.05127
-6.04106
-6.03267
-6.02579
-6.02015
-6.01552
-6.01175
-6.00867
-6.00617
-6.00416
-6.00256
-6.00131
-6.00036
-5.99968
-5.99924
-5.99903
-16.3595
-16.3697
-16.3896
-16.4185
-16.4545
-16.495
-16.5362
-16.5728
-16.5987
-16.6067
-16.5895
-16.5397
-16.4503
-16.3143
-16.1251
-15.8759
-15.5605
-15.1737
-14.7126
-14.1777
-13.5748
-12.9159
-12.2192
-11.5078
-10.8065
-10.1381
-9.52059
-8.96536
-8.47751
-8.05683
-7.69939
-7.39911
-7.14895
-6.9418
-6.77098
-6.63053
-6.51523
-6.42069
-6.3432
-6.27971
-6.22768
-6.18503
-6.15006
-6.12139
-6.09788
-6.07858
-6.06275
-6.04976
-6.0391
-6.03035
-6.02317
-6.01728
-6.01246
-6.00851
-6.00528
-6.00266
-6.00052
-5.99881
-5.99744
-5.99638
-5.99557
-5.99498
-5.9946
-5.99442
-16.3352
-16.3475
-16.3718
-16.4075
-16.4533
-16.5066
-16.5637
-16.6189
-16.6651
-16.6945
-16.6987
-16.6697
-16.6001
-16.4824
-16.309
-16.0723
-15.7642
-15.3773
-14.9063
-14.3496
-13.7119
-13.0062
-12.2543
-11.4847
-10.7286
-10.0143
-9.3632
-8.78764
-8.29158
-7.87246
-7.52367
-7.23655
-7.00197
-6.81123
-6.65655
-6.53127
-6.4298
-6.34758
-6.28089
-6.22673
-6.18268
-6.14682
-6.11758
-6.09372
-6.07422
-6.05827
-6.04523
-6.03455
-6.0258
-6.01863
-6.01276
-6.00794
-6.00401
-6.00078
-5.99815
-5.99601
-5.99427
-5.99287
-5.99175
-5.99088
-5.99022
-5.98975
-5.98943
-5.98929
-16.3057
-16.3201
-16.3488
-16.3918
-16.4481
-16.5157
-16.5906
-16.6669
-16.7364
-16.7901
-16.8187
-16.8134
-16.7663
-16.6696
-16.5152
-16.2942
-15.9966
-15.6123
-15.1325
-14.5526
-13.8754
-13.1145
-12.296
-11.4556
-10.6333
-9.86491
-9.17575
-8.57883
-8.07609
-7.66164
-7.32525
-7.05513
-6.83964
-6.66834
-6.53231
-6.42422
-6.3382
-6.26956
-6.21464
-6.17057
-6.13511
-6.10648
-6.08332
-6.06454
-6.04928
-6.03686
-6.02674
-6.01848
-6.01173
-6.00621
-6.0017
-5.99801
-5.99499
-5.99252
-5.99051
-5.98887
-5.98754
-5.98647
-5.98561
-5.98495
-5.98444
-5.98408
-5.98384
-5.98373
-16.2709
-16.2872
-16.3203
-16.3706
-16.4379
-16.5207
-16.6154
-16.7154
-16.8113
-16.8924
-16.9481
-16.9689
-16.9467
-16.8738
-16.7415
-16.5399
-16.2568
-15.8787
-15.3926
-14.7892
-14.0681
-13.2431
-12.3449
-11.4194
-10.5181
-9.68668
-8.95537
-8.33714
-7.83056
-7.42504
-7.10572
-6.85696
-6.66434
-6.51555
-6.40058
-6.31155
-6.24236
-6.18833
-6.14594
-6.11252
-6.08603
-6.06495
-6.04808
-6.03455
-6.02365
-6.01484
-6.0077
-6.00191
-5.99719
-5.99336
-5.99023
-5.98767
-5.98559
-5.98389
-5.9825
-5.98137
-5.98046
-5.97972
-5.97913
-5.97867
-5.97832
-5.97808
-5.97791
-5.97784
-16.2306
-16.2487
-16.2858
-16.3431
-16.4215
-16.5205
-16.6368
-16.7632
-16.8886
-17.0002
-17.0857
-17.1348
-17.1396
-17.0927
-16.9857
-16.8075
-16.5437
-16.1768
-15.6883
-15.0625
-14.2939
-13.3951
-12.4024
-11.3746
-10.3795
-9.47548
-8.69861
-8.06053
-7.55452
-7.16351
-6.8668
-6.64427
-6.47847
-6.35525
-6.26362
-6.19528
-6.14406
-6.10544
-6.07612
-6.0537
-6.03643
-6.02302
-6.01255
-6.00431
-5.99779
-5.9926
-5.98846
-5.98513
-5.98245
-5.98029
-5.97854
-5.97712
-5.97596
-5.97502
-5.97425
-5.97363
-5.97313
-5.97272
-5.9724
-5.97214
-5.97195
-5.97182
-5.97172
-5.9717
-16.1851
-16.2047
-16.2451
-16.3088
-16.398
-16.5137
-16.6533
-16.8089
-16.9674
-17.1127
-17.2303
-17.3095
-17.3428
-17.324
-17.2452
-17.0947
-16.8559
-16.5065
-16.0213
-15.3761
-14.5575
-13.5746
-12.47
-11.3193
-10.2129
-9.22633
-8.40153
-7.74689
-7.24768
-6.87816
-6.61047
-6.41945
-6.28452
-6.18981
-6.12357
-6.07729
-6.04494
-6.02227
-6.00634
-5.99509
-5.9871
-5.9814
-5.97729
-5.97431
-5.97212
-5.97051
-5.96931
-5.96841
-5.96773
-5.9672
-5.9668
-5.96648
-5.96623
-5.96603
-5.96588
-5.96575
-5.96564
-5.96556
-5.96549
-5.96544
-5.9654
-5.96538
-5.96536
-5.96537
-16.1347
-16.1552
-16.1981
-16.2672
-16.3664
-16.4989
-16.6634
-16.8515
-17.0469
-17.2294
-17.3814
-17.4918
-17.5545
-17.5652
-17.5173
-17.399
-17.1914
-16.8675
-16.3935
-15.7342
-14.8646
-13.787
-12.5498
-11.2512
-10.013
-8.93324
-8.05974
-7.39418
-6.91009
-6.57048
-6.33901
-6.18507
-6.08502
-6.02156
-5.98247
-5.95933
-5.94645
-5.94005
-5.93762
-5.93753
-5.93876
-5.94064
-5.94278
-5.94494
-5.94699
-5.94885
-5.9505
-5.95195
-5.95319
-5.95424
-5.95514
-5.95589
-5.95651
-5.95703
-5.95746
-5.9578
-5.95808
-5.95831
-5.95849
-5.95863
-5.95874
-5.95883
-5.95888
-5.95893
-16.08
-16.1007
-16.1449
-16.2177
-16.3257
-16.4747
-16.6656
-16.8897
-17.1267
-17.3502
-17.5385
-17.6806
-17.7728
-17.8138
-17.7991
-17.7175
-17.5481
-17.2587
-16.8062
-16.1413
-15.222
-14.0388
-12.6446
-11.1673
-9.77287
-8.58911
-7.66847
-7.00056
-6.54229
-6.24247
-6.05507
-5.94389
-5.88254
-5.85273
-5.8422
-5.84296
-5.84989
-5.85981
-5.87079
-5.88171
-5.89196
-5.90123
-5.90942
-5.91653
-5.92264
-5.92784
-5.93222
-5.9359
-5.93898
-5.94155
-5.94368
-5.94544
-5.94689
-5.94809
-5.94907
-5.94987
-5.95052
-5.95104
-5.95145
-5.95178
-5.95203
-5.95222
-5.95234
-5.95242
-16.0216
-16.0418
-16.0857
-16.1604
-16.2751
-16.4396
-16.6581
-16.9224
-17.2067
-17.4754
-17.7016
-17.8751
-17.9959
-18.0671
-18.0874
-18.0466
-17.9228
-17.6788
-17.2607
-16.602
-15.6379
-14.3388
-12.7584
-11.0634
-9.48367
-8.18567
-7.22277
-6.56468
-6.1455
-5.89668
-5.76164
-5.69879
-5.67962
-5.68546
-5.70453
-5.72959
-5.75637
-5.78245
-5.80658
-5.82819
-5.84714
-5.86351
-5.87749
-5.88933
-5.89929
-5.90764
-5.91461
-5.92041
-5.92522
-5.9292
-5.9325
-5.93521
-5.93745
-5.93928
-5.94078
-5.942
-5.94299
-5.94379
-5.94443
-5.94493
-5.94531
-5.9456
-5.94579
-5.9459
-15.9603
-15.9791
-16.021
-16.0949
-16.2137
-16.3919
-16.6391
-16.9484
-17.287
-17.6058
-17.8711
-18.0744
-18.2219
-18.3224
-18.3786
-18.3828
-18.3122
-18.1252
-17.7573
-17.1212
-16.1217
-14.6978
-12.8965
-10.9342
-9.13439
-7.71332
-6.7177
-6.0859
-5.72173
-5.53627
-5.46204
-5.45278
-5.47877
-5.52177
-5.571
-5.62041
-5.66679
-5.70866
-5.74551
-5.7774
-5.80466
-5.82776
-5.84721
-5.8635
-5.87709
-5.8884
-5.89779
-5.90556
-5.91198
-5.91729
-5.92166
-5.92527
-5.92823
-5.93065
-5.93264
-5.93425
-5.93556
-5.93662
-5.93746
-5.93812
-5.93863
-5.939
-5.93926
-5.93939
-15.8971
-15.9135
-15.9514
-16.0216
-16.1408
-16.3299
-16.6061
-16.9662
-17.3684
-17.7429
-18.0476
-18.278
-18.4491
-18.5769
-18.6694
-18.7218
-18.7119
-18.5948
-18.2953
-17.7031
-16.6841
-15.1297
-13.0661
-10.7724
-8.71108
-7.16119
-6.14867
-5.56461
-5.27395
-5.16501
-5.15984
-5.20886
-5.28236
-5.36344
-5.44298
-5.51643
-5.58192
-5.63901
-5.68802
-5.72965
-5.76475
-5.79417
-5.81873
-5.83917
-5.85614
-5.87019
-5.88181
-5.89141
-5.89933
-5.90585
-5.91122
-5.91564
-5.91927
-5.92224
-5.92467
-5.92665
-5.92826
-5.92955
-5.93058
-5.93139
-5.93202
-5.93246
-5.93277
-5.93292
-15.8329
-15.846
-15.8777
-15.9407
-16.0558
-16.2517
-16.5563
-16.9739
-17.452
-17.8889
-18.2322
-18.4855
-18.6755
-18.8277
-18.9561
-19.0593
-19.1172
-19.0832
-18.8728
-18.3515
-17.337
-15.6519
-13.2775
-10.5674
-8.19611
-6.51726
-5.51186
-5.00247
-4.80617
-4.78722
-4.85882
-4.97
-5.09261
-5.21209
-5.32158
-5.41846
-5.50232
-5.57389
-5.63437
-5.68515
-5.72756
-5.76285
-5.79215
-5.81641
-5.83648
-5.85305
-5.86672
-5.878
-5.88728
-5.89492
-5.9012
-5.90637
-5.9106
-5.91407
-5.91691
-5.91922
-5.92109
-5.9226
-5.92381
-5.92475
-5.92548
-5.92599
-5.92635
-5.92651
-15.7688
-15.7775
-15.8008
-15.8529
-15.9585
-16.1553
-16.4864
-16.9694
-17.5398
-18.0469
-18.4263
-18.6962
-18.8994
-19.0723
-19.2351
-19.391
-19.523
-19.585
-19.4864
-19.0688
-18.0932
-16.2868
-13.5454
-10.3047
-7.56729
-5.76863
-4.80478
-4.40278
-4.32347
-4.40772
-4.56283
-4.73902
-4.91149
-5.06906
-5.20774
-5.32709
-5.42838
-5.51356
-5.58476
-5.64401
-5.69316
-5.73386
-5.76749
-5.79525
-5.81814
-5.83701
-5.85254
-5.86533
-5.87585
-5.8845
-5.89161
-5.89745
-5.90224
-5.90616
-5.90936
-5.91197
-5.91409
-5.91579
-5.91715
-5.91821
-5.91905
-5.91961
-5.92001
-5.92018
-15.7058
-15.7093
-15.722
-15.7591
-15.8489
-16.0389
-16.3921
-16.9492
-17.635
-18.2207
-18.6316
-18.9096
-19.1189
-19.3079
-19.5031
-19.7126
-19.9236
-20.094
-20.1308
-19.8553
-18.9659
-17.0617
-13.891
-9.9631
-6.79698
-4.90212
-4.02694
-3.77069
-3.83196
-4.03167
-4.27565
-4.51853
-4.74071
-4.93545
-5.10211
-5.24273
-5.36035
-5.45818
-5.53925
-5.60627
-5.66158
-5.70718
-5.74474
-5.77567
-5.80111
-5.82205
-5.83926
-5.85341
-5.86504
-5.8746
-5.88245
-5.88889
-5.89417
-5.8985
-5.90203
-5.90491
-5.90724
-5.90912
-5.91062
-5.91179
-5.91271
-5.91332
-5.91376
-5.91393
-15.6449
-15.6422
-15.6425
-15.6606
-15.7273
-15.9004
-16.2683
-16.9087
-17.7424
-18.4155
-18.8497
-19.1249
-19.3322
-19.532
-19.7571
-20.0197
-20.3134
-20.6028
-20.7987
-20.7087
-19.9676
-18.0109
-14.3455
-9.5113
-5.85115
-3.90524
-3.18065
-3.11342
-3.33868
-3.66441
-4.0009
-4.31082
-4.58168
-4.81208
-5.00518
-5.16565
-5.29835
-5.40776
-5.49783
-5.57189
-5.63277
-5.68279
-5.72388
-5.75763
-5.78536
-5.80814
-5.82685
-5.84222
-5.85484
-5.8652
-5.87371
-5.88069
-5.88641
-5.89109
-5.89492
-5.89803
-5.90056
-5.9026
-5.90423
-5.90549
-5.90648
-5.90713
-5.90759
-5.90778
-15.5869
-15.5775
-15.5636
-15.5589
-15.5949
-15.7386
-16.1087
-16.8408
-17.8689
-18.6375
-19.0821
-19.3409
-19.5371
-19.7425
-19.9941
-20.3088
-20.6868
-21.1036
-21.4806
-21.6231
-21.1086
-19.1754
-14.9551
-8.90311
-4.68872
-2.76759
-2.27174
-2.44029
-2.85141
-3.31124
-3.74189
-4.11783
-4.43547
-4.69952
-4.9172
-5.09592
-5.24236
-5.36227
-5.46044
-5.54082
-5.60666
-5.66061
-5.70483
-5.7411
-5.77085
-5.79526
-5.81529
-5.83173
-5.84522
-5.8563
-5.86538
-5.87283
-5.87894
-5.88394
-5.88802
-5.89135
-5.89405
-5.89623
-5.89796
-5.8993
-5.90036
-5.90105
-5.90152
-5.90174
-15.5327
-15.5162
-15.4868
-15.4558
-15.4532
-15.5525
-15.9062
-16.7352
-18.0254
-18.8943
-19.3298
-19.5561
-19.7317
-19.9374
-20.2121
-20.5764
-21.0386
-21.588
-22.1652
-22.5885
-22.3954
-20.6034
-15.7889
-8.06956
-3.26155
-1.48286
-1.31038
-1.76263
-2.37833
-2.97723
-3.50149
-3.94111
-4.30285
-4.59808
-4.83825
-5.03351
-5.19231
-5.32159
-5.42695
-5.51292
-5.58315
-5.64056
-5.68754
-5.72601
-5.75753
-5.78336
-5.80455
-5.82192
-5.83618
-5.84787
-5.85746
-5.86533
-5.87177
-5.87705
-5.88135
-5.88486
-5.88771
-5.89001
-5.89184
-5.89325
-5.89437
-5.89508
-5.89557
-5.89582
-15.4828
-15.459
-15.4134
-15.3534
-15.3048
-15.3422
-15.6527
-16.5763
-18.2277
-19.1943
-19.593
-19.7683
-19.914
-20.1149
-20.4092
-20.8199
-21.364
-22.0479
-22.8396
-23.5898
-23.8277
-22.3491
-16.95
-6.90759
-1.51553
-0.0513058
-0.311621
-1.09349
-1.92769
-2.66696
-3.28206
-3.78174
-4.18425
-4.50785
-4.76827
-4.97826
-5.14801
-5.28554
-5.39722
-5.48808
-5.56212
-5.62255
-5.67192
-5.7123
-5.74535
-5.77242
-5.7946
-5.81279
-5.8277
-5.83993
-5.84995
-5.85817
-5.86491
-5.87042
-5.87492
-5.87859
-5.88156
-5.88396
-5.88588
-5.88734
-5.88851
-5.88926
-5.88975
-5.89005
-15.4377
-15.4067
-15.3448
-15.2542
-15.1528
-15.1095
-15.3397
-16.3409
-18.4994
-19.5464
-19.8704
-19.9745
-20.082
-20.2739
-20.5842
-21.0373
-21.6591
-22.4753
-23.4895
-24.6068
-25.3958
-24.4695
-18.5922
-5.26363
0.606341
1.5172
0.704332
-0.447074
-1.50739
-2.38436
-3.08537
-3.64041
-4.07979
-4.42873
-4.70703
-4.92995
-5.10923
-5.25393
-5.37107
-5.46614
-5.54346
-5.60647
-5.65789
-5.6999
-5.73426
-5.76238
-5.78542
-5.8043
-5.81977
-5.83245
-5.84285
-5.85137
-5.85835
-5.86407
-5.86873
-5.87254
-5.87562
-5.87811
-5.8801
-5.88161
-5.8828
-5.88361
-5.8841
-5.88444
-15.3978
-15.3599
-15.2821
-15.1602
-15.0011
-14.858
-14.959
-15.9945
-18.8757
-19.9592
-20.159
-20.1715
-20.2337
-20.4133
-20.7365
-21.2274
-21.9209
-22.8632
-24.1004
-25.6147
-27.0769
-27.0187
-20.9428
-2.91026
3.15783
3.19987
1.71234
0.161926
-1.12453
-2.13251
-2.91254
-3.51735
-3.98935
-4.36042
-4.65421
-4.88826
-5.07571
-5.22651
-5.34829
-5.44693
-5.52703
-5.59222
-5.64537
-5.68876
-5.72422
-5.75323
-5.77698
-5.79644
-5.81238
-5.82545
-5.83616
-5.84493
-5.85212
-5.858
-5.86281
-5.86673
-5.8699
-5.87246
-5.87451
-5.87606
-5.87728
-5.87813
-5.87863
-5.879
-15.3631
-15.3191
-15.2262
-15.074
-14.8543
-14.5937
-14.5049
-15.4863
-19.4075
-20.439
-20.4532
-20.355
-20.3674
-20.5328
-20.8658
-21.3897
-22.1471
-23.2058
-24.6582
-26.5842
-28.8324
-30.0365
-24.3359
0.486259
6.17878
4.95779
2.68317
0.719253
-0.785058
-1.91353
-2.76407
-3.4124
-3.91251
-4.30248
-4.60939
-4.85281
-5.04711
-5.20302
-5.32866
-5.43027
-5.51268
-5.57968
-5.63426
-5.67878
-5.71516
-5.7449
-5.76924
-5.78918
-5.80551
-5.81889
-5.82986
-5.83885
-5.8462
-5.85223
-5.85715
-5.86116
-5.86441
-5.86703
-5.86913
-5.87072
-5.87194
-5.87285
-5.87336
-5.87373
-15.3338
-15.2843
-15.178
-14.9973
-14.7173
-14.3256
-13.976
-14.7429
-20.1692
-20.9876
-20.7445
-20.5209
-20.4818
-20.6323
-20.9726
-21.5241
-22.3369
-23.4988
-25.1501
-27.4836
-30.6047
-33.532
-29.2554
5.41
9.67814
6.73346
3.58498
1.21204
-0.49341
-1.72853
-2.63986
-3.32504
-3.84868
-4.25433
-4.57206
-4.82317
-5.02307
-5.18314
-5.31193
-5.41595
-5.50023
-5.5687
-5.62444
-5.66989
-5.707
-5.73733
-5.76215
-5.78247
-5.79912
-5.81276
-5.82393
-5.83309
-5.84058
-5.84672
-5.85173
-5.85582
-5.85914
-5.8618
-5.86393
-5.86557
-5.86679
-5.86775
-5.86827
-5.8686
-15.3097
-15.2556
-15.1377
-14.932
-14.5952
-14.0654
-13.3799
-13.6586
-21.2666
-21.5982
-21.0218
-20.6646
-20.5758
-20.712
-21.0576
-21.6316
-22.4901
-23.7394
-25.5655
-28.2808
-32.3171
-37.4577
-36.3943
12.5537
13.6085
8.45004
4.38563
1.62976
-0.252298
-1.57763
-2.53922
-3.25444
-3.79707
-4.21529
-4.54165
-4.79886
-5.0032
-5.16656
-5.29783
-5.40375
-5.48951
-5.55913
-5.61578
-5.66195
-5.69964
-5.73044
-5.75564
-5.77626
-5.79315
-5.80699
-5.81833
-5.82761
-5.83522
-5.84144
-5.84653
-5.85068
-5.85404
-5.85674
-5.8589
-5.86057
-5.86178
-5.86279
-5.86333
-5.86359
-15.2905
-15.2329
-15.1056
-14.879
-14.4925
-13.8276
-12.7379
-12.0846
-22.8491
-22.2496
-21.271
-20.7822
-20.649
-20.7726
-21.1219
-21.7133
-22.6077
-23.9269
-25.8973
-28.9463
-33.8753
-41.674
-46.7296
22.8945
17.8301
10.0133
5.0555
1.96504
-0.0626533
-1.46005
-2.46105
-3.19955
-3.75678
-4.18461
-4.51754
-4.7794
-4.9871
-5.15294
-5.28609
-5.39345
-5.48032
-5.55081
-5.60814
-5.65486
-5.69298
-5.72413
-5.74961
-5.77046
-5.78754
-5.80153
-5.81299
-5.82237
-5.83006
-5.83635
-5.84149
-5.84568
-5.84909
-5.85181
-5.85398
-5.8557
-5.8569
-5.85792
-5.85849
-5.85866
-15.276
-15.2158
-15.0815
-14.8391
-14.4129
-13.6285
-12.0932
-9.8141
-25.1238
-22.8993
-21.4766
-20.8707
-20.7016
-20.8153
-21.167
-21.7708
-22.6913
-24.0622
-26.1417
-29.4562
-35.1742
-45.8992
-61.6179
37.7889
22.0612
11.3179
5.57071
2.21415
0.0762862
-1.37426
-2.40391
-3.15917
-3.72687
-4.16155
-4.49916
-4.76431
-4.97439
-5.14201
-5.27648
-5.38485
-5.4725
-5.54361
-5.60142
-5.64853
-5.68696
-5.71836
-5.74403
-5.76504
-5.78225
-5.79634
-5.80789
-5.81735
-5.82509
-5.83143
-5.83661
-5.84083
-5.84426
-5.84701
-5.84918
-5.85095
-5.85213
-5.85314
-5.85376
-5.85386
-15.2658
-15.204
-15.0652
-14.8123
-14.3588
-13.484
-11.5205
-6.56468
-28.374
-23.4731
-21.6232
-20.9284
-20.7344
-20.8414
-21.1945
-21.8062
-22.7435
-24.1477
-26.2993
-29.7958
-36.1096
-49.6449
-82.9125
59.0899
25.8132
12.2594
5.91617
2.37718
0.166718
-1.3182
-2.36619
-3.13214
-3.70646
-4.14548
-4.48604
-4.75327
-4.96485
-5.13357
-5.26888
-5.37789
-5.46603
-5.53752
-5.59564
-5.64298
-5.68161
-5.71316
-5.73896
-5.76008
-5.77736
-5.79152
-5.80312
-5.81262
-5.8204
-5.82677
-5.83197
-5.83622
-5.83967
-5.84242
-5.84459
-5.8464
-5.84758
-5.84854
-5.84923
-5.84932
-15.2594
-15.1969
-15.056
-14.798
-14.3309
-13.407
-11.1385
-1.95655
-32.9796
-23.8528
-21.6983
-20.9552
-20.7488
-20.8525
-21.2062
-21.8216
-22.767
-24.1873
-26.3739
-29.9615
-36.5981
-52.1344
-113.104
89.2878
28.3093
12.7545
6.0883
2.45805
0.212214
-1.28927
-2.34605
-3.11709
-3.69457
-4.13565
-4.47761
-4.74583
-4.95812
-5.12736
-5.26307
-5.37238
-5.46076
-5.53243
-5.59069
-5.63815
-5.67686
-5.70849
-5.73435
-5.75551
-5.77284
-5.78703
-5.79865
-5.80818
-5.81597
-5.82235
-5.82757
-5.83182
-5.83528
-5.83804
-5.84019
-5.84204
-5.84322
-5.84412
-5.84489
-5.84501
)
;

boundaryField
{
    left
    {
        type            calculated;
        value           nonuniform List<scalar> 
32
(
-16.4148
-16.4113
-16.4044
-16.3937
-16.3788
-16.3595
-16.3352
-16.3057
-16.2709
-16.2306
-16.1851
-16.1347
-16.08
-16.0216
-15.9603
-15.8971
-15.8329
-15.7688
-15.7058
-15.6449
-15.5869
-15.5327
-15.4828
-15.4377
-15.3978
-15.3631
-15.3338
-15.3097
-15.2905
-15.276
-15.2658
-15.2594
)
;
    }
    right
    {
        type            calculated;
        value           nonuniform List<scalar> 
32
(
-6.00964
-6.00844
-6.00617
-6.00298
-5.99903
-5.99442
-5.98929
-5.98373
-5.97784
-5.9717
-5.96537
-5.95893
-5.95242
-5.9459
-5.93939
-5.93292
-5.92651
-5.92018
-5.91393
-5.90778
-5.90174
-5.89582
-5.89005
-5.88444
-5.879
-5.87373
-5.8686
-5.86359
-5.85866
-5.85386
-5.84932
-5.84501
)
;
    }
    interface
    {
        type            calculated;
        value           nonuniform List<scalar> 
64
(
-15.2572
-15.1945
-15.0531
-14.7939
-14.3234
-13.3867
-11.0132
0.74147
-35.6756
-23.9761
-21.7168
-20.9611
-20.7515
-20.8544
-21.2083
-21.8246
-22.7719
-24.1961
-26.3912
-30.0012
-36.7223
-52.947
-130.779
106.967
29.1254
12.882
6.13139
2.47868
0.224266
-1.28121
-2.3401
-3.11237
-3.69061
-4.13218
-4.47448
-4.74293
-4.95539
-5.12476
-5.26056
-5.36994
-5.45838
-5.53009
-5.58839
-5.63587
-5.67461
-5.70625
-5.73213
-5.7533
-5.77064
-5.78484
-5.79647
-5.80599
-5.81379
-5.82018
-5.8254
-5.82965
-5.83312
-5.83588
-5.83802
-5.83989
-5.84107
-5.84193
-5.84274
-5.84288
)
;
    }
    bottom
    {
        type            calculated;
        value           nonuniform List<scalar> 
64
(
-16.4157
-16.4191
-16.4252
-16.4327
-16.4395
-16.4428
-16.4393
-16.4249
-16.395
-16.3445
-16.2684
-16.1614
-16.0183
-15.8346
-15.6062
-15.33
-15.004
-14.6278
-14.2031
-13.7337
-13.2255
-12.6869
-12.1282
-11.5606
-10.9961
-10.4459
-9.92016
-9.42682
-8.97177
-8.55851
-8.18842
-7.86109
-7.57475
-7.32663
-7.11341
-6.93147
-6.77716
-6.64696
-6.53757
-6.446
-6.36959
-6.30599
-6.25316
-6.20937
-6.17312
-6.14315
-6.1184
-6.09798
-6.08115
-6.06729
-6.05588
-6.04651
-6.03881
-6.0325
-6.02734
-6.02313
-6.01972
-6.01697
-6.01479
-6.01308
-6.01178
-6.01085
-6.01025
-6.00996
)
;
    }
    defaultFaces
    {
        type            empty;
    }
}


// ************************************************************************* //
