/*--------------------------------*- C++ -*----------------------------------*\
| =========                 |                                                 |
| \\      /  F ield         | OpenFOAM: The Open Source CFD Toolbox           |
|  \\    /   O peration     | Version:  5.x                                   |
|   \\  /    A nd           | Web:      www.OpenFOAM.org                      |
|    \\/     M anipulation  |                                                 |
\*---------------------------------------------------------------------------*/
FoamFile
{
    version     2.0;
    format      ascii;
    class       volScalarField;
    location    "1.4";
    object      T;
}
// * * * * * * * * * * * * * * * * * * * * * * * * * * * * * * * * * * * * * //

dimensions      [0 0 0 1 0 0 0];

internalField   nonuniform List<scalar> 
2048
(
9.88207
9.88204
9.882
9.88194
9.88189
9.88187
9.8819
9.882
9.88221
9.88258
9.88312
9.88389
9.88492
9.88624
9.88788
9.88987
9.89221
9.89491
9.89796
9.90133
9.90498
9.90885
9.91287
9.91695
9.921
9.92495
9.92873
9.93228
9.93554
9.93851
9.94117
9.94352
9.94558
9.94736
9.9489
9.9502
9.95131
9.95225
9.95303
9.95369
9.95424
9.9547
9.95508
9.95539
9.95565
9.95587
9.95604
9.95619
9.95631
9.95641
9.95649
9.95656
9.95662
9.95666
9.9567
9.95673
9.95675
9.95677
9.95679
9.9568
9.95681
9.95682
9.95682
9.95682
9.65138
9.6513
9.65116
9.65099
9.65083
9.65074
9.65079
9.65107
9.65168
9.65272
9.6543
9.65655
9.65956
9.66343
9.66827
9.67412
9.68104
9.68904
9.69808
9.70809
9.71893
9.73043
9.74237
9.75449
9.76655
9.77829
9.78951
9.80002
9.80971
9.81849
9.82635
9.83329
9.83936
9.84461
9.84911
9.85296
9.85621
9.85896
9.86126
9.86319
9.8648
9.86614
9.86725
9.86817
9.86894
9.86957
9.87009
9.87052
9.87087
9.87116
9.8714
9.8716
9.87176
9.87189
9.872
9.87209
9.87216
9.87222
9.87226
9.8723
9.87233
9.87235
9.87236
9.87237
9.43085
9.43071
9.43046
9.43015
9.42984
9.42962
9.42963
9.43001
9.43091
9.43251
9.435
9.43858
9.44341
9.44966
9.45749
9.46702
9.47832
9.4914
9.50623
9.52268
9.54054
9.5595
9.5792
9.59921
9.61911
9.63846
9.65692
9.67419
9.69007
9.70444
9.71726
9.72856
9.73841
9.74692
9.75422
9.76042
9.76568
9.7701
9.77381
9.77691
9.7795
9.78165
9.78343
9.78491
9.78613
9.78714
9.78798
9.78866
9.78923
9.7897
9.79008
9.7904
9.79066
9.79087
9.79104
9.79118
9.7913
9.79139
9.79146
9.79152
9.79156
9.7916
9.79162
9.79163
9.22008
9.21987
9.21948
9.21898
9.21845
9.21804
9.21791
9.21826
9.21932
9.22134
9.22457
9.22929
9.23574
9.24417
9.25479
9.26777
9.28323
9.30122
9.32167
9.34443
9.3692
9.39556
9.42297
9.45083
9.4785
9.5054
9.53099
9.55486
9.57674
9.59647
9.61402
9.62944
9.64284
9.65438
9.66425
9.67263
9.6797
9.68565
9.69064
9.69479
9.69826
9.70113
9.70352
9.70549
9.70713
9.70847
9.70959
9.7105
9.71126
9.71188
9.71239
9.71281
9.71316
9.71344
9.71367
9.71386
9.71402
9.71414
9.71424
9.71431
9.71437
9.71441
9.71444
9.71445
9.01868
9.01838
9.01782
9.01708
9.01627
9.01556
9.01517
9.01536
9.01641
9.01865
9.02243
9.02808
9.03593
9.0463
9.05948
9.0757
9.09512
9.11782
9.14376
9.17274
9.20438
9.23814
9.27331
9.30908
9.34458
9.37901
9.41167
9.44203
9.46975
9.49464
9.51668
9.53596
9.55266
9.56698
9.57919
9.58953
9.59824
9.60555
9.61165
9.61674
9.62097
9.62449
9.6274
9.6298
9.63179
9.63343
9.63479
9.6359
9.63682
9.63758
9.6382
9.63871
9.63913
9.63947
9.63975
9.63998
9.64017
9.64032
9.64044
9.64053
9.6406
9.64065
9.64068
9.6407
8.82629
8.82588
8.82511
8.82407
8.82289
8.82178
8.821
8.82085
8.82171
8.82397
8.82807
8.83442
8.84343
8.8555
8.87099
8.89019
8.91335
8.9406
8.9719
9.00704
9.04558
9.08683
9.1299
9.17371
9.21717
9.2592
9.29894
9.33572
9.36911
9.39895
9.42523
9.44811
9.46782
9.48467
9.49898
9.51105
9.52119
9.52967
9.53675
9.54264
9.54753
9.55158
9.55493
9.5577
9.55999
9.56188
9.56343
9.56472
9.56577
9.56664
9.56735
9.56794
9.56842
9.56881
9.56914
9.5694
9.56961
9.56978
9.56992
9.57003
9.57011
9.57017
9.5702
9.57022
8.64256
8.64203
8.64101
8.6396
8.63797
8.63633
8.635
8.63435
8.63481
8.63687
8.64105
8.64785
8.65776
8.67127
8.6888
8.71074
8.73742
8.76901
8.80555
8.84682
8.89232
8.94122
8.99239
9.0445
9.09611
9.1459
9.19275
9.23587
9.2748
9.30936
9.33962
9.36581
9.38826
9.40736
9.42349
9.43707
9.44843
9.45791
9.4658
9.47235
9.47778
9.48228
9.48599
9.48906
9.49159
9.49368
9.49539
9.49681
9.49797
9.49893
9.49972
9.50037
9.5009
9.50133
9.50169
9.50197
9.50221
9.5024
9.50255
9.50267
9.50276
9.50282
9.50286
9.50288
8.46715
8.46647
8.46517
8.46334
8.46116
8.45888
8.45685
8.45549
8.45534
8.45697
8.46097
8.46796
8.47851
8.49317
8.51248
8.53689
8.56683
8.60257
8.64423
8.6916
8.74415
8.80091
8.86049
8.92121
8.98127
9.039
9.09305
9.14247
9.18677
9.22582
9.25977
9.28897
9.31385
9.33489
9.3526
9.36743
9.37981
9.3901
9.39865
9.40573
9.41159
9.41643
9.42043
9.42373
9.42644
9.42868
9.43052
9.43204
9.43329
9.43431
9.43516
9.43585
9.43642
9.43688
9.43726
9.43757
9.43783
9.43803
9.43819
9.43831
9.43841
9.43848
9.43852
9.43854
8.29974
8.29891
8.29729
8.29498
8.29217
8.28911
8.28621
8.28396
8.28296
8.2839
8.28749
8.2944
8.30531
8.32086
8.34164
8.36823
8.40117
8.44084
8.48747
8.54092
8.60065
8.66553
8.7339
8.80365
8.87253
8.93846
8.99979
9.05546
9.10496
9.14823
9.18557
9.21744
9.24443
9.26713
9.28613
9.30198
9.31515
9.32608
9.33513
9.34261
9.34879
9.35389
9.35809
9.36155
9.36441
9.36675
9.36868
9.37027
9.37158
9.37266
9.37354
9.37426
9.37486
9.37534
9.37574
9.37606
9.37633
9.37654
9.37671
9.37684
9.37694
9.37701
9.37706
9.37708
8.14003
8.13902
8.13705
8.13422
8.13069
8.12674
8.12281
8.11945
8.11738
8.11738
8.12027
8.12685
8.13785
8.15399
8.17595
8.20442
8.24006
8.28341
8.33483
8.39433
8.46137
8.5347
8.61232
8.69162
8.76979
8.84422
8.91295
8.9748
9.02928
9.07649
9.11687
9.15107
9.17982
9.20387
9.22389
9.24052
9.25429
9.26567
9.27507
9.28283
9.28922
9.29449
9.29883
9.3024
9.30534
9.30775
9.30974
9.31137
9.31272
9.31382
9.31473
9.31547
9.31608
9.31658
9.31699
9.31732
9.31759
9.31781
9.31798
9.31812
9.31822
9.31829
9.31834
9.31836
7.9877
7.98652
7.98418
7.98078
7.97646
7.97151
7.96637
7.9617
7.95829
7.9571
7.95904
7.96502
7.97585
7.9923
8.01514
8.04517
8.08318
8.12991
8.18592
8.25141
8.3259
8.40804
8.49547
8.58496
8.67295
8.75624
8.8325
8.90043
8.95966
9.01046
9.0535
9.08966
9.11984
9.14491
9.16568
9.18285
9.19701
9.20869
9.2183
9.22622
9.23273
9.23809
9.24249
9.24611
9.24909
9.25154
9.25355
9.25521
9.25656
9.25768
9.2586
9.25935
9.25997
9.26047
9.26088
9.26122
9.26149
9.26171
9.26189
9.26202
9.26213
9.2622
9.26225
9.26227
7.84246
7.8411
7.83839
7.83438
7.82922
7.82315
7.81665
7.81044
7.80546
7.8028
7.80354
7.80866
7.81906
7.83555
7.85897
7.89021
7.93024
7.98002
8.04036
8.11172
8.1938
8.28518
8.38308
8.48351
8.58199
8.67454
8.75843
8.83231
8.89597
8.94998
8.99528
9.033
9.06425
9.09004
9.11129
9.12877
9.14313
9.15494
9.16464
9.1726
9.17914
9.18452
9.18893
9.19256
9.19554
9.19798
9.19999
9.20164
9.203
9.20411
9.20503
9.20578
9.20639
9.2069
9.20731
9.20764
9.20791
9.20813
9.20831
9.20844
9.20855
9.20862
9.20867
9.20869
7.70404
7.70249
7.6994
7.69479
7.68872
7.68145
7.67343
7.66545
7.65862
7.65422
7.6535
7.65755
7.66728
7.68354
7.70724
7.73935
7.78101
7.83345
7.8978
7.97487
8.06464
8.16571
8.27486
8.38715
8.49688
8.59913
8.69074
8.77037
8.83811
8.89488
8.942
8.98088
9.01282
9.03902
9.06048
9.07806
9.09245
9.10424
9.1139
9.12182
9.12831
9.13364
9.13801
9.14159
9.14454
9.14695
9.14894
9.15057
9.1519
9.153
9.1539
9.15464
9.15525
9.15574
9.15615
9.15648
9.15675
9.15696
9.15713
9.15727
9.15737
9.15744
9.15749
9.15751
7.57213
7.57041
7.56696
7.56173
7.55475
7.54618
7.53648
7.52651
7.51755
7.51114
7.50872
7.51146
7.52031
7.53612
7.55979
7.59242
7.6353
7.68995
7.75791
7.84045
7.93797
8.04922
8.17053
8.29576
8.41765
8.53008
8.62943
8.71454
8.78592
8.84497
8.89343
8.93303
8.96531
8.99161
9.01304
9.03052
9.04477
9.05641
9.06593
9.07371
9.08008
9.0853
9.08958
9.09309
9.09596
9.09832
9.10026
9.10185
9.10316
9.10423
9.1051
9.10583
9.10642
9.1069
9.10729
9.10762
9.10788
9.10809
9.10825
9.10839
9.10848
9.10855
9.1086
9.10862
7.44646
7.44459
7.4408
7.43498
7.42707
7.41715
7.40562
7.39341
7.38202
7.37331
7.36896
7.37022
7.37801
7.39314
7.41651
7.44929
7.49295
7.54932
7.6204
7.70806
7.81332
7.93526
8.06978
8.20927
8.34436
8.46746
8.57454
8.66475
8.73924
8.80002
8.84933
8.88922
8.92148
8.94759
8.96875
8.98593
8.9999
9.01127
9.02054
9.02812
9.03431
9.03937
9.04352
9.04691
9.0497
9.05198
9.05385
9.05539
9.05665
9.05768
9.05853
9.05922
9.05979
9.06026
9.06064
9.06095
9.0612
9.06141
9.06157
9.06169
9.06179
9.06186
9.0619
9.06192
7.32676
7.32475
7.32066
7.31429
7.30548
7.29418
7.28068
7.26596
7.25181
7.24051
7.23401
7.23364
7.24022
7.25449
7.27731
7.30988
7.35386
7.41139
7.48501
7.57734
7.69022
7.82333
7.97229
8.12764
8.27716
8.41141
8.52607
8.6209
8.69788
8.7598
8.80941
8.84916
8.88105
8.9067
8.92738
8.94409
8.95764
8.96864
8.97759
8.98489
8.99084
8.99571
8.99969
9.00294
9.00561
9.0078
9.00959
9.01106
9.01227
9.01326
9.01407
9.01473
9.01528
9.01572
9.01609
9.01639
9.01663
9.01682
9.01698
9.0171
9.01719
9.01725
9.0173
9.01731
7.21275
7.21064
7.20629
7.19943
7.18978
7.17708
7.1615
7.14399
7.1267
7.1125
7.10368
7.10155
7.10683
7.12009
7.14211
7.17412
7.21794
7.27604
7.35154
7.44791
7.56815
7.71292
7.87773
8.05088
8.21623
8.36209
8.48405
8.58286
8.66163
8.72403
8.77342
8.8126
8.84379
8.86872
8.88871
8.90482
8.91782
8.92836
8.93692
8.94388
8.94955
8.95419
8.95797
8.96107
8.9636
8.96568
8.96738
8.96878
8.96992
8.97086
8.97163
8.97226
8.97277
8.9732
8.97354
8.97382
8.97405
8.97424
8.97438
8.9745
8.97458
8.97465
8.97469
8.9747
7.10417
7.10198
7.09744
7.09018
7.07976
7.0657
7.04793
7.02734
7.00648
6.98905
6.97774
6.97381
6.97772
6.98985
7.01087
7.04199
7.08517
7.1432
7.2198
7.31946
7.44661
7.60339
7.78568
7.97905
8.16185
8.31968
8.44848
8.55048
8.63024
8.69244
8.74106
8.77926
8.80943
8.83341
8.85255
8.86791
8.88028
8.89027
8.89838
8.90496
8.91032
8.91469
8.91826
8.92117
8.92356
8.92551
8.92712
8.92843
8.9295
8.93039
8.93111
8.9317
8.93219
8.93258
8.93291
8.93317
8.93339
8.93356
8.9337
8.93381
8.93389
8.93395
8.93398
8.934
7.00076
6.99853
6.99386
6.98631
6.97523
6.95989
6.93986
6.91587
6.89093
6.86992
6.856
6.85025
6.8528
6.86373
6.88357
6.91349
6.95555
7.01283
7.08967
7.19168
7.32505
7.49408
7.69568
7.91231
8.11439
8.28442
8.41935
8.52358
8.60344
8.66472
8.71204
8.74886
8.77774
8.80055
8.81869
8.83319
8.84484
8.85423
8.86183
8.868
8.87302
8.8771
8.88043
8.88316
8.88539
8.88721
8.8887
8.88993
8.89093
8.89175
8.89242
8.89298
8.89343
8.8938
8.8941
8.89435
8.89455
8.89471
8.89484
8.89494
8.89501
8.89507
8.8951
8.89512
6.90226
6.90003
6.89532
6.88758
6.876
6.8595
6.83719
6.80946
6.7798
6.75485
6.73826
6.73075
6.73198
6.74168
6.76019
6.78863
6.82911
6.88496
6.96111
7.06434
7.20293
7.38418
7.60716
7.85092
8.07435
8.25653
8.3966
8.50192
8.58091
8.64056
8.68606
8.72114
8.74847
8.76994
8.78695
8.8005
8.81136
8.8201
8.82716
8.83289
8.83753
8.84132
8.8444
8.84692
8.84898
8.85067
8.85205
8.85318
8.85411
8.85487
8.85549
8.856
8.85642
8.85676
8.85704
8.85726
8.85745
8.8576
8.85772
8.85781
8.85788
8.85793
8.85796
8.85797
6.80843
6.80623
6.80156
6.79378
6.78188
6.7644
6.73985
6.70801
6.67284
6.64357
6.62431
6.61518
6.61518
6.62366
6.64073
6.66743
6.70589
6.75963
6.83409
6.93723
7.07973
7.27281
7.5194
7.79531
8.04232
8.23627
8.38013
8.48521
8.56233
8.61963
8.66282
8.69584
8.72139
8.74138
8.75715
8.76968
8.7797
8.78775
8.79424
8.7995
8.80377
8.80724
8.81007
8.81238
8.81426
8.81581
8.81707
8.81811
8.81895
8.81965
8.82022
8.82068
8.82107
8.82138
8.82163
8.82184
8.82201
8.82215
8.82226
8.82234
8.8224
8.82245
8.82248
8.82249
6.71902
6.7169
6.71235
6.70467
6.69266
6.67446
6.6478
6.61148
6.56976
6.53579
6.51397
6.50342
6.50234
6.50963
6.52518
6.54993
6.58598
6.63695
6.70869
6.81027
6.95495
7.15894
7.43145
7.74617
8.01906
8.22384
8.36977
8.47314
8.54733
8.60159
8.64204
8.67271
8.69631
8.71468
8.72913
8.74059
8.74973
8.75706
8.76297
8.76775
8.77162
8.77477
8.77734
8.77943
8.78114
8.78254
8.78369
8.78462
8.78539
8.78602
8.78654
8.78696
8.78731
8.78759
8.78782
8.78801
8.78816
8.78829
8.78838
8.78846
8.78852
8.78856
8.78858
8.7886
6.63382
6.63181
6.62746
6.62003
6.60815
6.58955
6.56102
6.51987
6.47023
6.43121
6.40705
6.39537
6.39339
6.39956
6.41355
6.43616
6.46944
6.51702
6.58501
6.68344
6.82815
7.0414
7.34204
7.70448
8.00546
8.21943
8.36527
8.46531
8.53553
8.58612
8.62343
8.65152
8.67301
8.68968
8.70275
8.71309
8.72132
8.72792
8.73323
8.73753
8.741
8.74383
8.74613
8.74801
8.74954
8.75079
8.75182
8.75266
8.75335
8.75391
8.75437
8.75475
8.75506
8.75531
8.75552
8.75569
8.75583
8.75594
8.75602
8.75609
8.75614
8.75618
8.7562
8.75622
6.55258
6.55072
6.54666
6.53962
6.52812
6.50951
6.47951
6.43327
6.37385
6.3295
6.30339
6.29095
6.28829
6.29342
6.30582
6.32616
6.35636
6.39999
6.46325
6.55681
6.699
6.91893
7.24941
7.67175
8.00254
8.22311
8.3663
8.46131
8.52655
8.57288
8.60673
8.63204
8.65132
8.66622
8.67787
8.68707
8.69438
8.70024
8.70495
8.70875
8.71183
8.71433
8.71637
8.71803
8.71938
8.72049
8.7214
8.72214
8.72275
8.72324
8.72365
8.72399
8.72426
8.72448
8.72467
8.72482
8.72494
8.72503
8.72511
8.72517
8.72522
8.72525
8.72527
8.72528
6.47512
6.47343
6.46972
6.46321
6.45237
6.4342
6.4033
6.35186
6.2801
6.23032
6.20283
6.19007
6.18698
6.19117
6.20197
6.21993
6.24683
6.28603
6.34363
6.43061
6.56729
6.79014
7.15114
7.65015
8.01143
8.23483
8.37239
8.46065
8.51999
8.56158
8.59169
8.61408
8.63106
8.64415
8.65436
8.66241
8.6688
8.67391
8.67802
8.68134
8.68402
8.6862
8.68797
8.68942
8.6906
8.69156
8.69235
8.69299
8.69352
8.69396
8.69431
8.6946
8.69484
8.69503
8.69519
8.69532
8.69543
8.69551
8.69558
8.69563
8.69567
8.6957
8.69572
8.69573
6.40122
6.39973
6.39643
6.39058
6.38065
6.36343
6.33242
6.276
6.18835
6.13335
6.10526
6.09268
6.08941
6.09277
6.10199
6.11751
6.14091
6.17529
6.22641
6.30513
6.43302
6.65364
7.04385
7.64284
8.03328
8.25437
8.38302
8.46283
8.51546
8.5519
8.57809
8.59745
8.61209
8.62335
8.63211
8.63901
8.64449
8.64886
8.65237
8.65521
8.6575
8.65936
8.66087
8.66211
8.66311
8.66394
8.66461
8.66516
8.66561
8.66598
8.66628
8.66653
8.66673
8.6669
8.66704
8.66715
8.66724
8.66731
8.66737
8.66741
8.66744
8.66747
8.66748
8.66749
6.3307
6.32942
6.32659
6.32151
6.31272
6.29699
6.2669
6.20623
6.09774
6.03825
6.0106
5.99875
5.99554
5.99818
6.00585
6.01889
6.03866
6.06793
6.1119
6.18082
6.29645
6.50814
6.92281
7.6543
8.06916
8.28125
8.39752
8.46735
8.51258
8.54357
8.5657
8.58199
8.59428
8.6037
8.61103
8.61679
8.62136
8.625
8.62793
8.63029
8.6322
8.63375
8.63501
8.63603
8.63687
8.63756
8.63812
8.63857
8.63895
8.63926
8.63951
8.63971
8.63988
8.64002
8.64013
8.64023
8.6403
8.64036
8.64041
8.64045
8.64047
8.6405
8.64051
8.64051
6.26339
6.26233
6.25999
6.25577
6.24834
6.23464
6.20673
6.14339
6.00714
5.94475
5.91882
5.90824
5.90532
5.90732
5.91348
5.92405
5.94014
5.96409
6.00039
6.05817
6.1581
6.3526
6.78146
7.69088
8.1199
8.31472
8.41516
8.47368
8.511
8.53634
8.55434
8.56756
8.57749
8.5851
8.59101
8.59565
8.59933
8.60227
8.60462
8.60652
8.60806
8.6093
8.61031
8.61114
8.61181
8.61236
8.61281
8.61318
8.61348
8.61373
8.61393
8.6141
8.61423
8.61434
8.61443
8.61451
8.61457
8.61462
8.61465
8.61469
8.61471
8.61472
8.61473
8.61474
6.1991
6.19829
6.19646
6.19315
6.18725
6.17607
6.15183
6.0887
5.91506
5.85266
5.82993
5.82113
5.81868
5.82015
5.82485
5.83296
5.84536
5.86389
5.89218
5.93779
6.01882
6.18656
6.61078
7.7614
8.18574
8.35372
8.43514
8.48132
8.51039
8.52999
8.54386
8.55401
8.56163
8.56746
8.57198
8.57553
8.57835
8.58059
8.58239
8.58384
8.58501
8.58596
8.58673
8.58736
8.58788
8.5883
8.58864
8.58892
8.58915
8.58934
8.5895
8.58962
8.58972
8.58981
8.58988
8.58994
8.58998
8.59002
8.59005
8.59007
8.59009
8.5901
8.59011
8.59011
6.1377
6.13712
6.13582
6.13346
6.12921
6.12095
6.10197
6.04388
5.8195
5.76193
5.744
5.73742
5.73559
5.73658
5.73987
5.74557
5.75432
5.76743
5.78754
5.82029
5.87978
6.01044
6.39847
7.87795
8.26606
8.39689
8.45666
8.48981
8.51047
8.52433
8.53411
8.54125
8.54661
8.5507
8.55387
8.55637
8.55834
8.55991
8.56117
8.56219
8.56301
8.56367
8.56422
8.56466
8.56502
8.56531
8.56555
8.56575
8.56591
8.56604
8.56615
8.56624
8.56631
8.56637
8.56642
8.56646
8.56649
8.56651
8.56654
8.56655
8.56656
8.56657
8.56658
8.56658
6.07903
6.07868
6.07791
6.07651
6.07396
6.06893
6.05672
6.01132
5.71781
5.67272
5.66113
5.65709
5.65597
5.65653
5.65847
5.66183
5.667
5.67476
5.68671
5.70629
5.74244
5.82613
6.12799
8.05689
8.35879
8.44259
8.47889
8.49871
8.51098
8.51919
8.52496
8.52918
8.53234
8.53475
8.53662
8.53808
8.53925
8.54017
8.54091
8.54151
8.54199
8.54239
8.54271
8.54296
8.54318
8.54335
8.54349
8.54361
8.5437
8.54378
8.54384
8.54389
8.54394
8.54397
8.544
8.54402
8.54404
8.54406
8.54407
8.54408
8.54409
8.54409
8.5441
8.5441
6.02295
6.02284
6.02258
6.02212
6.02127
6.01959
6.01533
5.99422
5.60654
5.58553
5.58147
5.58012
5.57974
5.57992
5.58056
5.58167
5.58337
5.58593
5.58987
5.59635
5.60842
5.63756
5.77736
8.32
8.45981
8.48898
8.50111
8.50767
8.51171
8.51442
8.51632
8.51771
8.51875
8.51954
8.52015
8.52064
8.52102
8.52132
8.52157
8.52176
8.52192
8.52205
8.52215
8.52224
8.52231
8.52237
8.52241
8.52245
8.52248
8.52251
8.52253
8.52255
8.52256
8.52257
8.52258
8.52259
8.52259
8.5226
8.5226
8.52261
8.52261
8.52261
8.52261
8.52261
)
;

boundaryField
{
    left
    {
        type            zeroGradient;
    }
    right
    {
        type            zeroGradient;
    }
    interface
    {
        type            fixedValue;
        value           nonuniform List<scalar> 
64
(
5.99555
5.99555
5.99555
5.99555
5.99555
5.99555
5.99555
5.99555
5.54247
5.54247
5.54247
5.54247
5.54247
5.54247
5.54247
5.54247
5.54247
5.54247
5.54247
5.54247
5.54247
5.54247
5.54247
8.51212
8.51212
8.51212
8.51212
8.51212
8.51212
8.51212
8.51212
8.51212
8.51212
8.51212
8.51212
8.51212
8.51212
8.51212
8.51212
8.51212
8.51212
8.51212
8.51212
8.51212
8.51212
8.51212
8.51212
8.51212
8.51212
8.51212
8.51212
8.51212
8.51212
8.51212
8.51212
8.51212
8.51212
8.51212
8.51212
8.51212
8.51212
8.51212
8.51212
8.51212
)
;
    }
    bottom
    {
        type            fixedValue;
        value           uniform 10;
    }
    defaultFaces
    {
        type            empty;
    }
}


// ************************************************************************* //
