/*--------------------------------*- C++ -*----------------------------------*\
| =========                 |                                                 |
| \\      /  F ield         | OpenFOAM: The Open Source CFD Toolbox           |
|  \\    /   O peration     | Version:  5.x                                   |
|   \\  /    A nd           | Web:      www.OpenFOAM.org                      |
|    \\/     M anipulation  |                                                 |
\*---------------------------------------------------------------------------*/
FoamFile
{
    version     2.0;
    format      ascii;
    class       volScalarField;
    location    "15.5";
    object      T;
}
// * * * * * * * * * * * * * * * * * * * * * * * * * * * * * * * * * * * * * //

dimensions      [0 0 0 1 0 0 0];

internalField   nonuniform List<scalar> 
6300
(
10.0771
10.2309
10.3841
10.5361
10.6865
10.8348
10.9806
11.1233
11.2626
11.3981
11.5293
11.6558
11.7774
11.8938
12.0047
10.0773
10.2316
10.3852
10.5377
10.6886
10.8373
10.9835
11.1267
11.2664
11.4023
11.5339
11.6607
11.7826
11.8992
12.0102
10.0777
10.233
10.3875
10.5409
10.6927
10.8423
10.9894
11.1335
11.2741
11.4108
11.5431
11.6706
11.793
11.91
12.0213
10.0784
10.2351
10.391
10.5457
10.6989
10.8499
10.9983
11.1437
11.2856
11.4235
11.5569
11.6855
11.8088
11.9264
12.0382
10.0793
10.2378
10.3956
10.5522
10.7071
10.86
11.0103
11.1574
11.3011
11.4406
11.5757
11.7056
11.8301
11.9487
12.0611
10.0805
10.2412
10.4013
10.5602
10.7175
10.8726
11.0252
11.1747
11.3205
11.4623
11.5993
11.7312
11.8573
11.9771
12.0903
10.0819
10.2454
10.4082
10.5698
10.7299
10.8878
11.0432
11.1955
11.3441
11.4885
11.6282
11.7624
11.8906
12.0121
12.1265
10.0835
10.2502
10.4162
10.5811
10.7444
10.9056
11.0643
11.2198
11.3718
11.5195
11.6623
11.7996
11.9305
12.0542
12.1701
10.0853
10.2556
10.4253
10.5939
10.7609
10.9259
11.0884
11.2478
11.4036
11.5553
11.7021
11.8431
11.9775
12.1041
12.2221
10.0873
10.2618
10.4356
10.6083
10.7794
10.9487
11.1154
11.2793
11.4397
11.5959
11.7474
11.8931
12.032
12.1627
12.2836
10.0896
10.2685
10.4468
10.6241
10.7999
10.9738
11.1454
11.3142
11.4797
11.6413
11.7984
11.95
12.0947
12.2309
12.3561
10.092
10.2759
10.4592
10.6414
10.8222
11.0013
11.1781
11.3523
11.5235
11.6912
11.8549
12.0136
12.166
12.3098
12.4417
10.0947
10.2839
10.4725
10.6601
10.8464
11.0309
11.2133
11.3934
11.5708
11.7452
11.9162
12.0834
12.2457
12.4007
12.5436
10.0975
10.2924
10.4868
10.6801
10.8722
11.0625
11.251
11.4371
11.6209
11.8023
11.9813
12.1581
12.3326
12.5037
12.666
10.1006
10.3016
10.502
10.7014
10.8996
11.0961
11.2907
11.4832
11.6735
11.8618
12.0485
12.2349
12.4229
12.6152
12.8129
12.1012
12.185
12.2649
12.3409
12.4131
12.4817
12.5468
12.6085
12.6671
12.7229
12.776
12.8267
12.8753
12.922
12.9671
13.0109
13.0536
13.0955
13.1368
13.1778
13.2187
13.2597
13.301
13.3429
13.3854
13.4287
13.473
13.5184
13.5649
13.6126
13.6615
13.7116
13.7628
13.8152
13.8687
13.9232
13.9785
14.0346
14.0912
14.1484
14.2058
14.2633
14.3207
14.3778
14.4343
14.49
14.5446
14.5981
14.6501
14.7004
14.7489
14.7952
14.8392
14.8807
14.9194
14.9549
14.9871
15.0156
15.04
15.0602
15.0756
15.0859
15.0908
15.0898
15.0825
15.0685
15.0471
15.0179
14.9802
14.9333
14.8766
14.8093
14.7305
14.6394
14.5351
14.4166
14.283
14.1333
13.9663
13.7812
13.5769
13.3523
13.1066
12.8388
12.5481
12.234
11.8959
11.5335
11.1467
10.7357
12.1067
12.1905
12.2704
12.3463
12.4183
12.4867
12.5514
12.6129
12.6712
12.7266
12.7793
12.8296
12.8779
12.9242
12.9689
13.0123
13.0547
13.0962
13.1372
13.1778
13.2184
13.2591
13.3001
13.3417
13.384
13.4272
13.4714
13.5166
13.563
13.6107
13.6596
13.7097
13.7611
13.8136
13.8672
13.9217
13.9772
14.0335
14.0904
14.1478
14.2055
14.2633
14.321
14.3784
14.4352
14.4912
14.5462
14.6
14.6523
14.7029
14.7517
14.7984
14.8427
14.8846
14.9236
14.9596
14.9922
15.0211
15.0461
15.0667
15.0827
15.0936
15.099
15.0987
15.0921
15.0787
15.0582
15.0298
14.9931
14.9473
14.8917
14.8255
14.748
14.6582
14.5553
14.4382
14.306
14.1578
13.9923
13.8087
13.6058
13.3826
13.1381
12.8714
12.5817
12.2683
11.9307
11.5684
11.1815
10.7699
12.118
12.2017
12.2814
12.357
12.4287
12.4966
12.5609
12.6217
12.6793
12.734
12.786
12.8356
12.883
12.9286
12.9725
13.0152
13.0568
13.0976
13.1378
13.1778
13.2178
13.2579
13.2984
13.3395
13.3813
13.4241
13.468
13.513
13.5593
13.6069
13.6558
13.706
13.7575
13.8101
13.864
13.9189
13.9747
14.0314
14.0887
14.1466
14.2049
14.2633
14.3216
14.3796
14.4371
14.4938
14.5494
14.6038
14.6567
14.7079
14.7573
14.8046
14.8497
14.8922
14.9321
14.9689
15.0024
15.0322
15.0582
15.0798
15.0968
15.1088
15.1154
15.1163
15.1111
15.0992
15.0803
15.0537
15.0189
14.9751
14.9218
14.858
14.7829
14.6958
14.5956
14.4813
14.3521
14.2068
14.0443
13.8637
13.6637
13.4433
13.2015
12.9371
12.6493
12.3374
12.0006
11.6387
11.2514
10.8389
12.135
12.2187
12.2982
12.3734
12.4445
12.5117
12.5751
12.635
12.6916
12.7452
12.796
12.8444
12.8907
12.9351
12.9779
13.0194
13.0599
13.0996
13.1388
13.1778
13.2167
13.2559
13.2956
13.3359
13.3771
13.4193
13.4627
13.5074
13.5535
13.601
13.6499
13.7002
13.7519
13.8049
13.8591
13.9145
13.9708
14.0281
14.0861
14.1448
14.2039
14.2632
14.3225
14.3815
14.44
14.4977
14.5542
14.6095
14.6633
14.7154
14.7657
14.814
14.86
14.9037
14.9447
14.9827
15.0176
15.0488
15.0762
15.0994
15.1179
15.1315
15.1399
15.1426
15.1394
15.1297
15.1132
15.0892
15.0572
15.0166
14.9666
14.9064
14.8351
14.7519
14.6558
14.5458
14.421
14.2802
14.1223
13.9463
13.7508
13.5348
13.297
13.0363
12.7516
12.442
12.1067
11.7453
11.3575
10.9434
12.1581
12.2418
12.321
12.3956
12.4659
12.5321
12.5943
12.6529
12.708
12.7601
12.8095
12.8563
12.901
12.9438
12.985
13.025
13.064
13.1022
13.14
13.1776
13.2153
13.2532
13.2917
13.331
13.3713
13.4127
13.4555
13.4997
13.5455
13.5929
13.6419
13.6924
13.7444
13.7978
13.8525
13.9084
13.9655
14.0235
14.0824
14.1421
14.2023
14.2629
14.3236
14.384
14.4439
14.5029
14.5608
14.6172
14.6722
14.7254
14.7768
14.8263
14.8736
14.9187
14.9613
15.001
15.0377
15.0708
15.1002
15.1253
15.1459
15.1616
15.1722
15.1773
15.1767
15.1699
15.1565
15.136
15.1079
15.0714
15.0259
14.9705
14.9043
14.8263
14.7358
14.6316
14.5127
14.378
14.2263
14.0566
13.8673
13.6574
13.4253
13.1698
12.8895
12.5833
12.2503
11.8898
11.5013
11.0851
12.1877
12.2714
12.3501
12.424
12.4932
12.558
12.6187
12.6755
12.7289
12.779
12.8263
12.8712
12.9138
12.9546
12.9939
13.0319
13.069
13.1054
13.1413
13.1772
13.2132
13.2496
13.2866
13.3246
13.3637
13.4041
13.4461
13.4897
13.5351
13.5824
13.6315
13.6823
13.7347
13.7887
13.844
13.9007
13.9585
14.0174
14.0775
14.1384
14.2001
14.2624
14.3249
14.3872
14.4489
14.5096
14.5691
14.627
14.6833
14.7378
14.7905
14.8414
14.8903
14.9372
14.9817
15.0236
15.0626
15.0982
15.13
15.1576
15.1806
15.1989
15.2122
15.2202
15.2226
15.2193
15.2098
15.1936
15.1703
15.1391
15.0992
15.0498
14.99
14.9188
14.8352
14.7383
14.6269
14.4999
14.3563
14.1946
14.0136
13.8116
13.5872
13.3387
13.0645
12.7631
12.4333
12.0742
11.6851
11.2661
12.2243
12.3079
12.3861
12.459
12.5268
12.5899
12.6485
12.7031
12.7541
12.8019
12.8467
12.889
12.9292
12.9676
13.0044
13.0401
13.0748
13.1089
13.1427
13.1765
13.2104
13.2449
13.2801
13.3164
13.3539
13.3931
13.434
13.4769
13.5219
13.5691
13.6184
13.6696
13.7227
13.7774
13.8336
13.891
13.9497
14.0097
14.071
14.1335
14.197
14.2614
14.3262
14.3909
14.455
14.518
14.5794
14.639
14.6967
14.7526
14.8067
14.8591
14.9098
14.9587
15.0057
15.0503
15.0922
15.1308
15.1655
15.1961
15.2221
15.2433
15.2595
15.2707
15.2767
15.2774
15.2724
15.2614
15.2438
15.219
15.186
15.144
15.092
15.0289
14.9537
14.8655
14.7632
14.6458
14.5119
14.3604
14.1897
13.998
13.7836
13.5444
13.2784
12.9837
12.6585
12.3015
11.9118
11.4893
12.2686
12.3521
12.4295
12.5011
12.5671
12.6279
12.684
12.7359
12.784
12.8287
12.8706
12.9099
12.9471
12.9826
13.0166
13.0494
13.0814
13.1129
13.1441
13.1753
13.2068
13.2389
13.2719
13.3061
13.3418
13.3794
13.419
13.461
13.5055
13.5526
13.6023
13.6542
13.7082
13.7639
13.821
13.8794
13.939
14
14.0626
14.1268
14.1925
14.2596
14.3275
14.3955
14.4627
14.5284
14.592
14.6535
14.7127
14.7698
14.8252
14.879
14.9316
14.9829
15.0328
15.0808
15.1263
15.1686
15.207
15.241
15.2702
15.2945
15.314
15.3286
15.3384
15.3434
15.3435
15.3384
15.3276
15.3103
15.2857
15.2525
15.2096
15.156
15.0907
15.0128
14.9212
14.8149
14.6929
14.5537
14.3956
14.217
14.0154
13.7884
13.5335
13.2479
12.9293
12.5756
12.1856
11.7588
12.3215
12.4049
12.4814
12.5512
12.6148
12.6727
12.7256
12.774
12.8185
12.8596
12.8979
12.9337
12.9675
12.9995
13.0302
13.0599
13.0887
13.1171
13.1453
13.1736
13.2022
13.2315
13.2619
13.2936
13.327
13.3625
13.4005
13.4413
13.4852
13.5323
13.5826
13.6358
13.6912
13.7482
13.8065
13.8658
13.9261
13.9879
14.0516
14.1176
14.186
14.2565
14.3286
14.4009
14.4723
14.5414
14.6078
14.671
14.7314
14.7894
14.8456
14.9007
14.955
15.009
15.0624
15.1146
15.1649
15.2119
15.2546
15.2925
15.3252
15.3526
15.3752
15.393
15.4066
15.4162
15.4218
15.4234
15.4204
15.4122
15.3973
15.3746
15.3425
15.2999
15.2458
15.1794
15.1
15.0066
14.8983
14.7737
14.6312
14.4687
14.2835
14.0725
13.8324
13.5595
13.2503
12.9019
12.5121
12.0801
12.3842
12.4676
12.5427
12.6101
12.6705
12.7246
12.7734
12.8175
12.8577
12.8946
12.9286
12.9604
12.9901
13.0183
13.0453
13.0713
13.0966
13.1215
13.1462
13.1711
13.1965
13.2226
13.2497
13.2784
13.309
13.3419
13.3777
13.417
13.4601
13.5074
13.5588
13.6139
13.6716
13.7307
13.7904
13.8504
13.911
13.973
14.0373
14.1048
14.1761
14.2511
14.329
14.4077
14.4848
14.5585
14.6277
14.6925
14.7533
14.8113
14.8675
14.923
14.9789
15.0356
15.0933
15.1513
15.2078
15.261
15.3091
15.3513
15.3874
15.4177
15.4428
15.4635
15.4805
15.4944
15.5057
15.5146
15.5207
15.5232
15.5202
15.5099
15.4902
15.46
15.4183
15.3647
15.2987
15.2197
15.1269
15.0194
14.8954
14.7527
14.5884
14.3985
14.1784
13.9231
13.6276
13.2875
12.8992
12.4609
12.4587
12.5419
12.6151
12.6791
12.7351
12.7843
12.8278
12.8666
12.9016
12.9335
12.9627
12.9897
13.015
13.0388
13.0616
13.0835
13.1049
13.1259
13.1468
13.168
13.1895
13.2119
13.2354
13.2604
13.2874
13.317
13.35
13.387
13.4288
13.4763
13.5295
13.588
13.6498
13.7122
13.7737
13.8339
13.8937
13.9545
14.0182
14.0864
14.1607
14.2416
14.328
14.4165
14.5022
14.5817
14.6539
14.7193
14.7793
14.8356
14.8902
14.9448
15.0012
15.0607
15.1238
15.1897
15.2554
15.3171
15.3719
15.4186
15.4577
15.4899
15.5166
15.5391
15.5585
15.5761
15.5929
15.6095
15.6262
15.6417
15.6536
15.6583
15.653
15.6363
15.6078
15.5676
15.5158
15.4523
15.3767
15.2884
15.1862
15.0678
14.93
14.7678
14.5748
14.3442
14.069
13.7424
13.358
12.9122
12.5476
12.6305
12.7006
12.7595
12.8093
12.8519
12.8888
12.9212
12.95
12.976
12.9996
13.0214
13.0417
13.0608
13.079
13.0965
13.1135
13.1303
13.1471
13.164
13.1814
13.1995
13.2186
13.2393
13.2619
13.2873
13.3162
13.3498
13.3894
13.4367
13.4927
13.5572
13.6269
13.6951
13.7587
13.8179
13.8747
13.9318
13.9923
14.0591
14.1356
14.2239
14.3237
14.4291
14.5283
14.6153
14.6898
14.7537
14.8102
14.8622
14.9125
14.9638
15.0189
15.0804
15.1501
15.2279
15.3088
15.3831
15.446
15.4969
15.5375
15.5699
15.5964
15.6188
15.639
15.6588
15.68
15.7043
15.7329
15.7653
15.7973
15.8209
15.8318
15.8293
15.814
15.7871
15.7495
15.7019
15.6445
15.5774
15.4999
15.4106
15.3065
15.1812
15.0252
14.8293
14.5844
14.28
13.9053
13.4508
12.6556
12.7377
12.802
12.8528
12.8938
12.9276
12.9562
12.9808
13.0024
13.0217
13.0392
13.0552
13.0701
13.084
13.0973
13.11
13.1224
13.1347
13.1469
13.1593
13.172
13.1854
13.1997
13.2152
13.2325
13.2522
13.2755
13.3037
13.339
13.3843
13.4435
13.5188
13.606
13.6844
13.7497
13.8052
13.8552
13.9043
13.9569
14.0179
14.0932
14.1895
14.3112
14.4506
14.5717
14.6669
14.7404
14.7988
14.8475
14.8911
14.9331
14.9772
15.0272
15.0879
15.1648
15.2614
15.3713
15.4654
15.5371
15.5898
15.6288
15.6583
15.6817
15.7015
15.7199
15.7393
15.7623
15.7926
15.834
15.8891
15.9527
16.0014
16.0299
16.0404
16.0367
16.0217
15.9975
15.9653
15.9262
15.881
15.8303
15.7747
15.7131
15.6387
15.5329
15.3849
15.1849
14.919
14.567
14.1056
12.7921
12.8701
12.9228
12.9603
12.9885
13.0108
13.0291
13.0446
13.058
13.07
13.0807
13.0905
13.0996
13.1081
13.1161
13.1239
13.1314
13.1389
13.1463
13.1539
13.1617
13.1699
13.1787
13.1884
13.1993
13.2121
13.2276
13.2472
13.2738
13.3121
13.3707
13.4633
13.5976
13.6922
13.755
13.8001
13.8369
13.8716
13.9092
13.9559
14.0204
14.1183
14.273
14.4981
14.6524
14.7495
14.8128
14.8575
14.8921
14.9219
14.9507
14.9818
15.0198
15.072
15.1508
15.2754
15.4566
15.5796
15.6552
15.7024
15.7334
15.7553
15.7719
15.7859
15.7992
15.8142
15.8342
15.8646
15.915
16.0005
16.1294
16.211
16.2535
16.2719
16.2754
16.2694
16.2565
16.2385
16.2166
16.1922
16.1676
16.1472
16.1377
16.1412
16.101
16.0151
15.8802
15.6816
15.3859
14.9343
12.9814
13.0387
13.0655
13.0811
13.0916
13.0995
13.1059
13.1112
13.1158
13.1198
13.1234
13.1267
13.1298
13.1326
13.1353
13.1379
13.1405
13.143
13.1455
13.148
13.1506
13.1534
13.1564
13.1597
13.1635
13.1679
13.1734
13.1808
13.1917
13.2103
13.2489
13.3474
13.6464
13.7456
13.7857
13.8068
13.8214
13.8343
13.8486
13.8678
13.8996
13.9652
14.1334
14.6472
14.8152
14.8806
14.9119
14.9303
14.9434
14.9542
14.9646
14.9763
14.9919
15.0176
15.0708
15.2074
15.6257
15.7618
15.8139
15.8379
15.8512
15.8596
15.8658
15.8709
15.8758
15.8818
15.8907
15.9074
15.9454
16.0489
16.3742
16.4764
16.5117
16.5243
16.5277
16.5266
16.5227
16.5171
16.5102
16.5033
16.4986
16.5037
16.5433
16.7065
16.7348
16.7153
16.6672
16.5838
16.4291
16.0865
10.2574
9.70204
9.11469
8.49713
7.85147
7.18006
6.48537
5.76997
5.03646
4.2874
3.52532
2.7527
1.97197
1.18547
0.395538
10.2907
9.73391
9.14476
8.52509
7.87711
7.20322
6.50598
5.788
5.05193
4.30034
3.5358
2.76078
1.97769
1.18889
0.396674
10.3577
9.79804
9.2052
8.58124
7.92852
7.24962
6.54722
5.82405
5.08282
4.32618
3.55671
2.77688
1.9891
1.1957
0.398937
10.4594
9.89517
9.29662
8.66602
8.00601
7.3194
6.60912
5.87805
5.12904
4.36479
3.58792
2.8009
2.00611
1.20584
0.402308
10.5971
10.0265
9.41995
8.78009
8.10996
7.41276
6.6917
5.94993
5.19041
4.41596
3.62921
2.83264
2.02857
1.21923
0.406755
10.7727
10.1937
9.57644
8.92429
8.24085
7.52985
6.79491
6.03945
5.26663
4.47936
3.68028
2.87183
2.05627
1.23573
0.412235
10.9891
10.3989
9.7677
9.09963
8.39918
7.67076
6.91853
6.14624
5.35723
4.55449
3.74065
2.91808
2.08892
1.25516
0.418685
11.2497
10.645
9.99567
9.30722
8.58533
7.83537
7.0621
6.26964
5.46149
4.64066
3.80971
2.97087
2.12613
1.27728
0.426027
11.5594
10.9356
10.2626
9.54808
8.79943
8.02317
7.22475
6.40862
5.57836
4.73689
3.8866
3.02952
2.1674
1.3018
0.434159
11.9248
11.2751
10.5709
9.82294
9.04101
8.23299
7.405
6.56162
5.70635
4.84185
3.97022
3.09317
2.21213
1.32835
0.442958
12.3548
11.6691
10.9227
10.1316
9.30852
8.46268
7.60051
6.72642
5.84347
4.95386
4.05921
3.16077
2.25956
1.35647
0.452278
12.8621
12.1237
11.3191
10.4721
9.59863
8.70856
7.80782
6.89997
5.98718
5.07085
4.15192
3.23108
2.30885
1.38568
0.461954
13.4652
12.6444
11.7578
10.8389
9.90519
8.96499
8.02213
7.07834
6.13432
5.19035
4.24649
3.30273
2.35905
1.41542
0.471804
14.1902
13.2309
12.2284
11.2203
10.2181
9.22393
8.23725
7.25682
6.28132
5.30965
4.34088
3.37426
2.40918
1.44511
0.481641
15.0624
13.8605
12.7043
11.5958
10.5228
9.47523
8.44602
7.43024
6.4244
5.42598
4.43307
3.44421
2.45824
1.4742
0.49128
10.1035
10.3105
10.5168
10.7222
10.9262
11.1286
11.3291
11.5274
11.7235
11.9176
12.1104
12.3039
12.5016
12.7125
12.9602
10.1064
10.3189
10.5309
10.7419
10.9515
11.1595
11.3654
11.569
11.7702
11.9691
12.1663
12.3634
12.564
12.7751
13.0096
10.1093
10.3278
10.5456
10.7625
10.978
11.1917
11.4033
11.6123
11.8185
12.0217
12.2221
12.4205
12.619
12.8215
13.0336
10.1124
10.337
10.5611
10.7841
11.0057
11.2255
11.4429
11.6575
11.8688
12.0762
12.2792
12.4775
12.6712
12.8613
13.0501
10.1156
10.3467
10.5772
10.8066
11.0347
11.2608
11.4844
11.705
11.9218
12.1337
12.3396
12.5376
12.7257
12.9018
13.066
10.119
10.3568
10.5939
10.8301
11.0649
11.2977
11.528
11.7551
11.978
12.1954
12.4053
12.6046
12.7884
12.9505
13.0862
10.1225
10.3672
10.6114
10.8546
11.0965
11.3364
11.5739
11.8081
12.0381
12.2623
12.4784
12.6821
12.8661
13.0175
13.1191
10.1261
10.3781
10.6295
10.8801
11.1293
11.3768
11.6219
11.8639
12.102
12.3348
12.5599
12.7734
12.9663
13.119
13.1865
10.1298
10.3893
10.6483
10.9064
11.1634
11.4187
11.6719
11.9225
12.1697
12.4125
12.6496
12.8787
13.0945
13.2796
13.3585
10.1337
10.4008
10.6675
10.9335
11.1985
11.4621
11.7238
11.9834
12.2402
12.4941
12.7447
12.9932
13.2438
13.5139
13.8818
10.1376
10.4126
10.6873
10.9614
11.2346
11.5066
11.7772
12.046
12.3129
12.5777
12.8413
13.1061
13.3793
13.6803
14.0561
10.1416
10.4247
10.7075
10.9898
11.2714
11.5522
11.8317
12.11
12.3868
12.6623
12.9371
13.2131
13.4955
13.7948
14.1289
10.1457
10.4369
10.728
11.0187
11.3089
11.5984
11.8871
12.1749
12.4616
12.7472
13.0318
13.3157
13.5997
13.8849
14.1723
10.1498
10.4493
10.7487
11.0479
11.3468
11.6452
11.9432
12.2405
12.5371
12.8327
13.1269
13.4182
13.7031
13.9733
14.2144
10.1539
10.4618
10.7696
11.0773
11.3849
11.6923
11.9996
12.3066
12.6132
12.9192
13.2239
13.525
13.8165
14.0819
14.2812
10.1581
10.4743
10.7905
11.1068
11.4231
11.7395
12.0561
12.3728
12.6897
13.0066
13.3232
13.6384
13.9478
14.2364
14.4368
10.1622
10.4868
10.8114
11.1362
11.4612
11.7866
12.1124
12.4388
12.766
13.0941
13.4236
13.7556
14.0936
14.4521
14.8977
10.1664
10.4992
10.8321
11.1654
11.4991
11.8333
12.1683
12.5043
12.8415
13.1805
13.5221
13.8684
14.225
14.6071
15.0537
10.1705
10.5114
10.8526
11.1943
11.5365
11.8795
12.2235
12.5688
12.9158
13.2651
13.6173
13.9741
14.3386
14.7173
15.122
10.1745
10.5235
10.8729
11.2227
11.5733
11.9248
12.2776
12.6321
12.9885
13.3474
13.7093
14.0743
14.442
14.8094
15.1686
10.1784
10.5354
10.8927
11.2506
11.6094
11.9693
12.3306
12.6939
13.0594
13.4276
13.7989
14.1726
14.5456
14.907
15.2265
10.1823
10.547
10.9121
11.2779
11.6446
12.0126
12.3823
12.754
13.1283
13.5057
13.8867
14.2712
14.6572
15.0337
15.3487
10.1861
10.5583
10.931
11.3045
11.6789
12.0548
12.4324
12.8123
13.195
13.5812
13.9719
14.3687
14.7752
15.2028
15.7018
10.1897
10.5694
10.9494
11.3303
11.7122
12.0956
12.4809
12.8686
13.2591
13.6534
14.0527
14.4593
14.8784
15.3223
15.8208
10.1933
10.5801
10.9673
11.3553
11.7445
12.1352
12.5277
12.9227
13.3206
13.7221
14.1284
14.5412
14.9641
15.4039
15.8711
10.1967
10.5904
10.9846
11.3795
11.7756
12.1733
12.5728
12.9747
13.3794
13.7875
14.1994
14.616
15.038
15.4661
15.9005
10.2001
10.6004
11.0012
11.4029
11.8057
12.21
12.6162
13.0247
13.4359
13.8499
14.2671
14.6869
15.1074
15.5239
15.9273
10.2033
10.6101
11.0173
11.4254
11.8346
12.2454
12.658
13.0728
13.4902
13.9102
14.3329
14.7571
15.1795
15.5907
15.967
10.2064
10.6193
11.0328
11.447
11.8625
12.2794
12.6982
13.1191
13.5425
13.9686
14.3974
14.8284
15.2594
15.6815
16.0559
10.2094
10.6283
11.0477
11.4679
11.8892
12.3121
12.7368
13.1636
13.5928
14.0249
14.4603
14.8997
15.3453
15.8052
16.3164
10.2122
10.6368
11.0619
11.4879
11.9149
12.3435
12.7738
13.2062
13.6411
14.0789
14.5202
14.9665
15.4211
15.893
16.4042
10.215
10.6451
11.0756
11.507
11.9395
12.3735
12.8093
13.2471
13.6873
14.1303
14.5766
15.0274
15.4847
15.9535
16.4415
10.2176
10.6529
11.0887
11.5253
11.9631
12.4023
12.8432
13.2862
13.7315
14.1793
14.6299
15.0835
15.5403
16.0005
16.4637
10.2201
10.6604
11.1012
11.5429
11.9856
12.4298
12.8757
13.3236
13.7737
14.2262
14.6809
15.1373
15.5935
16.0451
16.4846
10.2225
10.6676
11.1132
11.5595
12.0071
12.456
12.9067
13.3594
13.8143
14.2715
14.7307
15.1911
15.6496
16.098
16.5168
10.2247
10.6744
11.1245
11.5754
12.0275
12.481
12.9363
13.3936
13.8531
14.3152
14.7796
15.2461
15.7125
16.1714
16.5904
10.2269
10.6808
11.1352
11.5905
12.0468
12.5047
12.9643
13.4261
13.8902
14.3571
14.8271
15.3009
15.7804
16.2724
16.8078
10.2289
10.6869
11.1454
11.6047
12.0651
12.5271
12.9909
13.4568
13.9253
14.3966
14.8717
15.3516
15.8395
16.343
16.8804
10.2308
10.6926
11.1549
11.618
12.0823
12.5482
13.0159
13.4857
13.9582
14.4336
14.9127
15.3967
15.8877
16.39
16.9102
10.2326
10.6979
11.1638
11.6305
12.0984
12.5679
13.0392
13.5128
13.9889
14.4679
14.9503
15.4367
15.9278
16.4244
16.9268
10.2342
10.7029
11.1721
11.6422
12.1134
12.5863
13.061
13.5379
14.0174
14.4997
14.9851
15.4734
15.964
16.4546
16.9407
10.2358
10.7075
11.1798
11.6529
12.1273
12.6032
13.0811
13.5612
14.0439
14.5293
15.0176
15.5083
15.9999
16.4877
16.9602
10.2372
10.7117
11.1868
11.6627
12.14
12.6188
13.0996
13.5827
14.0683
14.5568
15.0483
15.5425
16.0383
16.5313
17.0027
10.2384
10.7155
11.1931
11.6717
12.1515
12.633
13.1164
13.6022
14.0907
14.5821
15.0769
15.5754
16.0785
16.5898
17.1264
10.2396
10.7189
11.1988
11.6797
12.1618
12.6457
13.1315
13.6198
14.1109
14.6051
15.1029
15.605
16.1129
16.6306
17.1678
10.2406
10.7219
11.2039
11.6867
12.1709
12.6569
13.1449
13.6354
14.1287
14.6253
15.1257
15.6303
16.1403
16.6576
17.185
10.2414
10.7245
11.2082
11.6928
12.1788
12.6666
13.1565
13.6489
14.1443
14.6429
15.1453
15.6518
16.1626
16.6775
17.1951
10.2422
10.7267
11.2118
11.6979
12.1854
12.6747
13.1662
13.6603
14.1574
14.6578
15.1621
15.6702
16.1818
16.6952
17.2052
10.2427
10.7284
11.2147
11.702
12.1907
12.6812
13.174
13.6695
14.168
14.67
15.1759
15.6859
16.1996
16.7152
17.224
10.2432
10.7297
11.2169
11.7051
12.1947
12.6862
13.1799
13.6764
14.1761
14.6794
15.1868
15.6988
16.216
16.7398
17.2768
10.2435
10.7306
11.2183
11.7071
12.1973
12.6894
13.1839
13.6811
14.1815
14.6858
15.1944
15.7081
16.2277
16.7551
17.2937
10.2436
10.731
11.219
11.7081
12.1986
12.691
13.1858
13.6833
14.1842
14.689
15.1984
15.713
16.2339
16.7623
17.2993
10.2436
10.731
11.219
11.708
12.1985
12.6909
13.1856
13.6832
14.1841
14.689
15.1985
15.7134
16.2347
16.7635
17.3002
10.2434
10.7305
11.2182
11.7069
12.197
12.6891
13.1835
13.6807
14.1812
14.6857
15.1947
15.7091
16.2301
16.7591
17.2977
10.2431
10.7296
11.2166
11.7047
12.1942
12.6855
13.1792
13.6757
14.1755
14.679
15.187
15.7002
16.2197
16.7479
17.2897
10.2427
10.7282
11.2143
11.7014
12.19
12.6803
13.173
13.6684
14.1669
14.6692
15.1756
15.6867
16.2032
16.7269
17.267
10.2421
10.7264
11.2113
11.6972
12.1844
12.6735
13.1648
13.6587
14.1558
14.6564
15.1609
15.6694
16.1815
16.6944
17.1969
10.2413
10.7242
11.2076
11.6919
12.1776
12.6651
13.1546
13.6468
14.142
14.6407
15.1431
15.6495
16.159
16.6691
17.1725
10.2405
10.7215
11.2032
11.6857
12.1695
12.655
13.1426
13.6327
14.1257
14.6222
15.1226
15.6272
16.1361
16.6482
17.1606
10.2394
10.7185
11.1981
11.6786
12.1602
12.6435
13.1288
13.6164
14.107
14.6009
15.0989
15.6018
16.1107
16.6268
17.1507
10.2383
10.7151
11.1924
11.6705
12.1498
12.6305
13.1132
13.5981
14.0857
14.5767
15.0717
15.5721
16.0802
16.6
17.1374
10.2371
10.7114
11.1861
11.6616
12.1382
12.6162
13.0959
13.5778
14.0621
14.5495
15.0407
15.537
16.0413
16.5606
17.1116
10.2357
10.7073
11.1792
11.6519
12.1256
12.6006
13.0771
13.5556
14.0363
14.5196
15.0059
15.4961
15.9918
16.4992
17.0466
10.2342
10.7029
11.1719
11.6415
12.1121
12.5838
13.0569
13.5318
14.0085
14.4874
14.9684
15.4512
15.934
16.41
16.8497
10.2327
10.6982
11.164
11.6304
12.0977
12.566
13.0355
13.5065
13.9792
14.4536
14.9296
15.4061
15.8807
16.3458
16.7836
10.231
10.6932
11.1557
11.6187
12.0825
12.5472
13.013
13.4801
13.9486
14.4187
14.8901
15.3624
15.8338
16.3004
16.7553
10.2293
10.688
11.147
11.6065
12.0666
12.5275
12.9894
13.4525
13.9168
14.3826
14.85
15.3191
15.79
16.2629
16.7375
10.2275
10.6827
11.138
11.5938
12.0501
12.5071
12.965
13.4239
13.8839
14.3453
14.8086
15.2744
15.7448
16.224
16.7188
10.2257
10.6771
11.1287
11.5807
12.0331
12.4861
12.9398
13.3944
13.85
14.3067
14.7652
15.2264
15.6934
16.1741
16.6875
10.2238
10.6713
11.1191
11.5671
12.0156
12.4645
12.914
13.3641
13.815
14.2668
14.7197
15.1742
15.6324
16.1012
16.613
10.2218
10.6655
11.1093
11.5533
11.9977
12.4424
12.8876
13.3333
13.7794
14.226
14.6729
15.1195
15.5637
15.9984
16.3907
10.2198
10.6595
11.0993
11.5393
11.9795
12.42
12.8608
13.302
13.7434
14.185
14.6262
15.0661
15.5017
15.9248
16.3159
10.2178
10.6534
11.0891
11.525
11.961
12.3973
12.8338
13.2704
13.7072
14.144
14.5804
15.0157
15.4481
15.8732
16.284
10.2157
10.6472
11.0788
11.5105
11.9424
12.3743
12.8065
13.2387
13.6709
14.1031
14.5352
14.9673
15.3993
15.8315
16.2641
10.2137
10.641
11.0684
11.4959
11.9236
12.3513
12.779
13.2068
13.6345
14.0622
14.49
14.9186
15.3502
15.7894
16.2439
10.2116
10.6347
11.0579
11.4812
11.9046
12.3281
12.7515
13.1749
13.5981
14.021
14.444
14.8679
15.2958
15.7364
16.2105
10.2095
10.6284
11.0474
11.4665
11.8856
12.3048
12.724
13.143
13.5617
13.9798
14.3972
14.8142
15.2325
15.6598
16.1313
10.2073
10.622
11.0367
11.4516
11.8665
12.2815
12.6965
13.1113
13.5256
13.939
14.3506
14.7594
15.1628
15.5525
15.8944
10.2052
10.6155
11.026
11.4366
11.8473
12.2582
12.6691
13.0799
13.4901
13.8992
14.3059
14.7084
15.1023
15.4784
15.8161
10.203
10.609
11.0151
11.4214
11.828
12.2348
12.6417
13.0487
13.4553
13.8608
14.2642
14.6631
15.0541
15.4308
15.785
10.2008
10.6023
11.0041
11.4061
11.8084
12.2112
12.6143
13.0177
13.4211
13.824
14.2253
14.6233
15.0155
15.3985
15.7696
10.1985
10.5956
10.9928
11.3904
11.7886
12.1873
12.5866
12.9867
13.3872
13.7881
14.1885
14.5874
14.9833
15.3744
15.7598
10.1962
10.5886
10.9813
11.3745
11.7682
12.1628
12.5584
12.9551
13.3531
13.7523
14.1526
14.5535
14.9543
15.3541
15.7523
10.1938
10.5815
10.9695
11.358
11.7473
12.1376
12.5293
12.9226
13.318
13.7157
14.1162
14.5196
14.9259
15.3348
15.7453
10.1913
10.5741
10.9572
11.3409
11.7256
12.1114
12.499
12.8887
13.2812
13.6772
14.0777
14.4835
14.8956
15.3141
15.7379
10.1888
10.5665
10.9445
11.3232
11.703
12.0841
12.4671
12.8527
13.2418
13.6355
14.0353
14.443
14.8606
15.2895
15.7288
10.1861
10.5586
10.9314
11.3048
11.6793
12.0553
12.4333
12.8142
13.1991
13.5894
13.9872
14.3955
14.8178
15.2576
15.7161
10.1834
10.5504
10.9177
11.2857
11.6546
12.025
12.3975
12.7729
13.1525
13.5379
13.9319
14.3382
14.7625
15.2125
15.6956
10.1806
10.5419
10.9036
11.2658
11.6289
11.9933
12.3596
12.7287
13.1017
13.4805
13.8679
14.2683
14.6893
15.1443
15.656
10.1777
10.5333
10.889
11.2453
11.6022
11.9602
12.3197
12.6816
13.0468
13.417
13.7947
14.184
14.5924
15.0365
15.5622
15.9396
14.3954
13.0966
11.9072
10.7786
9.68864
8.62495
7.57998
6.54867
5.52748
4.51379
3.50562
2.5014
1.49983
0.499777
16.2168
14.7112
13.3772
12.1479
10.9843
9.86428
8.77453
7.70654
6.65455
5.61448
4.5833
3.55868
2.53878
1.52205
0.507151
16.3324
14.9077
13.5848
12.3428
11.1596
10.0188
8.9089
7.8219
6.75208
5.69524
4.64819
3.60843
2.57393
1.54299
0.514105
16.3904
15.0335
13.7362
12.4968
11.3054
10.1517
9.02726
7.92524
6.84053
5.76915
4.70798
3.65449
2.60658
1.56248
0.520586
16.4243
15.1177
13.8471
12.6172
11.4248
10.2643
9.12993
8.01647
6.91964
5.83592
4.76238
3.69662
2.63657
1.58043
0.52656
16.4464
15.1766
13.9297
12.7114
11.522
10.3587
9.21796
8.09606
6.98958
5.89554
4.81134
3.73476
2.66382
1.59678
0.532009
16.4619
15.2195
13.9923
12.7855
11.6008
10.4373
9.2928
8.16484
7.0508
5.94826
4.85497
3.76894
2.68834
1.61153
0.536931
16.4733
15.2516
14.0404
12.8442
11.6649
10.5025
9.35607
8.22386
7.10398
5.99448
4.8935
3.7993
2.71022
1.62472
0.54134
16.4819
15.2762
14.0781
12.891
11.717
10.5566
9.40936
8.27423
7.14985
6.03472
4.92729
3.82606
2.72957
1.63642
0.545256
16.4885
15.2954
14.1079
12.9287
11.7596
10.6014
9.45411
8.31704
7.18923
6.06954
4.95672
3.8495
2.74659
1.64674
0.54871
16.4938
15.3107
14.1317
12.9591
11.7945
10.6386
9.49166
8.35331
7.22289
6.09953
4.98222
3.8699
2.76145
1.65576
0.551737
16.498
15.3229
14.1509
12.9839
11.8231
10.6695
9.52313
8.38398
7.25158
6.12525
5.00421
3.88756
2.77436
1.66362
0.554375
16.5013
15.3327
14.1665
13.0041
11.8468
10.6951
9.54951
8.40988
7.27596
6.14724
5.0231
3.90279
2.78552
1.67043
0.556664
16.5041
15.3407
14.1792
13.0208
11.8663
10.7165
9.57161
8.43172
7.29664
6.16599
5.03928
3.91588
2.79514
1.67631
0.55864
16.5063
15.3473
14.1897
13.0345
11.8825
10.7343
9.59015
8.45014
7.31416
6.18194
5.05309
3.9271
2.8034
1.68136
0.560341
16.5082
15.3527
14.1983
13.0459
11.896
10.7492
9.6057
8.46565
7.32899
6.19549
5.06486
3.93668
2.81047
1.6857
0.5618
16.5097
15.3571
14.2055
13.0553
11.9072
10.7616
9.61875
8.47873
7.34153
6.20699
5.07488
3.94485
2.81651
1.6894
0.56305
16.5109
15.3608
14.2114
13.0632
11.9166
10.772
9.62972
8.48976
7.35214
6.21675
5.0834
3.95182
2.82167
1.69257
0.564117
16.512
15.3639
14.2164
13.0697
11.9245
10.7808
9.63895
8.49906
7.36111
6.22502
5.09064
3.95774
2.82606
1.69527
0.565029
16.5128
15.3665
14.2205
13.0752
11.931
10.7881
9.64674
8.50692
7.36871
6.23204
5.09679
3.96279
2.82981
1.69758
0.565807
16.5136
15.3687
14.224
13.0799
11.9366
10.7943
9.65331
8.51358
7.37515
6.238
5.10203
3.96709
2.833
1.69954
0.566471
16.5142
15.3705
14.2269
13.0838
11.9413
10.7996
9.65889
8.51923
7.38064
6.24308
5.10649
3.97076
2.83573
1.70123
0.567039
16.5147
15.372
14.2294
13.0871
11.9452
10.8041
9.66363
8.52405
7.38531
6.24742
5.11031
3.9739
2.83807
1.70267
0.567526
16.5152
15.3733
14.2315
13.0899
11.9486
10.8079
9.6677
8.52817
7.38932
6.25114
5.11359
3.97661
2.84008
1.70391
0.567945
16.5155
15.3745
14.2333
13.0923
11.9516
10.8112
9.6712
8.53174
7.39279
6.25436
5.11643
3.97894
2.84183
1.70498
0.568308
16.5159
15.3754
14.2349
13.0944
11.9541
10.814
9.67425
8.53484
7.39581
6.25718
5.11891
3.98099
2.84335
1.70592
0.568625
16.5162
15.3763
14.2363
13.0963
11.9564
10.8166
9.67695
8.53759
7.39849
6.25966
5.1211
3.98279
2.84469
1.70675
0.568906
16.5164
15.3771
14.2376
13.098
11.9584
10.8188
9.67938
8.54005
7.40089
6.26189
5.12307
3.98441
2.8459
1.70749
0.569157
16.5167
15.3778
14.2387
13.0995
11.9603
10.8209
9.6816
8.54231
7.40308
6.26393
5.12487
3.98589
2.847
1.70817
0.569387
16.5169
15.3785
14.2398
13.101
11.962
10.8229
9.6837
8.54444
7.40515
6.26584
5.12655
3.98728
2.84803
1.70881
0.569601
16.5171
15.3792
14.2409
13.1024
11.9637
10.8248
9.68573
8.5465
7.40714
6.26768
5.12816
3.9886
2.84902
1.70941
0.569805
16.5174
15.3798
14.242
13.1039
11.9655
10.8267
9.68776
8.54854
7.40911
6.2695
5.12975
3.9899
2.84998
1.71001
0.570006
16.5176
15.3805
14.2432
13.1054
11.9673
10.8287
9.68985
8.55064
7.41112
6.27134
5.13136
3.99122
2.85095
1.7106
0.570207
16.5179
15.3813
14.2444
13.107
11.9692
10.8309
9.69207
8.55284
7.41323
6.27327
5.13303
3.99258
2.85195
1.71122
0.570413
16.5182
15.3822
14.2458
13.1088
11.9713
10.8332
9.69448
8.55523
7.41549
6.27532
5.1348
3.99401
2.85301
1.71186
0.57063
16.5185
15.3832
14.2474
13.1109
11.9737
10.8358
9.69717
8.55786
7.41796
6.27754
5.13671