/*--------------------------------*- C++ -*----------------------------------*\
| =========                 |                                                 |
| \\      /  F ield         | OpenFOAM: The Open Source CFD Toolbox           |
|  \\    /   O peration     | Version:  5.x                                   |
|   \\  /    A nd           | Web:      www.OpenFOAM.org                      |
|    \\/     M anipulation  |                                                 |
\*---------------------------------------------------------------------------*/
FoamFile
{
    version     2.0;
    format      ascii;
    class       volScalarField;
    location    "9.1";
    object      gradTx;
}
// * * * * * * * * * * * * * * * * * * * * * * * * * * * * * * * * * * * * * //

dimensions      [0 -1 0 1 0 0 0];

internalField   nonuniform List<scalar> 
6300
(
268.99
268.2
266.618
264.243
261.074
257.109
252.351
246.808
240.496
233.44
225.682
217.278
208.308
198.869
189.079
269.769
268.98
267.4
265.027
261.858
257.89
253.125
247.567
241.229
234.133
226.317
217.836
208.768
199.212
189.288
271.325
270.539
268.963
266.595
263.429
259.459
254.682
249.096
242.709
235.535
227.606
218.972
209.707
199.913
189.716
273.657
272.875
271.308
268.95
265.792
261.824
257.035
251.417
244.965
237.684
229.592
220.73
211.168
201.007
190.386
276.759
275.985
274.432
272.092
268.953
264.998
260.208
254.561
248.04
240.632
232.337
223.179
213.217
202.552
191.337
280.623
279.861
278.332
276.023
272.919
268.996
264.225
258.569
251.992
244.456
235.935
226.424
215.96
204.638
192.628
285.238
284.493
282.998
280.738
277.693
273.832
269.114
263.488
256.892
249.256
240.512
230.612
219.551
207.403
194.355
290.584
289.864
288.417
286.227
283.271
279.512
274.9
269.366
262.82
255.152
246.236
235.951
224.218
211.06
196.666
296.639
295.95
294.565
292.47
289.639
286.033
281.596
276.244
269.86
262.285
253.318
242.727
230.302
215.943
199.804
303.37
302.719
301.412
299.436
296.769
293.374
289.195
284.142
278.079
270.799
262.011
251.328
238.31
222.597
204.185
310.738
310.132
308.915
307.081
304.613
301.487
297.655
293.039
287.501
280.81
272.588
262.253
249.002
231.941
210.567
318.7
318.141
317.024
315.346
313.105
310.292
306.887
302.844
298.064
292.34
285.267
276.084
263.492
245.59
220.468
327.207
326.696
325.679
324.161
322.154
319.675
316.743
313.373
309.557
305.208
300.043
293.311
283.28
266.448
237.281
336.211
335.745
334.82
333.45
331.662
329.498
327.022
324.335
321.568
318.88
316.373
313.825
309.857
299.63
269.773
345.666
345.239
344.392
343.145
341.532
339.616
337.501
335.361
333.488
332.358
332.732
335.744
342.677
352.43
344.723
179.918
171.52
163.15
154.891
146.824
139.024
131.555
124.474
117.825
111.645
105.959
100.786
96.1336
92.0065
88.4025
85.3147
82.7328
80.6424
79.0263
77.8638
77.1312
76.8008
76.8416
77.2184
77.8918
78.8188
79.9531
81.2458
82.6473
84.1083
85.5819
87.0252
88.4
89.6735
90.8177
91.8087
92.6248
93.2453
93.6502
93.8196
93.735
93.3807
92.7455
91.8246
90.6198
89.1399
87.3985
85.4123
83.1979
80.7695
78.1364
75.3024
72.2656
69.0191
65.5528
61.8551
57.9152
53.7236
49.2726
44.5558
39.5668
34.2971
28.735
22.8632
16.6586
10.0921
3.12885
-4.27011
-12.1463
-20.5417
-29.4973
-39.051
-49.2372
-60.086
-71.6231
-83.8697
-96.8422
-110.551
-125
-140.185
-156.088
-172.679
-189.911
-207.716
-226.006
-244.67
-263.579
-282.584
-301.525
-320.234
179.995
171.475
162.982
154.608
146.435
138.54
130.992
123.845
117.146
110.928
105.218
100.03
95.3734
91.2495
87.6552
84.5829
82.0214
79.9562
78.3698
77.2418
76.5487
76.2633
76.3549
76.7881
77.5235
78.5173
79.7218
81.0862
82.5584
84.0869
85.6224
87.1205
88.5425
89.8562
91.0351
92.0573
92.9028
93.5524
93.9858
94.1819
94.12
93.7817
93.1537
92.23
91.0129
89.5132
87.748
85.7378
83.5033
81.0612
78.4228
75.5919
72.5651
69.3333
65.8835
62.2018
58.2757
54.0952
49.6535
44.9463
39.9694
34.7172
29.1799
23.3415
17.1793
10.6631
3.75622
-3.58274
-11.3981
-19.7345
-28.6348
-38.1387
-48.2812
-59.0926
-70.5988
-82.8215
-95.778
-109.481
-123.937
-139.145
-155.092
-171.751
-189.079
-207.01
-225.458
-244.309
-263.43
-282.667
-301.849
-320.799
180.153
171.38
162.639
154.028
145.638
137.553
129.844
122.567
115.767
109.477
103.719
98.5058
93.8417
89.7258
86.1525
83.112
80.5919
78.577
77.0498
75.9904
75.3759
75.1801
75.3729
75.9195
76.7802
77.9095
79.2569
80.768
82.3854
84.052
85.7136
87.3221
88.8377
90.2295
91.4749
92.5567
93.4597
94.1674
94.6596
94.9124
94.8996
94.5965
93.9844
93.0543
91.8095
90.2655
88.4469
86.3835
84.1043
81.6329
78.9838
76.1608
73.1573
69.9587
66.5456
62.8984
59.0004
54.841
50.4152
45.7233
40.7672
35.5468
30.0573
24.2855
18.2092
11.7962
5.00575
-2.2092
-9.89905
-18.1143
-26.9023
-36.3054
-46.36
-57.0964
-68.5402
-80.7134
-93.6353
-107.322
-121.787
-137.035
-153.063
-169.854
-187.371
-205.554
-224.319
-243.551
-263.106
-282.816
-302.494
-321.941
180.401
171.232
162.101
153.121
144.397
136.021
128.067
120.596
113.649
107.256
101.433
96.1863
91.5165
87.4173
83.8787
80.8883
78.4315
76.4923
75.0532
74.0953
73.597
73.5342
73.8784
74.5959
75.6469
76.9843
78.5536
80.2935
82.1383
84.021
85.878
87.6543
89.3077
90.8102
92.1468
93.31
94.2943
95.0892
95.6749
96.0219
96.0937
95.853
95.2696
94.3285
93.0339
91.4098
89.4953
87.3368
84.9791
82.4575
79.7923
76.9868
74.028
70.8906
67.5427
63.9537
60.0997
55.9682
51.5585
46.8794
41.9438
36.7628
31.3399
25.6674
19.7234
13.4725
6.86644
-0.151647
-7.64312
-15.6685
-24.2829
-33.5328
-43.4552
-54.0793
-65.4286
-77.5242
-90.3874
-104.04
-118.503
-133.797
-149.931
-166.904
-184.695
-203.254
-222.501
-242.318
-262.549
-283.003
-303.463
-323.693
180.754
171.023
161.339
151.839
142.649
133.873
125.591
117.864
110.729
104.209
98.3107
93.0326
88.3659
84.2976
80.8121
77.8927
75.5224
73.6841
72.3608
71.5351
71.1882
71.2993
71.8432
72.7891
74.0983
75.7222
77.6013
79.665
81.8336
84.0238
86.1552
88.1602
89.9916
91.6267
93.0646
94.3176
95.3984
96.3085
97.0302
97.5241
97.7343
97.5992
97.0667
96.1083
94.7293
92.969
90.8918
88.5738
86.0868
83.4857
80.8
78.0309
75.1534
72.1228
68.8849
65.3884
61.5965
57.4938
53.0879
48.4032
43.4725
38.3257
32.981
27.439
21.6791
15.6596
9.32032
2.58767
-4.618
-12.374
-20.7474
-29.7903
-39.5386
-50.016
-61.2397
-73.227
-85.9994
-99.5858
-114.021
-129.343
-145.585
-162.772
-180.905
-199.956
-219.854
-240.479
-261.659
-283.171
-304.75
-326.105
181.236
170.738
160.303
150.106
140.299
131.005
122.311
114.273
106.921
100.262
94.2917
88.9945
84.35
80.3352
76.927
74.1034
71.8441
70.1313
68.9489
68.2823
68.1172
68.4382
69.2263
70.4563
72.0935
74.0897
76.3803
78.882
81.4949
84.1079
86.6111
88.9126
90.9547
92.7235
94.2454
95.5696
96.7445
97.7956
98.7099
99.4312
99.8685
99.9144
99.4732
98.4902
96.9706
94.9809
92.6318
90.051
87.3559
84.6327
81.9248
79.2284
76.4967
73.6509
70.5968
67.2463
63.5386
59.4543
55.0166
50.2797
45.3109
40.1721
34.9052
29.5235
24.0078
18.3067
12.3404
6.00808
-0.800215
-8.18981
-16.2472
-25.0308
-34.5705
-44.8761
-55.9492
-67.7962
-80.4363
-93.9059
-108.258
-123.557
-139.874
-157.27
-175.788
-195.432
-216.152
-237.833
-260.283
-283.234
-306.35
-329.253
181.882
170.355
158.917
147.803
137.206
127.268
118.081
109.691
102.107
95.3192
89.2991
84.0128
79.4237
75.496
72.1969
69.4982
67.376
65.8118
64.7914
64.3045
64.3436
64.9017
65.9702
67.5345
69.5689
72.0305
74.8521
77.9361
81.1528
84.3467
87.3542
90.0352
92.3077
94.1725
95.7073
97.0327
98.2654
99.4762
100.664
101.744
102.563
102.927
102.656
101.641
99.8853
97.5069
94.7021
91.6896
88.662
85.7548
83.03
80.4735
78.0016
75.4764
72.7331
69.6161
66.0209
61.9217
57.374
52.4881
47.3926
42.2016
36.9934
31.7998
26.6026
21.3351
15.8869
10.1138
3.85472
-3.04371
-10.7006
-19.1815
-28.4985
-38.6292
-49.5423
-61.2208
-73.6757
-86.9518
-101.126
-116.303
-132.603
-150.149
-169.044
-189.35
-211.059
-234.071
-258.176
-283.047
-308.245
-333.255
182.75
169.836
157.06
144.749
133.156
122.446
112.7
103.941
96.1447
89.2658
83.2457
78.0235
73.5416
69.7483
66.5995
64.0597
62.1017
60.7065
59.863
59.5668
59.8198
60.6277
61.9976
63.9329
66.4263
69.4502
72.9431
76.796
80.8406
84.8504
88.5644
91.7424
94.2445
96.0931
97.4671
98.6259
99.814
101.187
102.768
104.429
105.907
106.85
106.908
105.856
103.692
100.643
97.0683
93.3464
89.7919
86.6112
83.8898
81.594
79.5801
77.6135
75.4045
72.6723
69.2263
65.0329
60.2165
54.9967
49.6102
44.2543
39.0593
34.08
29.2977
24.623
19.9007
14.9187
9.43024
3.19466
-3.9669
-12.1273
-21.2539
-31.2541
-42.0313
-53.525
-65.7299
-78.7008
-92.5476
-107.428
-123.534
-141.078
-160.261
-181.24
-204.082
-228.727
-254.959
-282.377
-310.399
-338.29
183.93
169.111
154.525
140.654
127.83
116.228
105.895
96.799
88.8578
81.9721
76.0395
70.9649
66.6648
63.0694
60.1224
57.7808
56.0144
54.8045
54.1438
54.0359
54.4945
55.5422
57.2084
59.5249
62.5173
66.1916
70.5131
75.3767
80.5753
85.7769
90.5428
94.4197
97.1187
98.6933
99.5333
100.173
101.093
102.596
104.752
107.374
110.019
112.044
112.754
111.666
108.771
104.534
99.6423
94.7587
90.3803
86.8033
84.1339
82.3055
81.0879
80.0966
78.8269
76.7537
73.5057
69.039
63.6379
57.7433
51.7818
46.0741
40.8133
36.0757
31.8367
27.9786
24.2878
20.4526
16.0812
10.7664
4.20526
-3.68131
-12.7503
-22.7591
-33.4872
-44.8028
-56.6788
-69.1856
-82.4776
-96.7823
-112.39
-129.641
-148.887
-170.441
-194.5
-221.091
-250.022
-280.829
-312.728
-344.633
185.574
168.045
150.954
135.046
120.74
108.176
97.3066
87.9897
80.0475
73.3026
67.5949
62.788
58.7706
55.4541
52.7708
50.6715
49.1234
48.1093
47.6264
47.6871
48.3185
49.5636
51.4807
54.1413
57.6238
61.9987
67.2994
73.4723
80.3023
87.3277
93.7977
98.7895
101.609
102.348
101.884
101.313
101.527
103.06
106.062
110.281
115.02
119.127
121.183
120.076
115.78
109.362
102.202
95.4403
89.8111
85.6854
83.1643
82.1344
82.2672
82.9776
83.4037
82.5241
79.5373
74.3883
67.7678
60.5844
53.5859
47.2486
41.8125
37.3521
33.8263
31.0922
28.8818
26.7579
24.0902
20.1324
14.2859
6.46761
-2.89301
-13.2272
-24.096
-35.2719
-46.7171
-58.537
-70.9465
-84.2565
-98.8782
-115.325
-134.184
-156.027
-181.266
-210.076
-242.373
-277.699
-315.038
-352.723
187.945
166.34
145.674
127.123
111.137
97.6776
86.477
77.196
69.509
63.136
57.8498
53.4717
49.8644
46.9245
44.5761
42.7662
41.4616
40.647
40.3246
40.5145
41.257
42.6155
44.6802
47.5719
51.443
56.4701
62.8271
70.6188
79.745
89.6747
99.1779
106.284
109.09
107.73
104.386
101.32
100.058
101.404
105.614
112.436
120.928
129.158
134.163
133.073
125.842
115.254
104.183
94.4881
87.0735
82.2536
80.044
80.2862
82.6118
86.265
89.8578
91.326
88.6796
81.854
72.7061
63.157
54.436
47.1235
41.4053
37.2811
34.6745
33.4506
33.3504
33.8453
33.956
32.2175
27.2056
18.8372
8.36633
-2.92482
-14.2617
-25.3521
-36.2141
-47.0376
-58.1159
-69.8392
-82.7347
-97.53
-115.179
-136.719
-162.883
-194.033
-230.353
-271.659
-316.839
-363.292
191.537
163.273
137.342
115.503
97.8889
83.9241
72.8808
64.1047
57.0757
51.4019
46.7945
43.043
39.9952
37.5413
35.604
34.1315
33.0924
32.4744
32.2832
32.5444
33.3068
34.6487
36.687
39.5904
43.5956
49.0242
56.2865
65.8409
78.0277
92.6324
108.006
119.969
122.564
115.964
106.485
98.7233
94.83
95.6213
101.403
112.179
127.21
143.83
155.916
154.905
140.736
121.836
104.178
90.2496
80.5965
75.0603
73.3906
75.4353
81.0418
89.6363
99.3683
106.05
103.837
92.6609
78.2195
64.5351
53.256
44.7011
38.7013
35.0237
33.5305
34.1899
36.9608
41.4846
46.4834
49.0153
44.9577
34.2335
20.8066
7.44353
-4.78179
-15.7602
-25.7652
-35.1694
-44.3543
-53.7313
-63.8524
-75.6227
-90.5661
-110.746
-137.316
-170.535
-211.147
-260.031
-316.798
-377.631
197.369
156.84
123.11
97.796
79.3814
65.9594
56.0158
48.4943
42.6887
38.13
34.5045
31.5994
29.2689
27.4124
25.9614
24.871
24.1156
23.6859
23.5892
23.8513
24.5208
25.6776
27.4466
30.0206
33.697
38.9356
46.4432
57.2696
72.8259
94.4794
121.74
147.138
149.277
128.338
106.108
90.5527
82.8524
82.6485
89.9957
105.792
131.2
165.025
196.521
195.682
162.435
126.627
98.7993
79.8509
68.188
62.2967
61.3856
65.4526
75.1663
91.3664
113.269
133.577
131.898
108.167
82.6402
62.4473
48.1513
38.5978
32.6519
29.6194
29.2855
31.8874
38.0455
48.4385
62.5613
75.3004
72.3078
53.5205
33.1541
16.1734
2.90266
-7.56961
-16.1805
-23.6156
-30.3143
-36.5501
-42.5931
-49.1435
-58.4095
-75.5679
-102.17
-136.387
-180.023
-237.041
-310.887
-398.21
207.724
140.61
96.7525
70.1487
53.6815
42.9833
35.6607
30.4111
26.5042
23.5127
21.1756
19.3271
17.8588
16.6985
15.7982
15.1274
14.6687
14.4168
14.3776
14.5705
15.0321
15.8239
17.0461
18.8623
21.5472
25.5783
31.8191
41.8853
58.8409
88.2482
138.154
207.792
209.215
142.567
96.1152
71.0676
60.0769
58.799
66.4179
85.5619
123.063
189.57
283.68
283.117
187.819
119.923
80.63
58.9585
47.4661
42.3594
42.2102
47.3362
59.9479
84.8823
129.46
192.761
191.709
126.255
79.3773
51.8659
36.2158
27.298
22.4062
20.3282
20.8119
24.4627
33.0308
50.0198
80.6296
124.236
122.4
75.0793
40.6251
19.5602
6.55731
-2.05907
-8.28845
-13.1213
-16.9401
-19.6449
-20.6019
-18.7521
-14.8857
-26.7883
-56.0542
-88.6699
-129.621
-189.811
-285.558
-430.229
227.923
90.8859
45.5458
27.9019
19.6717
15.1446
12.319
10.3931
9.00027
7.95209
7.14224
6.50656
6.00441
5.60931
5.30397
5.07745
4.92369
4.84083
4.83123
4.90212
5.06721
5.34993
5.78934
6.45218
7.45811
9.03822
11.685
16.5785
26.9232
52.4955
126.149
366.668
367.169
127.708
55.2964
31.3378
23.3129
22.1358
26.2417
38.8935
73.1546
174.359
507.16
506.961
173.735
72.0245
37.0836
23.4061
17.5471
15.2818
15.4368
18.439
26.9828
50.1094
118.684
344.61
344.25
117.589
48.2242
24.2026
14.5843
10.1999
8.10793
7.34744
7.7771
9.95614
15.8889
31.985
79.9799
238.605
237.986
78.1078
28.8141
11.3371
3.89513
0.0142546
-2.407
-4.08692
-5.16912
-5.25627
-2.65154
8.73602
51.3456
46.9951
-5.11306
-28.9469
-51.51
-91.3701
-189.77
-485.214
-340.321
-361.464
-381.527
-400.303
-417.63
-433.395
-447.529
-460.003
-470.816
-479.987
-487.55
-493.541
-497.998
-500.95
-502.42
-341.139
-362.53
-382.801
-401.738
-419.177
-435.01
-449.174
-461.648
-472.44
-481.579
-489.104
-495.059
-499.484
-502.413
-503.872
-342.801
-364.701
-385.396
-404.655
-422.316
-438.277
-452.492
-464.958
-475.701
-484.767
-492.211
-498.088
-502.447
-505.329
-506.763
-345.37
-368.066
-389.412
-409.157
-427.14
-443.275
-457.543
-469.973
-480.621
-489.56
-496.868
-502.616
-506.869
-509.676
-511.071
-348.949
-372.768
-395.013
-415.407
-433.795
-450.123
-464.417
-476.752
-487.232
-495.967
-503.065
-508.622
-512.719
-515.416
-516.754
-353.697
-379.03
-402.45
-423.649
-442.494
-458.989
-473.231
-485.37
-495.57
-503.993
-510.785
-516.071
-519.95
-522.496
-523.757
-359.859
-387.191
-412.092
-434.229
-453.526
-470.09
-484.133
-495.908
-505.665
-513.63
-519.993
-524.909
-528.497
-530.843
-532.002
-367.817
-397.768
-424.484
-447.634
-467.273
-483.695
-497.286
-508.446
-517.534
-524.848
-530.627
-535.055
-538.266
-540.357
-541.388
-378.181
-411.566
-440.428
-464.533
-484.223
-500.111
-512.853
-523.04
-531.158
-537.582
-542.594
-546.396
-549.136
-550.912
-551.786
-391.965
-429.872
-461.115
-485.828
-504.958
-519.655
-530.956
-539.685
-546.457
-551.71
-555.748
-558.78
-560.95
-562.351
-563.038
-410.973
-454.826
-488.314
-512.688
-530.107
-542.574
-551.609
-558.268
-563.257
-567.031
-569.885
-572.006
-573.514
-574.483
-574.957
-438.704
-490.129
-524.608
-546.484
-560.191
-568.905
-574.617
-578.503
-581.25
-583.253
-584.735
-585.824
-586.594
-587.089
-587.331
-482.78
-542.359
-573.487
-588.431
-595.249
-598.219
-599.426
-599.856
-599.97
-599.975
-599.954
-599.937
-599.929
-599.927
-599.927
-562.505
-623.019
-638.529
-638.478
-634.137
-629.273
-624.987
-621.503
-618.779
-616.701
-615.148
-614.018
-613.235
-612.742
-612.503
-736.147
-748.664
-719.108
-692.788
-673.529
-659.724
-649.72
-642.369
-636.922
-632.879
-629.893
-627.73
-626.227
-625.279
-624.82
354.713
354.313
353.52
352.352
350.845
349.061
347.114
345.211
343.721
343.322
345.294
352.229
370.164
416.824
560.361
363.205
362.824
362.068
360.949
359.492
357.749
355.813
353.868
352.256
351.633
353.258
359.564
375.195
408.074
463.097
371.951
371.586
370.857
369.768
368.328
366.559
364.509
362.283
360.094
358.372
357.959
360.414
368.235
383.934
404.194
380.94
380.59
379.886
378.821
377.381
375.552
373.316
370.662
367.597
364.189
360.658
357.529
355.792
356.615
359.514
390.162
389.829
389.156
388.121
386.693
384.816
382.404
379.316
375.327
370.081
363.065
353.666
341.561
327.844
317.002
399.603
399.294
398.664
397.684
396.305
394.44
391.949
388.586
383.918
377.192
367.116
351.673
328.438
297.065
267.116
409.247
408.971
408.404
407.513
406.24
404.488
402.09
398.749
393.928
386.616
374.882
355.081
320.957
265.289
196.588
419.073
418.839
418.356
417.594
416.496
414.973
412.872
409.929
405.657
399.1
388.238
368.424
328.428
242.554
78.5105
429.049
428.867
428.491
427.894
427.035
425.847
424.229
422.02
418.958
414.562
407.8
395.772
367.748
274.095
-153.324
439.141
439.018
438.765
438.364
437.79
437.008
435.983
434.693
433.172
431.654
431.008
434.215
452.633
537.41
959.042
449.305
449.248
449.13
448.941
448.674
448.324
447.911
447.513
447.369
448.13
451.526
462.08
491.423
566.783
723.536
459.498
459.509
459.529
459.559
459.602
459.672
459.815
460.145
460.924
462.763
467.062
476.882
498.244
539.615
597.075
469.67
469.749
469.909
470.155
470.496
470.955
471.579
472.452
473.727
475.673
478.752
483.655
491.156
501.259
510.707
479.776
479.921
480.216
480.669
481.293
482.111
483.157
484.467
486.049
487.783
489.161
488.609
482.247
463.344
431.094
489.767
489.976
490.4
491.049
491.94
493.094
494.539
496.28
498.248
500.126
500.898
497.582
482.034
434.683
329.279
499.6
499.869
500.414
501.247
502.387
503.862
505.701
507.923
510.495
513.223
515.459
515.033
503.893
446.324
154.464
509.233
509.557
510.213
511.216
512.588
514.362
516.584
519.31
522.616
526.648
531.855
539.909
557.981
620.652
914.842
518.628
519.001
519.757
520.912
522.492
524.537
527.104
530.28
534.215
539.243
546.26
557.81
581.084
634.186
742.058
527.749
528.166
529.009
530.297
532.058
534.334
537.188
540.709
545.038
550.44
557.501
567.555
583.456
609.667
644.4
536.567
537.021
537.938
539.338
541.249
543.715
546.794
550.561
555.099
560.471
566.65
573.22
578.653
579.212
571.08
545.055
545.539
546.517
548.007
550.038
552.654
555.909
559.865
564.562
569.926
575.511
579.659
577.22
554.774
492.333
553.193
553.7
554.724
556.283
558.405
561.133
564.522
568.64
573.542
579.21
585.356
590.653
589.666
558.095
370.444
560.964
561.488
562.544
564.15
566.334
569.136
572.616
576.856
581.973
588.148
595.775
605.995
623.333
669.79
866.746
568.357
568.891
569.967
571.6
573.815
576.651
580.166
584.449
589.65
596.06
604.376
616.375
636.763
676.953
751.773
575.364
575.903
576.987
578.628
580.849
583.679
587.168
591.39
596.467
602.633
610.405
620.913
636.423
660.048
688.992
581.982
582.521
583.603
585.238
587.44
590.232
593.646
597.721
602.509
608.074
614.516
621.957
630.432
639.429
646.546
588.211
588.746
589.819
591.435
593.604
596.338
599.649
603.543
607.993
612.888
617.919
622.266
624.062
620.1
609.277
594.054
594.582
595.64
597.231
599.358
602.025
605.232
608.962
613.148
617.592
621.778
624.327
621.674
605.516
564.728
599.514
600.034
601.075
602.636
604.718
607.319
610.436
614.049
618.105
622.459
626.759
629.982
628.648
608.021
492.092
604.598
605.109
606.131
607.662
609.699
612.239
615.279
618.814
622.834
627.346
632.47
638.784
649.002
676.69
796.379
609.312
609.814
610.817
612.317
614.311
616.794
619.764
623.225
627.202
631.792
637.338
644.856
657.208
681.452
726.837
613.661
614.154
615.139
616.612
618.566
620.994
623.892
627.262
631.124
635.557
640.818
647.553
657.137
671.513
689.057
617.651
618.137
619.106
620.554
622.471
624.849
627.676
630.941
634.629
638.729
643.258
648.253
653.719
659.357
663.707
621.288
621.768
622.724
624.151
626.039
628.374
631.14
634.309
637.829
641.587
645.357
648.605
650.167
648.075
641.627
624.576
625.051
625.997
627.409
629.276
631.582
634.307
637.418
640.841
644.419
647.802
650.11
649.134
639.799
615.316
627.517
627.99
628.93
630.333
632.188
634.48
637.192
640.293
643.726
647.37
650.976
653.875
653.89
642.026
572.252
630.115
630.586
631.524
632.924
634.777
637.07
639.79
642.922
646.442
650.329
654.623
659.623
666.879
684.449
757.171
632.37
632.841
633.78
635.183
637.04
639.344
642.086
645.265
648.883
652.987
657.763
663.786
672.688
688.553
716.658
634.281
634.754
635.697
637.105
638.974
641.294
644.064
647.284
650.967
655.16
660.02
665.928
673.645
684.136
695.917
635.847
636.323
637.271
638.69
640.573
642.915
645.712
648.966
652.676
656.85
661.534
666.793
672.658
678.806
683.611
637.067
637.546
638.502
639.933
641.834
644.2
647.028
650.314
654.041
658.17
662.629
667.218
671.458
674.389
674.898
637.938
638.421
639.385
640.83
642.751
645.145
648.01
651.338
655.104
659.244
663.616
667.866
671.148
671.634
666.795
638.456
638.943
639.917
641.377
643.32
645.745
648.654
652.041
655.888
660.137
664.669
669.167
672.763
672.56
655.589
638.619
639.111
640.094
641.568
643.533
645.992
648.948
652.408
656.37
660.817
665.729
671.074
676.998
685.11
706.504
638.425
638.92
639.911
641.398
643.384
645.873
648.876
652.409
656.493
661.156
666.469
672.56
679.694
688.418
698.889
637.869
638.367
639.365
640.863
642.865
645.379
648.419
652.011
656.192
661.025
666.651
673.301
681.268
690.492
698.807
636.951
637.451
638.452
639.957
641.97
644.5
647.563
651.187
655.415
660.326
666.104
673.107
681.95
693.178
704.762
635.669
636.169
637.172
638.679
640.696
643.232
646.301
649.927
654.141
659.006
664.687
671.615
680.958
695.597
719.026
634.022
634.521
635.522
637.027
639.042
641.574
644.635
648.24
652.395
657.101
662.386
668.426
676.27
691.89
749.824
632.011
632.508
633.504
635.002
637.008
639.529
642.576
646.154
650.245
654.774
659.543
663.964
666.163
658.779
605.376
629.638
630.131
631.118
632.604
634.595
637.1
640.131
643.693
647.768
652.263
656.922
661.024
662.692
657.606
639.849
626.906
627.393
628.367
629.836
631.805
634.287
637.3
640.861
644.977
649.618
654.67
659.754
663.895
665.211
662.255
623.82
624.298
625.256
626.699
628.638
631.087
634.071
637.625
641.8
646.671
652.378
659.117
667.04
675.762
682.872
620.385
620.852
621.788
623.2
625.097
627.497
630.428
633.941
638.117
643.124
649.351
657.636
669.614
687.413
708.691
616.61
617.063
617.972
619.343
621.186
623.518
626.367
629.779
633.835
638.711
644.877
653.571
668.125
696.628
749.551
612.503
612.94
613.816
615.138
616.915
619.161
621.897
625.152
628.961
633.386
638.627
645.416
656.931
688.864
827.427
608.076
608.494
609.333
610.598
612.298
614.444
617.051
620.124
623.637
627.474
631.286
633.96
631.538
607.032
472.502
603.341
603.738
604.535
605.736
607.351
609.389
611.863
614.773
618.068
621.561
624.716
626.021
621.463
601.586
553.702
598.315
598.688
599.437
600.568
602.089
604.013
606.358
609.138
612.339
615.865
619.414
622.133
622.009
615.57
601.91
593.013
593.36
594.057
595.109
596.526
598.325
600.533
603.193
606.362
610.134
614.67
620.199
626.922
634.548
640.893
587.453
587.772
588.411
589.377
590.679
592.335
594.38
596.876
599.946
603.854
609.219
617.415
631.191
654.396
684.54
581.656
581.944
582.521
583.392
584.566
586.056
587.896
590.144
592.927
596.543
601.784
610.735
628.895
669.404
749.38
575.643
575.898
576.409
577.179
578.212
579.517
581.112
583.025
585.308
588.087
591.756
597.641
611.059
656.983
870.017
569.436
569.657
570.099
570.763
571.649
572.759
574.091
575.631
577.323
578.996
580.169
579.297
570.631
528.495
317.353
563.06
563.246
563.617
564.174
564.912
565.828
566.909
568.116
569.331
570.233
569.987
566.346
553.429
517.354
439.808
556.538
556.689
556.99
557.439
558.032
558.764
559.623
560.578
561.535
562.251
562.145
559.817
552.293
534.993
508.66
549.896
550.012
550.242
550.585
551.036
551.594
552.256
553.023
553.884
554.823
555.828
556.878
557.929
558.889
559.473
543.158
543.239
543.399
543.636
543.947
544.333
544.802
545.385
546.16
547.332
549.465
553.918
563.612
583.027
610.937
536.348
536.394
536.485
536.618
536.788
536.996
537.253
537.599
538.138
539.158
541.473
547.299
562.527
601.246
682.027
529.489
529.502
529.526
529.555
529.583
529.606
529.627
529.663
529.763
530.066
531.026
534.131
545.114
590.237
809.46
522.606
522.587
522.546
522.474
522.363
522.201
521.975
521.667
521.225
520.502
519.074
515.474
503.974
458.306
238.465
515.721
515.672
515.569
515.403
515.16
514.822
514.366
513.749
512.862
511.412
508.615
502.285
486.547
447.312
365.946
508.855
508.778
508.62
508.368
508.004
507.508
506.854
506.003
504.869
503.241
500.592
495.611
485.421
465.56
437.157
502.026
501.926
501.72
501.392
500.922
500.286
499.464
498.438
497.201
495.761
494.174
492.538
490.994
489.723
488.877
495.251
495.133
494.887
494.496
493.936
493.178
492.2
491.005
489.654
488.368
487.775
489.381
496.362
513.574
540.241
488.544
488.412
488.139
487.702
487.069
486.204
485.073
483.665
482.043
480.478
479.832
482.473
494.611
530.841
610.355
481.912
481.775
481.488
481.025
480.346
479.4
478.124
476.46
474.372
471.934
469.591
468.953
476.112
518.033
735.916
475.362
475.227
474.944
474.481
473.792
472.807
471.431
469.534
466.925
463.31
458.15
450.001
433.457
383.011
159.587
468.891
468.768
468.508
468.078
467.425
466.468
465.086
463.087
460.158
455.743
448.77
436.863
414.33
368.099
281.746
462.49
462.389
462.173
461.812
461.252
460.41
459.154
457.272
454.405
449.938
442.801
431.086
411.647
381.035
344.155
456.146
456.076
455.925
455.667
455.258
454.623
453.644
452.125
449.744
445.972
439.996
430.656
416.71
398.31
381.167
449.835
449.804
449.735
449.611
449.403
449.059
448.494
447.564
446.032
443.521
439.515
433.407
424.85
414.698
406.49
443.533
443.545
443.568
443.598
443.626
443.633
443.584
443.408
442.98
442.093
440.478
437.843
434.084
429.721
426.326
437.208
437.264
437.38
437.569
437.846
438.231
438.748
439.414
440.228
441.157
442.135
443.042
443.724
444.056
444.017
430.832
430.926
431.128
431.463
431.975
432.723
433.795
435.302
437.378
440.172
443.826
448.381
453.59
458.634
461.895
424.376
424.5
424.768
425.219
425.922
426.975
428.526
430.781
434.014
438.575
444.876
453.248
463.558
474.432
482.25
417.821
417.961
418.265
418.786
419.609
420.866
422.756
425.567
429.709
435.753
444.475
456.752
473.117
492.334
508.247
411.155
411.294
411.598
412.127
412.978
414.303
416.334
419.416
424.065
431.059
441.589
457.399
480.682
512.514
545.506
404.381
404.498
404.761
405.229
406.002
407.236
409.169
412.163
416.775
423.893
435.023
452.84
482.293
531.869
605.886
397.511
397.588
397.768
398.105
398.691
399.669
401.254
403.774
407.729
413.927
423.799
440.182
469.915
534.231
717.875
-1217.55
-902.381
-789.983
-736.075
-704.621
-684.132
-669.933
-659.73
-652.249
-646.717
-642.634
-639.671
-637.608
-636.303
-635.671
-1029.34
-901.287
-813.776
-759.814
-725.255
-701.934
-685.515
-673.607
-664.815
-658.275
-653.422
-649.884
-647.411
-645.843
-645.082
-930.299
-872.02
-814.249
-770.058
-738.069
-714.925
-697.945
-685.304
-675.803
-668.643
-663.279
-659.338
-656.569
-654.807
-653.949
-871.984
-842.376
-805.273
-771.807
-744.723
-723.616
-707.34
-694.803
-685.151
-677.748
-672.129
-667.961
-665.012
-663.126
-662.205
-834.482
-817.917
-793.75
-769.105
-747.21
-728.935
-714.119
-702.283
-692.922
-685.597
-679.953
-675.72
-672.7
-670.758
-669.807
-808.738
-798.716
-782.538
-764.472
-747.166
-731.831
-718.809
-708.026
-699.262
-692.26
-686.779
-682.617
-679.623
-677.685
-676.733
-790.208
-783.771
-772.616
-759.291
-745.737
-733.103
-721.922
-712.351
-704.364
-697.85
-692.668
-688.686
-685.794
-683.912
-682.983
-776.403
-772.083
-764.181
-754.248
-743.651
-733.348
-723.895
-715.558
-708.428
-702.498
-697.706
-693.978
-691.247
-689.458
-688.573
-765.854
-762.863
-757.137
-749.646
-741.344
-732.985
-725.074
-717.908
-711.644
-706.336
-701.984
-698.56
-696.029
-694.361
-693.532
-757.636
-755.524
-751.299
-745.588
-739.059
-732.29
-725.714
-719.616
-714.178
-709.494
-705.6
-702.502
-700.193
-698.663
-697.901
-751.141
-749.633
-746.473
-742.079
-736.922
-731.444
-726
-720.849
-716.173
-712.084
-708.642
-705.877
-703.8
-702.415
-701.723
-745.949
-744.871
-742.486
-739.079
-734.991
-730.557
-726.063
-721.734
-717.743
-714.207
-711.196
-708.754
-706.907
-705.67
-705.049
-741.762
-740.998
-739.188
-736.534
-733.282
-729.691
-725.99
-722.368
-718.982
-715.946
-713.335
-711.199
-709.573
-708.479
-707.928
-738.362
-737.832
-736.458
-734.384
-731.793
-728.884
-725.84
-722.82
-719.962
-717.372
-715.124
-713.271
-711.852
-710.893
-710.409
-735.585
-735.234
-734.195
-732.574
-730.508
-728.152
-725.653
-723.142
-720.74
-718.543
-716.619
-715.023
-713.793
-712.959
-712.537
-733.309
-733.096
-732.317
-731.052
-729.406
-727.501
-725.453
-723.371
-721.36
-719.504
-717.868
-716.501
-715.442
-714.721
-714.356
-731.437
-731.332
-730.758
-729.777
-728.468
-726.93
-725.255
-723.534
-721.855
-720.295
-718.909
-717.744
-716.839
-716.219
-715.905
-729.894
-729.874
-729.464
-728.709
-727.673
-726.434
-725.068
-723.649
-722.253
-720.945
-719.777
-718.789
-718.018
-717.489
-717.219
-728.622
-728.67
-728.39
-727.817
-727.002
-726.009
-724.898
-723.731
-722.573
-721.481
-720.499
-719.665
-719.01
-718.56
-718.33
-727.573
-727.675
-727.5
-727.074
-726.439
-725.646
-724.746
-723.789
-722.831
-721.921
-721.099
-720.396
-719.842
-719.46
-719.265
-726.71
-726.856
-726.764
-726.457
-725.968
-725.34
-724.613
-723.83
-723.039
-722.283
-721.595
-721.004
-720.537
-720.214
-720.048
-726.002
-726.183
-726.159
-725.948
-725.577
-725.082
-724.498
-723.859
-723.206
-722.579
-722.004
-721.508
-721.113
-720.84
-720.699
-725.426
-725.634
-725.664
-725.53
-725.255
-724.869
-724.401
-723.879
-723.341
-722.819
-722.338
-721.921
-721.588
-721.356
-721.236
-724.96
-725.191
-725.264
-725.192
-724.993
-724.694
-724.319
-723.893
-723.448
-723.013
-722.609
-722.256
-721.974
-721.776
-721.674
-724.592
-724.84
-724.947
-724.923
-724.784
-724.554
-724.253
-723.902
-723.531
-723.166
-722.824
-722.524
-722.282
-722.112
-722.024
-724.307
-724.568
-724.701
-724.714
-724.621
-724.444
-724.2
-723.908
-723.595
-723.283
-722.99
-722.731
-722.521
-722.374
-722.297
-724.098
-724.369
-724.52
-724.559
-724.5
-724.362
-724.16
-723.911
-723.641
-723.37
-723.113
-722.885
-722.7
-722.568
-722.5
-723.956
-724.234
-724.397
-724.455
-724.418
-724.305
-724.132
-723.912
-723.671
-723.428
-723.197
-722.99
-722.821
-722.702
-722.64
-723.879
-724.16
-724.329
-724.396
-724.371
-724.272