/*--------------------------------*- C++ -*----------------------------------*\
| =========                 |                                                 |
| \\      /  F ield         | OpenFOAM: The Open Source CFD Toolbox           |
|  \\    /   O peration     | Version:  5.x                                   |
|   \\  /    A nd           | Web:      www.OpenFOAM.org                      |
|    \\/     M anipulation  |                                                 |
\*---------------------------------------------------------------------------*/
FoamFile
{
    version     2.0;
    format      ascii;
    class       volScalarField;
    location    "10.2";
    object      gradTx;
}
// * * * * * * * * * * * * * * * * * * * * * * * * * * * * * * * * * * * * * //

dimensions      [0 -1 0 1 0 0 0];

internalField   nonuniform List<scalar> 
6300
(
162.293
161.814
160.854
159.414
157.493
155.092
152.212
148.859
145.044
140.783
136.101
131.035
125.631
119.95
114.063
162.765
162.286
161.327
159.888
157.966
155.563
152.678
149.315
145.483
141.196
136.479
131.366
125.903
120.151
114.183
163.707
163.229
162.273
160.835
158.914
156.508
153.613
150.232
146.369
142.034
137.247
132.04
126.457
120.561
114.428
165.12
164.644
163.691
162.258
160.34
157.932
155.028
151.625
147.719
143.317
138.429
133.083
127.319
121.201
114.813
167
166.528
165.583
164.158
162.249
159.845
156.936
153.511
149.56
145.077
140.064
134.536
128.529
122.106
115.359
169.343
168.878
167.944
166.536
164.644
162.255
159.352
155.916
151.926
147.361
142.206
136.462
130.15
123.33
116.103
172.144
171.688
170.772
169.39
167.528
165.17
162.294
158.869
154.859
150.227
144.932
138.948
132.272
124.953
117.101
175.392
174.949
174.059
172.714
170.9
168.597
165.776
162.397
158.409
153.748
148.34
142.117
135.033
127.102
118.44
179.075
178.649
177.793
176.499
174.754
172.534
169.807
166.527
162.624
158.007
152.557
146.141
138.633
129.977
120.265
183.175
182.77
181.957
180.728
179.072
176.969
174.385
171.27
167.545
163.09
157.734
151.249
143.375
133.9
122.823
187.671
187.29
186.527
185.376
183.83
181.875
179.485
176.615
173.187
169.066
164.031
157.738
149.711
139.421
126.566
192.539
192.184
191.475
190.41
188.989
187.208
185.056
182.511
179.514
175.949
171.578
165.953
158.305
147.5
132.397
197.753
197.424
196.769
195.791
194.498
192.901
191.013
188.847
186.401
183.63
180.371
176.185
170.046
159.869
142.344
203.287
202.982
202.375
201.477
200.301
198.875
197.239
195.454
193.604
191.789
190.081
188.36
185.818
179.577
161.646
209.116
208.831
208.265
207.43
206.346
205.05
203.605
202.116
200.762
199.833
199.796
201.347
205.278
210.965
206.316
108.558
103.517
98.4956
93.5454
88.7147
84.0482
79.5852
75.3593
71.3981
67.7228
64.3494
61.2883
58.5458
56.124
54.0219
52.2357
50.7593
49.5843
48.7005
48.0955
47.7551
47.6626
47.799
48.143
48.6705
49.3551
50.168
51.0793
52.0579
53.0733
54.0962
55.0995
56.0592
56.9544
57.7668
58.4808
59.0817
59.5556
59.8889
60.0678
60.0795
59.9132
59.5611
59.0195
58.2892
57.3756
56.2873
55.035
53.6293
52.0794
50.3914
48.5676
46.6066
44.5041
42.2533
39.8469
37.2779
34.5401
31.6289
28.5404
25.2705
21.8144
18.1645
14.3102
10.2369
5.92596
1.35519
-3.50043
-8.66758
-14.1734
-20.0443
-26.3049
-32.9777
-40.0821
-47.6351
-55.6504
-64.1386
-73.1067
-82.5571
-92.4864
-102.884
-113.729
-124.99
-136.625
-148.574
-160.767
-173.118
-185.531
-197.901
-210.12
108.599
103.483
98.3886
93.3687
88.4742
83.7511
79.24
74.9748
70.9828
67.285
63.8964
60.8267
58.0811
55.6609
53.5644
51.7872
50.3228
49.1628
48.2967
47.7124
47.3958
47.3306
47.498
47.8766
48.4422
49.1679
50.0243
50.98
52.0026
53.0602
54.122
55.16
56.1498
57.0709
57.9062
58.641
59.2619
59.7558
60.1086
60.3058
60.3333
60.1783
59.8315
59.2886
58.5508
57.6246
56.5211
55.2534
53.8348
52.2762
50.5848
48.763
46.8086
44.7156
42.4755
40.0795
37.5192
34.7884
31.8829
28.8001
25.5377
22.0924
18.4581
14.6249
10.5786
6.29978
1.7652
-3.05178
-8.17967
-13.6473
-19.4824
-25.7106
-32.3548
-39.4348
-46.9676
-54.9672
-63.445
-72.4093
-81.8643
-91.8088
-102.235
-113.124
-124.449
-136.166
-148.218
-160.533
-173.022
-185.586
-198.113
-210.488
108.681
103.414
98.1693
93.0071
87.9825
83.1449
78.5369
74.1931
70.1405
66.3988
62.9812
59.8955
57.1449
54.7289
52.6443
50.8857
49.4457
48.3155
47.4847
46.9416
46.6724
46.6615
46.8906
47.3386
47.9812
48.7904
49.7352
50.7818
51.8948
53.0386
54.1795
55.2873
56.3368
57.3086
58.1876
58.9625
59.6226
60.1564
60.5496
60.7859
60.8472
60.7168
60.3818
59.836
59.081
58.1266
56.9888
55.6868
54.2394
52.6619
50.9638
49.1473
47.2082
45.1368
42.9206
40.5467
38.0044
35.2867
32.3909
29.3172
26.0672
22.6415
19.0371
15.2461
11.2544
7.0416
2.58173
-2.15543
-7.20231
-12.5915
-18.3536
-24.5163
-31.1031
-38.134
-45.6259
-53.5931
-62.0484
-71.0024
-80.4632
-90.4345
-100.914
-111.889
-123.337
-135.219
-147.478
-160.04
-172.812
-185.685
-198.535
-211.234
108.812
103.306
97.8269
92.443
87.2171
82.2041
77.4495
72.9886
68.8472
65.0427
61.5851
58.4789
55.724
53.3171
51.2525
49.523
48.1201
47.0347
46.2564
45.774
45.5749
45.6445
45.9658
46.5184
47.2779
48.2154
49.2973
50.4858
51.7403
53.0189
54.2823
55.496
56.6335
57.6771
58.6166
59.4468
60.1628
60.7566
61.2142
61.5151
61.6346
61.5474
61.2333
60.6819
59.8957
58.8902
57.6906
56.3272
54.8291
53.2193
51.5109
49.7061
47.7963
45.7648
43.591
41.2547
38.7404
36.0401
33.1536
30.0869
26.8487
23.4468
19.8839
16.1555
12.248
8.13887
3.79735
-0.813081
-5.73189
-10.9981
-16.6475
-22.7103
-29.2107
-36.168
-43.5979
-51.5143
-59.9313
-68.8631
-78.3237
-88.3252
-98.8743
-109.97
-121.596
-133.723
-146.296
-159.24
-172.452
-185.808
-199.168
-212.377
108.999
103.154
97.3428
91.6469
86.1408
80.8873
75.9353
71.3204
67.0655
63.1838
59.6802
56.5537
53.7994
51.4097
49.3756
47.6874
46.3353
45.3093
44.5997
44.1963
44.0883
44.2631
44.7059
45.3981
46.3161
47.4301
48.7036
50.0928
51.5485
53.0189
54.4541
55.8119
57.063
58.1929
59.2005
60.0927
60.8763
61.5504
62.1017
62.5031
62.7169
62.7021
62.4238
61.8634
61.0238
59.9306
58.6259
57.1592
55.5773
53.9161
52.1948
50.4141
48.5575
46.5958
44.4935
42.2172
39.7426
37.06
34.1744
31.1021
27.8649
24.4828
20.9681
17.322
13.5315
9.57033
5.4
0.973288
-3.76102
-8.85279
-14.3455
-20.2732
-26.6594
-33.5203
-40.8674
-48.7126
-57.0704
-65.9595
-75.4025
-85.4235
-96.0445
-107.28
-119.131
-131.579
-144.576
-158.045
-171.875
-185.921
-200.009
-213.95
109.255
102.95
96.6877
90.5726
84.6965
79.1321
73.9321
69.1299
64.7432
60.7775
57.2293
54.0899
51.3472
48.9879
46.9983
45.3657
44.0785
43.1263
42.5
42.1913
42.1922
42.4937
43.0849
43.9506
45.0698
46.4132
47.941
49.6017
51.3333
53.0671
54.7348
56.2792
57.6645
58.882
59.948
60.8926
61.7447
62.5182
63.2023
63.7585
64.1258
64.2333
64.018
63.444
62.5145
61.2731
59.7919
58.1544
56.4374
54.6972
52.9619
51.2291
49.4681
47.6273
45.6449
43.4633
41.0427
38.3707
35.4623
32.3535
29.0886
25.7084
22.2409
18.6953
15.0601
11.3025
7.37149
3.20247
-1.27533
-6.12978
-11.4169
-17.1749
-23.4238
-30.1709
-37.4183
-45.171
-53.4422
-62.2558
-71.6459
-81.6545
-92.326
-103.7
-115.803
-128.637
-142.17
-156.326
-170.982
-185.964
-201.053
-216.003
109.603
102.68
95.8154
89.1498
82.799
76.8484
71.3521
66.3375
61.8114
57.7665
54.1869
51.0522
48.3406
46.0312
44.1047
42.5446
41.3372
40.4719
39.9408
39.7386
39.8612
40.3054
41.0664
42.136
43.4988
45.1288
46.9847
49.0061
51.1128
53.2081
55.1906
56.973
58.5048
59.7868
60.8678
61.8228
62.7235
63.6121
64.4843
65.283
65.9059
66.2264
66.1261
65.5338
64.4519
62.958
61.1803
59.2618
57.3285
55.4687
53.7231
52.0823
50.4915
48.8605
47.081
45.0515
42.7034
40.0199
37.0374
33.8283
30.477
27.0586
23.6248
20.197
16.7641
13.2838
9.68528
5.87604
1.75268
-2.78361
-7.80982
-13.369
-19.47
-26.0999
-33.2402
-40.8811
-49.031
-57.7193
-66.996
-76.9279
-87.5921
-99.0664
-111.417
-124.683
-138.86
-153.882
-169.614
-185.845
-202.289
-218.612
110.075
102.319
94.6522
87.2691
80.3214
73.9068
68.0751
62.8384
58.1835
54.0827
50.501
47.4025
44.7526
42.5209
40.6815
39.2136
38.1014
37.3343
36.9064
36.8161
37.0655
37.659
38.6018
39.8971
41.541
43.5171
45.7878
48.2856
50.9064
53.5093
55.9319
58.0251
59.7023
60.9785
61.9664
62.8284
63.7169
64.7271
65.8692
67.0576
68.1188
68.8222
68.94
68.3258
66.9796
65.0489
62.7691
60.388
58.1112
56.0736
54.331
52.8613
51.5707
50.3052
48.8752
47.0968
44.845
42.098
38.9371
35.5063
31.9608
28.4299
24.9991
21.7049
18.5357
15.4346
12.3019
9.00158
5.37513
1.26803
-3.43513
-8.78223
-14.754
-21.2932
-28.3397
-35.8567
-43.8425
-52.3333
-61.4001
-71.144
-81.6881
-93.1669
-105.709
-119.414
-134.327
-150.409
-167.522
-185.41
-203.692
-221.892
110.725
101.827
93.0754
84.7575
77.072
70.1226
63.9385
58.4988
53.7554
49.6485
46.1171
43.1042
40.5602
38.4437
36.7215
35.3683
34.3668
33.7065
33.3841
33.4029
33.7724
34.5077
35.6281
37.1542
39.103
41.4791
44.2617
47.386
50.7234
54.0676
57.1451
59.6738
61.4746
62.5826
63.2436
63.7931
64.5321
65.6495
67.1847
69.0127
70.8438
72.2586
72.8048
72.1692
70.3461
67.6398
64.5008
61.3616
58.5471
56.2513
54.5436
53.3804
52.6114
51.9844
51.1692
49.8215
47.6981
44.7702
41.2239
37.3481
33.4221
29.6559
26.1758
23.0318
20.2085
17.6301
15.1594
12.5962
9.68938
6.17784
1.86688
-3.29566
-9.22053
-15.755
-22.7608
-30.1559
-37.9252
-46.1155
-54.8269
-64.205
-74.4352
-85.7326
-98.3219
-112.402
-128.103
-145.445
-164.309
-184.399
-205.205
-226.02
111.642
101.121
90.8691
81.3314
72.7586
65.233
58.7266
53.1538
48.4082
44.3836
40.9842
38.1287
35.7504
33.7969
32.2282
31.0152
30.1391
29.5905
29.3689
29.4831
29.951
30.8003
32.0684
33.801
36.0479
38.854
42.2413
46.1773
50.5285
55.0074
59.1458
62.3681
64.2418
64.8279
64.6785
64.482
64.7997
65.9671
68.0759
70.9601
74.1656
76.9425
78.3683
77.7194
74.9815
70.8509
66.2303
61.8648
58.2336
55.5798
53.9698
53.3299
53.4452
53.9326
54.2278
53.6612
51.7076
48.3309
43.9835
39.2606
34.6518
30.4685
26.8672
23.8961
21.5279
19.6698
18.1491
16.685
14.874
12.2384
8.39502
3.28872
-2.80887
-9.53764
-16.6205
-23.915
-31.4001
-39.1458
-47.2913
-56.0364
-65.6425
-76.4344
-88.7835
-103.053
-119.511
-138.283
-159.325
-182.348
-206.696
-231.279
112.982
100.021
87.6305
76.5118
66.9331
58.872
52.1668
46.6145
42.02
38.2159
35.0661
32.4638
30.3272
28.5946
27.221
26.1753
25.4385
25.0022
24.869
25.0525
25.5788
26.4884
27.8386
29.7056
32.1857
35.3902
39.429
44.3686
50.1476
56.4351
62.4633
67.0014
68.8604
68.1292
66.1782
64.4278
63.8409
64.9262
67.8473
72.4419
78.1013
83.5687
86.9159
86.2747
81.6189
74.7647
67.5898
61.308
56.51
53.4026
51.9966
52.1895
53.7407
56.1556
58.5249
59.4959
57.7642
53.2873
47.2821
41.0071
35.2672
30.4415
26.6501
23.8908
22.1115
21.2229
21.0565
21.2727
21.2451
20.0378
16.7413
11.3003
4.51172
-2.81014
-10.1747
-17.399
-24.4987
-31.5989
-38.8907
-46.6257
-55.1398
-64.891
-76.4762
-90.5475
-107.584
-127.846
-151.482
-178.385
-207.838
-238.142
115.039
98.0951
82.5553
69.471
58.9195
50.5563
43.9451
38.6942
34.4921
31.1042
28.3578
26.127
24.3207
22.8738
21.7403
20.8896
20.3038
19.9763
19.9118
20.1271
20.6536
21.541
22.8631
24.7261
27.279
30.7236
35.3177
41.3491
49.0321
58.2337
67.9239
75.4895
77.2056
73.1842
67.3859
62.6954
60.4713
61.239
65.2062
72.3873
82.3102
93.2445
101.203
100.607
91.4185
79.1373
67.6601
58.6118
52.3501
48.7731
47.7191
49.091
52.7902
58.4417
64.8333
69.22
67.7715
60.4423
50.967
41.9813
34.5646
28.9239
24.9456
22.4733
21.4118
21.735
23.4119
26.2106
29.3138
30.8449
28.1746
21.2518
12.5999
3.97883
-3.93029
-11.0619
-17.5955
-23.7747
-29.8502
-36.0914
-42.8534
-50.7043
-60.5856
-73.7688
-91.0072
-112.547
-138.926
-170.743
-207.748
-247.442
118.42
94.1422
73.9404
58.7799
47.7519
39.7147
33.762
29.2614
25.7901
23.0674
20.9056
19.1774
17.7957
16.7006
15.8513
15.2214
14.7962
14.5708
14.5507
14.7527
15.2077
15.9665
17.1075
18.7521
21.0868
24.4002
29.1351
35.9495
45.7274
59.3262
76.4408
92.3975
93.8095
80.7945
66.9954
57.4089
52.7906
52.9417
57.9343
68.3815
85.0592
107.201
127.805
127.309
105.667
82.3487
64.2302
51.9005
44.3216
40.5081
39.9466
42.6391
49.0261
59.6596
74.0262
87.3438
86.2443
70.6853
53.9445
40.6946
31.3031
25.0112
21.0715
19.0233
18.7174
20.2966
24.1509
30.7087
39.6453
47.7004
45.7301
33.6925
20.6429
9.74242
1.1945
-5.58589
-11.2019
-16.099
-20.57
-24.8059
-28.9971
-33.592
-39.938
-51.1475
-68.2338
-90.2721
-118.537
-155.625
-203.774
-260.78
124.492
84.3169
58.062
42.1345
32.275
25.8698
21.4863
18.345
16.0087
14.2218
12.8279
11.728
10.8572
10.1725
9.64546
9.25797
9.00012
8.8691
8.86923
9.01307
9.32393
9.84065
10.6262
11.7834
13.4845
16.0287
19.9568
26.2807
36.9188
55.3532
86.6216
130.246
131.184
89.5303
60.5355
44.9657
38.2398
37.6703
42.8052
55.4009
79.9359
123.367
184.788
184.454
122.327
78.0683
52.4617
38.346
30.8691
27.5588
27.4866
30.8651
39.1453
55.4993
84.7264
126.225
125.535
82.6272
51.893
33.8499
23.5769
17.7103
14.4726
13.0635
13.3074
15.5814
20.9959
31.7799
51.2445
78.9902
77.7809
47.5886
25.5904
12.1178
3.77396
-1.7864
-5.84295
-9.03635
-11.6274
-13.584
-14.5582
-13.957
-12.2854
-20.0615
-38.327
-59.0286
-85.4353
-124.574
-187.041
-281.539
136.442
54.4424
27.3094
16.7492
11.8225
9.11239
7.42095
6.26848
5.43556
4.80937
4.32632
3.94801
3.65017
3.417
3.23822
3.10737
3.02098
2.97809
2.98038
3.03252
3.14323
3.32727
3.60922
4.03096
4.66749
5.66359
7.32762
10.3984
16.8818
32.8968
79.0061
229.555
229.886
80.0333
34.7408
19.7853
14.8222
14.1829
16.9309
25.2253
47.5987
113.624
330.69
330.571
113.253
46.9255
24.144
15.2299
11.4153
9.94539
10.0567
12.0312
17.6364
32.7995
77.7526
225.85
225.615
77.0355
31.5644
15.8146
9.50466
6.62292
5.23993
4.72291
4.97328
6.34329
10.1079
20.3496
50.9166
151.972
151.564
49.6832
18.2601
7.10705
2.34503
-0.152391
-1.72674
-2.84081
-3.59792
-3.77604
-2.38751
4.13696
28.9723
26.1301
-4.91103
-19.5674
-33.9968
-59.9221
-124.175
-317.231
-223.237
-237.044
-250.147
-262.408
-273.724
-284.02
-293.251
-301.399
-308.461
-314.452
-319.392
-323.306
-326.217
-328.145
-329.106
-223.771
-237.739
-250.977
-263.344
-274.733
-285.073
-294.324
-302.472
-309.521
-315.49
-320.406
-324.296
-327.187
-329.1
-330.053
-224.855
-239.156
-252.67
-265.247
-276.781
-287.205
-296.489
-304.631
-311.648
-317.571
-322.433
-326.272
-329.12
-331.003
-331.94
-226.531
-241.351
-255.289
-268.183
-279.927
-290.465
-299.784
-307.903
-314.858
-320.698
-325.472
-329.227
-332.006
-333.84
-334.751
-228.865
-244.417
-258.942
-272.26
-284.268
-294.932
-304.268
-312.326
-319.172
-324.879
-329.516
-333.147
-335.823
-337.585
-338.46
-231.961
-248.5
-263.791
-277.634
-289.942
-300.715
-310.019
-317.948
-324.612
-330.115
-334.553
-338.008
-340.542
-342.206
-343.03
-235.978
-253.82
-270.079
-284.534
-297.137
-307.957
-317.13
-324.823
-331.199
-336.403
-340.562
-343.774
-346.119
-347.653
-348.41
-241.163
-260.715
-278.159
-293.276
-306.104
-316.831
-325.711
-333.004
-338.943
-343.724
-347.501
-350.395
-352.495
-353.862
-354.535
-247.914
-269.708
-288.554
-304.296
-317.159
-327.54
-335.867
-342.526
-347.832
-352.033
-355.31
-357.797
-359.589
-360.75
-361.321
-256.89
-281.637
-302.041
-318.185
-330.684
-340.29
-347.678
-353.386
-357.815
-361.252
-363.894
-365.878
-367.299
-368.215
-368.664
-269.264
-297.9
-319.775
-335.703
-347.09
-355.243
-361.154
-365.512
-368.778
-371.25
-373.12
-374.51
-375.498
-376.133
-376.444
-287.319
-320.911
-343.445
-357.75
-366.718
-372.424
-376.167
-378.717
-380.521
-381.837
-382.811
-383.528
-384.035
-384.36
-384.52
-316.027
-354.969
-375.331
-385.118
-389.594
-391.553
-392.358
-392.652
-392.737
-392.75
-392.744
-392.739
-392.738
-392.739
-392.741
-367.997
-407.593
-417.775
-417.781
-414.975
-411.821
-409.041
-406.78
-405.014
-403.666
-402.66
-401.929
-401.422
-401.103
-400.949
-481.3
-489.615
-470.382
-453.236
-440.69
-431.699
-425.185
-420.4
-416.856
-414.226
-412.285
-410.879
-409.902
-409.286
-408.988
214.712
214.44
213.902
213.106
212.072
210.838
209.47
208.091
206.925
206.381
207.236
211.061
221.499
249.204
335.018
219.98
219.719
219.198
218.424
217.41
216.185
214.802
213.369
212.088
211.355
211.931
215.29
224.248
243.604
276.353
225.424
225.17
224.662
223.9
222.887
221.633
220.163
218.533
216.865
215.414
214.684
215.624
219.767
228.696
240.532
231.036
230.79
230.295
229.543
228.525
227.225
225.627
223.716
221.485
218.963
216.271
213.727
211.957
211.76
213.036
236.812
236.577
236.099
235.364
234.349
233.015
231.302
229.114
226.299
222.622
217.748
211.285
203.046
193.794
186.53
242.745
242.524
242.072
241.372
240.387
239.061
237.299
234.94
231.703
227.105
220.32
210.07
194.832
174.44
155.086
248.823
248.623
248.212
247.568
246.653
245.401
243.703
241.367
238.047
233.098
225.291
212.312
190.191
154.359
110.309
255.033
254.86
254.504
253.945
253.145
252.043
250.542
248.469
245.514
241.067
233.846
220.895
195.066
139.98
35.0489
261.355
261.216
260.93
260.48
259.836
258.955
257.769
256.176
254.007
250.956
246.371
238.413
220.251
160.21
-112.969
267.765
267.666
267.461
267.14
266.684
266.069
265.272
264.276
263.102
261.901
261.231
263.009
274.511
328.448
597.667
274.236
274.18
274.065
273.884
273.631
273.302
272.905
272.49
272.207
272.469
274.383
280.842
299.295
347.172
447.138
280.737
280.727
280.705
280.67
280.623
280.572
280.543
280.605
280.924
281.882
284.37
290.337
303.636
329.712
366.161
287.238
287.273
287.344
287.454
287.607
287.816
288.108
288.534
289.185
290.223
291.931
294.729
299.093
305.039
310.628
293.705
293.785
293.948
294.198
294.542
294.994
295.572
296.297
297.166
298.091
298.726
298.025
293.442
280.602
259.11
300.107
300.231
300.482
300.865
301.392
302.074
302.926
303.951
305.097
306.15
306.439
304.005
293.516
262.165
192.801
306.415
306.58
306.913
307.424
308.122
309.026
310.152
311.512
313.08
314.73
316.033
315.57
308.069
270.117
78.4611
312.598
312.801
313.212
313.84
314.7
315.812
317.206
318.918
320.997
323.54
326.843
332.01
343.759
384.798
577.818
318.632
318.869
319.35
320.085
321.091
322.393
324.03
326.059
328.579
331.811
336.349
343.869
359.097
393.925
464.713
324.49
324.759
325.301
326.13
327.264
328.731
330.573
332.849
335.655
339.166
343.774
350.362
360.815
378.066
400.918
330.153
330.448
331.043
331.952
333.195
334.799
336.804
339.262
342.228
345.748
349.812
354.158
357.8
358.306
353.144
335.601
335.918
336.557
337.532
338.862
340.576
342.711
345.311
348.403
351.943
355.645
358.431
356.953
342.468
301.941
340.819
341.153
341.827
342.853
344.251
346.049
348.287
351.009
354.254
358.014
362.102
365.654
365.128
344.704
222.75
345.796
346.142
346.841
347.904
349.349
351.206
353.515
356.332
359.735
363.845
368.919
375.697
387.109
417.437
545.567
350.521
350.876
351.591
352.677
354.15
356.038
358.38
361.238
364.712
368.995
374.542
382.508
395.942
422.238
470.986
354.99
355.349
356.072
357.168
358.65
360.542
362.877
365.706
369.113
373.255
378.474
385.51
395.831
411.433
430.421
359.199
359.559
360.284
361.378
362.854
364.727
367.019
369.762
372.991
376.756
381.134
386.216
392.042
398.264
403.209
363.147
363.506
364.226
365.311
366.769
368.608
370.839
373.468
376.483
379.82
383.291
386.394
387.964
385.969
379.598
366.835
367.191
367.903
368.974
370.407
372.205
374.371
376.896
379.739
382.778
385.693
387.624
386.35
376.7
351.729
370.266
370.616
371.318
372.372
373.778
375.535
377.643
380.091
382.844
385.81
388.765
391.067
390.541
378.06
306.688
373.442
373.787
374.478
375.513
376.891
378.61
380.669
383.063
385.786
388.837
392.28
396.46
403.023
420.302
494.219
376.367
376.707
377.386
378.402
379.753
381.436
383.45
385.796
388.488
391.579
395.273
400.183
408.052
423.199
451.288
379.045
379.38
380.048
381.047
382.372
384.021
385.989
388.278
390.897
393.89
397.408
401.839
408.012
417.096
428.037
381.48
381.81
382.468
383.451
384.754
386.37
388.295
390.519
393.032
395.823
398.898
402.272
405.939
409.69
412.559
383.675
384
384.65
385.619
386.903
388.494
390.381
392.548
394.961
397.548
400.167
402.488
403.796
402.881
399.249
385.632
385.955
386.597
387.557
388.827
390.399
392.262
394.395
396.753
399.237
401.63
403.393
403.185
397.947
383.591
387.355
387.674
388.312
389.265
390.526
392.089
393.944
396.074
398.443
400.977
403.52
405.654
406.054
399.333
358.14
388.844
389.162
389.797
390.745
392.003
393.564
395.423
397.574
400.004
402.7
405.68
409.105
413.857
424.644
467.951
390.1
390.417
391.051
391.997
393.254
394.819
396.689
398.869
401.367
404.211
407.519
411.621
417.454
427.359
444.323
391.125
391.442
392.074
393.021
394.279
395.848
397.73
399.932
402.473
405.389
408.793
412.92
418.212
425.159
432.654
391.919
392.236
392.868
393.814
395.074
396.646
398.535
400.75
403.302
406.217
409.553
413.397
417.809
422.564
426.369
392.482
392.798
393.43
394.377
395.637
397.212
399.104
401.32
403.864
406.739
409.948
413.464
417.154
420.615
422.907
392.814
393.129
393.761
394.708
395.969
397.544
399.437
401.651
404.182
407.015
410.118
413.398
416.645
419.464
421.216
392.914
393.23
393.861
394.807
396.067
397.643
399.537
401.75
404.276
407.092
410.152
413.339
416.422
419.039
420.922
392.785
393.1
393.729
394.674
395.933
397.508
399.402
401.619
404.153
406.988
410.084
413.338
416.51
419.111
420.15
392.425
392.739
393.367
394.309
395.566
397.139
399.033
401.255
403.807
406.689
409.895
413.38
416.982
420.255
422.245
391.835
392.148
392.774
393.712
394.965
396.534
398.425
400.649
403.218
406.152
409.5
413.327
417.668
422.276
425.902
391.018
391.328
391.95
392.884
394.13
395.692
397.575
399.792
402.36
405.316
408.759
412.904
418.156
424.967
432.256
389.972
390.281
390.898
391.825
393.063
394.613
396.482
398.679
401.218
404.128
407.518
411.697
417.548
427.31
443.853
388.702
389.007
389.619
390.537
391.764
393.3
395.15
397.318
399.802
402.595
405.717
409.314
414.212
424.931
467.118
387.207
387.51
388.114
389.022
390.236
391.756
393.587
395.726
398.156
400.819
403.575
406.015
406.82
400.685
360.938
385.492
385.79
386.386
387.282
388.48
389.984
391.798
393.921
396.334
398.968
401.639
403.836
404.236
399.767
386.252
383.559
383.852
384.438
385.319
386.499
387.985
389.783
391.903
394.344
397.079
400.019
402.893
405.019
405.117
402.357
381.412
381.698
382.271
383.135
384.293
385.755
387.533
389.65
392.136
395.034
398.433
402.455
407.2
412.44
416.72
379.055
379.334
379.892
380.733
381.863
383.292
385.038
387.131
389.625
392.63
396.403
401.502
409.023
420.417
434.229
376.495
376.764
377.303
378.117
379.212
380.597
382.29
384.322
386.746
389.68
393.439
398.853
408.145
426.701
461.503
373.736
373.994
374.513
375.294
376.346
377.675
379.296
381.229
383.498
386.146
389.314
393.498
400.82
421.689
513.118
370.787
371.033
371.527
372.272
373.273
374.538
376.076
377.893
379.972
382.239
384.472
385.949
384.076
367.663
278.643
367.657
367.889
368.355
369.058
370.004
371.199
372.652
374.363
376.301
378.344
380.144
380.713
377.419
364.047
332.268
364.355
364.572
365.007
365.664
366.548
367.669
369.038
370.665
372.542
374.606
376.66
378.147
377.748
373.203
363.988
360.893
361.092
361.493
362.099
362.916
363.955
365.235
366.784
368.64
370.863
373.56
376.876
380.944
385.59
389.473
357.281
357.462
357.825
358.375
359.116
360.062
361.235
362.677
364.469
366.781
370.018
375.071
383.728
398.495
417.817
353.534
353.694
354.017
354.505
355.162
356
357.039
358.319
359.922
362.045
365.203
370.752
382.256
408.224
459.741
349.665
349.804
350.084
350.505
351.071
351.787
352.665
353.725
355.001
356.578
358.717
362.284
370.729
400.198
537.602
345.689
345.806
346.04
346.393
346.862
347.45
348.156
348.97
349.858
350.712
351.227
350.417
344.589
317.204
180.823
341.622
341.716
341.905
342.187
342.56
343.021
343.561
344.155
344.726
345.07
344.648
342.022
333.411
309.892
259.703
337.479
337.551
337.694
337.906
338.185
338.525
338.919
339.344
339.74
339.948
339.591
337.77
332.575
321.09
303.88
333.278
333.327
333.424
333.568
333.755
333.982
334.246
334.545
334.871
335.208
335.541
335.849
336.099
336.252
336.252
329.032
329.059
329.112
329.189
329.285
329.401
329.54
329.719
329.983
330.459
331.499
333.958
339.679
351.51
368.772
324.759
324.764
324.774
324.784
324.791
324.794
324.797
324.823
324.934
325.31
326.462
329.79
339.007
362.984
413.424
320.472
320.457
320.424
320.37
320.289
320.176
320.03
319.859
319.69
319.61
319.905
321.52
328.075
356.07
493.248
316.187
316.152
316.08
315.965
315.799
315.571
315.272
314.885
314.373
313.64
312.422
309.81
302.243
273.322
135.42
311.917
311.864
311.756
311.584
311.339
311.006
310.567
309.989
309.196
307.999
305.899
301.529
291.232
266.246
215.017
307.674
307.606
307.466
307.245
306.93
306.505
305.95
305.232
304.289
302.975
300.943
297.355
290.413
277.387
259.17
303.471
303.39
303.223
302.96
302.587
302.085
301.437
300.624
299.63
298.44
297.058
295.5
293.811
292.123
290.802
299.315
299.224
299.037
298.742
298.322
297.757
297.03
296.134
295.095
294.03
293.286
293.727
297.201
306.595
321.646
295.213
295.117
294.918
294.601
294.148
293.533
292.732
291.734
290.569
289.387
288.684
289.836
296.471
317.129
363.069
291.17
291.073
290.87
290.546
290.076
289.428
288.563
287.442
286.043
284.405
282.785
282.128
285.995
310.095
436.521
287.187
287.093
286.898
286.583
286.119
285.465
284.563
283.336
281.673
279.401
276.21
271.27
261.459
231.991
102.108
283.26
283.177
283.001
282.714
282.284
281.664
280.782
279.526
277.715
275.027
270.841
263.786
250.568
223.612
173.4
279.384
279.316
279.172
278.934
278.572
278.037
277.252
276.094
274.357
271.684
267.457
260.572
249.211
231.378
209.936
275.547
275.5
275.4
275.232
274.971
274.574
273.974
273.058
271.639
269.413
265.911
260.459
252.34
241.645
231.693
271.735
271.713
271.667
271.586
271.455
271.245
270.907
270.362
269.472
268.022
265.712
262.19
257.252
251.389
246.651
267.93
267.937
267.949
267.966
267.984
267.995
267.979
267.899
267.684
267.219
266.347
264.895
262.799
260.344
258.429
264.114
264.148
264.219
264.337
264.51
264.755
265.087
265.522
266.062
266.692
267.376
268.041
268.587
268.918
268.988
260.267
260.326
260.451
260.659
260.978
261.447
262.118
263.064
264.367
266.12
268.411
271.262
274.516
277.663
279.707
256.373
256.45
256.616
256.897
257.334
257.989
258.952
260.35
262.351
265.167
269.049
274.193
280.513
287.167
291.955
252.417
252.505
252.694
253.018
253.529
254.309
255.478
257.211
259.759
263.467
268.804
276.299
286.269
297.959
307.638
248.395
248.482
248.672
249.001
249.53
250.351
251.604
253.5
256.351
260.629
267.053
276.676
290.823
310.14
330.15
244.305
244.379
244.545
244.838
245.319
246.084
247.278
249.119
251.945
256.293
263.073
273.904
291.778
321.829
366.667
240.157
240.207
240.322
240.536
240.904
241.514
242.495
244.047
246.472
250.259
256.273
266.231
284.269
323.239
434.43
-795.845
-590.037
-516.673
-481.503
-460.99
-447.633
-438.38
-431.733
-426.861
-423.259
-420.601
-418.673
-417.331
-416.482
-416.07
-672.942
-589.34
-532.218
-497.007
-474.464
-459.256
-448.553
-440.792
-435.063
-430.803
-427.643
-425.339
-423.729
-422.708
-422.213
-608.273
-570.236
-532.534
-503.699
-482.832
-467.738
-456.667
-448.427
-442.236
-437.571
-434.077
-431.51
-429.707
-428.559
-428
-570.197
-550.884
-526.677
-504.844
-487.178
-473.414
-462.802
-454.629
-448.338
-443.515
-439.854
-437.139
-435.218
-433.989
-433.389
-545.713
-534.916
-519.155
-503.082
-488.804
-476.887
-467.228
-459.512
-453.411
-448.638
-444.961
-442.203
-440.236
-438.971
-438.351
-528.905
-522.381
-511.837
-500.059
-488.776
-478.779
-470.29
-463.262
-457.551
-452.988
-449.417
-446.706
-444.755
-443.492
-442.872
-516.807
-512.625
-505.36
-496.677
-487.844
-479.61
-472.323
-466.085
-460.881
-456.637
-453.261
-450.667
-448.783
-447.556
-446.952
-507.795
-504.995
-499.854
-493.386
-486.483
-479.771
-473.612
-468.179
-463.534
-459.671
-456.549
-454.121
-452.342
-451.177
-450.6
-500.908
-498.976
-495.256
-490.382
-484.977
-479.534
-474.381
-469.714
-465.633
-462.177
-459.342
-457.112
-455.463
-454.376
-453.837
-495.544
-494.186
-491.446
-487.734
-483.486
-479.081
-474.8
-470.829
-467.288
-464.238
-461.702
-459.684
-458.181
-457.184
-456.687
-491.305
-490.341
-488.296
-485.444
-482.092
-478.529
-474.987
-471.634
-468.59
-465.928
-463.688
-461.887
-460.534
-459.633
-459.182
-487.917
-487.233
-485.694
-483.487
-480.832
-477.95
-475.028
-472.212
-469.615
-467.314
-465.354
-463.764
-462.562
-461.756
-461.352
-485.185
-484.706
-483.543
-481.826
-479.718
-477.386
-474.981
-472.626
-470.424
-468.448
-466.749
-465.359
-464.301
-463.588
-463.23
-482.967
-482.641
-481.762
-480.424
-478.746
-476.86
-474.883
-472.921
-471.063
-469.379
-467.916
-466.711
-465.787
-465.162
-464.847
-481.156
-480.947
-480.286
-479.243
-477.908
-476.383
-474.762
-473.131
-471.57
-470.142
-468.891
-467.853
-467.052
-466.509
-466.234
-479.673
-479.553
-479.063
-478.252
-477.191
-475.959
-474.632
-473.281
-471.974
-470.768
-469.705
-468.815
-468.127
-467.657
-467.419
-478.454
-478.405
-478.048
-477.422
-476.581
-475.587
-474.503
-473.387
-472.297
-471.283
-470.383
-469.625
-469.036
-468.632
-468.428
-477.45
-477.457
-477.206
-476.728
-476.064
-475.265
-474.382
-473.462
-472.556
-471.707
-470.947
-470.305
-469.802
-469.457
-469.282
-476.624
-476.675
-476.508
-476.148
-475.628
-474.989
-474.272
-473.515
-472.764
-472.054
-471.416
-470.873
-470.446
-470.153
-470.003
-475.945
-476.03
-475.932
-475.667
-475.263
-474.755
-474.174
-473.553
-472.931
-472.34
-471.804
-471.346
-470.985
-470.736
-470.608
-475.388
-475.501
-475.457
-475.269
-474.96
-474.557
-474.088
-473.58
-473.066
-472.573
-472.125
-471.739
-471.433
-471.222
-471.113
-474.933
-475.069
-475.068
-474.942
-474.709
-474.392
-474.014
-473.599
-473.173
-472.763
-472.387
-472.062
-471.803
-471.623
-471.531
-474.565
-474.719
-474.753
-474.676
-474.504
-474.256
-473.952
-473.612
-473.259
-472.917
-472.6
-472.325
-472.105
-471.952
-471.873
-474.272
-474.44
-474.501
-474.463
-474.339
-474.146
-473.901
-473.62
-473.326
-473.038
-472.771
-472.537
-472.348
-472.217
-472.149
-474.044
-474.223
-474.305
-474.297
-474.209
-474.059
-473.86
-473.626
-473.378
-473.133
-472.904
-472.702
-472.539
-472.424
-472.365
-473.874
-474.061
-474.158
-474.171
-474.112
-473.993
-473.828
-473.629
-473.416
-473.204
-473.003
-472.826
-472.683
-472.582
-472.529
-473.756
-473.948
-474.055
-474.084
-474.043
-473.946
-473.805
-473.631
-473.442
-473.252
-473.073
-472.914
-472.784
-472.693
-472.645
-473.685
-473.88
-473.994
-474.031
-474.001
-473.917
-473.79
-473.63
-473.456
-473.281
-473.115
-472.967
-472.846
-472.76
-472.716
-473.662
-473.857
-473.972
-474.012
-473.984
-473.904
-473.782