/*--------------------------------*- C++ -*----------------------------------*\
| =========                 |                                                 |
| \\      /  F ield         | OpenFOAM: The Open Source CFD Toolbox           |
|  \\    /   O peration     | Version:  5.x                                   |
|   \\  /    A nd           | Web:      www.OpenFOAM.org                      |
|    \\/     M anipulation  |                                                 |
\*---------------------------------------------------------------------------*/
FoamFile
{
    version     2.0;
    format      ascii;
    class       volScalarField;
    location    "10.2";
    object      T;
}
// * * * * * * * * * * * * * * * * * * * * * * * * * * * * * * * * * * * * * //

dimensions      [0 0 0 1 0 0 0];

internalField   nonuniform List<scalar> 
6300
(
10.8121
12.4338
14.0483
15.6509
17.2366
18.8007
20.3385
21.845
23.3156
24.7459
26.1313
27.4679
28.752
29.9805
31.151
10.8144
12.4409
14.0601
15.6674
17.2579
18.8267
20.3691
21.8803
23.3554
24.7899
26.1794
27.5195
28.8067
30.0376
31.2097
10.8191
12.455
14.0837
15.7005
17.3004
18.8788
20.4306
21.951
23.4352
24.8784
26.2759
27.6233
28.9167
30.1525
31.3279
10.8262
12.4762
14.1191
15.75
17.3642
18.9568
20.5229
22.0574
23.5554
25.0118
26.4217
27.7804
29.0834
30.3268
31.5074
10.8356
12.5044
14.1661
15.8161
17.4493
19.061
20.6462
22.1998
23.7164
25.191
26.618
27.9922
29.3087
30.5628
31.7508
10.8473
12.5396
14.2249
15.8985
17.5556
19.1913
20.8007
22.3784
23.919
25.4169
26.8662
28.261
29.5954
30.864
32.062
10.8613
12.5816
14.295
15.997
17.6828
19.3476
20.9862
22.5935
24.1636
25.6907
27.1682
28.5893
29.9471
31.2347
32.4462
10.8775
12.6303
14.3765
16.1115
17.8308
19.5295
21.2027
22.845
24.4507
26.0132
27.5256
28.98
30.368
31.6807
32.91
10.8959
12.6856
14.4689
16.2415
17.9989
19.7365
21.4495
23.1327
24.7801
26.3851
27.9402
29.4363
30.863
32.209
33.4626
10.9164
12.7471
14.5718
16.3862
18.1863
19.9677
21.7257
23.4554
25.1511
26.8063
28.4129
29.961
31.4379
32.8285
34.1159
10.9388
12.8146
14.6846
16.5451
18.3922
20.2217
22.0297
23.8114
25.562
27.2752
28.9433
30.5558
32.0981
33.55
34.8865
10.9631
12.8876
14.8068
16.7171
18.615
20.4969
22.3592
24.198
26.0094
27.7883
29.5284
31.2199
32.8474
34.386
35.7974
10.9892
12.9659
14.9377
16.9013
18.8535
20.7912
22.7115
24.6115
26.4884
28.3395
30.161
31.9469
33.6847
35.3478
36.8821
11.0168
13.0489
15.0765
17.0964
19.106
21.1025
23.0835
25.0472
26.9926
28.9193
30.8284
32.7209
34.5956
36.4373
38.1871
11.0459
13.1364
15.2226
17.3017
19.3712
21.4286
23.4722
25.5007
27.5145
29.5159
31.5111
33.5119
35.5381
37.6174
39.7574
32.1692
33.0529
33.8945
34.6945
35.4536
36.173
36.8544
37.4995
38.1104
38.6894
39.2391
39.7619
40.2606
40.7377
41.196
41.6381
42.0666
42.484
42.893
43.2957
43.6946
44.0916
44.4889
44.8883
45.2913
45.6995
46.1139
46.5356
46.9652
47.4032
47.8498
48.3048
48.7681
49.2391
49.7173
50.2019
50.692
51.1866
51.6846
52.1848
52.6857
53.1861
53.6843
54.1788
54.668
55.1503
55.6242
56.0884
56.5415
56.9822
57.4095
57.8221
58.2189
58.5988
58.9607
59.3031
59.6248
59.9244
60.2004
60.4515
60.6761
60.8727
61.0397
61.1754
61.2782
61.346
61.377
61.3686
61.3186
61.2242
61.0824
60.8901
60.644
60.3405
59.9759
59.5466
59.0484
58.4776
57.83
57.1016
56.2885
55.3869
54.3931
53.3037
52.116
50.8275
49.4365
47.9422
46.3444
44.6438
32.2286
33.1123
33.9533
34.7521
35.5095
36.2267
36.9053
37.5473
38.1549
38.7304
39.2763
39.7953
40.2901
40.7634
41.2178
41.6561
42.0809
42.4948
42.9003
43.2998
43.6955
44.0897
44.4843
44.8813
45.2823
45.6887
46.1017
46.5224
46.9514
47.3891
47.8357
48.2912
48.7551
49.227
49.7063
50.1921
50.6836
51.1798
51.6795
52.1816
52.6846
53.1872
53.6876
54.1844
54.6758
55.1602
55.6362
56.1022
56.5571
56.9995
57.4283
57.8425
58.241
58.6227
58.9863
59.3306
59.6543
59.9559
60.2341
60.4873
60.7141
60.9129
61.0823
61.2206
61.3261
61.3969
61.4311
61.4263
61.3802
61.29
61.1527
60.9653
60.7242
60.426
60.067
59.6432
59.1509
58.5858
57.944
57.2214
56.4139
55.5175
54.5285
53.4434
52.259
50.973
49.5835
48.0893
46.4904
44.7875
32.3483
33.232
34.0718
34.8682
35.622
36.3346
37.0077
37.6435
38.2443
38.8125
39.3509
39.8622
40.3492
40.8146
41.2613
41.692
42.1094
42.5161
42.9147
43.3075
43.697
44.0854
44.4747
44.8669
45.2637
45.6666
46.0769
46.4955
46.9232
47.3604
47.8072
48.2634
48.7287
49.2024
49.6838
50.1722
50.6665
51.1659
51.6691
52.175
52.6822
53.1891
53.6942
54.1955
54.6914
55.1802
55.6602
56.13
56.5883
57.034
57.466
57.8834
58.2851
58.6702
59.0374
59.3855
59.7132
60.0189
60.3013
60.5588
60.7899
60.9933
61.1673
61.3105
61.4214
61.4981
61.5388
61.5411
61.5028
61.4211
61.293
61.1152
60.8844
60.5968
60.2488
59.8364
59.3556
58.8022
58.1722
57.4612
56.665
55.7793
54.8001
53.7237
52.5465
51.2657
49.8792
48.3855
46.7844
45.0766
32.53
33.4139
34.2518
35.0443
35.7925
36.498
37.1626
37.7888
38.3791
38.9362
39.4631
39.9627
40.4378
40.8914
41.3264
41.7456
42.1518
42.5476
42.9357
43.3185
43.6986
44.0781
44.4593
44.8442
45.2346
45.6322
46.0382
46.4538
46.8797
47.3161
47.7633
48.2208
48.6882
49.1647
49.6495
50.1417
50.6403
51.1444
51.6529
52.1646
52.6782
53.1919
53.7039
54.2124
54.7153
55.2107
55.6968
56.1722
56.6356
57.086
57.5226
57.9445
58.351
58.7411
59.1138
59.4677
59.8014
60.1133
60.402
60.6659
60.9035
61.1134
61.2942
61.4448
61.5635
61.6489
61.6992
61.7122
61.6856
61.6167
61.5023
61.3392
61.1238
60.8524
60.521
60.1257
59.6624
59.1269
58.5147
57.8215
57.0426
56.1736
55.2098
54.147
52.9811
51.7087
50.3271
48.8345
47.2303
45.515
32.7767
33.6607
34.496
35.2831
36.0234
36.7188
37.3716
37.9844
38.5602
39.1021
39.6133
40.0968
40.5559
40.9935
41.4127
41.8164
42.2075
42.5887
42.9626
43.332
43.6992
44.0668
44.437
44.8119
45.1936
45.5838
45.9841
46.3955
46.819
47.2547
47.7026
48.1623
48.6328
49.1133
49.6027
50.1
50.6042
51.1146
51.6301
52.1496
52.6718
53.1949
53.7168
54.2353
54.7479
55.2524
55.7467
56.2295
56.6994
57.1557
57.598
58.0257
58.4382
58.8349
59.2148
59.5765
59.9184
60.2389
60.5361
60.8085
61.0545
61.2729
61.4625
61.6223
61.7512
61.8479
61.9107
61.9379
61.9269
61.8752
61.7794
61.6361
61.4415
61.1918
60.8828
60.5106
60.071
59.5595
58.9716
58.3028
57.5479
56.702
55.7599
54.7165
53.5669
52.3069
50.9328
49.4423
47.8342
46.1088
33.0924
33.9766
34.8083
35.5881
36.3178
36.9997
37.6367
38.2319
38.7888
39.311
39.8018
40.2648
40.7033
41.1206
41.5198
41.9039
42.2758
42.6385
42.9946
43.3468
43.6978
44.05
44.406
44.7681
45.1385
45.5193
45.9121
46.3183
46.7388
47.1739
47.6232
48.0861
48.5612
49.0472
49.5426
50.0463
50.5575
51.0754
51.5994
52.1288
52.6621
53.1975
53.7326
54.2645
54.79
55.3064
55.8113
56.3029
56.7805
57.2436
57.6921
58.1263
58.5459
58.9507
59.3397
59.7115
60.0641
60.3955
60.7036
60.9866
61.2428
61.4714
61.6713
61.8421
61.9829
62.0931
62.1713
62.2159
62.2247
62.1947
62.1225
62.0044
61.8362
61.614
61.3334
60.9903
60.5806
60.0996
59.543
58.9055
58.182
57.3668
56.4537
55.4367
54.3098
53.0672
51.7043
50.2175
48.6049
46.8666
33.4825
34.3671
35.1939
35.964
36.6797
37.344
37.9605
38.5332
39.0661
39.5634
40.0289
40.4665
40.8798
41.2722
41.647
42.0073
42.356
42.6962
43.0306
43.3619
43.6929
44.0262
44.3646
44.7107
45.0669
45.4357
45.8191
46.2187
46.6358
47.0706
47.5226
47.9905
48.4722
48.9656
49.4686
49.98
50.499
51.0254
51.5592
52.1001
52.6473
53.1986
53.751
54.3007
54.8433
55.3749
55.8926
56.3945
56.8803
57.35
57.8047
58.2454
58.6728
59.0869
59.4871
59.8716
60.238
60.5833
60.905
61.2006
61.4688
61.7086
61.9198
62.1023
62.2564
62.3817
62.4778
62.5432
62.5757
62.5724
62.5293
62.4422
62.3065
62.1177
61.8715
61.5637
61.1901
60.7465
60.2282
59.6299
58.946
58.17
57.2949
56.3131
55.2169
53.9988
52.6522
51.1719
49.5547
47.8004
33.9545
34.8395
35.6598
36.4171
37.1143
37.7558
38.3461
38.8903
39.3934
39.8601
40.2948
40.7018
41.0848
41.4476
41.7935
42.1257
42.4471
42.7607
43.0693
43.3758
43.6829
43.9935
44.3106
44.6369
44.9755
45.3293
45.7008
46.0924
46.5056
46.9408
47.3974
47.873
48.3645
48.8681
49.3808
49.9008
50.4279
50.9628
51.5067
52.0606
52.6243
53.1959
53.7714
54.3449
54.9101
55.4612
55.9943
56.5074
57.0007
57.4759
57.9353
58.3814
58.8163
59.2409
59.6547
60.0555
60.4397
60.803
61.1413
61.4519
61.7331
61.9846
62.2069
62.4012
62.5687
62.7102
62.8259
62.9152
62.9759
63.0048
62.9971
62.9475
62.8507
62.7016
62.4958
62.2293
61.8982
61.4986
61.026
60.4753
59.8403
59.1138
58.2875
57.352
56.2972
55.1132
53.7904
52.3212
50.7003
48.9263
34.5183
35.404
36.2154
36.9552
37.628
38.2397
38.7967
39.3054
39.7717
40.2013
40.5992
40.9699
41.3176
41.6459
41.9583
42.2579
42.5478
42.8307
43.1096
43.3871
43.6663
43.95
44.2414
44.5438
44.8606
45.1955
45.552
45.9332
46.3417
46.7786
47.2429
47.731
48.2374
48.7556
49.2805
49.8097
50.3437
50.8852
51.4378
52.0049
52.5881
53.1857
53.7924
54.3991
54.9952
55.5715
56.1225
56.6465
57.1452
57.6223
58.0827
58.5314
58.9724
59.4082
59.8388
60.2611
60.6692
61.056
61.4153
61.7431
62.0378
62.3001
62.5321
62.7364
62.9159
63.0732
63.2098
63.3259
63.4197
63.4873
63.5227
63.5185
63.4677
63.3648
63.2052
62.9854
62.7026
62.3533
61.934
61.4396
60.8639
60.199
59.435
58.5603
57.5616
56.4252
55.1376
53.6867
52.0642
50.2667
35.1875
36.074
36.8729
37.5885
38.2284
38.8011
39.3156
39.7799
40.2015
40.5867
40.9412
41.2698
41.5767
41.8656
42.14
42.4028
42.6569
42.9051
43.1501
43.3946
43.6415
43.8938
44.1548
44.4282
44.7181
45.029
45.3657
45.733
46.1353
46.5752
47.0521
47.561
48.0916
48.6317
49.1721
49.7096
50.2468
50.7896
51.3462
51.9242
52.5289
53.1603
53.8113
54.4665
55.1066
55.7161
56.2874
56.82
57.3185
57.7905
58.2448
58.69
59.1337
59.5808
60.0325
60.4846
60.9269
61.3464
61.7324
62.0794
62.3868
62.657
62.8946
63.1048
63.2928
63.4636
63.6207
63.766
63.8987
64.0139
64.1027
64.1539
64.1575
64.107
63.9986
63.83
63.6
63.3067
62.9476
62.5185
62.0136
61.4245
60.7397
59.9447
59.0222
57.9529
56.7174
55.2975
53.6783
51.8525
35.9818
36.8691
37.6488
38.3296
38.924
39.4451
39.9052
40.3146
40.6821
41.0149
41.319
41.5994
41.8601
42.1048
42.3367
42.5585
42.7729
42.9825
43.1896
43.3969
43.6072
43.8233
44.0486
44.2872
44.5437
44.8237
45.1336
45.4808
45.873
46.3166
46.8136
47.3577
47.9303
48.5053
49.0658
49.6083
50.1396
50.6723
51.2217
51.8031
52.4291
53.1048
53.8219
54.5534
55.2598
55.9137
56.5059
57.0402
57.5277
57.982
58.4177
58.8487
59.2875
59.7443
60.2235
60.7197
61.2151
61.6825
62.1032
62.4705
62.7866
63.0583
63.294
63.5025
63.6922
63.871
64.0459
64.2219
64.4004
64.576
64.7344
64.855
64.9227
64.9302
64.8759
64.7607
64.5859
64.3524
64.0593
63.7042
63.2822
62.7852
62.2007
61.5106
60.6915
59.7175
58.5608
57.1928
55.5877
53.7288
36.9309
37.8178
38.5658
39.1937
39.7236
40.1757
40.5663
40.9081
41.2112
41.483
41.7296
41.9556
42.165
42.361
42.5462
42.7233
42.8944
43.0617
43.2273
43.3936
43.5628
43.7378
43.9218
44.1188
44.3339
44.5735
44.846
45.1621
45.5351
45.9793
46.5057
47.1114
47.7638
48.3981
48.9836
49.5212
50.0285
50.5291
51.0491
51.6159
52.2556
52.9877
53.8097
54.6744
55.4865
56.1981
56.8054
57.3257
57.7823
58.1982
58.5952
58.9936
59.4134
59.8734
60.3874
60.9539
61.541
62.0835
62.5484
62.9329
63.2481
63.509
63.7302
63.9248
64.1047
64.2816
64.467
64.6718
64.9038
65.1604
65.4179
65.63
65.7721
65.84
65.8384
65.7745
65.654
65.4812
65.2578
64.9837
64.6563
64.2695
63.8112
63.2597
62.5817
61.7429
60.706
59.4275
57.8602
55.965
38.0853
38.9651
39.6544
40.1975
40.634
40.9933
41.2959
41.556
41.7836
41.9859
42.1681
42.3343
42.4877
42.6309
42.7661
42.8951
43.0198
43.1417
43.2626
43.3842
43.5085
43.6377
43.7746
43.9228
44.0871
44.2742
44.4938
44.7598
45.0929
45.522
46.0817
46.796
47.6217
48.3595
48.9683
49.476
49.9251
50.3559
50.8074
51.3215
51.9471
52.7391
53.7338
54.8692
55.8556
56.6303
57.2281
57.7008
58.0931
58.4395
58.7682
59.1053
59.4789
59.9224
60.4732
61.1562
61.9289
62.5936
63.107
63.4927
63.7853
64.0144
64.2021
64.3656
64.5192
64.6775
64.8575
65.08
65.3693
65.7408
66.1643
66.503
66.7258
66.847
66.8882
66.8669
66.7951
66.6802
66.5268
66.3374
66.1133
65.8541
65.5535
65.1885
64.701
64.0512
63.1965
62.0756
60.6027
58.6794
39.5466
40.3855
40.9519
41.3532
41.6542
41.8912
42.0853
42.2493
42.3911
42.5161
42.6281
42.7299
42.8236
42.9108
42.9931
43.0716
43.1474
43.2216
43.2952
43.3694
43.4454
43.5248
43.6095
43.7019
43.8058
43.9267
44.073
44.2593
44.511
44.8746
45.4336
46.3183
47.6043
48.5047
49.0965
49.5136
49.8459
50.1509
50.4738
50.8644
51.3971
52.1966
53.4532
55.2764
56.5274
57.3152
57.8286
58.1896
58.4677
58.7041
58.927
59.1622
59.4414
59.8146
60.3664
61.2267
62.4701
63.3189
63.8473
64.1838
64.4114
64.5768
64.7066
64.818
64.9243
65.0398
65.184
65.3897
65.7137
66.2438
67.0302
67.5401
67.8233
67.9666
68.0253
68.0295
67.9955
67.9322
67.8449
67.7384
67.6185
67.4957
67.3859
67.291
67.0515
66.6522
66.0677
65.2283
63.9915
62.1109
41.5782
42.197
42.4856
42.6521
42.7647
42.8492
42.9166
42.9728
43.0211
43.0634
43.1012
43.1355
43.167
43.1964
43.224
43.2503
43.2758
43.3007
43.3254
43.3504
43.376
43.4027
43.4314
43.4629
43.4986
43.5407
43.593
43.6628
43.7663
43.9442
44.3146
45.261
48.1405
49.0924
49.4744
49.6714
49.8041
49.9184
50.0405
50.2006
50.4609
50.9939
52.3547
56.5054
57.8642
58.393
58.6463
58.7954
58.9001
58.9856
59.0659
59.1532
59.2664
59.4472
59.813
60.743
63.5772
64.5033
64.8611
65.0294
65.1247
65.1878
65.2351
65.2751
65.3138
65.358
65.4195
65.5265
65.7587
66.3751
68.2916
68.9011
69.1196
69.2055
69.2381
69.2446
69.2355
69.2158
69.1882
69.1558
69.1252
69.116
69.1942
69.5989
69.6297
69.517
69.3036
68.9504
68.3049
66.8809
42.6622
40.3592
37.9213
35.3563
32.6732
29.8818
26.9928
24.0168
20.9648
17.8476
14.6758
11.4597
8.20964
4.93539
1.64673
42.8018
40.4926
38.047
35.473
32.7801
29.9784
27.0786
24.0919
21.0292
17.9015
14.7194
11.4933
8.23346
4.94961
1.65145
43.0826
40.7608
38.2994
35.7074
32.9945
30.1717
27.2504
24.242
21.1578
18.009
14.8064
11.5603
8.28094
4.97794
1.66087
43.5082
41.1668
38.6812
36.0611
33.3175
30.4625
27.5082
24.4668
21.3502
18.1697
14.9362
11.6602
8.35168
5.02013
1.67489
44.0843
41.7156
39.1959
36.5367
33.7508
30.8514
27.8521
24.766
21.6056
18.3826
15.108
11.7923
8.44509
5.07581
1.69339
44.8187
42.4136
39.8487
37.1378
34.296
31.3389
28.2817
25.1386
21.9227
18.6463
15.3204
11.9553
8.56029
5.14442
1.71617
45.7223
43.2697
40.6459
37.8682
34.9552
31.9254
28.7961
25.5828
22.2996
18.9588
15.5715
12.1476
8.69604
5.22521
1.74299
46.8096
44.2954
41.5953
38.7323
35.7298
32.6102
29.3932
26.096
22.7331
19.3171
15.8587
12.3671
8.85074
5.31719
1.77351
48.1003
45.5053
42.7061
39.7343
36.6202
33.3911
30.0694
26.6737
23.2189
19.7171
16.1782
12.6109
9.02231
5.41911
1.80731
49.6207
46.9176
43.988
40.8768
37.6243
34.2631
30.8185
27.3096
23.7508
20.1533
16.5257
12.8754
9.20818
5.52941
1.84388
51.4076
48.5546
45.4496
42.1591
38.7356
35.2173
31.6307
27.9942
24.3205
20.6186
16.8955
13.1562
9.40526
5.64627
1.8826
53.5133
50.4415
47.0951
43.5726
39.9401
36.2383
32.4916
28.7149
24.9173
21.1045
17.2805
13.4483
9.61
5.7676
1.92279
56.0141
52.6012
48.9147
45.0945
41.2124
37.3026
33.3813
29.4555
25.5283
21.6007
17.6733
13.7459
9.81849
5.89111
1.96371
59.018
55.0322
50.8662
46.6767
42.5105
38.3772
34.2741
30.1963
26.1385
22.0961
18.0652
14.0429
10.0266
6.01442
2.00455
62.6314
57.6412
52.8391
48.2335
43.7744
39.4197
35.1404
30.9161
26.7324
22.5789
18.4479
14.3332
10.2303
6.13519
2.04457
11.0739
13.2203
15.3627
17.4984
19.6248
21.7398
23.8416
25.9292
28.0034
30.0677
32.131
34.2124
36.3522
38.6424
41.3363
11.1002
13.2994
15.4946
17.6833
19.8631
22.0315
24.1868
26.3276
28.4541
30.5694
32.6813
34.808
36.9871
39.2929
41.8591
11.1274
13.381
15.6308
17.8743
20.1088
22.332
24.5415
26.7353
28.9122
31.0726
33.2204
35.3663
37.5329
39.7616
42.1068
11.1555
13.4652
15.7713
18.0711
20.3622
22.6416
24.9067
27.1542
29.381
31.5839
33.7602
35.9093
38.0348
40.1484
42.27
11.1844
13.5519
15.9159
18.2739
20.6232
22.9608
25.2835
27.5869
29.8657
32.1129
34.3182
36.4678
38.5439
40.5287
42.4198
11.214
13.6409
16.0645
18.4823
20.8919
23.2901
25.6731
28.0361
30.3719
32.6701
34.914
37.0765
39.1154
40.9732
42.6042
11.2444
13.7321
16.2168
18.6963
21.1682
23.6294
26.0762
28.5034
30.9035
33.2644
35.5655
37.7702
39.8117
41.574
42.8989
11.2754
13.8253
16.3726
18.9154
21.4515
23.9783
26.4923
28.9891
31.4617
33.8994
36.2831
38.5763
40.7009
42.4776
43.5005
11.3069
13.9201
16.5313
19.1387
21.7409
24.3355
26.92
29.4909
32.0435
34.571
37.0626
39.4984
41.8309
43.9034
45.0351
11.3389
14.0164
16.6923
19.3656
22.0351
24.6992
27.3564
30.0047
32.642
35.2667
37.88
40.4914
43.1402
45.9816
49.7091
11.3712
14.1135
16.8548
19.5948
22.3325
25.0674
27.7986
30.5255
33.2484
35.9696
38.6978
41.4573
44.3146
47.4432
51.2581
11.4037
14.211
17.0182
19.8251
22.6316
25.4376
28.2431
31.0485
33.8552
36.6669
39.4928
42.3543
45.2995
48.427
51.8938
11.4361
14.3086
17.1816
20.0555
22.9307
25.8076
28.687
31.5698
34.4577
37.3535
40.2621
43.1921
46.1567
49.174
52.2575
11.4684
14.4057
17.3441
20.2846
23.2281
26.1755
29.128
32.0869
35.0539
38.0302
41.0157
44.0047
46.9762
49.8736
52.5883
11.5004
14.5018
17.505
20.5114
23.5223
26.5392
29.5638
32.5978
35.6428
38.6997
41.7658
44.8285
47.8459
50.6988
53.0892
11.5319
14.5964
17.6635
20.7347
23.8119
26.8971
29.9924
33.1002
36.2227
39.3618
42.5173
45.6824
48.8287
51.8438
54.231
11.5627
14.6892
17.8188
20.9535
24.0956
27.2475
30.4118
33.5916
36.7902
40.0115
43.261
46.5484
49.9012
53.4236
57.5971
11.5929
14.7798
17.9702
21.1668
24.3719
27.5886
30.8198
34.0692
37.341
40.6408
43.9772
47.3678
50.8546
54.5497
58.7331
11.6221
14.8677
18.1173
21.3737
24.6399
27.919
31.2145
34.5305
37.8715
41.2436
44.6548
48.119
51.6621
55.3353
59.2234
11.6504
14.9527
18.2594
21.5735
24.8984
28.2374
31.5944
34.9735
38.3796
41.8181
45.2946
48.8143
52.3777
55.9703
59.5439
11.6776
15.0344
18.396
21.7655
25.1466
28.5428
31.9581
35.397
38.8643
42.3651
45.9032
49.478
53.0718
56.617
59.9212
11.7037
15.1127
18.5267
21.9492
25.3838
28.8343
32.3048
35.8
39.325
42.8851
46.4852
50.1271
53.7983
57.4297
60.6924
11.7285
15.1874
18.6514
22.1242
25.6095
29.1112
32.6336
36.1815
39.7602
43.3762
47.0371
50.7546
54.5511
58.4967
62.8998
11.7522
15.2583
18.7697
22.2901
25.8232
29.3731
32.944
36.5407
40.1687
43.8349
47.5486
51.3258
55.1988
59.2446
63.6436
11.7745
15.3253
18.8815
22.4467
26.0249
29.6198
33.2357
36.8773
40.5498
44.2596
48.0149
51.829
55.7251
59.7457
63.9538
11.7955
15.3884
18.9867
22.5941
26.2143
29.8512
33.5088
37.1916
40.9041
44.6514
48.4392
52.2741
56.1635
60.1149
64.1288
11.8153
15.4477
19.0854
22.7322
26.3916
30.0676
33.7638
37.4843
41.2332
45.014
48.8296
52.6798
56.5574
60.4391
64.2768
11.8337
15.503
19.1775
22.861
26.557
30.2692
34.0011
37.7566
41.539
45.3514
49.1946
53.0652
56.9471
60.7922
64.4811
11.8509
15.5544
19.2632
22.9808
26.7107
30.4563
34.2214
38.0092
41.8232
45.6661
49.5394
53.4414
57.3607
61.2522
64.9219
11.8668
15.6021
19.3425
23.0916
26.8528
30.6294
34.425
38.2428
42.0862
45.9585
49.863
53.8041
57.7922
61.8646
66.1982
11.8814
15.6459
19.4155
23.1936
26.9836
30.7887
34.6123
38.4577
42.3282
46.2275
50.1598
54.1329
58.1635
62.294
66.6275
11.8948
15.6861
19.4824
23.2871
27.1033
30.9345
34.7838
38.6543
42.5493
46.4722
50.4271
54.4204
58.4639
62.5806
66.8058
11.907
15.7226
19.5432
23.372
27.2122
31.067
34.9396
38.8329
42.75
46.6936
50.6665
54.6715
58.7119
62.7903
66.9057
11.918
15.7555
19.598
23.4485
27.3104
31.1866
35.0802
38.9942
42.9312
46.8934
50.8822
54.8968
58.9319
62.9727
66.9895
11.9278
15.7849
19.6468
23.5168
27.398
31.2934
35.206
39.1386
43.0939
47.0737
51.0786
55.1063
59.1465
63.17
67.1054
11.9364
15.8107
19.6899
23.577
27.4752
31.3875
35.3169
39.2664
43.2384
47.2352
51.258
55.3056
59.371
63.4267
67.3577
11.9438
15.8331
19.7271
23.629
27.542
31.469
35.4132
39.3775
43.3647
47.3776
51.4187
55.4912
59.6008
63.7683
68.0937
11.9501
15.8519
19.7585
23.6729
27.5984
31.538
35.4948
39.4718
43.4722
47.4991
51.5564
55.6495
59.7888
63.9986
68.336
11.9552
15.8673
19.7841
23.7088
27.6445
31.5943
35.5614
39.5489
43.5601
47.5984
51.6679
55.7742
59.9263
64.1385
68.4295
11.9592
15.8792
19.8039
23.7365
27.6802
31.638
35.6131
39.6087
43.6281
47.6748
51.7524
55.8658
60.0204
64.222
68.4717
11.962
15.8876
19.818
23.7562
27.7055
31.669
35.6497
39.6511
43.6762
47.7283
51.8109
55.9273
60.0802
64.2704
68.4925
11.9637
15.8926
19.8263
23.7678
27.7204
31.6872
35.6713
39.6759
43.7043
47.7596
51.8446
55.9619
60.1126
64.2949
68.5019
11.9642
15.8941
19.8288
23.7713
27.7249
31.6927
35.6778
39.6834
43.7128
47.7689
51.8546
55.972
60.1214
64.3004
68.5022
11.9635
15.8922
19.8255
23.7668
27.719
31.6854
35.6692
39.6735
43.7015
47.7565
51.8413
55.9582
60.1081
64.2884
68.4903
11.9617
15.8868
19.8165
23.7541
27.7027
31.6654
35.6455
39.6461
43.6706
47.7222
51.8043
55.9201
60.0719
64.2598
68.477
11.9588
15.8779
19.8017
23.7334
27.676
31.6327
35.6067
39.6012
43.6196
47.6656
51.7427
55.8555
60.0092
64.2089
68.4548
11.9547
15.8657
19.7813
23.7047
27.6389
31.5873
35.5528
39.5388
43.5486
47.586
51.6549
55.7611
59.913
64.1242
68.4123
11.9495
15.85
19.7551
23.6679
27.5916
31.5292
35.4839
39.4588
43.4574
47.4832
51.54
55.6335
59.7739
63.9845
68.3201
11.9431
15.8309
19.7233
23.6233
27.534
31.4586
35.4
39.3616
43.3464
47.3576
51.3983
55.4719
59.5846
63.7562
68.0832
11.9357
15.8085
19.6859
23.5708
27.4663
31.3755
35.3014
39.2472
43.2159
47.2103
51.2323
55.2818
59.3526
63.4182
67.3663
11.9271
15.7828
19.6429
23.5105
27.3885
31.2801
35.1882
39.116
43.0666
47.0427
51.046
55.0755
59.1227
63.1602
67.1181
11.9174
15.7538
19.5945
23.4425
27.3008
31.1725
35.0605
38.9681
42.8986
46.855
50.8402
54.8554
58.898
62.9558
67.0004
11.9067
15.7215
19.5407
23.367
27.2034
31.0528
34.9185
38.8035
42.7115
46.6462
50.6121
54.6149
58.6613
62.7589
66.9101
11.8949
15.6862
19.4816
23.284
27.0963
30.9213
34.7621
38.622
42.5047
46.4145
50.3573
54.3426
58.3874
62.523
66.7957
11.8821
15.6478
19.4174
23.1938
26.9798
30.7781
34.5917
38.4239
42.2781
46.1588
50.0717
54.0276
58.0488
62.1905
66.5828
11.8684
15.6064
19.3482
23.0966
26.8541
30.6235
34.4076
38.2095
42.0322
45.8794
49.7551
53.6657
57.6251
61.6821
66.0589
11.8536
15.5621
19.2743
22.9927
26.7197
30.4581
34.2105
37.9796
41.7683
45.5791
49.4131
53.2685
57.1321
60.95
64.4854
11.838
15.5151
19.1958
22.8822
26.5769
30.2823
34.0009
37.7354
41.4882
45.2614
49.0551
52.8643
56.6693
60.4126
63.9503
11.8215
15.4656
19.1129
22.7657
26.4262
30.0967
33.7796
37.4775
41.1929
44.9283
48.685
52.4615
56.248
60.0165
63.712
11.8042
15.4136
19.0261
22.6435
26.268
29.9018
33.5471
37.2065
40.8828
44.5793
48.3001
52.0505
55.8376
59.6694
63.5494
11.7862
15.3594
18.9354
22.5159
26.1029
29.6983
33.3042
36.923
40.5577
44.2124
47.8933
51.6127
55.3947
59.2873
63.3647
11.7675
15.3032
18.8414
22.3835
25.9315
29.4868
33.0515
36.6276
40.2178
43.826
47.4587
51.1301
54.8738
58.7752
63.0382
11.7481
15.2451
18.7442
22.2468
25.7543
29.2682
32.7901
36.3215
39.8646
43.4216
46.9961
50.5959
54.2418
58.0105
62.2458
11.7283
15.1855
18.6444
22.1063
25.5723
29.0435
32.5213
36.0066
39.5007
43.0038
46.5149
50.0284
53.5232
56.9201
59.8673
11.708
15.1244
18.5423
21.9625
25.3861
28.8137
32.2465
35.685
39.1296
42.5795
46.0309
49.4725
52.8714
56.1407
59.0692
11.6873
15.0623
18.4383
21.8162
25.1965
28.5799
31.967
35.3582
38.7538
42.153
45.5528
48.9449
52.3082
55.5964
58.73
11.6663
14.9992
18.3329
21.6677
25.0042
28.3428
31.6839
35.0277
38.3748
41.7252
45.0789
48.436
51.7959
55.158
58.5209
11.6451
14.9355
18.2263
21.5178
24.8101
28.1035
31.3981
34.6943
37.9925
41.2939
44.6017
47.9239
51.2808
54.7175
58.311
11.6238
14.8714
18.1191
21.3669
24.6147
27.8627
31.1106
34.3586
37.6071
40.8573
44.1133
47.3866
50.7091
54.1667
57.9688
11.6024
14.8071
18.0115
21.2155
24.4189
27.6213
30.8225
34.0219
37.2196
40.4157
43.6118
46.8139
50.0422
53.3753
57.1636
11.581
14.7428
17.904
21.0644
24.2233
27.3803
30.5347
33.6858
36.8324
39.9732
43.1053
46.2217
49.3014
52.2665
54.7679
11.5596
14.6787
17.7969
20.9138
24.0286
27.1406
30.2488
33.3519
36.4485
39.5359
42.6085
45.6538
48.6391
51.4785
53.964
11.5385
14.615
17.6906
20.7644
23.8355
26.903
29.9656
33.022
36.0702
39.1077
42.1297
45.1266
48.0768
50.9349
53.6246
11.5175
14.552
17.5853
20.6164
23.6445
26.6682
29.6862
32.6969
35.6986
38.6895
41.6674
44.6306
47.5774
50.5069
53.4199
11.4967
14.4896
17.4812
20.4704
23.456
26.4368
29.4112
32.3774
35.3338
38.2793
41.2144
44.145
47.089
50.089
53.2209
11.4762
14.4281
17.3785
20.3264
23.2706
26.2094
29.1412
32.064
34.9759
37.8754
40.7636
43.6491
46.5604
49.5785
52.9029
11.456
14.3674
17.2774
20.1848
23.0884
25.9864
28.8769
31.7576
34.6258
37.4785
40.3138
43.1342
45.9564
48.8541
52.1583
11.436
14.3077
17.1779
20.0457
22.9096
25.768
28.6189
31.4593
34.2856
37.0927
39.8736
42.6169
45.299
47.8461
49.9388
11.4164
14.2488
17.0799
19.9088
22.7342
25.5545
28.3675
31.1701
33.958
36.7244
39.4585
42.1412
44.7343
47.1526
49.2065
11.397
14.1907
16.9833
19.7741
22.562
25.3456
28.1227
30.8906
33.6446
36.3777
39.0783
41.7269
44.2897
46.7111
48.9173
11.3778
14.1331
16.8878
19.6411
22.3924
25.1406
27.8839
30.62
33.3451
36.0528
38.7333
41.371
43.9425
46.4178
48.7754
11.3587
14.076
16.793
19.5093
22.2247
24.9384
27.6496
30.3566
33.0568
35.746
38.4172
41.0602
43.661
46.2053
48.6888
11.3396
14.019
16.6984
19.3779
22.0577
24.7376
27.4176
30.0972
32.7756
35.4509
38.1199
40.7778
43.4179
46.0338
48.6247
11.3205
13.9618
16.6035
19.2461
21.8902
24.5363
27.1853
29.8381
32.4958
35.1593
37.8296
40.5068
43.1904
45.8786
48.5688
11.3013
13.9041
16.5078
19.1131
21.721
24.3327
26.9499
29.575
32.2112
34.8624
37.5336
40.2306
42.9588
45.7209
48.5121
11.2818
13.8457
16.4108
18.978
21.5487
24.1247
26.7085
29.3037
31.9155
34.5507
37.2188
39.9317
42.7027
45.542
48.446
11.262
13.7864
16.3121
18.8403
21.3724
23.9108
26.4586
29.0204
31.6028
34.2156
36.8722
39.5916
42.3982
45.317
48.3573
11.2419
13.726
16.2115
18.6995
21.1915
23.6901
26.1985
28.7221
31.2685
33.8492
36.4811
39.1902
42.0146
45.0067
48.2174
11.2214
13.6647
16.109
18.5556
21.0058
23.4619
25.9275
28.4075
30.9098
33.4464
36.0357
38.7079
41.5138
44.5434
47.9503
11.2007
13.6024
16.0049
18.4089
20.8156
23.2269
25.6459
28.0768
30.5268
33.0063
35.532
38.1318
40.8566
43.8171
47.3214
66.2662
59.8583
54.4655
49.5248
44.8354
40.305
35.8828
31.5374
27.2481
23.0002
18.7829
14.5882
10.4095
6.24156
2.07984
67.4153
61.1672
55.6285
50.5228
45.6884
41.0336
36.5033
32.0625
27.6875
23.3612
19.0714
14.8084
10.5646
6.3338
2.11045
67.8941
61.9818
56.4894
51.3311
46.4154
41.6744
37.0607
32.5411
28.0921
23.6964
19.3407
15.0148
10.7105
6.42069
2.13931
68.1345
62.5029
57.1168
51.9694
47.0199
42.2258
37.5516
32.9698
28.4591
24.003
19.5888
15.2059
10.846
6.50158
2.16621
68.2752
62.8519
57.5769
52.4688
47.5152
42.6928
37.9775
33.3482
28.7872
24.28
19.8145
15.3808
10.9704
6.57604
2.19099
68.3669
63.0964
57.9193
52.8596
47.9181
43.0841
38.3426
33.6783
29.0773
24.5273
20.0176
15.5389
11.0834
6.64385
2.21359
68.4312
63.2741
58.1787
53.1669
48.2451
43.41
38.6529
33.9635
29.3312
24.7459
20.1985
15.6807
11.1851
6.70503
2.23401
68.4783
63.4072
58.3784
53.4101
48.5107
43.6805
38.9152
34.2082
29.5517
24.9375
20.3582
15.8066
11.2758
6.75972
2.25228
68.5139
63.5093
58.5344
53.6042
48.7268
43.9046
39.1361
34.417
29.7418
25.1043
20.4983
15.9175
11.356
6.80822
2.26851
68.5415
63.589
58.6578
53.7601
48.9031
44.0903
39.3215
34.5943
29.9049
25.2486
20.6202
16.0145
11.4265
6.85093
2.28282
68.5633
63.652
58.7564
53.8861
49.0476
44.2443
39.477
34.7445
30.0443
25.3727
20.7257
16.099
11.488
6.88829
2.29534
68.5806
63.7025
58.8359
53.9886
49.1662
44.372
39.6072
34.8714
30.1629
25.4791
20.8167
16.172
11.5414
6.92078
2.30625
68.5945
63.7432
58.9004
54.0723
49.2639
44.478
39.7161
34.9784
30.2636
25.5699
20.8947
16.2349
11.5875
6.9489
2.3157
68.6058
63.7763
58.953
54.141
49.3445
44.5661
39.8073
35.0684
30.3489
25.6472
20.9613
16.2888
11.6271
6.9731
2.32384
68.615
63.8033
58.996
54.1975
49.4112
44.6394
39.8835
35.1441
30.4209
25.7127
21.0181
16.3349
11.661
6.99386
2.33083
68.6225
63.8254
59.0315
54.2442
49.4664
44.7003
39.9472
35.2077
30.4816
25.7682
21.0663
16.3741
11.6899
7.01159
2.3368
68.6287
63.8436
59.0606
54.2827
49.5122
44.751
40.0004
35.261
30.5327
25.815
21.107
16.4074
11.7145
7.02667
2.34188
68.6338
63.8586
59.0847
54.3145
49.5501
44.7932
40.0448
35.3056
30.5756
25.8544
21.1414
16.4355
11.7353
7.03945
2.34619
68.638
63.8709
59.1045
54.3408
49.5815
44.8282
40.0817
35.3428
30.6114
25.8875
21.1703
16.4592
11.7529
7.05023
2.34982
68.6414
63.8811
59.1208
54.3624
49.6075
44.8572
40.1124
35.3737
30.6413
25.9151
21.1945
16.479
11.7676
7.05928
2.35288
68.6442
63.8894
59.1342
54.3803
49.6288
44.8811
40.1377
35.3993
30.6661
25.938
21.2146
16.4955
11.7799
7.06683
2.35543
68.6465
63.8962
59.1452
54.3948
49.6463
44.9006
40.1585
35.4204
30.6865
25.9569
21.2312
16.5091
11.79
7.07308
2.35754
68.6484
63.9017
59.154
54.4066
49.6605
44.9165
40.1754
35.4375
30.7031
25.9723
21.2448
16.5203
11.7983
7.0782
2.35926
68.6499
63.906
59.1611
54.416
49.6718
44.9292
40.1889
35.4512
30.7165
25.9847
21.2557
16.5293
11.805
7.08232
2.36066
68.651
63.9095
59.1666
54.4234
49.6806
44.9392
40.1995
35.462
30.7269
25.9944
21.2643
16.5363
11.8102
7.08556
2.36175
68.6519
63.912
59.1707
54.4288
49.6873
44.9466
40.2074
35.47
30.7348
26.0017
21.2707
16.5417
11.8142
7.08801
2.36258
68.6525
63.9138
59.1736
54.4327
49.6919
44.9518
40.213
35.4757
30.7403
26.0069
21.2753
16.5454
11.817
7.08974
2.36316
68.6529
63.9148
59.1752
54.4349
49.6946
44.9549
40.2163
35.4791
30.7437
26.01
21.2781
16.5477
11.8187
7.0908
2.36352
68.653
63.9152
59.1758
54.4357
49.6956
44.956
40.2175
35.4804
30.745
26.0112
21.2791
16.5486
11.8194
7.09122
2.36367
68.6529
63.9148
59.1753
54.4351
49.6948
44.9552
40.2167
35.4796
30.7442
26.0105
21.2786
16.5482
11.8191
7.09103
2.3636
68.6525
63.9138
59.1737
54.4329
49.6923
44.9524
40.2137
35.4766
30.7414
26.008
21.2764
16.5464
11.8178
7.09021
2.36333
68.6519
63.9121
59.1708
54.4292
49.6878
44.9474
40.2085
35.4715
30.7364
26.0034
21.2724
16.5432
11.8154
7.08876
2.36284
68.651
63.9095
59.1667
54.4237
49.6813
44.9403
40.201
35.4639
30.7292
25.9968
21.2667
16.5385
11.8119
7.08664
2.36212
68.6498
63.906
59.1611
54.4163
49.6726
44.9306
40.1909
35.4538
30.7195
25.988
21.259
16.5322
11.8073
7.08379
2.36117
68.6483
63.9014
59.1538
54.4067
49.6612
44.9181
40.1778
35.4408
30.7071
25.9766
21.2491
16.5242
11.8014
7.08017
2.35995
68.6463
63.8956
59.1445
54.3946
49.6469
44.9023
40.1614
35.4245
30.6916
25.9625
21.2369
16.5142
11.7941
7.07569
2.35844
68.6438
63.8883
59.1329
54.3793