/*--------------------------------*- C++ -*----------------------------------*\
| =========                 |                                                 |
| \\      /  F ield         | OpenFOAM: The Open Source CFD Toolbox           |
|  \\    /   O peration     | Version:  5.x                                   |
|   \\  /    A nd           | Web:      www.OpenFOAM.org                      |
|    \\/     M anipulation  |                                                 |
\*---------------------------------------------------------------------------*/
FoamFile
{
    version     2.0;
    format      ascii;
    class       volScalarField;
    location    "14";
    object      gradTx;
}
// * * * * * * * * * * * * * * * * * * * * * * * * * * * * * * * * * * * * * //

dimensions      [0 -1 0 1 0 0 0];

internalField   nonuniform List<scalar> 
6300
(
28.5867
28.5009
28.3291
28.0717
27.7286
27.3003
26.7878
26.1923
25.5162
24.763
23.9375
23.0464
22.0984
21.1042
20.0767
28.6714
28.5855
28.4137
28.156
27.8126
27.3835
26.8696
26.2718
25.5923
24.8342
24.002
23.1023
22.1436
21.1367
20.0949
28.8407
28.7549
28.583
28.3251
27.9809
27.5505
27.034
26.432
25.746
24.9784
24.1331
23.2162
22.2359
21.2034
20.1325
29.0947
29.0089
28.8372
28.5791
28.2343
27.8023
27.2826
26.6751
25.9802
25.1992
24.3349
23.3924
22.3796
21.3076
20.1914
29.4333
29.3478
29.1764
28.9187
28.5738
28.1406
27.618
27.0046
26.2994
25.5022
24.614
23.6381
22.5814
21.4551
20.2757
29.8562
29.7712
29.6008
29.3443
29.0003
28.5673
28.0429
27.4247
26.7096
25.8951
24.9796
23.9636
22.8518
21.655
20.3911
30.3628
30.2787
30.1101
29.856
29.5147
29.084
28.5606
27.9404
27.2182
26.3881
25.4446
24.3838
23.2063
21.9209
20.5471
30.9522
30.8696
30.7037
30.4536
30.1173
29.6921
29.1739
28.5569
27.8334
26.9934
26.0258
24.9196
23.6679
22.2741
20.7584
31.623
31.5423
31.3803
31.136
30.8076
30.3921
29.8849
29.2789
28.5638
27.7253
26.7446
25.5997
24.2706
22.7483
21.0491
32.3733
32.2949
32.1378
31.9012
31.5837
31.1825
30.6933
30.1087
29.4166
28.5983
27.6262
26.463
25.0656
23.3983
21.4611
33.2005
33.1249
32.9735
32.7462
32.4421
32.0597
31.5959
31.0446
30.3942
29.6238
28.6977
27.5594
26.1292
24.3171
22.0714
34.102
34.0292
33.8839
33.6665
33.3774
33.0169
32.5848
32.0784
31.4905
30.8036
29.9801
28.9466
27.5737
25.6686
23.0345
35.0748
35.0047
34.8651
34.6571
34.3826
34.0445
33.6464
33.1923
32.6845
32.1187
31.4713
30.672
29.5493
27.7479
24.6979
36.1162
36.0483
35.9132
35.7127
35.4502
35.1307
34.7627
34.3583
33.935
33.5139
33.1132
32.7194
32.2025
31.0748
27.9627
37.2242
37.1575
37.0251
36.829
36.5731
36.2641
35.9137
35.5418
35.1816
34.8875
34.7466
34.8889
35.4648
36.3848
35.5878
19.1182
18.2425
17.3723
16.5165
15.6838
14.8817
14.1174
13.3965
12.7241
12.1038
11.5385
11.0302
10.58
10.1884
9.85538
9.58042
9.36256
9.20047
9.09249
9.03655
9.03025
9.07072
9.15465
9.27826
9.43724
9.6268
9.84171
10.0764
10.3251
10.5821
10.8417
11.0987
11.3482
11.5859
11.8078
12.0104
12.19
12.3431
12.4662
12.5556
12.6079
12.6201
12.5898
12.5155
12.3968
12.2342
12.0288
11.7822
11.4959
11.171
10.8078
10.4057
9.9634
9.47869
8.94907
8.37182
7.74437
7.06444
6.33004
5.53939
4.69061
3.78149
2.80911
1.76964
0.65814
-0.531451
-1.8062
-3.17396
-4.6431
-6.22216
-7.91952
-9.74318
-11.7006
-13.7985
-16.043
-18.4393
-20.9918
-23.7037
-26.5771
-29.6117
-32.805
-36.1513
-39.6411
-43.2607
-46.9915
-50.8103
-54.6893
-58.597
-62.4991
-66.3596
19.1224
18.2337
17.3507
16.4828
15.6388
14.8269
14.0541
13.3263
12.6484
12.0241
11.456
10.946
10.4951
10.1036
9.77137
9.49778
9.28184
9.12218
9.01714
8.96472
8.96251
9.00774
9.09714
9.22694
9.39281
9.5899
9.81281
10.0558
10.3128
10.5779
10.8451
11.109
11.3648
11.6081
11.8353
12.0429
12.2276
12.3859
12.5142
12.6085
12.6652
12.6808
12.6526
12.579
12.4596
12.2953
12.0876
11.8389
11.5511
11.2257
10.8633
10.4633
10.024
9.54298
9.01725
8.44373
7.8196
7.14254
6.41075
5.62279
4.77724
3.87234
2.90553
1.87319
0.770434
-0.40895
-1.67234
-3.02803
-4.48484
-6.05177
-7.73757
-9.55049
-11.4981
-13.5872
-15.8241
-18.214
-20.7617
-23.471
-26.3443
-29.3825
-32.584
-35.9439
-39.4535
-43.0996
-46.8638
-50.7224
-54.6468
-58.6039
-62.5575
-66.4696
19.1313
18.2159
17.3066
16.4138
15.5471
14.7151
13.9253
13.1836
12.495
11.8628
11.2894
10.7763
10.3242
9.93304
9.60251
9.33176
9.11967
8.96486
8.86568
8.82018
8.82611
8.8808
8.98109
9.1233
9.30307
9.5154
9.75463
10.0146
10.2886
10.5701
10.8527
11.1306
11.3987
11.6532
11.8905
12.108
12.3027
12.4715
12.6104
12.7152
12.7812
12.8041
12.7803
12.7078
12.5866
12.4181
12.2052
11.9514
11.66
11.3333
10.9725
10.5769
10.1443
9.67126
9.15388
8.58815
7.9707
7.29913
6.57205
5.78884
4.9491
4.05209
3.09609
2.07797
0.992916
-0.165603
-1.40567
-2.73652
-4.16805
-5.7102
-7.37251
-9.16372
-11.0916
-13.1632
-15.3844
-17.7612
-20.2986
-23.0015
-25.8737
-28.9178
-32.1341
-35.5201
-39.0686
-42.7676
-46.5991
-50.5388
-54.556
-58.6147
-62.6745
-66.693
19.1456
18.1884
17.2382
16.3066
15.4047
14.542
13.7264
12.9642
12.2598
11.6162
11.0355
10.5183
10.0649
9.6748
9.34714
9.08085
8.87464
8.72706
8.63653
8.60123
8.61913
8.68779
8.80432
8.96518
9.16605
9.40177
9.66625
9.95256
10.2532
10.5604
10.8667
11.1656
11.4521
11.7223
11.9739
12.2054
12.4147
12.5994
12.7554
12.8773
12.9589
12.9939
12.9774
12.9065
12.7812
12.6045
12.3813
12.1176
11.819
11.4897
11.1314
10.7433
10.3223
9.86305
9.35975
8.80667
8.19938
7.53531
6.81388
6.036
5.20318
4.31655
3.37589
2.37894
1.32104
0.195048
-1.00836
-2.30012
-3.69196
-5.19557
-6.82177
-8.58001
-10.4782
-12.5232
-14.7207
-17.0767
-19.5969
-22.2876
-25.1549
-28.2043
-31.4395
-34.8614
-38.4661
-42.2439
-46.1778
-50.2424
-54.4043
-58.6224
-62.8497
-67.036
19.1667
18.1504
17.142
16.156
15.2052
14.3005
13.4503
12.6609
11.9363
11.2789
10.6895
10.1682
9.71412
9.32619
9.00299
8.74303
8.54479
8.40677
8.32746
8.30533
8.33868
8.42551
8.56336
8.74906
8.97849
9.24636
9.54604
9.86957
10.2079
10.5514
10.8909
11.2183
11.5282
11.8177
12.086
12.334
12.5619
12.7682
12.9489
13.0969
13.203
13.2576
13.2524
13.1829
13.0494
12.8572
12.6151
12.3335
12.0219
11.6873
11.3327
10.957
10.5548
10.1179
9.63691
9.1029
8.50945
7.85375
7.13669
6.36197
5.53448
4.65857
3.73652
2.76751
1.74707
0.667054
-0.483935
-1.71965
-3.05497
-4.50442
-6.08085
-7.79462
-9.65346
-11.6632
-13.8287
-16.1553
-18.6494
-21.3191
-24.1735
-27.2226
-30.4755
-33.9386
-37.6135
-41.4947
-45.5672
-49.8049
-54.1705
-58.6156
-63.0828
-67.5098
19.1968
18.1
17.013
15.954
14.9387
13.9797
13.0861
12.2638
11.5157
10.843
10.2451
9.72067
9.26767
8.88397
8.56741
8.31597
8.12787
8.00155
7.93572
7.9292
7.98086
8.08941
8.25314
8.46961
8.7352
9.04475
9.3911
9.76488
10.1547
10.5479
10.9318
11.2959
11.6335
11.9429
12.227
12.491
12.7394
12.9735
13.189
13.3763
13.521
13.6068
13.6195
13.5509
13.4017
13.1813
12.9054
12.592
12.2574
11.9131
11.5641
11.2083
10.8367
10.4359
9.99002
9.48434
8.90882
8.2602
7.54221
6.76363
5.93524
5.06679
4.16457
3.22995
2.25874
1.24113
0.162402
-0.995838
-2.25367
-3.6304
-5.14215
-6.80027
-8.61133
-10.5786
-12.7044
-14.9924
-17.4489
-20.084
-22.9113
-25.947
-29.2081
-32.7101
-36.4632
-40.4692
-44.7175
-49.1823
-53.8212
-58.5756
-63.3728
-68.1313
19.2392
18.0347
16.8431
15.6883
14.5905
13.5642
12.6189
11.7591
10.9862
10.2989
9.69463
9.16987
8.72106
8.34471
8.03769
7.79735
7.62161
7.50892
7.45824
7.46896
7.5408
7.67351
7.86665
8.11905
8.42827
8.7898
9.19625
9.63668
10.0963
10.5573
11.001
11.4112
11.7787
12.1041
12.3965
12.67
12.9373
13.2048
13.4693
13.7166
13.9232
14.0607
14.103
14.0345
13.856
13.5848
13.2492
12.8806
12.5064
12.1453
11.805
11.4816
11.1604
10.8185
10.4288
9.96597
9.41306
8.76619
8.03465
7.23669
6.39341
5.52336
4.63902
3.7449
2.83704
1.90309
0.923122
-0.128701
-1.28121
-2.56198
-3.99265
-5.58563
-7.34414
-9.26563
-11.3465
-13.5865
-15.9908
-18.5717
-21.3485
-24.3462
-27.5934
-31.1192
-34.948
-39.0941
-43.5552
-48.308
-53.3047
-58.4727
-63.7169
-68.9266
19.2993
17.9502
16.6192
15.3399
14.1384
13.0315
12.0276
11.1289
10.3329
9.63495
9.02915
8.50935
8.06976
7.70526
7.41159
7.1854
7.02426
6.92667
6.89201
6.92042
7.01275
7.17029
7.39449
7.68636
8.04568
8.4698
8.95212
9.48042
10.0355
10.5914
11.1178
11.5874
11.9843
12.3121
12.5928
12.8574
13.1342
13.44
13.7738
14.1149
14.4243
14.6511
14.7455
14.676
14.4433
14.0805
13.64
13.1767
12.736
12.3471
12.0212
11.7513
11.5136
11.2696
10.9725
10.5769
10.0522
9.39374
8.6224
7.7747
6.88981
6.00026
5.12727
4.27941
3.45272
2.63115
1.78718
0.883312
-0.124122
-1.27775
-2.60947
-4.13262
-5.84218
-7.72296
-9.75954
-11.9437
-14.278
-16.7771
-19.4674
-22.3856
-25.577
-29.0912
-32.9752
-37.2645
-41.9721
-47.0813
-52.5402
-58.2589
-64.1096
-69.9352
19.3859
17.8388
16.32
14.879
13.5496
12.3499
11.2845
10.35
9.53786
8.83784
8.23944
7.73296
7.30998
6.96351
6.68803
6.47946
6.33509
6.25354
6.23465
6.27955
6.3905
6.5708
6.82459
7.15623
7.56944
8.06563
8.64142
9.28519
9.97325
10.6672
11.3162
11.8677
12.2888
12.5876
12.8119
13.0265
13.289
13.6343
14.0672
14.5584
15.0437
15.4315
15.6235
15.552
15.2174
14.6876
14.0631
13.4399
12.8904
12.4575
12.156
11.9743
11.8752
11.7967
11.6576
11.3731
10.8837
10.1834
9.31973
8.36592
7.39263
6.45302
5.57906
4.78317
4.06079
3.39129
2.73734
2.04432
1.24338
0.262836
-0.950671
-2.41117
-4.09366
-5.95587
-7.95994
-10.0844
-12.3276
-14.7069
-17.2575
-20.0312
-23.0954
-26.53
-30.4183
-34.8315
-39.8099
-45.3501
-51.4007
-57.8537
-64.537
-71.2186
19.5137
17.686
15.9082
14.2565
12.7738
11.4742
10.3527
9.39443
8.58096
7.89397
7.31697
6.83601
6.43973
6.11924
5.86783
5.6808
5.55522
5.48988
5.4852
5.54332
5.6681
5.86524
6.14228
6.50834
6.97339
7.54651
8.23247
9.02581
9.90204
10.8075
11.6545
12.3352
12.7691
12.9698
13.0445
13.1263
13.3239
13.7019
14.2763
15.0096
15.803
16.4933
16.8801
16.8065
16.2717
15.4306
14.4836
13.5964
12.8763
12.3784
12.118
12.0779
12.2065
12.4107
12.5516
12.4641
12.0186
11.2078
10.1465
8.98485
7.84666
6.81103
5.91817
5.18086
4.59249
4.12882
3.74359
3.36058
2.86935
2.13878
1.06371
-0.370087
-2.08636
-3.98443
-5.98687
-8.05404
-10.1809
-12.3898
-14.7261
-17.2581
-20.0801
-23.3149
-27.1048
-31.5842
-36.8376
-42.8831
-49.6805
-57.1157
-64.9652
-72.8754
19.709
17.4606
15.3141
13.3899
11.7339
10.3418
9.18553
8.23006
7.44166
6.79142
6.25592
5.81681
5.46007
5.17522
4.9547
4.79341
4.68839
4.63863
4.64511
4.71086
4.84125
5.04439
5.33154
5.71765
6.22144
6.86458
7.66855
8.64672
9.78829
11.0315
12.232
13.1575
13.5846
13.5329
13.2663
13.0589
13.0984
13.4862
14.256
15.374
16.7099
17.9916
18.7989
18.7247
17.7664
16.3256
14.8175
13.5119
12.542
11.9568
11.7624
11.9379
12.4286
13.1152
13.7741
14.07
13.679
12.5927
11.1173
9.56964
8.1527
6.96318
6.03307
5.36389
4.94442
4.75318
4.74643
4.8325
4.83979
4.51065
3.59451
2.07768
0.182714
-1.86274
-3.92052
-5.93756
-7.9159
-9.88916
-11.9127
-14.0667
-16.4702
-19.3
-22.7977
-27.2219
-32.7237
-39.3325
-47.0407
-55.7798
-65.3045
-75.0689
20.0221
17.0879
14.3992
12.1366
10.3131
8.86891
7.72865
6.82461
6.103
5.52332
5.05578
4.67877
4.37666
4.13834
3.95607
3.82481
3.74177
3.70621
3.71946
3.78511
3.90947
4.10234
4.37809
4.75727
5.26856
5.95079
6.85347
8.03194
9.52776
11.3168
13.2047
14.6971
15.089
14.405
13.4023
12.6354
12.3709
12.7198
13.7336
15.4238
17.6945
20.1721
21.9862
21.9155
19.9553
17.3168
14.8591
12.9433
11.6529
10.9722
10.8734
11.3438
12.368
13.8591
15.519
16.6645
16.3403
14.5373
12.1919
9.96577
8.13086
6.74142
5.77196
5.18705
4.96746
5.11165
5.61539
6.41766
7.29446
7.72761
6.99014
5.06981
2.66839
0.276652
-1.91286
-3.87681
-5.6581
-7.31589
-8.91123
-10.5161
-12.2458
-14.3229
-17.1561
-21.3073
-27.0151
-34.198
-42.9153
-53.3113
-65.2976
-78.0841
20.557
16.3608
12.8699
10.2507
8.34585
6.95825
5.93142
5.15624
4.55973
4.09347
3.72507
3.43265
3.20123
3.02058
2.88383
2.78662
2.72662
2.70336
2.7182
2.77465
2.87889
3.04077
3.27552
3.60644
4.06931
4.71929
5.64097
6.95987
8.84465
11.4591
14.7465
17.821
18.1419
15.7354
13.1982
11.4878
10.7598
10.9955
12.2366
14.6371
18.3805
23.3075
27.8866
27.8262
23.1201
18.0468
14.1201
11.4736
9.88576
9.14908
9.16433
9.95179
11.6347
14.3596
18.0039
21.3748
21.1304
17.2622
13.0944
9.79813
7.46732
5.9147
4.95688
4.48392
4.46648
4.95214
6.05425
7.89523
10.3877
12.6299
12.0888
8.75448
5.13997
2.12475
-0.229981
-2.07904
-3.57805
-4.8324
-5.89595
-6.7853
-7.52102
-8.2567
-9.61619
-13.1507
-19.182
-26.853
-36.3719
-48.5515
-64.1372
-82.458
21.5503
14.6171
10.0853
7.33557
5.63332
4.52769
3.77154
3.23035
2.82872
2.52252
2.28481
2.09853
1.95254
1.83948
1.75454
1.69471
1.65846
1.64552
1.65693
1.69528
1.76516
1.87414
2.03434
2.26547
2.60045
3.09637
3.85624
5.07265
7.11048
10.6318
16.5945
24.909
25.1217
17.2532
11.8032
8.92482
7.76057
7.82304
9.06963
11.9159
17.3615
26.9431
40.467
40.4255
26.813
17.1251
11.5368
8.4792
6.89244
6.24285
6.34297
7.26998
9.4004
13.5357
20.8816
31.2906
31.1381
20.4179
12.7416
8.23979
5.68287
4.23123
3.44341
3.12466
3.24086
3.90474
5.4289
8.43434
13.8411
21.5399
21.2091
12.8424
6.74835
3.02158
0.724657
-0.78536
-1.85027
-2.62359
-3.13141
-3.27565
-2.79615
-1.29208
1.05599
-1.39863
-8.98709
-16.8463
-25.9965
-38.8858
-59.0365
-89.2971
23.5585
9.41476
4.73395
2.91174
2.06144
1.59371
1.30194
1.10337
0.960146
0.852814
0.770405
0.706306
0.656345
0.617822
0.588993
0.56879
0.556667
0.55254
0.556803
0.57041
0.59508
0.633675
0.690923
0.77484
0.899743
1.09322
1.41394
2.00238
3.23973
6.28859
15.0553
43.6627
43.7375
15.2875
6.70471
3.89318
2.99454
2.94515
3.59876
5.45135
10.3858
24.9005
72.5802
72.5653
24.8535
10.2992
5.30877
3.3665
2.54934
2.25682
2.33063
2.85502
4.27869
8.08813
19.3478
56.4139
56.362
19.1898
7.81687
3.88057
2.30663
1.59168
1.25435
1.13895
1.22644
1.61839
2.67033
5.51533
13.9933
42.0118
41.9005
13.6572
4.94766
1.85929
0.546098
-0.132647
-0.542358
-0.79707
-0.890396
-0.664107
0.453386
4.45719
18.644
17.7462
1.59787
-4.98052
-10.2361
-18.7634
-39.3764
-101.026
-70.5105
-74.8844
-79.0393
-82.9304
-86.5233
-89.7936
-92.7265
-95.3154
-97.5598
-99.4637
-101.034
-102.278
-103.203
-103.815
-104.121
-70.6746
-75.1018
-79.3013
-83.227
-86.8441
-90.1291
-93.0686
-95.6579
-97.8983
-99.7955
-101.358
-102.594
-103.513
-104.121
-104.424
-71.0091
-75.5454
-79.8354
-83.8304
-87.4952
-90.8081
-93.7591
-96.3472
-98.5777
-100.46
-102.006
-103.226
-104.131
-104.729
-105.027
-71.5271
-76.2336
-80.6629
-84.7621
-88.4962
-91.8472
-94.8106
-97.3919
-99.6032
-101.46
-102.977
-104.171
-105.054
-105.636
-105.926
-72.2506
-77.1972
-81.819
-86.0572
-89.8786
-93.2719
-96.242
-98.8048
-100.982
-102.796
-104.27
-105.424
-106.274
-106.834
-107.112
-73.2142
-78.4841
-83.3568
-87.7673
-91.6873
-95.1177
-98.0788
-100.602
-102.721
-104.47
-105.881
-106.978
-107.784
-108.312
-108.574
-74.4706
-80.1666
-85.3551
-89.9661
-93.9836
-97.4307
-100.352
-102.8
-104.827
-106.481
-107.802
-108.823
-109.567
-110.054
-110.295
-76.102
-82.3548
-87.9292
-92.7562
-96.8484
-100.268
-103.096
-105.416
-107.304
-108.823
-110.022
-110.941
-111.607
-112.041
-112.254
-78.2391
-85.2196
-91.2486
-96.279
-100.384
-103.693
-106.345
-108.463
-110.149
-111.482
-112.521
-113.309
-113.876
-114.244
-114.425
-81.0997
-89.034
-95.565
-100.725
-104.714
-107.775
-110.125
-111.939
-113.344
-114.432
-115.268
-115.895
-116.343
-116.633
-116.775
-85.0683
-94.2498
-101.251
-106.339
-109.97
-112.564
-114.44
-115.821
-116.853
-117.633
-118.221
-118.657
-118.967
-119.166
-119.264
-90.8846
-101.644
-108.847
-113.409
-116.261
-118.069
-119.249
-120.049
-120.613
-121.022
-121.323
-121.543
-121.699
-121.799
-121.848
-100.15
-112.593
-119.081
-122.185
-123.594
-124.198
-124.435
-124.512
-124.525
-124.515
-124.502
-124.491
-124.484
-124.481
-124.479
-116.9
-129.494
-132.696
-132.656
-131.727
-130.691
-129.778
-129.036
-128.455
-128.01
-127.676
-127.433
-127.264
-127.157
-127.106
-153.289
-155.784
-149.551
-144.015
-139.965
-137.058
-134.949
-133.398
-132.247
-131.391
-130.757
-130.298
-129.978
-129.777
-129.679
38.2995
38.2332
38.1014
37.9058
37.6496
37.3394
36.9871
36.6146
36.2624
36.005
35.983
36.4788
38.1384
42.8244
57.6195
39.3219
39.2556
39.1232
38.9256
38.6648
38.3452
37.9757
37.5747
37.178
36.8562
36.7466
37.1149
38.466
41.6573
47.2365
40.3894
40.3227
40.1891
39.9882
39.7197
39.3844
38.9852
38.5305
38.0405
37.5592
37.1772
37.0671
37.5146
38.8309
40.7435
41.5021
41.4352
41.3007
41.0966
40.8199
40.4667
40.0318
39.5097
38.8959
38.1922
37.4177
36.6309
35.9589
35.5893
35.5946
42.66
42.5937
42.4595
42.2541
41.9721
41.6045
41.1379
40.5513
39.8126
38.8734
37.6657
36.1138
34.1921
32.0863
30.4653
43.8628
43.798
43.6665
43.4638
43.1824
42.8098
42.3259
41.6973
40.8676
39.7399
38.1515
35.8525
32.552
28.2456
24.2266
45.1095
45.0476
44.9217
44.7268
44.4546
44.091
43.6131
42.9818
42.1283
40.9252
39.1296
36.2856
31.6095
24.2047
15.2131
46.3979
46.3405
46.2236
46.0424
45.789
45.4503
45.0053
44.4194
43.6309
42.5205
40.8348
37.9898
32.5609
21.2651
-0.0280589
47.7249
47.6735
47.5688
47.4069
47.1812
46.8818
46.4941
45.9965
45.3558
44.5138
43.3439
41.4873
37.5854
25.2675
-30.0391
49.0863
49.0422
48.9525
48.8143
48.6232
48.3732
48.0576
47.6716
47.2196
46.7333
46.3286
46.4041
48.453
59.1224
113.395
50.4771
50.4412
50.3685
50.2571
50.1046
49.9085
49.6684
49.3915
49.106
48.8943
48.9785
49.9494
53.3325
62.6961
82.7026
51.8915
51.8645
51.81
51.7272
51.6149
51.4727
51.303
51.1159
50.9403
50.8483
51.0112
51.8182
54.0571
58.8773
65.9246
53.3232
53.3055
53.27
53.2163
53.1443
53.0543
52.948
52.831
52.7152
52.6236
52.5949
52.6912
52.9874
53.5103
54.0614
54.7658
54.7575
54.7411
54.7167
54.6847
54.6453
54.5988
54.5437
54.4723
54.3534
54.0903
53.4239
51.7587
48.1221
42.6023
56.2127
56.2138
56.2163
56.2209
56.2285
56.2395
56.2536
56.2664
56.2609
56.1817
55.8641
54.8487
51.8975
44.0403
27.3316
57.6573
57.6676
57.6886
57.7217
57.7682
57.8297
57.9075
58.0003
58.0996
58.1735
58.1208
57.6164
55.4414
46.1042
0.4796
59.0933
59.1123
59.1512
59.2115
59.2957
59.4068
59.5491
59.7283
59.9546
60.2512
60.6895
61.5428
63.9573
73.3663
118.926
60.5146
60.5418
60.5973
60.6832
60.8027
60.9604
61.163
61.4219
61.7595
62.2284
62.9683
64.3835
67.6139
75.5219
92.0759
61.9154
61.9501
62.0207
62.1298
62.2813
62.4807
62.7359
63.0592
63.472
64.0152
64.7764
65.9619
68.02
71.6712
76.7462
63.2905
63.3318
63.4159
63.5455
63.7249
63.9602
64.2593
64.6327
65.0927
65.6484
66.2879
66.9328
67.3177
66.8298
64.966
64.6352
64.6822
64.7777
64.9248
65.1279
65.3933
65.7291
66.1444
66.6456
67.2213
67.7937
68.0824
67.2196
62.9421
51.9169
65.9456
65.9973
66.1022
66.2634
66.4857
66.7755
67.1415
67.5946
68.1454
68.7942
69.4944
70.0299
69.4905
63.7386
31.2372
67.2184
67.2738
67.3859
67.558
67.7946
68.1025
68.4913
68.9751
69.5758
70.329
71.3076
72.7222
75.379
83.1096
116.877
68.4511
68.5091
68.6264
68.8059
69.052
69.3711
69.7729
70.2728
70.8986
71.7051
72.816
74.5501
77.7418
84.397
97.1303
69.6417
69.7014
69.8219
70.0058
70.2567
70.5802
70.9841
71.4813
72.0946
72.8673
73.8897
75.3637
77.6969
81.4616
86.2534
70.7892
70.8497
70.9717
71.1572
71.409
71.731
72.1281
72.6073
73.1784
73.8536
74.6475
75.579
76.6556
77.8108
78.732
71.8927
71.9535
72.0757
72.2608
72.5106
72.8273
73.2128
73.6677
74.1883
74.7552
75.3077
75.6915
75.5573
74.3205
71.8784
72.9523
73.0128
73.1342
73.3175
73.5637
73.8736
74.2469
74.6807
75.1645
75.6643
76.083
76.1619
75.2225
71.6652
63.3571
73.9681
74.0279
74.1479
74.3286
74.5704
74.8734
75.2365
75.6572
76.128
76.6272
77.092
77.3375
76.7035
72.3071
49.0947
74.9403
74.9994
75.1177
75.2954
75.5326
75.8289
76.1838
76.597
77.0703
77.6115
78.2512
79.122
80.7949
86.0138
109.662
75.8697
75.9279
76.0444
76.219
76.4515
76.7414
77.0881
77.4931
77.964
78.5248
79.2475
80.3477
82.4212
86.92
95.7607
76.7567
76.8141
76.9288
77.1005
77.3285
77.6119
77.9495
78.3416
78.7936
79.3231
79.9796
80.8956
82.3609
84.8089
88.0279
77.602
77.6586
77.7717
77.9408
78.1649
78.4422
78.7704
79.1466
79.5679
80.0307
80.5292
81.06
81.6158
82.1602
82.5602
78.406
78.462
78.5739
78.741
78.962
79.2348
79.5556
79.9183
80.3119
80.7108
81.054
81.2052
80.8762
79.6097
77.4
79.169
79.2247
79.3358
79.5017
79.721
79.9915
80.309
80.6666
81.0505
81.427
81.7098
81.6819
80.7852
77.7122
70.7352
79.8914
79.947
80.0578
80.2233
80.4423
80.713
81.032
81.3948
81.7927
82.2055
82.5792
82.7601
82.203
78.5238
59.2553
80.5733
80.6289
80.7398
80.9057
81.1256
81.3982
81.7221
82.0965
82.5229
83.0086
83.5802
84.3489
85.7865
90.1594
109.789
81.2146
81.2703
81.3817
81.5485
81.7699
82.0454
82.3747
82.7601
83.2103
83.7494
84.442
85.4712
87.3289
91.1981
98.6204
81.8151
81.8712
81.9833
82.1512
82.3744
82.6525
82.9857
83.3766
83.8343
84.3809
85.0677
86.0163
87.4717
89.7673
92.6373
82.3746
82.4312
82.5442
82.7135
82.9386
83.2188
83.5539
83.9447
84.395
84.9125
85.5091
86.2075
87.0285
87.9353
88.6781
82.8928
82.9499
83.0641
83.235
83.4621
83.7445
84.0808
84.4694
84.9075
85.3863
85.8775
86.3115
86.523
86.2152
85.2658
83.3693
83.4271
83.5425
83.7154
83.945
84.2301
84.5688
84.9577
85.3902
85.8487
86.2833
86.568
86.3756
84.9386
81.2253
83.8036
83.8621
83.9791
84.1542
84.3869
84.6759
85.0192
85.4135
85.8534
86.3248
86.7908
87.1539
87.09
85.2406
74.6374
84.1952
84.2546
84.3733
84.5511
84.7875
85.0814
85.4314
85.8357
86.2929
86.8021
87.3673
88.0344
89.0417
91.6196
102.592
84.5435
84.6038
84.7244
84.9051
85.1457
85.4454
85.8033
86.2191
86.6948
87.2376
87.8707
88.6765
89.9
92.167
96.3232
84.8479
84.9091
85.0317
85.2155
85.4605
85.7663
86.1323
86.5589
87.0485
87.6076
88.2517
89.0267
90.0309
91.4004
92.9721
85.1077
85.1699
85.2943
85.4813
85.7308
86.0427
86.4166
86.8528
87.3523
87.9156
88.5396
89.2155
89.9056
90.491
90.7442
85.3222
85.3853
85.5116
85.7016
85.9555
86.2733
86.655
87.1007
87.6101
88.1788
88.789
89.3925
89.8505
89.8102
88.7238
85.4908
85.5547
85.6827
85.8754
86.1333
86.4568
86.8463
87.3023
87.825
88.4103
89.0407
89.6686
90.1386
89.8538
85.9807
85.613
85.6775
85.8069
86.0019
86.2632
86.5918
86.9887
87.4556
87.9948
88.6076
89.2917
90.0524
90.9481
92.3873
96.9239
85.6882
85.7532
85.8836
86.0802
86.3441
86.6767
87.0799
87.5566
88.1119
88.7525
89.4872
90.3404
91.3775
92.7675
94.7049
85.7163
85.7814
85.9122
86.1096
86.3749
86.71
87.1172
87.6009
88.1681
88.8293
89.5981
90.4987
91.5591
92.7655
93.8631
85.6971
85.762
85.8926
86.0897
86.355
86.6904
87.0988
87.5851
88.1575
88.8285
89.615
90.5441
91.6367
92.8369
93.8153
85.6306
85.6951
85.8246
86.0204
86.284
86.6174
87.0236
87.5074
88.0768
88.7446
89.5304
90.4738
91.6369
93.0601
94.4786
85.5173
85.5809
85.7087
85.902
86.1621
86.4912
86.8919
87.3681
87.9262
88.5759
89.3341
90.249
91.4539
93.2844
96.1587
85.3577
85.4201
85.5454
85.7349
85.99
86.3127
86.7051
87.1699
87.7105
88.3291
89.0264
89.8208
90.8337
92.7817
99.8664
85.1528
85.2135
85.3356
85.5201
85.7687
86.0831
86.4652
86.917
87.4389
88.0249
88.649
89.2388
89.5616
88.7095
82.2303
84.9036
84.9623
85.0803
85.2588
85.4994
85.8039
86.1744
86.6132
87.1212
87.6914
88.2931
88.8402
89.1028
88.5431
86.4213
84.6116
84.6679
84.7811
84.9524
85.1833
85.4761
85.8335
86.2594
86.7587
87.3334
87.9727
88.6372
89.2123
89.4593
89.1702
84.2784
84.3319
84.4395
84.6024
84.822
85.1009
85.4424
85.8527
86.3422
86.9276
87.6325
88.4943
89.5473
90.7456
91.7493
83.906
83.9564
84.0577
84.2108
84.4174
84.6795
85.0009
85.3888
85.8577
86.436
87.181
88.2167
89.7786
92.165
95.0566
83.4966
83.5436
83.6378
83.7802
83.9718
84.2143
84.5106
84.8666
85.2956
85.8261
86.5251
87.5718
89.4348
93.2313
100.403
83.0526
83.0958
83.1826
83.3133
83.4886
83.7092
83.9761
84.2918
84.6615
85.0963
85.6255
86.3582
87.7456
91.9517
110.76
82.5766
82.6159
82.6948
82.8134
82.9717
83.1694
83.4053
83.6774
83.9805
84.2984
84.5822
84.6879
84.0965
80.5295
62.056
82.0711
82.1066
82.1776
82.284
82.4253
82.6003
82.8067
83.0396
83.2878
83.5215
83.6603
83.4997
82.5115
79.457
72.7065
81.5391
81.5707
81.6339
81.7283
81.8532
82.007
82.1872
82.3891
82.6036
82.8078
82.9442
82.8845
82.3589
80.9493
78.6988
80.9831
81.011
81.0666
81.1494
81.2587
81.3928
81.55
81.728
81.9251
82.1385
82.362
82.5909
82.8179
83.0238
83.1578
80.4057
80.43
80.4784
80.5503
80.6447
80.7602
80.8957
81.0517
81.2339
81.4594
81.7738
82.2969
83.289
85.1463
87.7394
79.8095
79.8305
79.8721
79.9336
80.0138
80.1112
80.2247
80.3554
80.5111
80.7161
81.0385
81.6753
83.157
86.7557
94.1513
79.1968
79.2147
79.25
79.3019
79.3688
79.4486
79.5392
79.6397
79.7526
79.8886
80.0826
80.4652
81.5524
85.7264
105.728
78.5697
78.5849
78.6147
78.6579
78.7126
78.776
78.8444
78.9136
78.9767
79.0183
78.9935
78.7639
77.8017
73.7037
53.7061
77.9301
77.943
77.9681
78.004
78.0482
78.0974
78.1468
78.1897
78.2142
78.1916
78.0445
77.5697
76.2264
72.7207
65.3433
77.2797
77.2908
77.3123
77.3424
77.3783
77.4162
77.4511
77.4767
77.483
77.4488
77.321
76.9769
76.1503
74.4245
71.8856
76.6196
76.6296
76.6487
76.6748
76.7048
76.7347
76.7596
76.7752
76.7784
76.7685
76.7456
76.7176
76.6964
76.6914
76.6929
75.9507
75.9603
75.9783
76.0025
76.0294
76.0543
76.0723
76.0803
76.0817
76.0945
76.1718
76.4516
77.229
78.9518
81.5292
75.2733
75.2832
75.3019
75.3266
75.3532
75.3762
75.3894
75.3883
75.3756
75.3734
75.4552
75.8384
77.1028
80.6169
88.1832
74.5871
74.5983
74.6194
74.6474
74.6775
74.7026
74.7141
74.7025
74.6609
74.5915
74.5271
74.6117
75.412
79.4661
100.119
73.8912
73.9048
73.9305
73.9651
74.0031
74.0362
74.0525
74.0358
73.964
73.8037
73.4934
72.8862
71.4593
66.7861
45.7004
73.1841
73.2011
73.2336
73.2785
73.33
73.3791
73.4114
73.4055
73.3272
73.1178
72.6638
71.7284
69.7589
65.5019
57.391
72.4633
72.4848
72.5264
72.5854
72.6567
72.7313
72.7947
72.8236
72.78
72.5992
72.1666
71.287
69.6449
66.8923
63.476
71.726
71.7527
71.8053
71.8821
71.979
72.089
72.1996
72.2902
72.3268
72.253
71.9778
71.3735
70.2998
68.742
67.2152
70.9683
71.0008
71.0659
71.1629
71.2903
71.444
71.6162
71.7926
71.9489
72.0444
72.0155
71.7845
71.2886
70.5686
69.9207
70.1862
70.2247
70.3025
70.421
70.5812
70.7839
71.0275
71.3072
71.612
71.9197
72.1915
72.3777
72.4307
72.3434
72.2029
69.3756
69.4196
69.5094
69.6482
69.8408
70.093
70.4114
70.8027
71.2717
71.8175
72.425
73.0618
73.6681
74.1534
74.4141
68.5327
68.581
68.6804
68.8363
69.057
69.354
69.7426
70.2424
70.8769
71.67
72.636
73.7654
74.9873
76.1174
76.8328
67.6545
67.7054
67.8106
67.9777
68.2182
68.5491
68.9943
69.5868
70.3706
71.4002
72.7316
74.4029
76.368
78.3674
79.7748
66.7394
66.7903
66.8963
67.0664
67.3147
67.6627
68.1416
68.7965
69.6923
70.9183
72.5892
74.8346
77.7226
81.0265
83.7205
65.7872
65.8353
65.936
66.099
66.3401
66.6833
67.1644
67.8374
68.7835
70.1251
72.0459
74.8183
78.7861
84.1071
89.5634
64.8
64.8421
64.9308
65.0757
65.2927
65.6059
66.052
66.687
67.5986
68.9275
70.9091
73.9702
78.9074
87.0919
99.2213
63.782
63.815
63.885
64.0008
64.1766
64.4341
64.8062
65.3429
66.1229
67.2741
69.0208
71.8173
76.7712
87.335
117.328
-253.751
-187.879
-164.358
-153.062
-146.464
-142.16
-139.174
-137.027
-135.451
-134.283
-133.42
-132.793
-132.356
-132.08
-131.946
-214.428
-187.644
-169.328
-158.023
-150.777
-145.882
-142.431
-139.927
-138.077
-136.698
-135.674
-134.926
-134.404
-134.073
-133.912
-193.734
-181.526
-169.425
-160.164
-153.455
-148.597
-145.029
-142.372
-140.373
-138.865
-137.734
-136.902
-136.318
-135.946
-135.765
-181.549
-175.331
-167.549
-160.529
-154.846
-150.413
-146.992
-144.357
-142.327
-140.768
-139.583
-138.704
-138.082
-137.684
-137.49
-173.713
-170.22
-165.14
-159.964
-155.365
-151.525
-148.409
-145.92
-143.951
-142.408
-141.218
-140.325
-139.688
-139.279
-139.079
-168.333
-166.207
-162.797
-158.995
-155.356
-152.13
-149.389
-147.12
-145.276
-143.801
-142.645
-141.767
-141.135
-140.727
-140.526
-164.46
-163.083
-160.723
-157.912
-155.057
-152.395
-150.04
-148.024
-146.342
-144.969
-143.876
-143.035
-142.425
-142.028
-141.833
-161.575
-160.64
-158.96
-156.858
-154.621
-152.446
-150.452
-148.694
-147.191
-145.94
-144.929
-144.142
-143.565
-143.188
-143.002
-159.369
-158.713
-157.487
-155.895
-154.138
-152.37
-150.698
-149.185
-147.864
-146.743
-145.823
-145.1
-144.566
-144.214
-144.039
-157.651
-157.178
-156.266
-155.046
-153.659
-152.224
-150.831
-149.542
-148.393
-147.403
-146.58
-145.925
-145.437
-145.114
-144.953
-156.292
-155.945
-155.256
-154.312
-153.212
-152.047
-150.891
-149.8
-148.811
-147.945
-147.216
-146.631
-146.192
-145.9
-145.754
-155.205
-154.948
-154.421
-153.684
-152.807
-151.86
-150.903
-149.985
-149.139
-148.39
-147.751
-147.234
-146.843
-146.582
-146.451
-154.327
-154.136
-153.73
-153.15
-152.449
-151.679
-150.888
-150.117
-149.399
-148.754
-148.2
-147.747
-147.403
-147.171
-147.055
-153.614
-153.472
-153.156
-152.698
-152.136
-151.509
-150.856
-150.212
-149.604
-149.053
-148.576
-148.182
-147.882
-147.679
-147.577
-153.03
-152.925
-152.68
-152.317
-151.865
-151.354
-150.816
-150.279
-149.767
-149.3
-148.89
-148.551
-148.291
-148.114
-148.025
-152.549
-152.474
-152.284
-151.996
-151.632
-151.216
-150.773
-150.327
-149.898
-149.502
-149.154
-148.863
-148.639
-148.487
-148.41
-152.152
-152.1
-151.953
-151.725
-151.432
-151.094
-150.73
-150.361
-150.003
-149.67
-149.375
-149.127
-148.936
-148.805
-148.739
-151.823
-151.789
-151.677
-151.497
-151.262
-150.988
-150.69
-150.385
-150.087
-149.809
-149.56
-149.351
-149.188
-149.077
-149.02
-151.549
-151.529
-151.445
-151.304
-151.117
-150.896
-150.653
-150.402
-150.156
-149.924
-149.716
-149.54
-149.402
-149.308
-149.261
-151.32
-151.312
-151.251
-151.142
-150.994
-150.816
-150.619
-150.414
-150.212
-150.02
-149.847
-149.7
-149.585
-149.506
-149.466
-151.128
-151.13
-151.087
-151.004
-150.889
-150.748
-150.589
-150.423
-150.258
-150.1
-149.957
-149.836
-149.74
-149.674
-149.641
-150.966
-150.976
-150.948
-150.887
-150.799
-150.688
-150.562
-150.429
-150.296
-150.168
-150.051
-149.951
-149.872
-149.818
-149.79
-150.829
-150.845
-150.83
-150.788
-150.722
-150.637
-150.539
-150.434
-150.328
-150.225
-150.131
-150.05
-149.985
-149.941
-149.919
-150.712
-150.734
-150.73
-150.703
-150.656
-150.593
-150.518
-150.437
-150.355
-150.274
-150.199
-150.134
-150.083
-150.047
-150.029
-150.611
-150.637
-150.643
-150.629
-150.599
-150.555
-150.5
-150.44
-150.377
-150.316
-150.258
-150.207
-150.167
-150.139
-150.125
-150.523
-150.554
-150.567
-150.564
-150.549
-150.521
-150.484
-150.442
-150.397
-150.352
-150.309
-150.271
-150.241
-150.22
-150.209
-150.445
-150.479
-150.5
-150.507
-150.504
-150.491
-150.47
-150.444
-150.415
-150.384
-150.355
-150.328
-150.307
-150.291
-150.284
-150.375
-150.412
-150.439
-150.456
-150.464
-150.464
-150.457
-150.445
-150.431
-150.414
-150.396
-150.379
-150.365
-150.356