/*--------------------------------*- C++ -*----------------------------------*\
| =========                 |                                                 |
| \\      /  F ield         | OpenFOAM: The Open Source CFD Toolbox           |
|  \\    /   O peration     | Version:  5.x                                   |
|   \\  /    A nd           | Web:      www.OpenFOAM.org                      |
|    \\/     M anipulation  |                                                 |
\*---------------------------------------------------------------------------*/
FoamFile
{
    version     2.0;
    format      ascii;
    class       volScalarField;
    location    "14";
    object      gradTy;
}
// * * * * * * * * * * * * * * * * * * * * * * * * * * * * * * * * * * * * * //

dimensions      [0 -1 0 1 0 0 0];

internalField   nonuniform List<scalar> 
6300
(
1014.33
1042.93
1071.41
1099.68
1127.64
1155.22
1182.32
1208.87
1234.79
1259.98
1284.38
1307.92
1330.53
1352.16
1372.77
0.0635005
0.190506
0.317495
0.44437
0.57091
0.696693
0.821024
0.942858
1.06072
1.17263
1.27614
1.36832
1.44597
1.50588
1.54515
0.105828
0.317515
0.52926
0.740968
0.952335
1.16274
1.37112
1.57582
1.77443
1.96369
2.13943
2.29661
2.42959
2.53261
2.60045
0.148122
0.444461
0.741045
1.03788
1.33468
1.63077
1.92485
2.2148
2.49742
2.76821
3.02121
3.24902
3.4431
3.59447
3.69481
0.190309
0.571142
0.95256
1.33477
1.71769
2.10075
2.48264
2.86103
3.23216
3.59044
3.9281
4.23507
4.49922
4.7073
4.84657
0.232278
0.697214
1.16324
1.63091
2.1005
2.57181
3.04385
3.51443
3.97964
4.43315
4.86554
5.26378
5.61123
5.88873
6.07696
0.273863
0.822176
1.37223
1.92506
2.48153
3.04207
3.60641
4.17309
4.73869
5.29684
5.83698
6.34309
6.79301
7.15921
7.41214
0.314846
0.945366
1.57837
2.21551
2.85839
3.5084
4.1665
4.83267
5.505
6.17834
6.84222
7.47832
8.05818
8.54263
8.8856
0.354988
1.06603
1.78032
2.50015
3.228
3.96652
4.71838
5.4859
6.2701
7.06907
7.87493
8.66945
9.41838
10.0671
10.5426
0.394051
1.18342
1.97666
2.77669
3.58685
4.41117
5.25445
6.12223
7.02019
7.95259
8.91865
9.90574
10.8784
11.7643
12.4472
0.431836
1.29688
2.16617
3.04299
3.93141
4.83669
5.76583
6.72814
7.73556
8.8021
9.94091
11.156
12.4245
13.6642
14.6948
0.468236
1.40605
2.34805
3.29759
4.25897
5.23817
6.24382
7.28866
8.39145
9.57893
10.8864
12.3525
13.9989
15.7726
17.4297
0.503276
1.51099
2.52233
3.54022
4.56856
5.613
6.68236
7.79091
8.96229
10.2354
11.6726
13.3684
15.4454
17.9971
20.8517
0.537136
1.61225
2.68996
3.77229
4.86189
5.96272
7.08142
8.23001
9.431
10.7272
12.1999
14.0024
16.4168
19.9179
25.0536
0.570135
1.71085
2.85288
3.99697
5.14382
6.29433
7.4503
8.61634
9.80413
11.042
12.3967
14.0243
16.3006
20.2033
28.6356
1390.71
1406.27
1421.1
1435.21
1448.6
1461.31
1473.36
1484.79
1495.63
1505.93
1515.73
1525.09
1534.05
1542.65
1550.96
1559.01
1566.86
1574.55
1582.13
1589.64
1597.13
1604.63
1612.19
1619.84
1627.61
1635.53
1643.63
1651.91
1660.4
1669.11
1678.04
1687.18
1696.54
1706.11
1715.87
1725.81
1735.92
1746.16
1756.52
1766.98
1777.49
1788.04
1798.58
1809.07
1819.49
1829.79
1839.93
1849.88
1859.62
1869.09
1878.28
1887.15
1895.67
1903.81
1911.52
1918.78
1925.53
1931.75
1937.37
1942.37
1946.68
1950.26
1953.05
1955.02
1956.09
1956.21
1955.31
1953.31
1950.14
1945.7
1939.91
1932.66
1923.83
1913.32
1901.01
1886.77
1870.47
1851.97
1831.15
1807.87
1781.99
1753.38
1721.91
1687.47
1649.94
1609.26
1565.33
1518.14
1467.67
1413.93
1.56024
1.55745
1.53809
1.50274
1.45249
1.38885
1.31362
1.22876
1.13622
1.03785
0.935367
0.830254
0.723797
0.617079
0.511006
0.40635
0.303787
0.203946
0.107447
0.0149407
-0.0728612
-0.155172
-0.231127
-0.299804
-0.360263
-0.411612
-0.453095
-0.484179
-0.504641
-0.514626
-0.514637
-0.505472
-0.488076
-0.463361
-0.432028
-0.394453
-0.350676
-0.300505
-0.243719
-0.180311
-0.110708
-0.0359009
0.0425752
0.122816
0.202847
0.280984
0.356136
0.428005
0.497115
0.56468
0.63236
0.701934
0.77499
0.852656
0.935464
1.02334
1.11574
1.21194
1.31131
1.41362
1.51919
1.62903
1.74469
1.86817
2.00163
2.14715
2.3065
2.48092
2.67103
2.8768
3.09766
3.33264
3.58055
3.8401
4.11
4.38887
4.67506
4.96648
5.2603
5.55266
5.83856
6.11169
6.36458
6.58881
6.77548
6.91576
7.00169
7.02683
6.98698
6.88063
2.62675
2.62218
2.58906
2.52842
2.44225
2.33332
2.20485
2.06031
1.90311
1.73646
1.56326
1.38602
1.20687
1.02755
0.849533
0.674024
0.502084
0.33469
0.172818
0.017508
-0.130084
-0.268646
-0.396708
-0.512664
-0.614845
-0.701631
-0.771613
-0.823767
-0.857642
-0.873477
-0.872232
-0.855455
-0.825013
-0.782705
-0.729881
-0.667184
-0.594514
-0.511233
-0.416584
-0.310209
-0.192621
-0.0654978
0.0683232
0.205189
0.341253
0.473209
0.598938
0.717892
0.831148
0.94113
1.0511
1.16455
1.28451
1.41311
1.55123
1.69852
1.85368
2.015
2.18099
2.35094
2.52532
2.70588
2.8955
3.09785
3.31696
3.55669
3.82029
4.11001
4.42688
4.77074
5.14038
5.53391
5.94911
6.38379
6.83586
7.30324
7.78361
8.27388
8.76973
9.26504
9.75159
10.2188
10.6537
11.0416
11.3667
11.6133
11.7667
11.8154
11.7514
11.5718
3.73413
3.72789
3.67953
3.59072
3.46468
3.3058
3.11915
2.91001
2.68354
2.44446
2.19695
1.94455
1.69017
1.43618
1.18446
0.936583
0.69386
0.457515
0.22878
0.00900216
-0.200263
-0.397192
-0.579667
-0.745303
-0.891534
-1.01579
-1.11574
-1.18961
-1.23655
-1.25686
-1.25213
-1.22505
-1.17898
-1.11713
-1.04189
-0.954224
-0.85358
-0.738279
-0.606288
-0.456208
-0.288218
-0.104694
0.0897297
0.288758
0.485611
0.674434
0.851522
1.01601
1.16992
1.31761
1.46488
1.61779
1.78162
1.95987
2.15382
2.3624
2.58278
2.81136
3.04496
3.28189
3.52257
3.7697
4.02797
4.3034
4.60259
4.93186
5.29647
5.69998
6.14387
6.62754
7.14868
7.70392
8.2896
8.9024
9.53959
10.1989
10.8778
11.5732
12.2798
12.99
13.6924
14.3722
15.0103
15.5847
16.0711
16.4447
16.6826
16.7659
16.6819
16.4257
4.90197
4.89426
4.82827
4.70665
4.53443
4.31832
4.06586
3.78474
3.48219
3.16472
2.83783
2.50609
2.1731
1.84171
1.51408
1.19194
0.876686
0.569627
0.272096
-0.0143764
-0.287929
-0.546264
-0.786581
-1.00558
-1.19956
-1.36462
-1.49707
-1.59392
-1.65347
-1.67596
-1.66384
-1.62167
-1.5553
-1.4705
-1.37145
-1.2596
-1.1334
-0.989014
-0.821694
-0.627653
-0.405841
-0.159238
0.104852
0.375806
0.641875
0.892898
1.12259
1.3297
1.51797
1.69505
1.87085
2.05567
2.25828
2.48439
2.73569
3.00962
3.30041
3.60082
3.90449
4.20777
4.51085
4.81782
5.13605
5.47505
5.84522
6.25647
6.71696
7.2321
7.80386
8.43068
9.10817
9.83037
10.5913
11.3861
12.2117
13.0664
13.9487
14.8564
15.7851
16.7261
17.6661
18.5856
19.4589
20.2547
20.9378
21.4715
21.8212
21.9574
21.8602
21.5216
6.15322
6.1443
6.05686
5.89517
5.66711
5.38288
5.05356
4.69
4.30207
3.89824
3.48546
3.06918
2.65355
2.24163
1.83564
1.43721
1.04758
0.667895
0.299375
-0.0564614
-0.397601
-0.721363
-1.02426
-1.30195
-1.54927
-1.76047
-1.92973
-2.05195
-2.12381
-2.14494
-2.11887
-2.05318
-1.95819
-1.84444
-1.71951
-1.5857
-1.4395
-1.27285
-1.07567
-0.839193
-0.559276
-0.239086
0.109958
0.469748
0.819653
1.14192
1.42599
1.67034
1.88193
2.0741
2.26364
2.4677
2.70085
2.97243
3.28471
3.63235
4.00393
4.38536
4.7643
5.13367
5.49324
5.84944
6.2139
6.60152
7.02839
7.50982
8.05842
8.68237
9.38421
10.1605
11.0029
11.9007
12.8437
13.8251
14.8417
15.8935
16.9824
18.1091
19.2718
20.4633
21.6688
22.865
24.0184
25.0863
26.0189
26.7629
27.2664
27.4845
27.3855
26.9561
7.51689
7.50712
7.39207
7.17892
6.88037
6.51204
6.0902
5.62996
5.14443
4.64426
4.13772
3.63094
3.12828
2.63268
2.14602
1.6695
1.20388
0.749827
0.308146
-0.119936
-0.532506
-0.926698
-1.29844
-1.64224
-1.95114
-2.21685
-2.43027
-2.58266
-2.66732
-2.68199
-2.63112
-2.527
-2.38823
-2.23465
-2.08052
-1.9298
-1.77523
-1.60082
-1.38645
-1.1135
-0.77095
-0.360747
0.0993122
0.577628
1.03692
1.44563
1.78626
2.05778
2.2735
2.45657
2.63509
2.83741
3.08764
3.40143
3.78235
4.22016
4.6928
5.173
5.63741
6.07316
6.47997
6.86863
7.25786
7.67088
8.1324
8.66587
9.29076
10.0198
10.8567
11.7945
12.8173
13.905
15.0403
16.2127
17.42
18.6667
19.9606
21.3091
22.7163
24.1791
25.6841
27.205
28.6999
30.1117
31.3706
32.3995
33.1214
33.4671
33.3853
32.853
9.03135
9.02109
8.86809
8.58521
8.19364
7.71787
7.1817
6.60595
6.00743
5.39899
4.78985
4.18633
3.59243
3.01043
2.44143
1.88572
1.34318
0.813619
0.297031
-0.206033
-0.694145
-1.16462
-1.61307
-2.03301
-2.41543
-2.7487
-3.0189
-3.21107
-3.31181
-3.31362
-3.22022
-3.05093
-2.8398
-2.62585
-2.43686
-2.27968
-2.13974
-1.98659
-1.78184
-1.48832
-1.08034
-0.554534
0.0620121
0.712521
1.3266
1.84695
2.24558
2.52515
2.71164
2.84513
2.97181
3.13763
3.38238
3.73323
4.19752
4.75723
5.37017
5.9828
6.55117
7.0537
7.4922
7.88638
8.26691
8.66975
9.13214
9.68954
10.3723
11.2014
12.1832
13.3052
14.5372
15.8402
17.1826
18.5489
19.9407
21.3711
22.8591
24.4237
26.0798
27.8329
29.6756
31.5812
33.4999
35.356
37.052
38.4771
39.5169
40.0638
40.0327
39.3804
10.7509
10.7401
10.5307
10.1476
9.62782
9.01041
8.33008
7.61463
6.88471
6.15469
5.43389
4.72787
4.03944
3.36951
2.71775
2.08305
1.46392
0.858851
0.266591
-0.313486
-0.880995
-1.43403
-1.96854
-2.47754
-2.95022
-3.37111
-3.71963
-3.97082
-4.09847
-4.08206
-3.91834
-3.63481
-3.29517
-2.98083
-2.74714
-2.60446
-2.52303
-2.44641
-2.30478
-2.02766
-1.55918
-0.87876
-0.0240024
0.900032
1.75141
2.42367
2.87648
3.12667
3.22625
3.24366
3.25238
3.32437
3.5245
3.90182
4.4754
5.21775
6.04808
6.85639
7.55983
8.12648
8.56829
8.92385
9.24393
9.58294
9.99514
10.5328
11.2432
12.1631
13.3076
14.6576
16.1547
17.7186
19.2901
20.8485
22.4056
23.9924
25.6469
27.4066
29.303
31.3576
33.5759
35.9384
38.3895
40.8304
43.123
45.1092
46.6215
47.4923
47.5742
46.7793
12.7584
12.7448
12.4432
11.9065
11.2023
10.3933
9.5289
8.64416
7.76229
6.89733
6.05694
5.2444
4.46014
3.7028
2.9699
2.25836
1.56486
0.886107
0.219107
-0.438518
-1.08814
-1.72955
-2.36015
-2.97376
-3.55897
-4.09709
-4.55984
-4.90781
-5.0919
-5.06194
-4.78832
-4.29882
-3.71347
-3.21902
-2.92573
-2.8404
-2.89877
-2.99919
-3.02219
-2.84192
-2.34253
-1.45339
-0.209157
1.19276
2.43475
3.31696
3.79971
3.94563
3.8597
3.6553
3.44246
3.32724
3.41215
3.78843
4.51091
5.5522
6.7583
7.88161
8.76603
9.37961
9.76913
10.013
10.1943
10.3913
10.6782
11.1277
11.8131
12.8019
14.1366
15.7989
17.6764
19.5866
21.4171
23.1502
24.8281
26.5164
28.2838
30.1928
32.2986
34.6468
37.269
40.1679
43.294
46.5184
49.6353
52.4235
54.65
56.0568
56.3783
55.4172
15.1923
15.1637
14.6939
13.9062
12.9274
11.8556
10.7563
9.6689
8.6148
7.60393
6.63925
5.71961
4.84155
4.00039
3.19081
2.40726
1.64415
0.896046
0.157763
-0.575406
-1.30741
-2.04093
-2.7765
-3.51109
-4.23573
-4.93178
-5.56549
-6.08095
-6.39372
-6.39284
-5.96934
-5.10102
-4.00104
-3.16777
-2.80505
-2.86961
-3.21418
-3.66374
-4.03259
-4.11601
-3.68747
-2.53972
-0.621766
1.71537
3.63567
4.78501
5.20745
5.09794
4.66317
4.07844
3.49131
3.04126
2.8796
3.17587
4.08666
5.64867
7.58701
9.25008
10.3615
10.9546
11.179
11.1914
11.121
11.0696
11.1261
11.3821
11.9451
12.9419
14.4927
16.6295
19.15
21.5682
23.6833
25.5305
27.2342
28.9255
30.7152
32.6945
34.9435
37.5402
40.5619
44.0689
48.0552
52.3594
56.6193
60.5448
63.8569
66.1824
67.0273
65.9054
18.3183
18.2172
17.4018
16.1804
14.7858
13.3571
11.9662
10.6453
9.40468
8.24368
7.15639
6.13465
5.16958
4.25228
3.37405
2.52655
1.70172
0.891744
0.0889937
-0.714006
-1.52451
-2.34931
-3.19419
-4.06266
-4.95353
-5.8561
-6.74127
-7.54575
-8.14697
-8.33212
-7.79067
-6.23663
-3.90446
-2.43885
-2.06907
-2.49557
-3.37835
-4.44441
-5.45391
-6.12721
-6.06799
-4.73506
-1.638
2.8381
5.94655
7.29954
7.38091
6.71837
5.68238
4.50486
3.34259
2.33983
1.68747
1.67824
2.72446
5.20301
8.81183
11.4125
12.7031
13.0601
12.8935
12.4889
12.0198
11.5921
11.2865
11.1938
11.4523
12.2837
14.0045
16.907
20.7706
23.9855
26.3346
28.1166
29.6575
31.192
32.873
34.8069
37.0869
39.8209
43.1548
47.2785
52.3575
58.2631
64.0835
69.5479
74.4832
78.4385
80.5067
79.4113
22.7525
22.298
20.6935
18.7032
16.6926
14.8034
13.0749
11.5058
10.0797
8.77718
7.57905
6.46804
5.42886
4.44794
3.51314
2.61332
1.73805
0.877232
0.0208084
-0.841542
-1.72072
-2.62847
-3.57755
-4.58159
-5.65405
-6.80502
-8.03274
-9.30271
-10.4988
-11.3171
-11.0696
-8.49226
-2.55966
-0.131626
-0.186152
-1.46417
-3.27826
-5.30613
-7.35889
-9.19274
-10.2821
-9.47029
-4.63968
5.93043
10.7853
11.6452
10.6256
8.87656
6.90549
4.90947
2.96439
1.13413
-0.430468
-1.3389
-0.699979
3.12998
11.4884
15.4615
16.389
15.9195
14.9507
13.8795
12.8588
11.939
11.1402
10.5002
10.1344
10.3448
11.815
15.8003
23.3252
27.6494
29.8024
31.0494
32.0898
33.2473
34.666
36.4205
38.5763
41.237
44.6099
49.1117
55.4689
64.2885
72.0595
79.3118
86.5192
93.4109
98.5404
98.6284
30.3283
28.0343
24.5399
21.2543
18.4241
16.0173
13.9537
12.1594
10.5763
9.15977
7.87574
6.69754
5.60379
4.57681
3.60149
2.66444
1.7533
0.856147
-0.0390483
-0.945021
-1.87592
-2.84819
-3.88183
-5.00202
-6.2415
-7.64333
-9.26323
-11.1659
-13.3945
-15.8366
-17.7032
-15.5793
3.8316
5.7503
3.45839
0.339044
-2.87042
-6.13201
-9.57905
-13.3302
-17.2338
-19.9925
-15.9063
17.2522
21.3763
18.6967
14.9199
11.354
8.16398
5.24028
2.42043
-0.454476
-3.49355
-6.58447
-8.71978
-5.4645
20.4794
23.8951
22.0858
19.4972
17.1545
15.1966
13.552
12.1112
10.7645
9.41113
7.98639
6.5912
6.00314
9.59583
30.488
34.4389
34.5736
34.2786
34.3523
34.9254
35.9743
37.4551
39.3371
41.6264
44.4381
48.2717
55.033
71.8219
80.7804
89.1384
99.0075
110.918
123.831
131.552
48.1112
35.4983
28.0847
23.1489
19.5452
16.7366
14.4441
12.5087
10.8326
9.35132
8.01985
6.80531
5.68249
4.63124
3.63474
2.6783
1.74849
0.832359
-0.0832302
-1.01242
-1.9713
-2.97929
-4.06115
-5.25034
-6.59474
-8.16717
-10.0861
-12.559
-15.9819
-21.1842
-30.0823
-47.559
35.4117
17.6954
8.29445
2.27215
-2.38722
-6.69044
-11.3607
-17.2474
-25.8334
-40.3702
-69.0364
70.3831
41.7639
27.3277
18.9104
13.2897
9.03897
5.42158
1.95591
-1.80642
-6.48158
-13.2057
-24.5015
-46.7302
61.9107
39.8524
28.9043
22.7203
18.804
16.0624
13.9515
12.1476
10.3985
8.42486
5.79592
1.6755
-5.82881
-21.5198
62.0457
46.7231
39.9627
36.9764
35.8953
35.9175
36.6603
37.9113
39.5109
41.2628
42.794
43.2151
40.1564
90.6297
90.3647
96.7874
108.554
126.981
156.595
208.992
1351.28
1278.44
1201.29
1120.1
1035.14
946.73
855.214
760.935
664.241
565.477
464.982
363.086
260.11
156.37
52.174
6.69203
6.39911
6.03105
5.60297
5.13113
4.63114
4.11664
3.59857
3.08489
2.58068
2.08846
1.60867
1.14009
0.680317
0.226135
11.2501
10.7486
10.1184
9.3869
8.58321
7.73475
6.86511
5.99282
5.13103
4.28785
3.46699
2.66866
1.89036
1.12764
0.374762
15.9587
15.2266
14.3069
13.243
12.08
10.8595
9.61624
8.37659
7.15858
5.97266
4.82295
3.70857
2.62501
1.5651
0.520019
20.89
19.8919
18.6394
17.198
15.6342
14.007
12.3637
10.7387
9.15405
7.62128
6.14353
4.71764
3.33594
1.98769
0.660217
26.1296
24.8112
23.1602
21.2751
19.2514
17.1701
15.0926
13.0603
11.0976
9.21486
7.41223
5.68248
4.01337
2.38947
0.793363
31.785
30.0623
27.9143
25.49
22.9255
20.3289
17.7757
15.3121
12.961
10.7283
8.60802
6.58664
4.64558
2.76342
0.917126
37.997
35.7377
32.944
29.8442
26.6311
23.4436
20.3685
17.4508
14.7056
12.129
9.70489
7.41044
5.21885
3.10148
1.02885
44.9585
41.9471
38.2793
34.3113
30.3107
26.4456
22.8035
19.4162
16.2811
13.3768
10.672
8.1313
5.71787
3.39479
1.12562
52.945
48.8127
43.9147
38.8106
33.8545
29.2245
24.9836
21.1289
17.6254
14.4246
11.4747
8.72478
6.12646
3.63415
1.20448
62.3648
56.4424
49.7548
43.1607
37.071
31.6139
26.7771
22.4902
18.6666
15.2213
12.0773
9.16649
6.42896
3.81082
1.2626
73.8429
64.8356
55.4999
47.0054
39.6536
33.3821
28.02
23.3877
19.3291
15.7163
12.4463
9.43483
6.61198
3.91753
1.29768
88.253
73.5565
60.403
49.7069
41.1551
34.2405
28.5325
23.711
19.5452
15.8684
12.5564
9.5144
6.66651
3.94956
1.30827
106.038
80.7326
62.8477
50.2628
41.0184
33.8917
28.1581
23.3778
19.2721
15.6551
12.3964
9.3997
6.59001
3.90587
1.29407
121.294
80.4852
59.9912
47.477
38.7628
32.1493
26.8297
22.3695
18.5097
15.0831
11.9742
9.09785
6.38787
3.78976
1.25621
0.599979
1.80005
3.00031
4.20031
5.39873
6.59296
7.77878
8.95031
10.1011
11.228
12.3416
13.4931
14.8394
16.8029
20.464
0.627001
1.88094
3.13441
4.38616
5.6333
6.87026
8.08723
9.26793
10.3863
11.4016
12.2513
12.8346
12.9573
12.0861
8.16511
0.654053
1.9621
3.26965
4.57512
5.8748
7.16123
8.42063
9.62856
10.7426
11.69
12.3458
12.4954
11.7651
9.48689
4.48343
0.681129
2.04358
3.40625
4.76799
6.12536
7.4708
8.78951
10.0541
11.2145
12.1806
12.7915
12.7669
11.6476
8.77978
3.55403
0.708059
2.12486
3.54342
4.9638
6.38407
7.79872
9.19576
10.5516
11.8209
12.9176
13.6782
13.7981
12.7441
9.70991
3.9317
0.734498
2.20488
3.67925
5.15956
6.64653
8.13864
9.63037
11.1089
12.547
13.8877
15.0091
15.6445
15.2152
12.5454
5.75731
0.759953
2.28209
3.81088
5.3506
6.90526
8.47859
10.0739
11.6939
13.3404
15.0098
16.677
18.2298
19.2418
18.2405
10.8651
0.783841
2.35463
3.93485
5.53113
7.15088
8.80305
10.4998
12.2603
14.1175
16.1332
18.4238
21.1904
24.6659
28.3614
25.9412
0.805552
2.42058
4.04757
5.69526
7.37383
9.09631
10.8813
12.759
14.784
17.0655
19.8394
23.6581
29.9366
42.7286
75.3654
0.824519
2.47815
4.14582
5.83782
7.56614
9.34592
11.1981
13.1551
15.2721
17.6553
20.5288
24.4169
30.6833
43.3134
75.5977
0.840276
2.52592
4.22708
5.95502
7.72254
9.54501
11.4419
13.4395
15.575
17.9043
20.5131
23.5233
27.0099
30.2483
26.7157
0.852478
2.56284
4.28964
6.0446
7.84062
9.69218
11.6155
13.6278
15.7429
17.9588
20.218
22.2984
23.5081
21.8844
12.4851
0.860905
2.58828
4.33254
6.10553
7.91994
9.78926
11.7271
13.7442
15.8405
17.9826
20.0466
21.6775
21.9735
18.9195
9.06721
0.865446
2.60193
4.35537
6.13755
7.96094
9.83856
11.7833
13.8053
15.9058
18.0602
20.1755
21.9832
22.7645
20.6752
11.4006
0.866079
2.60375
4.35813
6.14082
7.96409
9.84103
11.7854
13.8115
15.9334
18.1643
20.5174
23.001
25.5485
27.4202
23.127
0.862861
2.59392
4.34113
6.11575
7.92978
9.79639
11.7306
13.7509
15.8848
18.1833
20.7682
23.9739
28.8012
38.4457
63.9924
0.855919
2.57281
4.305
6.06317
7.85879
9.70458
11.6155
13.6112
15.7214
18.0031
20.5873
23.8201
28.7078
38.4271
64.009
0.845447
2.54102
4.25073
5.98447
7.75276
9.56728
11.4414
13.3914
15.4385
17.6124
19.9553
22.5166
25.2583
27.3918
23.2241
0.831708
2.49934
4.1797
5.88163
7.61447
9.38835
11.2143
13.1039
15.0673
17.1038
19.1713
21.0872
22.2304
20.7318
11.8
0.815026
2.44876
4.0936
5.75719
7.44752
9.17305
10.9427
12.7649
14.6449
16.5732
18.4922
20.1939
21.0367
19.2333
10.5618
0.79577
2.39041
3.99439
5.61405
7.25595
8.92693
10.6342
12.3855
14.1885
16.0488
17.9634
19.8966
21.68
22.5039
17.9706
0.774343
2.32552
3.8842
5.45535
7.04403
8.65538
10.295
11.97
13.6919
15.4862
17.4213
19.703
22.9891
29.4943
47.19
0.751165
2.25539
3.76525
5.28437
6.8162
8.36397
9.93099
11.5216
13.1449
14.8255
16.638
18.8114
22.0621
28.7129
46.8522
0.726658
2.18129
3.63979
5.10446
6.57714
8.05901
9.55032
11.0503
12.5577
14.0729
15.6036
17.1713
18.7734
19.9528
16.7958
0.70122
2.10446
3.50997
4.91887
6.33157
7.74732
9.1634
10.5736
11.9648
13.3093
14.5431
15.507
15.7778
14.2036
7.87426
0.675215
2.026
3.37773
4.73054
6.08374
7.43523
8.78036
10.1097
11.4041
12.6222
13.6696
14.3238
14.063
11.7564
5.49361
0.648946
1.94685
3.24466
4.54183
5.83699
7.1274
8.40806
9.66993
10.8962
12.0533
13.069
13.7758
13.7685
12.0562
6.39371
0.622652
1.86773
3.11198
4.35443
5.59341
6.8262
8.04864
9.25467
10.436
11.5824
12.6824
13.7235
14.6576
15.0989
12.2416
0.596506
1.78913
2.98048
4.16936
5.35402
6.53205
7.70044
8.85634
9.99995
11.1433
12.3366
13.7452
15.8888
20.432
33.1071
0.570617
1.71138
2.85065
3.98712
5.11911
6.24445
7.36074
8.46635
9.56383
10.6695
11.841
13.2562
15.4532
20.1174
32.9887
0.545043
1.63464
2.72269
3.80793
4.88873
5.96302
7.02828
8.08182
9.12182
10.1498
11.1758
12.2239
13.304
14.1032
11.8581
0.519797
1.55893
2.59663
3.63174
4.66277
5.68774
6.7038
7.70653
8.68797
9.63124
10.495
11.1692
11.3497
10.2027
5.63794
0.49486
1.48419
2.47233
3.45832
4.44095
5.41853
6.38844
7.34584
8.28046
9.16772
9.94564
10.457
10.3172
8.67529
4.07816
0.470179
1.41026
2.34947
3.28716
4.22254
5.15456
6.08163
7.00083
7.90566
8.77993
9.58123
10.1967
10.3275
9.19999
4.98996
0.445685
1.33689
2.22762
3.11754
4.00638
4.89391
5.78018
6.66567
7.55193
8.44265
9.34564
10.273
11.2116
11.8651
9.90853
0.421293
1.26384
2.10628
2.94863
3.79104
4.63406
5.47914
6.32985
7.19497
8.09671
9.09295
10.3412
12.2933
16.3427
27.23
0.396922
1.19084
1.98498
2.77961
3.5752
4.37269
5.1741
5.98388
6.81244
7.68499
8.66509
9.92032
11.9184
16.0713
27.1276
0.372496
1.11765
1.8633
2.60988
3.35798
4.10853
4.86312
5.62474
6.39924
7.19847
8.04602
8.98341
10.0469
11.0057
9.57627
0.347953
1.04409
1.74095
2.43905
3.139
3.84148
4.54718
5.25655
5.96874
6.67826
7.3644
7.95877
8.24788
7.59829
4.33252
0.32324
0.97002
1.6177
2.2669
2.91822
3.57212
4.2286
4.8863
5.53999
6.17417
6.74638
7.14596
7.10061
6.00756
2.83817
0.298314
0.895303
1.49337
2.09325
2.69559
3.3009
3.90911
4.51873
5.12468
5.71299
6.24811
6.64202
6.68078
5.85862
3.0847
0.273133
0.819819
1.36777
1.91784
2.47087
3.02761
3.58858
4.15365
4.72152
5.28866
5.8478
6.38459
6.8587
7.06497
5.68917
0.247656
0.743444
1.24067
1.74034
2.24352
2.75135
3.26512
3.78656
4.31881
4.86979
5.4629
6.17061
7.2225
9.36986
15.2397
0.221845
0.666058
1.11186
1.56039
2.01291
2.47091
2.93628
3.41189
3.90302
4.42162
4.99831
5.71752
6.82546
9.0895
15.1371
0.195669
0.587558
0.981137
1.37764
1.77846
2.1853
2.60029
3.02638
3.46809
3.93303
4.43467
4.99439
5.62545
6.18151
5.36234
0.169105
0.507878
0.848372
1.19186
1.53982
1.89401
2.25655
2.62998
3.01697
3.41892
3.83062
4.22164
4.47744
4.22846
2.46626
0.14215
0.426995
0.713516
1.00297
1.29684
1.59689
1.90521
2.22411
2.5554
2.89801
3.24086
3.54275
3.67991
3.32618
1.77177
0.114814
0.344942
0.576613
0.811011
1.04956
1.294
1.54651
1.80962
2.08594
2.37689
2.67952
2.97821
3.22322
3.25769
2.45858
0.0871303
0.261813
0.43781
0.616161
0.798162
0.9855
1.18042
1.38595
1.60629
1.84765
2.12087
2.45091
2.91271
3.76805
6.00513
0.0591527
0.17777
0.297371
0.418773
0.543058
0.671729
0.806954
0.951985
1.11204
1.29627
1.52274
1.83211
2.3289
3.31883
5.82532
0.0309584
0.0930444
0.155681
0.219382
0.284907
0.353407
0.426673
0.507585
0.601001
0.715558
0.867031
1.08317
1.40261
1.81643
1.85651
0.00264715
0.00793806
0.0132539
0.0187306
0.024696
0.0317809
0.0410891
0.0545048
0.07529
0.109225
0.166424
0.262496
0.410797
0.573554
0.49403
-0.0256607
-0.0771822
-0.129279
-0.182252
-0.236282
-0.291377
-0.347334
-0.403678
-0.459535
-0.513238
-0.561156
-0.594426
-0.591035
-0.501053
-0.237522
-0.0538281
-0.161898
-0.271195
-0.38249
-0.496503
-0.613916
-0.735465
-0.862175
-0.995825
-1.13968
-1.29887
-1.47677
-1.65296
-1.69615
-1.11594
-0.0817061
-0.245756
-0.411712
-0.580826
-0.754342
-0.933555
-1.11998
-1.31582
-1.52498
-1.75544
-2.02355
-2.36023
-2.8072
-3.32408
-3.14132
-0.109139
-0.328282
-0.550022
-0.776085
-1.0082
-1.24815
-1.49793
-1.76015
-2.03931
-2.34498
-2.70053
-3.16703
-3.91278
-5.43778
-9.40265
-0.135966
-0.408996
-0.685315
-0.967117
-1.25659
-1.55589
-1.86718
-2.19268
-2.53516
-2.8998
-3.30039
-3.77981
-4.47711
-5.85697
-9.56345
-0.162029
-0.487414
-0.816782
-1.1528
-1.49811
-1.85527
-2.22652
-2.61334
-3.01556
-3.42958
-3.84542
-4.24117
-4.56732
-4.66027
-3.66762
-0.187167
-0.563053
-0.943611
-1.33199
-1.73137
-2.14481
-2.57497
-3.02324
-3.48767
-3.95801
-4.40429
-4.75074
-4.81934
-4.21733
-2.17627
-0.211221
-0.635433
-1.06498
-1.50352
-1.95481
-2.42268
-2.91079
-3.42185
-3.95558
-4.50306
-5.03236
-5.45315
-5.53693
-4.77363
-2.29007
-0.234042
-0.704092
-1.18009
-1.66616
-2.1667
-2.68645
-3.23058
-3.80463
-4.41384
-5.0606
-5.73565
-6.38946
-6.84263
-6.52442
-3.85978
-0.255493
-0.768606
-1.28817
-1.81872
-2.3652
-2.93321
-3.52952
-4.1629
-4.84591
-5.59837
-6.45356
-7.46494
-8.68383
-9.90452
-8.93974
-0.27546
-0.828623
-1.38859
-1.96018
-2.54868
-3.16026
-3.80263
-4.4866
-5.22965
-6.06468
-7.06284
-8.39616
-10.5236
-14.8021
-25.7658
-0.293865
-0.883896
-1.48091
-2.08984
-2.71609
-3.36585
-4.04675
-4.76916
-5.54938
-6.41756
-7.43918
-8.77573
-10.8693
-15.0567
-25.863
-0.310664
-0.9343
-1.56493
-2.20744
-2.86711
-3.54974
-4.26194
-5.01147
-5.80789
-6.66375
-7.59665
-8.62937
-9.76071
-10.7145
-9.25685
-0.325855
-0.979829
-1.64065
-2.31308
-3.00211
-3.71301
-4.4511
-5.2211
-6.02498
-6.85629
-7.68462
-8.41432
-8.77519
-8.04664
-4.49501
-0.339466
-1.02058
-1.70829
-2.40714
-3.12187
-3.85731
-4.61802
-5.40707
-6.22289
-7.05074
-7.84091
-8.4552
-8.54604
-7.33908
-3.50971
-0.351555
-1.05673
-1.76815
-2.49013
-3.22718
-3.98399
-4.76513
-5.57433
-6.41231
-7.27118
-8.11917
-8.85939
-9.21792
-8.45248
-4.73965
-0.362204
-1.08852
-1.82064
-2.56259
-3.31871
-4.09369
-4.89267
-5.72147
-6.58708
-7.49901
-8.47207
-9.52848
-10.6701
-11.6125
-9.97396
-0.371517
-1.11627
-1.86625
-2.62517
-3.39708
-4.18662
-4.99938
-5.84292
-6.72957
-7.68424
-8.7669
-10.1382
-12.2605
-16.5645
-27.9229
-0.379628
-1.14037
-1.90562
-2.67866
-3.46314
-4.26333
-5.08459
-5.9343
-6.82466
-7.78043
-8.86109
-10.2261
-12.3356
-16.6173
-27.9425
-0.386703
-1.1613
-1.93956
-2.72416
-3.51821
-4.32534
-5.14993
-5.9973
-6.8742
-7.78975
-8.75762
-9.79675
-10.902
-11.7784
-10.037
-0.392942
-1.17968
-1.96904
-2.76305
-3.56412
-4.37512
-5.19932
-6.03968
-6.89673
-7.76257
-8.60449
-9.32125
-9.6271
-8.75719
-4.86228
-0.398583
-1.1962
-1.99525
-2.79698
-3.60305
-4.41566
-5.23739
-6.07032
-6.913
-7.75183
-8.5381
-9.13092
-9.16849
-7.83648
-3.73579
-0.403903
-1.2117
-2.01956
-2.82784
-3.63738
-4.44977
-5.26757
-6.09405
-6.9318
-7.77744
-8.60586
-9.32599
-9.66078
-8.83831
-4.95013
-0.40922
-1.22713
-2.04355
-2.85776
-3.66963
-4.48004
-5.2916
-6.10983
-6.94498
-7.81483
-8.74862
-9.78849
-10.9565
-11.9689
-10.3394
-0.414894
-1.24358
-2.06901
-2.88925
-3.70284
-4.50941
-5.31088
-6.11372
-6.93392
-7.80768
-8.81753
-10.1618
-12.3602
-16.934
-28.9572
-0.421324
-1.26226
-2.09805
-2.92529
-3.74082
-4.54223
-5.32907
-6.10543
-6.88552
-7.70587
-8.65401
-9.94176
-12.114
-16.7255
-28.871
-0.428935
-1.28448
-2.13297
-2.96941
-3.78854
-4.58507
-5.3544
-6.09441
-6.80902
-7.51516
-8.25447
-9.10731
-10.1735
-11.2847
-10.046
-0.43815
-1.31158
-2.17621
-3.02547
-3.85187
-4.64669
-5.39999
-6.10087
-6.73826
-7.30126
-7.77592
-8.1245
-8.20175
-7.47545
-4.31354
-0.449345
-1.34477
-2.23006
-3.09735
-3.93705
-4.73706
-5.48184
-6.15129
-6.71899
-7.14857
-7.38476
-7.32992
-6.78781
-5.35748
-2.37623
-0.462799
-1.38496
-2.29636
-3.18832
-4.04971
-4.86567
-5.61588
-6.27224
-6.79549
-7.13002
-7.19553
-6.87358
-5.99052
-4.31643
-1.66886
-0.478631
-1.43259
-2.37611
-3.30044
-4.19382
-5.03983
-5.81497
-6.48549
-7.00289
-7.29814
-7.27518
-6.80677
-5.74241
-3.95132
-1.44073
-0.496744
-1.48743
-2.46915
-3.43397
-4.37075
-5.26308
-6.08659
-6.80494
-7.36441
-7.68708
-7.664
-7.15366
-5.99883
-4.08577
-1.4701
-0.516793
-1.54846
-2.57385
-3.58691
-4.57843
-5.53401
-6.4311
-7.23456
-7.89021
-8.31594
-8.39099
-7.94794
-6.78166
-4.70804
-1.72483
-0.538159
-1.61382
-2.68707
-3.75473
-4.81097
-5.84545
-6.84048
-7.76664
-8.57548
-9.18813
-9.47754
-9.24426
-8.19441
-5.96184
-2.30343
-0.55997
-1.68082
-2.8041
-3.93041
-5.05853
-6.18414
-7.29755
-8.37999
-9.39678
-10.2845
-10.9268
-11.1074
-10.4283
-8.20569
-3.54058
-0.581137
-1.74608
-2.91896
-4.10473
-5.30774
-6.53116
-7.77595
-9.03873
-10.3074
-11.5512
-12.6964
-13.5673
-13.7338
-12.1455
-6.45535
-0.600434
-1.8058
-3.02481
-4.267
-5.54267
-6.86322
-8.24167
-9.69315
-11.2351
-12.8858
-14.6563
-16.516
-18.2575
-18.9338
-14.384
-0.616591
-1.85601
-3.11449
-4.40594
-5.74633
-7.15495
-8.65652
-10.2845
-12.0869
-14.1369
-16.5538
-19.5464
-23.5201
-29.351
-39.1306
85.4682
63.8362
50.737
41.7191
34.9139
29.4532
24.8823
20.9354
17.4432
14.2895
11.3901
8.68027
6.10783
3.62866
1.20363
31.2465
40.7736
38.8702
34.6932
30.3487
26.3041
22.625
19.2783
16.211
13.3712
10.7126
8.19457
5.78129
3.44044
1.14214
13.8059
25.6484
28.5816
27.7832
25.5747
22.9007
20.1366
17.4269
14.8207
12.327
9.93733
7.63601
5.40436
3.22264
1.07089
7.31596
16.7099
20.8839
21.8519
21.1236
19.5597
17.6102
15.5032
13.352
11.2103
9.10058
7.02899
4.99268
2.98399
0.992688
4.4634
11.396
15.4124
17.0983
17.2526
16.4861
15.1927
13.6101
11.8767
10.0712
8.23725
6.39737
4.56175
2.73322
0.910366
2.99559
8.10727
11.559
13.4079
14.0209
13.778
12.9759
11.8215
10.4511
8.95177
7.37791
5.76272
4.12586
2.47846
0.826559
2.13851
5.97112
8.81845
10.5756
11.3834
11.4581
11.0036
10.1828
9.11493
7.88398
6.54718
5.14304
3.69721
2.2268
0.743587
1.59
4.51912
6.83485
8.40245
9.25492
9.50536
9.28558
8.71535
7.89192
6.88957
5.76312
4.55225
3.28559
1.98401
0.663354
1.2157
3.49303
5.37068
6.72577
7.54432
7.87906
7.81077
7.42365
6.79304
5.98127
5.03761
4.00015
2.89817
1.75443
0.587315
0.948396
2.74442
4.26933
5.42157
6.1696
6.53251
6.55726
6.30093
5.81989
5.16446
4.37716
3.4928
2.5397
1.54105
0.516487
0.751048
2.18406
3.4267
4.39799
5.06221
5.42071
5.49885
5.33416
4.96774
4.43918
3.78404
3.03314
2.21282
1.34566
0.451491
0.601662
1.75586
2.77246
3.58757
4.16707
4.50352
4.609
4.50741
4.22814
3.80172
3.25735
2.62166
1.91844
1.16899
0.39261
0.486383
1.42319
2.25809
2.94072
3.44065
3.74665
3.86288
3.80398
3.59064
3.24613
2.79405
2.25701
1.65615
1.01101
0.33986
0.396069
1.16126
1.84943
2.42071
2.84885
3.12152
3.23832
3.20776
3.04419
2.7652
2.38969
1.93666
1.42457
0.871067
0.293058
0.324462
0.952802
1.52192
2.00005
2.36497
2.60459
2.71604
2.70385
2.57785
2.35125
2.03912
1.6573
1.22173
0.748131
0.251883
0.267146
0.78546
1.25756
1.658
1.96808
2.17663
2.27959
2.27894
2.18133
1.99666
1.73692
1.41523
1.04529
0.640911
0.215924
0.220924
0.650197
1.04296
1.37866
1.64168
1.82197
1.91504
1.92133
1.84523
1.69418
1.4777
1.20667
0.892734
0.547995
0.184726
0.18343
0.540279
0.867964
1.14979
1.37269
1.52784
1.61075
1.62089
1.56116
1.43712
1.25636
1.02786
0.761561
0.467938
0.157818
0.152888
0.450608
0.724803
0.961822
1.15074
1.28387
1.35696
1.36896
1.32172
1.21942
1.06814
0.875306
0.649347
0.399332
0.134738
0.127936
0.377267
0.607448
0.807245
0.9675
1.08158
1.14556
1.15816
1.12048
1.03572
0.908753
0.74574
0.553829
0.340842
0.115046
0.107527
0.317218
0.511184
0.680115
0.816314
0.914069
0.969837
0.98224
0.951927
0.881329
0.774383
0.636231
0.472938
0.291244
0.0983365
0.0908414
0.268085
0.432297
0.575707
0.691813
0.7757
0.824211
0.835975
0.811332
0.752162
0.661673
0.544171
0.40482
0.249427
0.0842401
0.0772369
0.227999
0.367851
0.49025
0.589675
0.661887
0.70409
0.714981
0.694704
0.644732
0.567713
0.467275
0.347835
0.214409
0.0724292
0.0662091
0.195485
0.315518
0.420742
0.506427
0.568902
0.605703
0.615621
0.598685
0.556077
0.490008
0.403567