/*--------------------------------*- C++ -*----------------------------------*\
| =========                 |                                                 |
| \\      /  F ield         | OpenFOAM: The Open Source CFD Toolbox           |
|  \\    /   O peration     | Version:  5.x                                   |
|   \\  /    A nd           | Web:      www.OpenFOAM.org                      |
|    \\/     M anipulation  |                                                 |
\*---------------------------------------------------------------------------*/
FoamFile
{
    version     2.0;
    format      ascii;
    class       volScalarField;
    location    "14";
    object      T;
}
// * * * * * * * * * * * * * * * * * * * * * * * * * * * * * * * * * * * * * //

dimensions      [0 0 0 1 0 0 0];

internalField   nonuniform List<scalar> 
6300
(
10.143
10.4287
10.7131
10.9953
11.2745
11.5498
11.8205
12.0856
12.3443
12.5959
12.8396
13.0747
13.3005
13.5166
13.7226
10.1435
10.43
10.7152
10.9982
11.2783
11.5545
11.826
12.0919
12.3514
12.6037
12.8481
13.0838
13.3101
13.5266
13.7329
10.1443
10.4325
10.7194
11.0042
11.2859
11.5638
11.8369
12.1045
12.3656
12.6194
12.8651
13.102
13.3295
13.5468
13.7535
10.1456
10.4363
10.7258
11.0131
11.2973
11.5777
11.8534
12.1234
12.3869
12.643
12.8909
13.1297
13.3587
13.5773
13.7849
10.1473
10.4414
10.7342
11.0249
11.3126
11.5964
11.8754
12.1488
12.4155
12.6747
12.9256
13.167
13.3983
13.6187
13.8274
10.1494
10.4477
10.7448
11.0398
11.3317
11.6198
11.903
12.1806
12.4515
12.7148
12.9694
13.2144
13.4487
13.6714
13.8818
10.1519
10.4553
10.7575
11.0575
11.3546
11.6478
11.9363
12.219
12.4951
12.7634
13.0229
13.2723
13.5105
13.7364
13.949
10.1549
10.4642
10.7723
11.0783
11.3813
11.6806
11.9752
12.2641
12.5463
12.8207
13.0862
13.3413
13.5846
13.8146
14.0301
10.1582
10.4742
10.7891
11.1018
11.4118
11.718
12.0196
12.3157
12.6052
12.887
13.1597
13.4219
13.6717
13.9073
14.1267
10.162
10.4855
10.8079
11.1283
11.4459
11.7599
12.0695
12.3738
12.6717
12.9621
13.2437
13.5147
13.7729
14.016
14.2409
10.1661
10.4979
10.8286
11.1574
11.4835
11.8062
12.1247
12.4381
12.7456
13.046
13.3381
13.62
13.8893
14.1426
14.3756
10.1706
10.5114
10.8512
11.1891
11.5245
11.8567
12.1849
12.5084
12.8264
13.1382
13.4425
13.7378
14.0214
14.2892
14.5348
10.1755
10.526
10.8756
11.2233
11.5687
11.911
12.2496
12.5839
12.9134
13.2376
13.5558
13.867
14.1692
14.458
14.7242
10.1807
10.5417
10.9016
11.2599
11.6159
11.9689
12.3185
12.6642
13.0057
13.3429
13.6759
14.0051
14.3303
14.6492
14.9518
10.1862
10.5583
10.9294
11.2988
11.6659
12.0302
12.3912
12.7485
13.1021
13.4521
13.7998
14.1471
14.4976
14.8564
15.2253
13.9019
14.0576
14.2059
14.3471
14.4812
14.6085
14.7292
14.8438
14.9525
15.0558
15.1542
15.2482
15.3381
15.4245
15.5079
15.5887
15.6676
15.7448
15.8209
15.8963
15.9715
16.0468
16.1227
16.1994
16.2773
16.3567
16.4378
16.5207
16.6057
16.6928
16.7821
16.8735
16.9671
17.0626
17.1601
17.2594
17.3603
17.4626
17.566
17.6704
17.7753
17.8805
17.9856
18.0903
18.1942
18.2969
18.3981
18.4974
18.5945
18.689
18.7807
18.8692
18.9541
19.0352
19.1121
19.1844
19.2516
19.3134
19.3694
19.4189
19.4617
19.4971
19.5247
19.5439
19.5542
19.5549
19.5453
19.5248
19.4924
19.4474
19.3887
19.3154
19.2264
19.1204
18.9964
18.853
18.6891
18.5032
18.294
18.0602
17.8005
17.5135
17.198
16.8528
16.4769
16.0696
15.6301
15.1581
14.6535
14.1164
13.9122
14.0679
14.2161
14.3571
14.4908
14.6177
14.738
14.8519
14.9601
15.0627
15.1605
15.2537
15.3429
15.4286
15.5113
15.5915
15.6696
15.7462
15.8216
15.8964
15.971
16.0458
16.1212
16.1974
16.2749
16.354
16.4348
16.5175
16.6024
16.6894
16.7787
16.8702
16.9638
17.0596
17.1573
17.2568
17.358
17.4606
17.5644
17.6692
17.7746
17.8803
17.9859
18.0911
18.1956
18.2988
18.4005
18.5003
18.5978
18.6928
18.7849
18.8738
18.9593
19.0409
19.1183
19.1912
19.2591
19.3215
19.3781
19.4284
19.4718
19.508
19.5364
19.5564
19.5676
19.5693
19.5608
19.5414
19.5103
19.4666
19.4094
19.3377
19.2503
19.146
19.0238
18.8823
18.7202
18.5363
18.3291
18.0972
17.8394
17.5541
17.2403
16.8966
16.522
16.1155
15.6766
15.2047
14.6999
14.1621
13.9331
14.0887
14.2367
14.3771
14.5102
14.6363
14.7555
14.8683
14.9752
15.0766
15.1729
15.2648
15.3525
15.4368
15.5181
15.5969
15.6736
15.7489
15.823
15.8966
15.97
16.0437
16.1181
16.1934
16.2701
16.3485
16.4287
16.511
16.5956
16.6825
16.7718
16.8634
16.9573
17.0534
17.1515
17.2515
17.3533
17.4566
17.5612
17.6668
17.7731
17.8798
17.9865
18.0928
18.1983
18.3026
18.4053
18.506
18.6044
18.7003
18.7933
18.8832
18.9696
19.0523
19.1308
19.2048
19.2739
19.3377
19.3956
19.4472
19.4921
19.5297
19.5596
19.5813
19.5942
19.5978
19.5915
19.5744
19.5459
19.505
19.4507
19.3821
19.298
19.1972
19.0786
18.9408
18.7826
18.6025
18.3992
18.1713
17.9172
17.6357
17.3252
16.9846
16.6124
16.2079
15.7701
15.2986
14.7932
14.2541
13.9648
14.1203
14.2679
14.4076
14.5397
14.6644
14.7821
14.8931
14.9981
15.0975
15.1917
15.2814
15.367
15.4491
15.5283
15.6049
15.6796
15.7528
15.8251
15.8968
15.9684
16.0404
16.1132
16.1872
16.2626
16.3399
16.4193
16.501
16.5852
16.6719
16.7612
16.853
16.9473
17.0439
17.1427
17.2435
17.3461
17.4504
17.5561
17.663
17.7707
17.879
17.9873
18.0953
18.2024
18.3083
18.4125
18.5146
18.6144
18.7116
18.8059
18.8971
18.985
19.0692
19.1494
19.2252
19.2961
19.3618
19.4217
19.4754
19.5223
19.5621
19.5943
19.6184
19.6339
19.6404
19.6372
19.6236
19.5988
19.5621
19.5122
19.4484
19.3692
19.2737
19.1605
19.0284
18.8759
18.7018
18.5045
18.2825
18.0344
17.7585
17.4534
17.1174
16.7493
16.3478
15.9119
15.441
14.9349
14.3936
14.0078
14.1633
14.3103
14.449
14.5795
14.7024
14.8179
14.9265
15.0289
15.1255
15.2169
15.3036
15.3863
15.4655
15.5418
15.6156
15.6875
15.758
15.8276
15.8968
15.966
16.0358
16.1065
16.1785
16.2523
16.3281
16.4064
16.4872
16.5709
16.6574
16.7467
16.8389
16.9337
17.031
17.1307
17.2325
17.3362
17.4418
17.549
17.6576
17.7673
17.8777
17.9883
18.0986
18.208
18.3161
18.4223
18.5263
18.6278
18.7267
18.8226
18.9156
19.0052
19.0915
19.1739
19.2521
19.3256
19.3939
19.4565
19.5128
19.5625
19.6051
19.6402
19.6674
19.6863
19.6965
19.6974
19.6884
19.6687
19.6375
19.5937
19.5362
19.4638
19.3753
19.2694
19.1448
19.0001
18.834
18.6448
18.4311
18.1911
17.9231
17.6254
17.2963
16.9339
16.5368
16.1038
15.634
15.1269
14.5826
14.0628
14.2182
14.3645
14.5018
14.6304
14.7507
14.8634
14.9688
15.0678
15.1608
15.2485
15.3315
15.4105
15.486
15.5586
15.6288
15.6972
15.7642
15.8305
15.8965
15.9627
16.0295
16.0975
16.1671
16.2387
16.3127
16.3894
16.4692
16.5521
16.6384
16.7279
16.8206
16.9162
17.0145
17.1153
17.2183
17.3234
17.4306
17.5397
17.6504
17.7626
17.8758
17.9894
18.1028
18.2152
18.3261
18.4349
18.5412
18.6448
18.7455
18.8433
18.9382
19.0301
19.1189
19.2041
19.2854
19.3622
19.4338
19.4998
19.5595
19.6125
19.6585
19.697
19.7279
19.7508
19.7655
19.7715
19.7682
19.7549
19.7307
19.6944
19.645
19.5811
19.5014
19.4048
19.2897
19.1549
18.9989
18.8202
18.617
18.3877
18.1302
17.8425
17.5225
17.1681
16.7772
16.3483
15.8802
15.3721
14.824
14.1308
14.2861
14.4314
14.5669
14.6929
14.81
14.919
15.0203
15.1149
15.2035
15.2866
15.365
15.4394
15.5104
15.5785
15.6443
15.7085
15.7714
15.8336
15.8957
15.9581
16.0214
16.086
16.1525
16.2213
16.2929
16.3678
16.4462
16.5284
16.6145
16.7044
16.7978
16.8945
16.9941
17.0963
17.2007
17.3074
17.4164
17.5275
17.6409
17.7561
17.8729
17.9905
18.108
18.2244
18.3389
18.4508
18.5597
18.6655
18.7682
18.8679
18.9649
19.0593
19.1509
19.2396
19.3247
19.4057
19.4816
19.5518
19.6155
19.6724
19.7221
19.7644
19.7994
19.8269
19.8467
19.8586
19.8621
19.8564
19.8407
19.8137
19.7742
19.7206
19.6518
19.5662
19.4627
19.3398
19.1961
19.0302
18.8403
18.6245
18.3804
18.1058
17.798
17.4542
17.0721
16.6491
16.1836
15.6746
15.1217
14.2131
14.3684
14.5123
14.6453
14.768
14.881
14.9852
15.0814
15.1707
15.2537
15.3312
15.4041
15.4731
15.5386
15.6015
15.6622
15.7212
15.7792
15.8367
15.8941
15.952
16.011
16.0715
16.1342
16.1996
16.2683
16.3408
16.4175
16.4988
16.5848
16.6753
16.7701
16.8684
16.9698
17.0736
17.1797
17.2879
17.3986
17.5119
17.6282
17.7472
17.8686
17.9914
18.1143
18.236
18.355
18.4706
18.5824
18.6903
18.7946
18.896
18.995
19.0919
19.1869
19.2797
19.3698
19.456
19.5373
19.6126
19.681
19.7421
19.7958
19.8422
19.8813
19.9135
19.9388
19.9573
19.9686
19.9721
19.9666
19.9508
19.9231
19.8819
19.8257
19.7532
19.663
19.5541
19.4251
19.2745
19.1006
18.9014
18.6743
18.4165
18.1247
17.7955
17.4252
17.0108
16.5495
16.0398
15.481
14.3115
14.4666
14.6088
14.7386
14.8568
14.9644
15.0626
15.1525
15.2351
15.3114
15.3824
15.4488
15.5113
15.5706
15.6273
15.6821
15.7353
15.7876
15.8395
15.8916
15.9442
15.9981
16.0537
16.1118
16.173
16.238
16.3074
16.382
16.4622
16.5482
16.64
16.7368
16.8377
16.9416
17.0475
17.1552
17.2647
17.3766
17.4919
17.6111
17.7345
17.8618
17.9917
18.1222
18.2509
18.3758
18.4957
18.6102
18.7197
18.8251
18.9273
19.0277
19.1269
19.2256
19.3235
19.4199
19.5131
19.6013
19.6828
19.7566
19.8222
19.8798
19.9298
19.9728
20.0095
20.0405
20.066
20.0861
20.1001
20.1068
20.1045
20.091
20.0643
20.0227
19.965
19.8901
19.797
19.6846
19.5518
19.397
19.218
19.0121
18.7758
18.5051
18.1953
17.8416
17.4395
16.9849
16.4752
15.9093
14.4282
14.5832
14.7229
14.8483
14.9605
15.0612
15.1518
15.2337
15.3083
15.3767
15.4399
15.4987
15.5538
15.606
15.6558
15.7038
15.7505
15.7964
15.842
15.8878
15.9344
15.9823
16.0322
16.0847
16.1406
16.2009
16.2664
16.3381
16.4168
16.5031
16.597
16.6974
16.8025
16.9102
17.0187
17.1276
17.2375
17.3497
17.4658
17.5876
17.716
17.851
17.9909
18.1323
18.271
18.4035
18.5282
18.6449
18.7548
18.8595
18.9611
19.0615
19.1624
19.2649
19.3692
19.4741
19.577
19.6744
19.7638
19.8435
19.9135
19.9743
20.027
20.073
20.1134
20.1495
20.1822
20.2119
20.2382
20.2597
20.2738
20.2774
20.2677
20.2427
20.2013
20.1429
20.067
19.9732
19.8605
19.7278
19.5729
19.3931
19.1843
18.9414
18.6579
18.3274
17.9432
17.4994
16.9913
16.4166
14.5666
14.7215
14.8576
14.9767
15.0808
15.1723
15.2532
15.3254
15.3903
15.4494
15.5035
15.5536
15.6005
15.6446
15.6867
15.7272
15.7666
15.8054
15.8439
15.8828
15.9224
15.9635
16.0065
16.0523
16.1018
16.156
16.2162
16.2838
16.3603
16.447
16.5442
16.6508
16.7635
16.8772
16.989
17.0983
17.2067
17.3167
17.4314
17.5543
17.6877
17.8328
17.9875
18.1461
18.2996
18.4422
18.5717
18.6891
18.7969
18.8982
18.9962
19.0942
19.1952
19.3013
19.4137
19.5309
19.6482
19.7589
19.8581
19.9442
20.0176
20.0801
20.1337
20.1806
20.2231
20.263
20.3023
20.3421
20.3828
20.4228
20.458
20.4827
20.4926
20.4857
20.4616
20.4204
20.3626
20.2885
20.1978
20.0899
19.9634
19.8154
19.6417
19.4355
19.188
18.8901
18.5325
18.1061
17.6028
17.0176
14.732
14.8864
15.0168
15.1264
15.2191
15.2983
15.3669
15.4271
15.4806
15.5288
15.5727
15.6131
15.6507
15.686
15.7197
15.752
15.7834
15.8143
15.8452
15.8763
15.9083
15.9415
15.9766
16.0144
16.0559
16.1023
16.1551
16.2165
16.289
16.3753
16.4776
16.5954
16.7225
16.8468
16.9626
17.0702
17.1732
17.2764
17.3852
17.5053
17.6423
17.8002
17.9785
18.1666
18.3437
18.4992
18.6323
18.7469
18.848
18.9411
19.0309
19.1223
19.22
19.3284
19.451
19.5871
19.7287
19.8594
19.971
20.0626
20.1371
20.1981
20.2495
20.2943
20.3359
20.3771
20.4211
20.4707
20.5281
20.5923
20.6568
20.7088
20.7413
20.7533
20.746
20.7214
20.6813
20.6271
20.5594
20.4786
20.3841
20.2745
20.1454
19.9885
19.7903
19.5383
19.2203
18.823
18.3318
17.7347
14.933
15.0858
15.2057
15.3003
15.3765
15.4394
15.4925
15.5383
15.5784
15.6143
15.6467
15.6763
15.7039
15.7297
15.7542
15.7778
15.8007
15.8232
15.8457
15.8685
15.892
15.9165
15.9426
15.9711
16.0027
16.0389
16.0814
16.1329
16.1974
16.2803
16.3884
16.5261
16.6854
16.8285
16.9476
17.0484
17.1391
17.2278
17.3224
17.4317
17.5663
17.7381
17.9548
18.2028
18.4185
18.5882
18.7193
18.8235
18.9106
18.9883
19.063
19.141
19.2289
19.3349
19.4682
19.635
19.8245
19.9871
20.1122
20.2054
20.2755
20.3298
20.3741
20.4125
20.4488
20.4869
20.5313
20.5878
20.6629
20.7609
20.8734
20.9624
21.0193
21.0481
21.0547
21.0442
21.0201
20.9846
20.9395
20.8863
20.8265
20.761
20.6888
20.6007
20.4697
20.281
20.0221
19.6748
19.2129
18.6059
15.1871
15.3324
15.4307
15.5005
15.5529
15.5944
15.6284
15.6572
15.6822
15.7044
15.7243
15.7425
15.7593
15.775
15.7899
15.8042
15.8182
15.8319
15.8456
15.8595
15.8738
15.8889
15.9051
15.9228
15.9428
15.9662
15.9944
16.0304
16.079
16.1489
16.2562
16.4255
16.6713
16.8442
16.9589
17.0409
17.1076
17.1703
17.238
17.3214
17.4366
17.6108
17.8857
18.2852
18.5594
18.7321
18.8448
18.9244
18.9862
19.0393
19.0902
19.145
19.2114
19.3017
19.437
19.6497
19.9585
20.1687
20.2988
20.381
20.4361
20.4757
20.5066
20.5331
20.5587
20.5871
20.6238
20.6776
20.7644
20.9083
21.1234
21.2618
21.3374
21.3743
21.3878
21.3863
21.3747
21.3555
21.3309
21.3033
21.2763
21.2567
21.2548
21.2743
21.2315
21.1245
20.9507
20.6912
20.3026
19.7073
15.5396
15.6465
15.6965
15.7254
15.745
15.7597
15.7716
15.7814
15.79
15.7974
15.8042
15.8103
15.8159
15.8212
15.8262
15.831
15.8357
15.8403
15.8449
15.8496
15.8544
15.8595
15.865
15.871
15.8779
15.886
15.8961
15.9096
15.9295
15.9636
16.0343
16.2145
16.762
16.9435
17.0168
17.0552
17.0817
17.1051
17.1308
17.1651
17.2216
17.3382
17.6367
18.5479
18.8461
18.9621
19.0177
19.0506
19.0738
19.0931
19.1114
19.1319
19.159
19.2032
19.2938
19.5257
20.2341
20.4651
20.5539
20.5953
20.6186
20.6338
20.6451
20.6547
20.6641
20.6751
20.6911
20.7196
20.783
20.9529
21.4832
21.6512
21.7108
21.7337
21.7418
21.7428
21.7396
21.7337
21.7263
21.7189
21.7152
21.7264
21.7895
22.0372
22.0853
22.0638
22.0023
21.8932
21.6895
21.2369
13.4906
12.7631
11.9929
11.1824
10.3343
9.45188
8.53843
7.59735
6.63212
5.64616
4.64284
3.62548
2.59729
1.56143
0.520984
13.535
12.8056
12.033
11.2196
10.3684
9.48272
8.56586
7.62135
6.6527
5.66339
4.65679
3.63623
2.60491
1.56598
0.522496
13.6244
12.8911
12.1135
11.2944
10.4369
9.54451
8.62076
7.66933
6.69382
5.69777
4.68461
3.65766
2.6201
1.57504
0.525507
13.76
13.0206
12.2354
11.4073
10.5401
9.63742
8.70316
7.74121
6.75533
5.74914
4.72613
3.6896
2.64272
1.58853
0.529991
13.9436
13.1957
12.3997
11.5593
10.6785
9.7617
8.81308
7.83686
6.83699
5.81722
4.78107
3.73183
2.6726
1.60634
0.535907
14.1778
13.4184
12.6081
11.7513
10.8528
9.91756
8.95044
7.95598
6.93841
5.90157
4.849
3.78396
2.70944
1.62828
0.543195
14.4662
13.6919
12.8629
11.9848
11.0636
10.1051
9.11494
8.09806
7.05894
6.00152
4.92932
3.84548
2.75286
1.65413
0.551774
14.8135
14.0197
13.1664
12.2611
11.3113
10.3241
9.30595
8.26222
7.19763
6.11613
5.02116
3.91569
2.80235
1.68355
0.561538
15.2261
14.4066
13.5218
12.5817
11.5962
10.574
9.52231
8.44708
7.35305
6.2441
5.12341
3.99369
2.85724
1.71616
0.572351
15.7127
14.8586
13.932
12.9473
11.9175
10.853
9.76202
8.65055
7.52325
6.38367
5.2346
4.07832
2.91671
1.75145
0.58405
16.285
15.3829
14.4
13.3579
12.2733
11.1585
10.022
8.86966
7.70556
6.53259
5.35291
4.16818
2.97977
1.78884
0.596441
16.96
15.9875
14.9271
13.8105
12.6589
11.4853
10.2976
9.10035
7.89658
6.6881
5.47615
4.26164
3.04529
1.82766
0.609302
17.7619
16.6796
15.51
14.298
13.0663
11.8261
10.5824
9.33741
8.09214
6.84692
5.60183
4.35688
3.11201
1.86719
0.622394
18.725
17.4586
16.1352
14.8047
13.482
12.1701
10.8682
9.57457
8.28749
7.00546
5.72728
4.45193
3.17862
1.90666
0.635468
19.8827
18.2942
16.767
15.3032
13.8867
12.5039
11.1455
9.80497
8.47758
7.16002
5.84976
4.54487
3.24381
1.94531
0.648276
10.1916
10.5744
10.9562
11.3364
11.7144
12.0894
12.4611
12.8292
13.1934
13.5544
13.9135
14.2741
14.6431
15.0368
15.4996
10.1967
10.5897
10.9818
11.3722
11.7603
12.1455
12.5272
12.905
13.2787
13.6486
14.0158
14.3835
14.7581
15.1528
15.5913
10.202
10.6058
11.0085
11.4095
11.8082
12.2039
12.5959
12.9836
13.3665
13.7444
14.1177
14.488
14.8591
15.2383
15.6357
10.2076
10.6224
11.0363
11.4485
11.8582
12.2649
12.6676
13.0655
13.4578
13.8434
14.2216
14.5918
14.9542
15.3109
15.666
10.2134
10.6398
11.0653
11.489
11.9103
12.3284
12.7424
13.1512
13.5535
13.9475
14.3309
14.7008
15.0532
15.3846
15.6949
10.2194
10.6579
11.0954
11.5312
11.9646
12.3948
12.8208
13.2414
13.6548
14.0587
14.4496
14.8217
15.1666
15.4728
15.7315
10.2256
10.6766
11.1266
11.575
12.0211
12.4641
12.9029
13.3364
13.7626
14.1789
14.5811
14.9615
15.3068
15.5937
15.7909
10.2321
10.6959
11.1589
11.6204
12.0797
12.5361
12.9887
13.4363
13.8771
14.3089
14.7275
15.1256
15.4873
15.7768
15.9126
10.2387
10.7158
11.1922
11.6672
12.1403
12.6108
13.0779
13.5407
13.9979
14.4478
14.8881
15.3147
15.7179
16.0664
16.2232
10.2455
10.7362
11.2263
11.7153
12.2026
12.6878
13.1701
13.6489
14.1235
14.5933
15.0582
15.5199
15.9863
16.4889
17.1687
10.2524
10.7571
11.2613
11.7645
12.2664
12.7666
13.2646
13.7599
14.2524
14.7421
15.2303
15.7216
16.2293
16.7883
17.4832
10.2595
10.7783
11.2968
11.8145
12.3313
12.8468
13.3608
13.8729
14.3831
14.8917
15.4001
15.9119
16.4364
16.9931
17.614
10.2666
10.7998
11.3327
11.8652
12.3971
12.9281
13.4582
13.9871
14.5148
15.0414
15.5673
16.0933
16.6211
17.153
17.6913
10.2738
10.8215
11.369
11.9163
12.4633
13.01
13.5562
14.102
14.6471
15.1914
15.7342
16.2732
16.8027
17.3084
17.7651
10.2811
10.8432
11.4053
11.9675
12.5298
13.0921
13.6545
14.2172
14.7799
15.3424
15.9035
16.4597
17.0005
17.4976
17.8813
10.2883
10.8649
11.4416
12.0186
12.5961
13.174
13.7527
14.3322
14.9127
15.4942
16.0761
16.6566
17.2285
17.7654
18.1505
10.2954
10.8864
11.4777
12.0694
12.6619
13.2554
13.8501
14.4463
15.0446
15.6454
16.2496
16.8592
17.4805
18.1384
18.9478
10.3025
10.9078
11.5134
12.1197
12.727
13.3358
13.9462
14.559
15.1747
15.7942
16.4193
17.0536
17.7069
18.4058
19.2174
10.3095
10.9288
11.5485
12.1692
12.7911
13.4148
14.0407
14.6695
15.3019
15.939
16.5822
17.2345
17.9015
18.5949
19.3349
10.3164
10.9494
11.583
12.2177
12.8539
13.4922
14.1332
14.7774
15.4258
16.0793
16.7388
17.405
18.0774
18.7514
19.414
10.3231
10.9696
11.6168
12.2651
12.9153
13.5677
14.2231
14.8823
15.546
16.2152
16.8904
17.5711
18.2521
18.9155
19.5109
10.3297
10.9892
11.6496
12.3113
12.9749
13.641
14.3104
14.9838
15.6623
16.3467
17.0382
17.7366
18.4388
19.1264
19.7135
10.336
11.0083
11.6815
12.3561
13.0327
13.712
14.3947
15.0818
15.7742
16.4733
17.1808
17.8994
18.6352
19.407
20.2974
10.3422
11.0268
11.7124
12.3994
13.0885
13.7804
14.4759
15.1759
15.8814
16.5938
17.3155
18.0502
18.8065
19.605
20.4944
10.3481
11.0447
11.7422
12.4411
13.1423
13.8463
14.5539
15.266
15.9835
16.7078
17.4409
18.1856
18.9481
19.7396
20.5774
10.3539
11.0619
11.7709
12.4813
13.194
13.9095
14.6286
15.3521
16.0808
16.8157
17.5578
18.3086
19.0694
19.8417
20.6256
10.3594
11.0785
11.7985
12.52
13.2437
13.9702
14.7002
15.4344
16.1736
16.9182
17.6687
18.4244
19.1825
19.9355
20.6689
10.3647
11.0944
11.8249
12.557
13.2913
14.0283
14.7688
15.5133
16.2624
17.0165
17.7757
18.5382
19.2989
20.0427
20.7322
10.3698
11.1096
11.8503
12.5926
13.3369
14.084
14.8344
15.5887
16.3475
17.1113
17.8801
18.6531
19.4268
20.1872
20.8729
10.3746
11.1242
11.8746
12.6265
13.3805
14.1372
14.8971
15.6609
16.429
17.2023
17.9813
18.7673
19.5637
20.3832
21.284
10.3793
11.1381
11.8978
12.659
13.4222
14.188
14.957
15.7298
16.5069
17.2891
18.0774
18.874
19.6844
20.5225
21.4228
10.3837
11.1514
11.92
12.69
13.462
14.2366
15.0142
15.7956
16.5811
17.3714
18.1675
18.971
19.7854
20.6182
21.4816
10.3879
11.1641
11.9411
12.7195
13.4999
14.2828
15.0688
15.8582
16.6517
17.4496
18.2523
19.0602
19.8735
20.6925
21.5167
10.392
11.1762
11.9612
12.7476
13.536
14.3269
15.1207
15.918
16.7191
17.5242
18.3333
19.1453
19.9574
20.7628
21.5496
10.3958
11.1876
11.9803
12.7743
13.5703
14.3687
15.1701
15.9749
16.7835
17.5959
18.412
19.2301
20.0456
20.8458
21.5999
10.3994
11.1984
11.9983
12.7996
13.6028
14.4084
15.2171
16.0291
16.8449
17.6649
18.4891
19.3165
20.1443
20.9606
21.7147
10.4028
11.2087
12.0154
12.8235
13.6335
14.446
15.2615
16.0804
16.9034
17.7309
18.5636
19.4025
20.2505
21.1182
22.0537
10.406
11.2183
12.0314
12.8459
13.6624
14.4813
15.3033
16.1288
16.9585
17.793
18.6335
19.4819
20.3429
21.2284
22.1669
10.409
11.2273
12.0464
12.867
13.6895
14.5145
15.3425
16.1742
17.01
17.8509
18.6977
19.5522
20.418
21.3016
22.2133
10.4118
11.2357
12.0604
12.8866
13.7147
14.5453
15.3791
16.2164
17.058
17.9043
18.7562
19.6145
20.4804
21.3551
22.2391
10.4144
11.2435
12.0734
12.9047
13.7381
14.574
15.413
16.2556
17.1024
17.9538
18.8101
19.6713
20.5363
21.4018
22.2606
10.4168
11.2506
12.0853
12.9215
13.7596
14.6004
15.4442
16.2917
17.1434
17.9995
18.8604
19.7252
20.5917
21.4527
22.2905
10.4189
11.2571
12.0962
12.9367
13.7793
14.6244
15.4728
16.3248
17.1811
18.0419
18.9076
19.7777
20.6506
21.5195
22.3554
10.4209
11.263
12.106
12.9505
13.797
14.6462
15.4986
16.3548
17.2154
18.0807
18.9514
19.828
20.7121
21.6089
22.5445
10.4226
11.2682
12.1147
12.9627
13.8128
14.6656
15.5217
16.3817
17.2461
18.1156
18.9909
19.873
20.7644
21.671
22.6077
10.4242
11.2728
12.1223
12.9734
13.8267
14.6826
15.542
16.4053
17.2732
18.1463
19.0253
19.9113
20.8058
21.7119
22.6339
10.4255
11.2767
12.1289
12.9826
13.8385
14.6972
15.5593
16.4255
17.2964
18.1726
19.0547
19.9434
20.839
21.7415
22.6488
10.4265
11.2799
12.1342
12.9901
13.8483
14.7093
15.5737
16.4424
17.3157
18.1946
19.0793
19.9703
20.8672
21.7673
22.6634
10.4274
11.2824
12.1385
12.9961
13.856
14.7188
15.5851
16.4557
17.3312
18.2122
19.0994
19.993
20.8927
21.7958
22.6898
10.428
11.2843
12.1415
13.0004
13.8616
14.7257
15.5934
16.4655
17.3425
18.2253
19.1147
20.0112
20.9157
21.8301
22.7635
10.4284
11.2854
12.1434
13.0031
13.865
14.73
15.5986
16.4716
17.3497
18.2338
19.1247
20.0235
20.9316
21.8511
22.7869
10.4285
11.2858
12.1441
13.0041
13.8663
14.7316
15.6005
16.4739
17.3525
18.2373
19.1291
20.0292
20.9391
21.8604
22.7944
10.4284
11.2855
12.1436
13.0034
13.8654
14.7305
15.5992
16.4725
17.3509
18.2356
19.1275
20.0279
20.9384
21.8606
22.7951
10.4281
11.2845
12.142
13.001
13.8624
14.7267
15.5947
16.4672
17.3449
18.2287
19.1198
20.0193
20.9292
21.8521
22.7904
10.4275
11.2828
12.1391
12.997
13.8572
14.7203
15.587
16.4581
17.3344
18.2166
19.1059
20.0033
20.9108
21.8324
22.7765
10.4267
11.2804
12.1351
12.9914
13.8498
14.7112
15.5761
16.4453
17.3195
18.1995
19.086
19.98
20.8825
21.7967
22.7381
10.4257
11.2774
12.13
12.9841
13.8404
14.6995
15.562
16.4288
17.3004
18.1775
19.0609
19.9505
20.8456
21.7417
22.6198
10.4244
11.2736
12.1237
12.9752
13.8289
14.6852
15.5449
16.4087
17.2772
18.1511
19.031
19.917
20.8078
21.6991
22.5787
10.423
11.2692
12.1163
12.9649
13.8154
14.6685
15.5249
16.3852
17.2501
18.1204
18.9968
19.8798
20.7695
21.6641
22.5587
10.4213
11.2642
12.108
12.953
13.8
14.6495
15.502
16.3583
17.2191
18.0852
18.9576
19.8378
20.7275
21.6288
22.5424
10.4195
11.2587
12.0986
12.9398
13.7828
14.6282
15.4764
16.3282
17.1842
18.0453
18.9129
19.7889
20.6772
21.5845
22.5205
10.4174
11.2525
12.0883
12.9253
13.7639
14.6047
15.4482
16.2949
17.1455
18.0008
18.862
19.7313
20.6135
21.52
22.4781
10.4152
11.2458
12.0771
12.9095
13.7434
14.5793
15.4176
16.2588
17.1034
17.952
18.8053
19.6645
20.5325
21.4194
22.3715
10.4128
11.2387
12.0652
12.8926
13.7214
14.552
15.3848
16.2201
17.0584
17.8997
18.7443
19.5914
20.4381
21.2733
22.0487
10.4103
11.2311
12.0524
12.8747
13.6981
14.5232
15.3501
16.1793
17.0109
17.8451
18.6814
19.5183
20.3513
21.1685
21.9405
10.4077
11.2231
12.0391
12.8558
13.6736
14.4929
15.3138
16.1366
16.9616
17.7887
18.6177
19.4476
20.2754
21.0947
21.8944
10.4049
11.2148
12.0251
12.8361
13.6481
14.4613
15.2759
16.0923
16.9105
17.7308
18.5533
19.378
20.2051
21.0344
21.8656
10.402
11.2061
12.0106
12.8157
13.6216
14.4286
15.2368
16.0465
16.8578
17.6712
18.487
19.3066
20.133
20.9724
21.8359
10.399
11.1972
11.9956
12.7946
13.5943
14.3949
15.1965
15.9994
16.8036
17.6096
18.418
19.2304
20.0515
20.8935
21.7866
10.396
11.188
11.9803
12.773
13.5663
14.3604
15.1553
15.9511
16.7481
17.5462
18.3458
19.1478
19.9551
20.7789
21.6697
10.3928
11.1786
11.9645
12.7509
13.5377
14.3251
15.1132
15.902
16.6915
17.4815
18.2718
19.0614
19.8471
20.6174
21.3212
10.3896
11.169
11.9485
12.7283
13.5086
14.2893
15.0705
15.8522
16.6343
17.4165
18.1981
18.9774
19.7495
20.5019
21.204
10.3864
11.1592
11.9322
12.7055
13.479
14.253
15.0274
15.802
16.5769
17.3517
18.1259
18.8981
19.6654
20.4211
21.1539
10.3831
11.1493
11.9157
12.6823
13.4492
14.2164
14.9839
15.7516
16.5194
17.2871
18.0547
18.822
19.5891
20.356
21.1229
10.3797
11.1393
11.8989
12.6588
13.419
14.1794
14.9401
15.7009
16.4617
17.2225
17.9836
18.7459
19.5126
20.2905
21.0916
10.3764
11.1291
11.882
12.6351
13.3885
14.1422
14.8961
15.65
16.4038
17.1575
17.9113
18.6666
19.4281
20.2087
21.0404
10.3729
11.1188
11.8649
12.6112
13.3578
14.1048
14.8519
15.599
16.3459
17.0923
17.8378
18.5828
19.33
20.091
20.9193
10.3694
11.1084
11.8475
12.587
13.3268
14.0671
14.8076
15.5481
16.2883
17.0274
17.7643
18.4973
19.2221
19.9264
20.5578
10.3659
11.0978
11.8299
12.5625
13.2955
14.0291
14.7631
15.4973
16.2312
16.9638
17.6935
18.4171
19.1281
19.8123
20.4381
10.3623
11.087
11.812
12.5375
13.2637
13.9906
14.7183
15.4465
16.1748
16.9021
17.6268
18.3455
19.0525
19.7384
20.3904
10.3586
11.0759
11.7936
12.512
13.2313
13.9516
14.6731
15.3956
16.1189
16.8421
17.5639
18.2817
18.9914
19.6877
20.3662
10.3548
11.0646
11.7748
12.4859
13.1981
13.9117
14.627
15.344
16.0628
16.783
17.5037
18.2233
18.9394
19.6491
20.3508
10.3509
11.0528
11.7554
12.4589
13.1638
13.8705
14.5795
15.2911
16.0056
16.7233
17.444
18.1671
18.8916
19.6158
20.3384
10.3468
11.0407
11.7352
12.4309
13.1282
13.8277
14.53
15.2359
15.9461
16.6614
17.3824
18.1099
18.8437
19.5832
20.3267
10.3426
11.028
11.7142
12.4017
13.091
13.7828
14.478
15.1776
15.8829
16.5952
17.3163
18.0479
18.7916
19.5477
20.3139
10.3382
11.0149
11.6923
12.3711
13.0519
13.7355
14.4229
15.1153
15.8146
16.5228
17.2426
17.9774
18.7307
19.5047
20.298
10.3336
11.0012
11.6694
12.3391
13.0108
13.6854
14.364
15.0482
15.74
16.4421
17.1583
17.8938
18.655
19.4483
20.2755
10.3289
10.9869
11.6456
12.3056
12.9676
13.6324
14.3012
14.9757
15.658
16.3513
17.0605
17.7923
18.5568
19.368
20.239
10.3239
10.9721
11.6208
12.2707
12.9223
13.5765
14.2344
14.8976
15.5682
16.2495
16.9467
17.6677
18.4261
19.2459
20.168
10.3189
10.9568
11.5952
12.2345
12.8752
13.518
14.1639
14.8141
15.4707
16.1366
16.8162
17.517
18.2526
19.0524
19.9993
21.0452
19.0038
17.2877
15.7166
14.2264
12.7874
11.3832
10.0039
8.64267
7.29487
5.95701
4.62647
3.30116
1.97936
0.659566
21.4128
19.4227
17.6599
16.0361
14.4995
13.0206
11.5819
10.172
8.78331
7.41044
6.04935
4.69696
3.35082
2.00888
0.669363
21.566
19.6834
17.9355
16.2949
14.7322
13.2258
11.7603
10.3252
8.91285
7.51772
6.13555
4.76305
3.39752
2.0367
0.678601
21.6429
19.8502
18.1363
16.4992
14.9257
13.4023
11.9175
10.4624
9.03032
7.61589
6.21497
4.82423
3.44089
2.06259
0.687211
21.6879
19.9619
18.2836
16.6591
15.0843
13.5518
12.0538
10.5836
9.13539
7.70456
6.28723
4.8802
3.48073
2.08643
0.695146
21.7173
20.0401
18.3932
16.7842
15.2133
13.677
12.1707
10.6893
9.22827
7.78374
6.35226
4.93085
3.51692
2.10814
0.702384
21.7379
20.097
18.4762
16.8825
15.318
13.7814
12.2701
10.7806
9.30957
7.85375
6.4102
4.97624
3.54949
2.12774
0.708922
21.753
20.1396
18.5402
16.9604
15.403
13.868
12.3541
10.859
9.38018
7.91514
6.46138
5.01657
3.57854
2.14526
0.714777
21.7644
20.1723
18.5901
17.0226
15.4722
13.9398
12.4248
10.9259
9.44111
7.96858
6.50625
5.05211
3.60425
2.1608
0.719978
21.7732
20.1978
18.6297
17.0725
15.5287
13.9993
12.4842
10.9827
9.4934
8.01483
6.54534
5.08324
3.62684
2.1745
0.724565
21.7802
20.218
18.6613
17.1129
15.575
14.0487
12.5341
11.0309
9.5381
8.05466
6.5792
5.11033
3.64658
2.18649
0.728586
21.7857
20.2342
18.6868
17.1458
15.6131
14.0897
12.5759
11.0716
9.5762
8.08881
6.6084
5.13379
3.66373
2.19693
0.73209
21.7902
20.2473
18.7075
17.1727
15.6445
14.1237
12.6109
11.106
9.60857
8.11802
6.63349
5.15402
3.67855
2.20597
0.73513
21.7938
20.258
18.7244
17.1948
15.6704
14.1521
12.6403
11.135
9.63604
8.14292
6.65497
5.17141
3.69133
2.21378
0.737755
21.7968
20.2667
18.7383
17.2131
15.692
14.1758
12.6649
11.1595
9.65931
8.1641
6.67332
5.1863
3.7023
2.22049
0.740014
21.7993
20.2738
18.7498
17.2282
15.7099
14.1955
12.6855
11.1801
9.679
8.1821
6.68896
5.19903
3.71169
2.22624
0.741953
21.8013
20.2798
18.7593
17.2407
15.7248
14.212
12.7029
11.1974
9.69566
8.19738
6.70227
5.20989
3.71972
2.23117
0.743613
21.8029
20.2847
18.7672
17.2511
15.7372
14.2259
12.7175
11.2121
9.70976
8.21034
6.71358
5.21914
3.72657
2.23538
0.745031
21.8043
20.2888
18.7737
17.2599
15.7477
14.2375
12.7297
11.2245
9.72168
8.22133
6.72321
5.22702
3.73241
2.23897
0.746243
21.8055
20.2922
18.7792
17.2672
15.7564
14.2473
12.7401
11.2349
9.73179
8.23066
6.73139
5.23373
3.73739
2.24203
0.747277
21.8065
20.295
18.7839
17.2733
15.7638
14.2555
12.7488
11.2438
9.74036
8.2386
6.73835
5.23945
3.74164
2.24465
0.74816
21.8073
20.2975
18.7878
17.2785
15.77
14.2625
12.7562
11.2513
9.74765
8.24535
6.74429
5.24433
3.74527
2.24689
0.748916
21.808
20.2995
18.7911
17.2829
15.7753
14.2685
12.7626
11.2577
9.75388
8.25113
6.74938
5.24852
3.74839
2.24881
0.749564
21.8086
20.3013
18.7939
17.2867
15.7798
14.2736
12.768
11.2632
9.75923
8.2561
6.75376
5.25212
3.75107
2.25046
0.750123
21.8091
20.3028
18.7963
17.2899
15.7837
14.2779
12.7727
11.2679
9.76386
8.2604
6.75755
5.25524
3.7534
2.2519
0.750608
21.8095
20.3041
18.7984
17.2928
15.7872
14.2818
12.7767
11.2721
9.76791
8.26416
6.76086
5.25798
3.75543
2.25315
0.751032
21.8099
20.3053
18.8003
17.2953
15.7902
14.2852
12.7804
11.2758
9.77149
8.26749
6.7638
5.2604
3.75724
2.25426
0.751408
21.8103
20.3063
18.802
17.2975
15.7929
14.2882
12.7836
11.2791
9.77472
8.27049
6.76645
5.26257
3.75886
2.25527
0.751747
21.8106
20.3073
18.8036
17.2996
15.7954
14.2911
12.7866
11.2822
9.77769
8.27325
6.76887
5.26457
3.76035
2.25618
0.752056
21.8109
20.3082
18.8051
17.3016
15.7978
14.2938
12.7895
11.285
9.78049
8.27584
6.77115
5.26645
3.76174
2.25704
0.752347
21.8112
20.3091
18.8066
17.3036
15.8002
14.2964
12.7923
11.2879
9.7832
8.27835
6.77335
5.26825
3.76308
2.25787
0.752625
21.8115
20.3101
18.8081
17.3056
15.8025
14.299
12.795
11.2907
9.7859
8.28084
6.77553
5.27004
3.7644
2.25868
0.752899
21.8119
20.311
18.8097
17.3077
15.805
14.3018
12.7979
11.2935
9.78867
8.28338
6.77774
5.27184
3.76574
2.2595
0.753175
21.8122
20.3121
18.8114
17.3099
15.8077
14.3047
12.801
11.2966
9.79159
8.28604
6.78005
5.27371
3.76712
2.26034
0.753459
21.8127
20.3134
18.8133
17.3125
15.8107
14.308
12.8044
11.2999
9.79472
8.28888
6.7825
5.27569
3.76857
2.26123
0.753758
21.8132
20.3148
18.8156
17.3154
15.8141
14.3116
12.8081
11.3036
9.79817