/*--------------------------------*- C++ -*----------------------------------*\
| =========                 |                                                 |
| \\      /  F ield         | OpenFOAM: The Open Source CFD Toolbox           |
|  \\    /   O peration     | Version:  5.x                                   |
|   \\  /    A nd           | Web:      www.OpenFOAM.org                      |
|    \\/     M anipulation  |                                                 |
\*---------------------------------------------------------------------------*/
FoamFile
{
    version     2.0;
    format      ascii;
    class       volScalarField;
    location    "9.8";
    object      gradTy;
}
// * * * * * * * * * * * * * * * * * * * * * * * * * * * * * * * * * * * * * //

dimensions      [0 -1 0 1 0 0 0];

internalField   nonuniform List<scalar> 
6300
(
1098.42
1294.96
1490.64
1684.87
1877.06
2066.65
2253.04
2435.66
2613.93
2787.3
2955.23
3117.22
3272.83
3421.67
3563.43
0.427095
1.28188
2.13826
2.9967
3.85663
4.71594
5.57051
6.41352
7.23494
8.02106
8.75442
9.41424
9.97753
10.4211
10.724
0.711136
2.13463
3.56143
4.99277
6.42825
7.86502
9.29685
10.713
12.0972
13.4268
14.6721
15.7972
16.7618
17.5242
18.0465
0.99394
2.98393
4.97989
6.98449
8.99832
11.0187
13.0385
15.044
17.0137
18.9162
20.7093
22.3401
23.7474
24.8665
25.6371
1.2746
3.82717
6.3895
8.96667
11.5614
14.1727
16.7938
19.4102
21.9967
24.5142
26.9078
29.1054
31.0199
32.5559
33.6213
1.5518
4.66047
7.784
10.9309
14.1075
17.3162
20.5531
23.8056
27.0476
30.235
33.3011
36.1525
38.6696
40.7143
42.1474
1.82386
5.47873
9.15476
12.8651
16.621
20.4306
24.2961
28.2104
32.1517
36.0758
39.9075
43.532
46.7896
49.4822
51.3969
2.08872
6.27562
10.4909
14.7531
19.0802
23.4882
27.9892
32.5871
37.2715
42.0071
46.7193
51.2761
55.4722
59.0254
61.6048
2.34402
7.04391
11.7796
16.5756
21.4577
26.4519
31.584
36.8757
42.3383
47.9599
53.6841
59.3783
64.7948
69.5396
73.0888
2.58738
7.77611
13.0074
18.3115
23.722
29.2766
35.0177
40.9916
47.244
53.8076
60.6761
67.7556
74.7862
81.2463
86.3011
2.81667
8.46549
14.1617
19.9402
25.8413
31.9134
38.2169
44.8271
51.8362
59.3477
67.4543
76.1786
85.3448
94.3547
101.915
3.03036
9.10712
15.2332
21.4456
27.7884
34.3174
41.1075
48.2616
55.9235
64.2899
73.6119
84.1564
96.0562
108.908
120.955
3.22788
9.6991
16.2178
22.8197
29.5479
36.4589
43.6321
51.1859
59.3036
68.2736
78.5437
90.7752
105.811
124.262
144.848
3.40983
10.2432
17.1185
24.0664
31.1234
38.3365
45.774
53.5438
61.8289
70.9541
81.5109
94.5857
112.145
137.474
174.303
3.57794
10.745
17.9459
25.2032
32.5412
39.988
47.5816
55.384
63.5113
72.2001
81.9566
93.9071
110.702
139.181
199.643
3686.7
3793.64
3895.44
3992.15
4083.88
4170.76
4252.99
4330.79
4404.42
4474.17
4540.32
4603.21
4663.14
4720.45
4775.45
4828.48
4879.83
4929.83
4978.77
5026.94
5074.62
5122.05
5169.49
5217.16
5265.24
5313.92
5363.34
5413.62
5464.83
5517.02
5570.23
5624.43
5679.6
5735.67
5792.58
5850.23
5908.52
5967.32
6026.51
6085.94
6145.45
6204.88
6264.04
6322.74
6380.79
6438.02
6494.24
6549.28
6603
6655.26
6705.91
6754.83
6801.9
6846.98
6889.93
6930.6
6968.84
7004.49
7037.38
7067.34
7094.19
7117.77
7137.88
7154.34
7166.94
7175.47
7179.69
7179.33
7174.1
7163.69
7147.74
7125.9
7097.76
7062.91
7020.91
6971.33
6913.69
6847.53
6772.38
6687.75
6593.19
6488.23
6372.43
6245.41
6106.81
5956.34
5793.81
5619.08
5432.15
5233.11
10.8584
10.8668
10.7607
10.5439
10.2239
9.81116
9.31845
8.75938
8.14772
7.49661
6.81804
6.1226
5.41941
4.71611
4.01913
3.33387
2.665
2.01678
1.39333
0.79887
0.237904
-0.284642
-0.763431
-1.19284
-1.56721
-1.88131
-2.13084
-2.31306
-2.42732
-2.47546
-2.46177
-2.39255
-2.27525
-2.11724
-1.92465
-1.70157
-1.44987
-1.16966
-0.860445
-0.522489
-0.158131
0.227415
0.626037
1.02757
1.42136
1.79809
2.15148
2.47931
2.78366
3.0703
3.34738
3.62391
3.90808
4.20595
4.52067
4.85241
5.19896
5.55698
5.92337
6.29666
6.67787
7.07089
7.48222
7.92019
8.39397
8.91237
9.48276
10.1102
10.7969
11.5423
12.3433
13.1951
14.0918
15.0272
15.9954
16.9902
18.0048
19.0314
20.0596
21.076
22.0631
22.9993
23.859
24.6133
25.2315
25.6832
25.9405
25.9811
25.7898
25.3614
18.2787
18.2934
18.1107
17.7372
17.1869
16.479
15.636
14.6822
13.6419
12.5375
11.3897
10.2161
9.03187
7.84947
6.6792
5.5296
4.40801
3.32107
2.27525
1.27727
0.334465
-0.544958
-1.35191
-2.07658
-2.70888
-3.2392
-3.65943
-3.96412
-4.15164
-4.22504
-4.19219
-4.06503
-3.85783
-3.58471
-3.25721
-2.88244
-2.46268
-1.99639
-1.48053
-0.913503
-0.297921
0.357557
1.03807
1.72422
2.39529
3.03314
3.62562
4.16869
4.66681
5.13154
5.57906
6.02692
6.49088
6.98228
7.5065
8.06281
8.64567
9.2472
9.86015
10.4806
11.1097
11.7544
12.4266
13.142
13.9176
14.7699
15.7124
16.7545
17.9
19.1472
20.4899
21.9188
23.423
24.9918
26.6153
28.2839
29.9879
31.7154
33.4507
35.1724
36.8521
38.4534
39.9323
41.2384
42.3173
43.1144
43.5791
43.6703
43.3602
42.6385
25.9812
26.0038
25.7346
25.1847
24.3765
23.3406
22.1124
20.7293
19.2275
17.6406
15.9979
14.3246
12.6415
10.9653
9.30949
7.68509
6.10129
4.56639
3.08857
1.67654
0.34016
-0.909183
-2.05838
-3.09279
-3.99681
-4.75502
-5.35376
-5.78323
-6.03961
-6.12693
-6.05772
-5.85209
-5.53462
-5.12983
-4.65716
-4.12744
-3.54186
-2.8939
-2.17374
-1.37388
-0.494643
0.45215
1.44246
2.44303
3.41751
4.33395
5.1713
5.92321
6.59839
7.21791
7.81054
8.40701
9.03442
9.71161
10.4464
11.2352
12.0657
12.9212
13.7863
14.6522
15.5193
16.3984
17.3091
18.2771
19.3308
20.4973
21.7987
23.25
24.8564
26.6144
28.5122
30.5336
32.6608
34.8773
37.1695
39.5261
41.9364
44.3873
46.8604
49.3283
51.7528
54.0825
56.2532
58.1893
59.8075
61.0226
61.7543
61.9358
61.5216
60.4941
34.0997
34.1324
33.7606
33.0021
31.8919
30.4767
28.8097
26.9448
24.9335
22.8214
20.6478
18.4451
16.2389
14.0496
11.8926
9.78019
7.72229
5.72776
3.80545
1.96525
0.218928
-1.41915
-2.93164
-4.29819
-5.49613
-6.50184
-7.29322
-7.85293
-8.1724
-8.25556
-8.12109
-7.80157
-7.3386
-6.77415
-6.14077
-5.45444
-4.71245
-3.89702
-2.98341
-1.95036
-0.790491
0.482154
1.83007
3.19735
4.52121
5.74649
6.83781
7.78598
8.6078
9.34066
10.0341
10.7401
11.5037
12.3554
13.3058
14.3451
15.4472
16.5786
17.7087
18.8192
19.9088
20.9939
22.1059
23.2859
24.5787
26.0271
27.6662
29.5185
31.5915
33.8767
36.3532
38.9927
41.7663
44.65
47.6271
50.6871
53.8223
57.0232
60.2731
63.5426
66.7856
69.9361
72.9073
75.5932
77.8736
79.622
80.7169
81.0544
80.5619
79.2097
42.7956
42.8418
42.3416
41.3242
39.8445
37.9738
35.79
33.3697
30.7826
28.0889
25.3379
22.5685
19.8104
17.0855
14.41
11.7954
9.25075
6.78391
4.40299
2.11776
-0.059095
-2.11083
-4.01582
-5.74712
-7.27289
-8.55793
-9.56684
-10.2691
-10.646
-10.6981
-10.4514
-9.95818
-9.28932
-8.51833
-7.7013
-6.86228
-5.98951
-5.0423
-3.96588
-2.71031
-1.24969
0.40272
2.18867
4.01297
5.76561
7.35059
8.70906
9.82928
10.7439
11.5187
12.238
12.9885
13.8446
14.8554
16.0354
17.3625
18.7846
20.2358
21.6574
23.0143
24.3026
25.5487
26.8028
28.1299
29.6001
31.2801
33.2241
35.4668
38.0181
40.8609
43.9567
47.2556
50.7101
54.2851
57.9621
61.7361
65.6098
69.5849
73.6536
77.7909
81.9472
86.0433
89.9675
93.5763
96.7008
99.1576
100.765
101.363
100.835
99.1311
52.2713
52.3352
51.6648
50.3094
48.3578
45.9196
43.109
40.0329
36.7839
33.4376
30.0532
26.6744
23.3326
20.0493
16.8385
13.7088
10.6663
7.71561
4.86212
2.11368
-0.517706
-3.01416
-5.35034
-7.49217
-9.3964
-11.0117
-12.282
-13.1538
-13.5873
-13.571
-13.1369
-12.3677
-11.3872
-10.3289
-9.2936
-8.31891
-7.37398
-6.37388
-5.20658
-3.76581
-1.9854
0.130532
2.49149
4.93113
7.25068
9.28008
10.9225
12.1678
13.0803
13.7759
14.3962
15.0841
15.9619
17.1105
18.552
20.2421
22.0788
23.9344
25.698
27.3067
28.7556
30.0904
31.3932
32.7662
34.318
36.151
38.3499
40.9691
44.0227
47.4787
51.2653
55.292
59.4777
63.7709
68.1545
72.6387
77.2483
82.0085
86.9321
92.0082
97.1918
102.394
107.478
112.253
116.485
119.912
122.263
123.288
122.798
120.704
62.7969
62.8838
61.9723
60.1514
57.5699
54.3999
50.8092
46.9445
42.9249
38.8415
34.7605
30.7274
26.7713
22.9096
19.1508
15.4979
11.9508
8.50858
5.17137
1.94258
-1.16897
-4.14654
-6.96286
-9.57738
-11.934
-13.9601
-15.5689
-16.6676
-17.1739
-17.0432
-16.3027
-15.0793
-13.5948
-12.1045
-10.7965
-9.73062
-8.83584
-7.94422
-6.8391
-5.30838
-3.20226
-0.492523
2.68287
6.02404
9.1553
11.7684
13.7097
14.987
15.7306
16.1432
16.4586
16.9079
17.691
18.9455
20.7126
22.9119
25.3473
27.767
29.9631
31.8307
33.3741
34.6796
35.8838
37.1464
38.6322
40.4965
42.8715
45.847
49.4489
53.621
58.2288
63.0999
68.0908
73.1265
78.2018
83.3607
88.6697
94.1962
99.9902
106.07
112.408
118.916
125.43
131.708
137.428
142.215
145.666
147.391
147.071
144.535
74.7552
74.8677
73.5868
71.0865
67.6273
63.4842
58.902
54.0773
49.1562
44.2409
39.3983
34.669
30.0741
25.6217
21.3108
17.1349
13.0849
9.15106
5.32539
1.60366
-2.01199
-5.50982
-8.86456
-12.0325
-14.9458
-17.5075
-19.5886
-21.0327
-21.6761
-21.3917
-20.1621
-18.1652
-15.8089
-13.6158
-11.9491
-10.8943
-10.2915
-9.8205
-9.08304
-7.67814
-5.28698
-1.78478
2.63682
7.42039
11.8072
15.2252
17.454
18.5759
18.8581
18.6515
18.329
18.2519
18.7424
20.0431
22.2515
25.2428
28.6389
31.9224
34.7015
36.8224
38.3356
39.4152
40.2905
41.2056
42.4014
44.107
46.5285
49.8231
54.0539
59.1359
64.8129
70.7349
76.6387
82.4241
88.1279
93.8649
99.7763
105.997
112.635
119.758
127.377
135.424
143.722
151.963
159.711
166.438
171.553
174.437
174.531
171.489
88.7298
88.8547
86.9543
83.3995
78.6667
73.1975
67.3407
61.3451
55.3752
49.5314
43.8691
38.4132
33.1683
28.1269
23.2733
18.5878
14.0489
9.63526
5.3274
1.10978
-3.02669
-7.08101
-11.037
-14.8557
-18.4655
-21.7485
-24.5266
-26.5519
-27.5154
-27.1023
-25.1278
-21.7698
-17.7893
-14.3706
-12.222
-11.4086
-11.5593
-12.0821
-12.2899
-11.4701
-8.97373
-4.40329
2.06712
9.38549
15.8512
20.3916
22.7891
23.371
22.6865
21.3232
19.8426
18.775
18.6234
19.8299
22.6595
26.987
32.0889
36.8001
40.3837
42.6848
43.9171
44.4407
44.6355
44.856
45.4317
46.6819
48.9235
52.4458
57.4279
63.7884
71.0387
78.39
85.351
91.833
97.9997
104.111
110.431
117.189
124.573
132.723
141.722
151.562
162.087
172.919
183.453
192.972
200.642
205.489
206.496
202.895
105.7
105.754
102.699
97.4039
90.762
83.4653
75.9761
68.5736
61.4106
54.5589
48.0413
41.8519
35.9686
30.3606
24.9929
19.8291
14.8323
9.96709
5.19962
0.499363
-4.15915
-8.79313
-13.4061
-17.9789
-22.4545
-26.7151
-30.5474
-33.5984
-35.3356
-35.0597
-32.0841
-26.2694
-18.9594
-13.2956
-10.5715
-10.534
-12.2903
-14.7965
-16.9757
-17.6752
-15.6462
-9.75698
0.276881
12.5787
22.6675
28.6433
30.738
29.9892
27.4918
24.1638
20.7615
17.979
16.549
17.2793
20.9106
27.6157
36.101
43.3007
47.9119
50.0852
50.5179
49.9386
48.9425
47.9942
47.4896
47.8282
49.473
52.965
58.816
67.1577
77.1173
86.6046
94.7505
101.693
107.948
114.053
120.45
127.477
135.404
144.461
154.85
166.711
180.003
194.298
208.652
222.163
233.787
242.063
245.087
241
127.544
127.123
121.665
113.343
103.796
94.0062
84.483
75.4543
66.9952
59.1033
51.7394
44.8487
38.3715
32.2475
26.4188
20.8295
15.4265
10.1584
4.97552
-0.17046
-5.32601
-10.5344
-15.8319
-21.2404
-26.7515
-32.2967
-37.6912
-42.5344
-46.0523
-46.9023
-43.1264
-32.9206
-17.7575
-7.98629
-5.05119
-7.0749
-11.9403
-17.9805
-23.7907
-27.808
-27.8757
-21.0777
-4.77831
18.959
35.4065
42.4835
42.7815
39.1253
33.493
27.1112
20.7882
15.2357
11.3641
10.5521
14.7355
25.6811
41.964
53.5284
58.9497
59.9916
58.5752
56.0359
53.1798
50.4929
48.3329
47.0929
47.3622
50.0867
56.6163
68.1958
83.8743
96.7487
105.881
112.54
118.109
123.574
129.558
136.465
144.603
154.277
165.856
179.793
196.469
215.586
235.058
254.064
271.743
286.193
293.91
290.102
158.612
155.739
144.753
131.039
117.175
104.159
92.2738
81.5106
71.759
62.8836
54.7526
47.2473
40.2628
33.7069
27.4975
21.5599
15.8247
10.2256
4.69704
-0.827479
-6.41759
-12.1477
-18.0982
-24.3541
-30.9991
-38.0949
-45.628
-53.378
-60.6099
-65.4052
-63.4267
-46.7102
-8.79124
7.16638
7.60907
0.475542
-9.89901
-21.4959
-33.1874
-43.6281
-49.9921
-46.0805
-20.5451
35.8346
61.6368
66.0829
60.5161
51.1047
40.571
29.9718
19.7035
10.0702
1.77154
-3.37009
-1.17893
16.0586
54.6186
72.599
76.2904
73.4346
68.2459
62.5862
57.1702
52.2295
47.8483
44.1812
41.7125
41.726
47.1414
63.3272
94.6648
112.277
120.567
124.949
128.414
132.34
137.33
143.674
151.584
161.341
173.458
188.921
209.411
236.352
262.123
287.866
314.338
340.005
359.314
360.127
211.83
196.03
171.761
148.946
129.326
112.679
98.4447
86.1068
75.2585
65.5896
56.863
48.8941
41.5356
34.6664
28.1841
21.9983
16.0269
10.1913
4.41314
-1.38944
-7.30669
-13.4427
-19.9232
-26.9059
-34.5956
-43.261
-53.2499
-64.9649
-78.6729
-93.6588
-104.946
-91.0288
31.8004
44.6608
31.1793
12.6935
-6.09669
-24.8734
-44.3835
-65.3161
-86.9025
-102.219
-80.7262
96.7411
118.618
104.099
83.7853
64.6987
47.7427
32.3556
17.7047
2.9835
-12.3662
-27.8504
-38.7591
-24.2678
96.9067
112.244
103.057
90.235
78.5933
68.7843
60.4752
53.1595
46.3348
39.5432
32.488
25.5862
22.1563
36.6388
125.217
141.225
140.876
138.677
138.052
139.569
143.148
148.625
155.902
165.001
176.234
190.805
213.057
258.794
289.217
320.609
358.08
402.961
451.342
480.522
336.916
248.508
196.667
162.247
137.189
117.72
101.88
88.5536
77.0557
66.9354
57.8794
49.6595
42.1015
35.0671
28.4419
22.1269
16.0324
10.0733
4.16397
-1.78654
-7.88076
-14.2414
-21.0242
-28.439
-36.7856
-46.5199
-58.3839
-73.6795
-94.8926
-127.234
-182.757
-292.177
230.745
120.085
61.9543
25.3487
-2.31392
-27.1942
-53.5299
-86.0604
-132.839
-211.358
-365.508
381.694
228.004
150.457
105.283
75.2221
52.6528
33.6778
15.8061
-3.19854
-26.3102
-58.9184
-112.914
-218.217
291.597
187.199
135.054
105.332
86.2982
72.8193
62.3473
53.3802
44.7716
35.2829
23.0414
4.44588
-28.6238
-96.7497
260.268
193.72
163.843
150.134
144.597
143.824
146.225
150.979
157.587
165.582
174.199
181.619
182.877
303.278
314.904
344.587
391.137
460.859
571.002
764.452
5001.06
4731.27
4445.58
4144.92
3830.37
3503.11
3164.37
2815.45
2457.62
2092.16
1720.32
1343.31
962.321
578.514
193.024
24.6345
23.5304
22.1583
20.5723
18.8306
16.9894
15.0977
13.1948
11.3093
9.4595
7.65439
5.89536
4.17785
2.49289
0.828601
41.4012
39.5139
37.1673
34.4594
31.4945
28.3714
25.175
21.9719
18.8093
15.7163
12.7062
9.77957
6.92697
4.13191
1.37316
58.7034
55.9544
52.5354
48.6016
44.3151
39.8254
35.258
30.7077
26.2393
21.89
17.6747
13.5898
9.61859
5.73462
1.90533
76.7976
73.0616
68.4151
63.0937
57.3361
51.3551
45.3218
39.36
33.5488
27.9293
22.5124
17.2864
12.2229
7.28267
2.4189
95.9919
91.0751
84.9661
78.0187
70.5772
62.9342
55.3115
47.8593
40.6647
33.7646
27.1585
20.8199
14.7041
8.75421
2.90656
116.675
110.278
102.352
93.4346
84.0172
74.4905
65.1283
56.0986
47.4837
39.3036
31.5358
24.1302
17.0188
10.1235
3.35976
139.357
131.006
120.729
109.348
97.5643
85.8806
74.6115
63.9213
53.8655
44.4281
35.5494
27.145
19.1171
11.361
3.76873
164.735
153.659
140.204
125.662
111.008
96.8531
83.5144
71.1087
59.6276
48.9919
39.0868
29.7821
20.9428
12.4342
4.12286
193.811
178.68
160.758
142.082
123.946
107.003
91.4804
77.3692
64.5425
52.8234
42.0223
31.9525
22.4372
13.3096
4.41127
228.1
206.487
182.058
157.957
135.688
115.727
98.0302
82.3419
68.3469
55.7349
44.2245
33.567
23.5429
13.9555
4.62374
269.921
237.104
203.028
171.993
145.118
122.184
102.568
85.6185
70.7656
57.5425
45.572
34.5468
24.2112
14.3451
4.75184
322.532
268.967
220.946
181.863
150.601
125.316
104.437
86.7955
71.5517
58.095
45.9721
34.8358
24.4092
14.4613
4.79025
387.683
295.276
229.915
183.906
150.101
124.037
103.062
85.5721
70.5482
57.3111
45.3836
34.4137
24.1275
14.3004
4.73794
443.949
294.53
219.523
173.737
141.857
117.662
98.1996
81.8795
67.7552
55.215
43.8358
33.3068
23.3859
13.8744
4.59902
3.72242
11.1761
18.6556
26.1754
33.7462
41.3732
49.055
56.7854
64.5627
72.4165
80.4806
89.1754
99.6521
114.893
142.446
3.84686
11.5478
19.2689
27.0185
34.796
42.5861
50.3499
58.0118
65.4396
72.4143
78.5799
83.3283
85.3982
81.1036
55.959
3.9662
11.9052
19.862
27.8415
35.836
43.8159
51.714
59.3991
66.6293
72.9717
77.6603
79.3384
75.5624
61.7901
29.73
4.08086
12.2499
20.4388
28.6532
36.8849
45.101
53.2245
61.1006
68.4337
74.6754
78.8285
79.1337
72.666
55.1748
22.5276
4.19035
12.5806
20.9975
29.4521
37.9436
46.4488
54.9052
63.1774
70.9941
77.8272
82.6665
83.6304
77.4217
59.083
23.9412
4.29314
12.8924
21.5293
30.2246
38.9915
47.8292
56.7122
65.5686
74.2352
82.361
89.1934
93.1055
90.5989
74.6582
34.2015
4.38686
13.1778
22.0199
30.9465
39.989
49.1767
58.5362
68.0899
77.8496
87.79
97.7465
107.035
113.103
107.256
63.8678
4.46854
13.4273
22.4515
31.587
40.8843
50.4032
60.2237
70.4665
81.3362
93.2046
106.761
123.197
143.878
165.922
152.107
4.53512
13.631
22.8051
32.1143
41.6243
51.4188
61.6162
72.4061
84.127
97.4435
113.774
136.408
173.701
249.485
442.008
4.58379
13.7801
23.0644
32.5012
42.1655
52.1528
62.5952
73.6971
85.8077
99.5862
116.406
139.435
176.79
251.971
443.012
4.61237
13.8679
23.2174
32.7291
42.4813
52.5689
63.1143
74.2857
86.3277
99.6134
114.724
132.509
153.605
173.992
155.488
4.61949
13.8901
23.257
32.7892
42.5631
52.6655
63.1967
74.2675
85.9818
98.37
111.182
123.28
130.907
123.015
71.0647
4.60451
13.8451
23.1814
32.6807
42.4154
52.4629
62.9024
73.8002
85.1656
96.8294
108.132
117.152
118.983
102.632
49.2633
4.5675
13.7332
22.9918
32.408
42.0493
51.9865
62.288
73.0062
84.1396
95.5373
106.663
116.014
119.682
107.952
58.8202
4.50906
13.5565
22.6924
31.9779
41.4767
51.2556
61.3823
71.9217
82.9277
94.431
106.424
118.819
131.071
139.243
115.951
4.43016
13.3179
22.2884
31.3987
40.7085
50.2817
60.1883
70.5112
81.3681
92.9818
105.904
121.718
145.291
192.379
317.945
4.33211
13.0215
21.7867
30.68
39.7563
49.0749
58.7035
68.728
79.2808
90.6212
103.372
119.227
143.175
191.013
317.521
4.2165
12.672
21.1955
29.8334
38.6346
47.6514
56.9421
66.5761
76.6444
87.2786
98.6807
111.113
124.466
135.008
114.744
4.08515
12.2751
20.5241
28.8726
37.3621
46.0362
54.9405
64.1209
73.6128
83.4002
93.2714
102.356
107.707
100.392
57.2581
3.94008
11.8368
19.7833
27.8131
35.9604
44.2598
52.7456
61.4475
70.3742
79.4611
88.4059
96.1888
99.7401
90.6472
49.3419
3.7834
11.3636
18.984
26.6712
34.4519
42.3525
50.3991
58.6161
67.0225
75.6183
84.3447
92.9578
100.551
103.27
81.2706
3.61733
10.8623
18.1378
25.4638
32.8593
40.3428
47.9327
55.6515
63.5374
71.6827
80.3598
90.4321
104.745
133.054
210.796
3.44404
10.3394
17.2561
24.2073
31.2047
38.2579
45.3755
52.5694
59.8701
67.3758
75.4038
84.959
99.2151
128.508
208.868
3.26564
9.80136
16.3499
22.9182
29.5104
36.1272
42.764
49.4117
56.0589
62.7041
69.3852
76.2189
83.2405
88.495
74.6287
3.08407
9.25418
15.4296
21.6117
27.7983
33.9814
40.1438
46.253
52.2475
58.0055
63.2586
67.3461
68.4907
61.7577
34.4089
2.90105
8.70308
14.5042
20.3015
26.0877
31.8489
37.5595
43.1725
48.599
53.6559
57.9397
60.5151
59.2095
49.3352
22.9862
2.71799
8.15237
13.5812
18.9984
24.3938
29.7507
35.0416
40.2204
45.2057
49.8416
53.8055
56.3776
55.877
48.352
25.1901
2.53599
7.60529
12.6659
17.7099
22.7258
27.6973
32.6005
37.4016
42.0535
46.4926
50.6363
54.3721
57.421
58.2261
46.295
2.35579
7.06404
11.7618
16.4403
21.0882
25.6906
30.2294
34.6853
39.0478
43.3472
47.7491
52.8417
60.5216
76.943
123.411
2.17783
6.52989
10.8707
15.1915
19.4814
23.7273
27.915
32.0327
36.0849
40.1291
44.3808
49.5129
57.5498
74.7916
122.6
2.00231
6.00336
9.99332
13.9637
17.9045
21.8038
25.6482
29.4248
33.1266
36.7656
40.3998
44.1654
48.1839
51.4111
43.664
1.82923
5.48436
9.12921
12.7561
16.3559
19.9177
23.4278
26.868
30.2108
33.4043
36.3263
38.6409
39.3661
35.65
19.9913
1.65842
4.97234
8.27733
11.5668
14.8331
18.0669
21.2552
24.378
27.3977
30.2306
32.6735
34.2188
33.6313
28.1813
13.2095
1.48958
4.46638
7.436
10.3933
13.3326
16.2469
19.1273
21.959
24.7135
27.3266
29.643
31.2768
31.2722
27.3241
14.3766
1.32234
3.96528
6.603
9.232
11.8488
14.4501
17.0326
19.5927
22.1266
24.6279
27.0855
29.4715
31.6506
32.7156
26.5193
1.15627
3.46769
5.77584
8.07886
10.3755
12.6659
14.9527
17.2442
19.5615
21.9585
24.5769
27.8089
32.8016
43.1486
71.1905
0.990944
2.97227
4.95206
6.92985
8.90624
10.8838
12.8692
14.8771
16.9405
19.1347
21.6414
24.9226
30.2331
41.292
70.4905
0.825977
2.47782
4.1295
5.78158
7.43578
9.09592
10.7695
12.4711
14.228
16.0932
18.1672
20.6263
23.6716
26.8372
24.2502
0.661065
1.9834
3.30653
4.63162
5.96091
7.29829
8.6501
10.0261
11.4398
12.9059
14.4251
15.922
17.0257
16.3762
9.89343
0.495991
1.48836
2.48207
3.47858
4.48019
5.49031
6.5135
7.55451
8.61472
9.68133
10.6979
11.49
11.5967
9.96554
4.77523
0.330628
0.992345
1.65559
2.32186
2.99336
3.67302
4.36423
5.06925
5.78483
6.49105
7.12597
7.53358
7.37398
6.02601
2.68466
0.164933
0.495225
0.826924
1.16142
1.5007
1.84752
2.20513
2.57639
2.96113
3.34993
3.71152
3.97055
3.97606
3.47032
2.00217
-0.00106576
-0.00290281
-0.00372893
-0.00243907
0.00271513
0.0143819
0.0363759
0.073979
0.134355
0.227388
0.368009
0.58315
0.932723
1.58247
3.08049
-0.167274
-0.501748
-0.83588
-1.16902
-1.49986
-1.82601
-2.14331
-2.44435
-2.71524
-2.92842
-3.02745
-2.89793
-2.31949
-0.895085
2.09788
-0.333532
-1.00083
-1.66872
-2.33722
-3.00572
-3.67259
-4.33431
-4.98364
-5.60497
-6.1636
-6.58175
-6.69097
-6.15948
-4.46249
-1.27221
-0.499621
-1.49948
-2.50112
-3.5054
-4.51271
-5.52272
-6.5339
-7.54232
-8.5382
-9.49636
-10.3506
-10.929
-10.809
-9.06716
-4.1941
-0.665267
-1.99688
-3.33164
-4.67141
-6.01774
-7.37195
-8.73532
-10.1096
-11.4975
-12.9012
-14.3109
-15.6519
-16.5847
-15.8462
-9.5571
-0.830152
-2.49204
-4.1586
-5.83275
-7.51719
-9.21469
-10.929
-12.6672
-14.4455
-16.3016
-18.3186
-20.6581
-23.5208
-26.4797
-23.8262
-0.993917
-2.98389
-4.98021
-6.98682
-9.00739
-11.0455
-13.1058
-15.1968
-17.3393
-19.5898
-22.1021
-25.3003
-30.3896
-41.0099
-69.344
-1.15617
-3.47127
-5.79454
-8.13101
-10.4852
-12.8608
-15.261
-17.6901
-20.1577
-22.6958
-25.4085
-28.6288
-33.4166
-43.2378
-70.1945
-1.31648
-3.95289
-6.59955
-9.26272
-11.9478
-14.6585
-17.3959
-20.1561
-22.9267
-25.68
-28.3618
-30.8679
-32.9475
-33.5648
-26.6022
-1.47434
-4.4273
-7.39291
-10.379
-13.3923
-16.4373
-19.5143
-22.6143
-25.7071
-28.7132
-31.4362
-33.4025
-33.493
-29.1546
-15.1217
-1.62921
-4.89281
-8.17185
-11.4761
-14.8143
-18.1934
-21.6164
-25.0769
-28.5469
-31.9422
-35.0353
-37.2388
-37.1131
-31.4759
-14.898
-1.78042
-5.34747
-8.93307
-12.5493
-16.2076
-19.9186
-23.6916
-27.5323
-31.4379
-35.3801
-39.2511
-42.6916
-44.5594
-41.3939
-23.8532
-1.92727
-5.78911
-9.6728
-13.5928
-17.5637
-21.6003
-25.7191
-29.9417
-34.3025
-38.8665
-43.7648
-49.2352
-55.4999
-61.2935
-53.7561
-2.069
-6.2154
-10.387
-14.6007
-18.8737
-23.2242
-27.6739
-32.2544
-37.0248
-42.1196
-47.88
-55.2255
-66.7658
-90.449
-153.084
-2.20483
-6.624
-11.0717
-15.567
-20.1293
-24.7785
-29.5369
-34.4342
-39.5207
-44.9092
-50.8931
-58.3012
-69.597
-92.5516
-153.891
-2.334
-7.01259
-11.723
-16.4864
-21.3239
-26.2561
-31.3028
-36.4814
-41.8059
-47.284
-52.9156
-58.6753
-64.3297
-67.9955
-56.3959
-2.45573
-7.3789
-12.3372
-17.3539
-22.4521
-27.6535
-32.976
-38.4264
-43.983
-49.5507
-54.8475
-59.1207
-60.4413
-54.0382
-29.1717
-2.56928
-7.72062
-12.9104
-18.1642
-23.5079
-28.966
-34.5594
-40.2964
-46.1512
-52.0039
-57.4885
-61.6149
-61.9147
-52.9011
-25.1945
-2.67388
-8.03547
-13.4386
-18.9117
-24.4835
-30.1837
-36.0418
-42.0834
-48.3193
-54.7112
-61.071
-66.7645
-69.8537
-64.7438
-36.9681
-2.76882
-8.32119
-13.918
-19.5899
-25.3692
-31.2909
-37.3957
-43.7342
-50.3776
-57.4391
-65.1143
-73.7207
-83.4845
-92.3245
-80.7964
-2.85344
-8.5758
-14.3449
-20.1931
-26.1551
-32.27
-38.5861
-45.1719
-52.144
-59.7391
-68.5091
-79.8706
-97.7543
-134.047
-228.834
-2.92725
-8.7977
-14.7164
-20.7166
-26.834
-33.1084
-39.5881
-46.3401
-53.4761
-61.2212
-70.1021
-81.4887
-99.237
-135.144
-229.254
-2.98989
-8.98587
-15.0307
-21.1581
-27.403
-33.8031
-40.3996
-47.2401
-54.3837
-61.9125
-69.953
-78.6865
-88.1066
-95.8184
-82.1687
-3.04119
-9.13983
-15.2874
-21.5173
-27.8635
-34.3603
-41.0404
-47.9282
-55.0221
-62.2465
-69.3203
-75.4051
-78.1599
-71.324
-39.7253
-3.08113
-9.25953
-15.4865
-21.795
-28.2184
-34.7892
-41.5357
-48.4716
-55.5683
-62.683
-69.3722
-74.4338
-74.8709
-64.0239
-30.5111
-3.10977
-9.3452
-15.6285
-21.9924
-28.47
-35.0949
-41.898
-48.9016
-56.1003
-63.413
-70.5521
-76.6717
-79.4156
-72.462
-40.3995
-3.12729
-9.39734
-15.7142
-22.11
-28.6185
-35.2756
-42.1199
-49.1946
-56.5514
-64.2614
-72.4377
-81.2512
-90.692
-98.3345
-84.1316
-3.13396
-9.41672
-15.7445
-22.1486
-28.6629
-35.3251
-42.1804
-49.2901
-56.7554
-64.7838
-73.8787
-85.3923
-103.214
-139.374
-234.847
-3.13022
-9.40459
-15.7212
-22.11
-28.6036
-35.2393
-42.0628
-49.137
-56.5664
-64.5633
-73.6377
-85.1498
-102.998
-139.22
-234.79
-3.11672
-9.36282
-15.6474
-21.9979
-28.4447
-35.022
-41.7697
-48.7358
-55.9815
-63.5924
-71.7014
-80.5041
-90.0196
-97.8482
-83.948
-3.09435
-9.29405
-15.5273
-21.8183
-28.1942
-34.6851
-41.3235
-48.1389
-55.1413
-62.2733
-69.2809
-75.3608
-78.2094
-71.5621
-40.0449
-3.06426
-9.20171
-15.3666
-21.5791
-27.8629
-34.2445
-40.7529
-47.4106
-54.2092
-61.0385
-67.5021
-72.4591
-72.9909
-62.5443
-29.8714
-3.02788
-9.09006
-15.1722
-21.2899
-27.4626
-33.7148
-40.0771
-46.5828
-53.2539
-60.0557
-66.7673
-72.6279
-75.3939
-68.9592
-38.4955
-2.98696
-8.9643
-14.9526
-20.9617
-27.0061
-33.1075
-39.3004
-45.6386
-52.2059
-59.1333
-66.6213
-74.943
-84.1835
-92.0586
-79.4288
-2.94357
-8.83064
-14.7181
-20.6085
-26.509
-32.4356
-38.4216
-44.5336
-50.9062
-57.8195
-65.894
-76.6174
-93.9183
-129.394
-221.906
-2.90015
-8.69643
-14.481
-20.2476
-25.9929
-31.7214
-37.4539
-43.2462
-49.2291
-55.6974
-63.325
-73.7213
-91.0281
-127.116
-221.001
-2.85941
-8.57008
-14.2561
-19.9007
-25.4875
-31.0033
-36.4434
-41.8252
-47.2132
-52.7682
-58.8311
-66.0236
-75.0922
-84.6977
-76.4076
-2.82427
-8.46059
-14.0594
-19.5932
-25.0307
-30.3366
-35.4722
-40.3985
-45.0798
-49.4843
-53.5508
-57.0208
-58.7806
-54.7036
-32.1763
-2.79752
-8.37687
-13.9076
-19.352
-24.6644
-29.787
-34.6452
-39.1405
-43.1374
-46.4332
-48.6828
-49.2035
-46.5202
-37.5203
-16.989
-2.7816
-8.32668
-13.8152
-19.2019
-24.4291
-29.42
-34.0691
-38.2274
-41.6802
-44.1073
-45.0136
-43.6097
-38.6446
-28.3434
-11.1393
-2.77818
-8.31553
-13.7931
-19.1618
-24.3571
-29.2896
-33.8325
-37.8029
-40.9339
-42.8359
-42.9471
-40.4874
-34.4733
-23.9593
-8.81317
-2.78788
-8.34562
-13.8463
-19.2417
-24.4667
-29.4286
-33.9926
-37.9602
-41.0396
-42.8066
-42.6646
-39.8319
-33.426
-22.791
-8.20912
-2.81004
-8.41507
-13.9722
-19.4394
-24.7583
-29.8431
-34.5657
-38.7331
-42.0553
-44.1013
-44.2495
-41.6563
-35.3144
-24.3628
-8.88006
-2.84256
-8.5176
-14.16
-19.7395
-25.2116
-30.5082
-35.5233
-40.0919
-43.9559
-46.7125
-47.7368
-46.0826
-40.4028
-29.0804
-11.1323
-2.88201
-8.64258
-14.3911
-20.1136
-25.7862
-31.3677
-36.7898
-41.9385
-46.6242
-50.5251
-53.0828
-53.3031
-49.4083
-38.3984
-16.3818
-2.92379
-8.7757
-14.6399
-20.5219
-26.4231
-32.337
-38.2449
-44.1054
-49.8358
-55.269
-60.0501
-63.3798
-63.3534
-55.3583
-29.0943
-2.96249
-8.90009
-14.8758
-20.9164
-27.0503
-33.3096
-39.7315
-46.3611
-53.2524
-60.4638
-68.0237
-75.785
-82.8306
-85.0027
-63.976
-2.99237
-8.99778
-15.0665
-21.2455
-27.5898
-34.1682
-41.0726
-48.4333
-56.445
-65.4149
-75.8555
-88.6844
-105.69
-130.754
-173.109
313.038
233.694
185.701
152.686
127.78
107.798
91.0723
76.6295
63.8496
52.3078
41.6955
31.7763
22.3594
13.2838
4.40626
114.429
149.272
142.279
126.981
111.077
96.2746
82.8107
70.5632
59.3378
48.9445
39.2135
29.9966
21.1628
12.594
4.18089
50.5522
93.8966
104.622
101.693
93.6066
83.8189
73.7022
63.785
54.2467
45.1198
36.3734
27.9501
19.7816
11.7959
3.91977
26.785
61.1709
76.4446
79.9833
77.315
71.5893
64.4533
56.7418
48.8685
41.0297
33.3081
25.726
18.273
10.9213
3.63319
16.3395
41.7158
56.4143
62.5819
63.1445
60.3371
55.6024
49.8095
43.4649
36.857
30.145
23.4115
16.6938
10.0022
3.33146
10.965
29.6745
42.3065
49.0713
51.3126
50.4216
47.4847
43.2589
38.243
32.7557
26.9961
21.0856
15.0961
9.06831
3.02423
7.82668
21.8529
32.2721
38.7007
41.6547
41.9256
40.2608
37.2557
33.3474
28.8427
23.9512
18.8139
13.5245
8.14557
2.71999
5.81805
16.5357
25.0079
30.7419
33.8588
34.7728
33.9666
31.8787
28.865
25.1974
21.0765
16.6474
12.0149
7.25501
2.42568
4.4471
12.7773
19.6447
24.5998
27.5916
28.8136
28.5615
27.1437
24.8359
21.8663
18.4152
14.6219
10.5933
6.41251
2.14663
3.4677
10.0344
15.609
19.8202
22.5529
23.8772
23.9652
23.0259
21.2658
18.8691
15.9911
12.7594
9.27708
5.62897
1.88652
2.74426
7.98011
12.5197
16.067
18.4916
19.7988
20.0816
19.4776
18.1373
16.2055
13.8124
11.0704
8.07582
4.91081
1.64762
2.19624
6.40914
10.1191
13.0928
15.2058
16.4311
16.8133
16.44
15.419
13.8619
11.8754
9.55674
6.99269
4.26068
1.43092
1.77285
5.18724
8.22958
10.7161
12.5359
13.6484
14.0691
13.8519
13.0726
11.8161
10.1688
8.21319
6.026
3.67834
1.23646
1.4406
4.22357
6.72578
8.80203
10.3569
11.3458
11.7676
11.6538
11.057
10.0415
8.67616
7.0302
5.1706
3.16132
1.06353
1.17654
3.45474
5.5176
7.24979
8.57067
9.43666
9.83778
9.79087
9.33203
8.5095
7.37812
5.99538
4.41899
2.70569
0.910909
0.964421
2.83536
4.53891
5.98296
7.10008
7.8501
8.21877
8.2137
7.85932
7.19174
6.25443
5.09487
3.76235
2.30657
0.777034
0.792486
2.33215
3.74029
4.94301
5.88423
6.52817
6.85907
6.87889
6.60391
6.06111
5.2849
4.31434
3.1912
1.95859
0.660178
0.651995
1.92021
3.08423
4.08453
4.87466
5.42344
5.71523
5.74862
5.53429
5.09242
4.45019
3.63966
2.69599
1.65625
0.558541
0.536334
1.58056
2.54177
3.37189
4.03256
4.49704
4.75066
4.79022
4.62253
4.26271
3.73224
3.05733
2.26742
1.39413
0.470342
0.440408
1.29853
2.09029
2.77683
3.32661
3.71695
3.93463
3.9756
3.84408
3.55139
3.1145
2.55476
1.8967
1.16702
0.393866
0.360225
1.06256
1.71182
2.27666
2.73128
3.05667
3.24122
3.28064
3.17745
2.9401
2.58199
2.12041
1.57565
0.97008
0.327501
0.292613
0.863422
1.39193
1.85298
2.22561
2.49411
2.64849
2.68464
2.6039
2.4126
2.12125
1.74378
1.29678
0.798811
0.269753
0.235004
0.693635
1.11885
1.49064
1.7922
2.01071
2.13781
2.16972
2.10706
1.95452
1.72025
1.41537
1.05327
0.649112
0.219252
0.185289
0.547038
0.882824
1.17703
1.41642
1.59075
1.69317
1.7204
1.67258
1.55312
1.36825
1.12665
0.838935
0.517242
0.174748
0.141699
0.418454
0.675651
0.901464
1.08578
1.22067
1.30071
1.32314
1.28782
1.1971
1.05562
0.869916
0.648174
0.399802
0.135101
0.10272
0.30344
0.490251
0.654686
0.789425
0.888635
0.948219
0.965942
0.941471
0.876307
0.773648
0.638188
0.475885
0.293689
0.0992706
0.0670137
0.198076
0.320375
0.42851
0.517718
0.584095