/*--------------------------------*- C++ -*----------------------------------*\
| =========                 |                                                 |
| \\      /  F ield         | OpenFOAM: The Open Source CFD Toolbox           |
|  \\    /   O peration     | Version:  5.x                                   |
|   \\  /    A nd           | Web:      www.OpenFOAM.org                      |
|    \\/     M anipulation  |                                                 |
\*---------------------------------------------------------------------------*/
FoamFile
{
    version     2.0;
    format      ascii;
    class       volScalarField;
    location    "9.8";
    object      T;
}
// * * * * * * * * * * * * * * * * * * * * * * * * * * * * * * * * * * * * * //

dimensions      [0 0 0 1 0 0 0];

internalField   nonuniform List<scalar> 
6300
(
10.9827
12.9453
14.8992
16.8387
18.7578
20.6508
22.5118
24.3352
26.1152
27.8463
29.5232
31.141
32.6952
34.1821
35.5988
10.9856
12.9539
14.9135
16.8586
18.7835
20.6822
22.549
24.3779
26.1634
27.8996
29.5814
31.2035
32.7615
34.2513
35.6699
10.9913
12.971
14.942
16.8986
18.8349
20.7451
22.6233
24.4635
26.2599
28.0067
29.6983
31.3293
32.8948
34.3906
35.8132
10.9998
12.9966
14.9847
16.9585
18.9121
20.8395
22.7349
24.5922
26.4053
28.1682
29.8748
31.5195
33.0967
34.6018
36.0308
11.0112
13.0307
15.0416
17.0383
19.0149
20.9655
22.884
24.7644
26.6002
28.385
30.1125
31.7761
33.3697
34.8879
36.326
11.0253
13.0731
15.1125
17.1378
19.1433
21.123
23.0708
24.9804
26.8452
28.6585
30.413
32.1016
33.7171
35.2529
36.7033
11.0422
13.1239
15.1973
17.2569
19.297
21.3118
23.2951
25.2405
27.1411
28.9897
30.7785
32.4991
34.1431
35.7022
37.1689
11.0618
13.1827
15.2956
17.3951
19.4757
21.5316
23.5567
25.5446
27.4883
29.38
31.2111
32.9722
34.6529
36.2425
37.7312
11.084
13.2494
15.4071
17.552
19.6786
21.7816
23.8549
25.8922
27.8866
29.8299
31.7129
33.5246
35.2525
36.8827
38.401
11.1087
13.3236
15.5312
17.7266
19.9049
22.0606
24.1884
26.2821
28.335
30.3392
32.2848
34.1598
35.9488
37.6333
39.193
11.1357
13.4049
15.6673
17.9182
20.1531
22.3671
24.5552
26.7121
28.8314
30.906
32.9264
34.8797
36.7483
38.5076
40.127
11.165
13.4929
15.8144
18.1255
20.4217
22.6989
24.9527
27.1787
29.3718
31.5261
33.6339
35.6833
37.6557
39.5204
41.2313
11.1963
13.587
15.9719
18.3471
20.7088
23.0534
25.3774
27.6773
29.9499
32.1918
34.3986
36.5629
38.6694
40.6858
42.5461
11.2296
13.6869
16.1388
18.5818
21.0126
23.4281
25.8253
28.2024
30.5578
32.8916
35.2048
37.4988
39.7719
42.0057
44.1282
11.2645
13.7919
16.3143
18.8284
21.3313
23.8202
26.2929
28.7482
31.1865
33.6109
36.0288
38.4546
40.9123
43.4353
46.0322
36.831
37.9003
38.9187
39.8866
40.8049
41.675
42.4989
43.2788
44.0171
44.7167
45.3805
46.0117
46.6134
47.1888
47.7411
48.2736
48.7894
49.2915
49.783
50.2667
50.7453
51.2214
51.6974
52.1754
52.6575
53.1454
53.6404
54.1438
54.6562
55.1784
55.7104
56.2522
56.8035
57.3637
57.9322
58.5079
59.0899
59.677
60.2679
60.8611
61.455
62.048
62.6383
63.2239
63.8032
64.3742
64.9352
65.4846
66.0208
66.5423
67.0479
67.5362
68.006
68.4557
68.8842
69.2898
69.671
70.0263
70.354
70.6523
70.9196
71.154
71.3538
71.5169
71.6413
71.7249
71.7652
71.7595
71.7049
71.5983
71.4362
71.2149
70.9305
70.5789
70.1558
69.6566
69.0769
68.4119
67.6569
66.8073
65.8584
64.8057
63.645
62.3723
60.9842
59.4781
57.8519
56.1046
54.2359
52.2469
36.903
37.9724
38.9901
39.9565
40.8727
41.7402
42.5608
43.337
44.0713
44.7666
45.4259
46.0525
46.6495
47.2202
47.768
48.2959
48.8072
49.3051
49.7924
50.2721
50.747
51.2196
51.6925
52.1677
52.6473
53.1331
53.6264
54.1286
54.6403
55.1621
55.6942
56.2364
56.7885
57.3497
57.9195
58.4967
59.0804
59.6694
60.2623
60.8577
61.4541
62.0496
62.6425
63.2308
63.8126
64.3861
64.9495
65.5011
66.0393
66.5628
67.0703
67.5604
68.0321
68.4838
68.9144
69.3222
69.7057
70.0634
70.3935
70.6944
70.9642
71.2013
71.4038
71.5698
71.6975
71.7845
71.8286
71.8271
71.7771
71.6754
71.5187
71.3031
71.0246
70.6792
70.2625
69.7699
69.1969
68.5388
67.7906
66.9478
66.0054
64.9588
63.8037
62.5359
61.1519
59.6488
58.0242
56.2771
54.4071
52.4153
37.0482
38.1177
39.1339
40.0974
41.0093
41.8712
42.6853
43.454
44.1801
44.8666
45.5169
46.1342
46.7218
47.2831
47.8215
48.3403
48.8427
49.3319
49.8109
50.2827
50.7501
51.2157
51.6821
52.1516
52.6262
53.1078
53.5978
54.0975
54.6077
55.1289
55.6611
56.2043
56.758
57.3214
57.8937
58.4739
59.0609
59.6537
60.2507
60.8506
61.4519
62.0526
62.6508
63.2445
63.8316
64.4102
64.9782
65.5342
66.0764
66.6037
67.1149
67.6087
68.0841
68.5398
68.9746
69.3868
69.775
70.1375
70.4725
70.7783
71.0532
71.2955
71.5034
71.6753
71.8092
71.9032
71.9548
71.9617
71.9208
71.8291
71.6831
71.4788
71.2124
70.8795
70.4757
69.9964
69.437
68.7925
68.0581
67.2289
66.2997
65.2657
64.1221
62.8645
61.4889
59.9918
58.3708
56.6242
54.7517
52.7541
37.2686
38.3383
39.3523
40.3113
41.2165
42.0698
42.8736
43.6306
44.3441
45.0174
45.6537
46.2568
46.8301
47.3772
47.9015
48.4065
48.8954
49.3715
49.8379
50.2977
50.7537
51.2087
51.6654
52.1261
52.5931
53.0683
53.5533
54.0493
54.5572
55.0776
55.6103
56.1551
56.7113
57.278
57.8543
58.439
59.0311
59.6294
60.2327
60.8394
61.4481
62.0567
62.6632
63.2653
63.8605
64.4468
65.022
65.5844
66.1326
66.6654
67.1818
67.681
68.1619
68.6235
69.0645
69.4834
69.8787
70.2484
70.5907
70.904
71.1864
71.4363
71.6523
71.8327
71.9758
72.0799
72.1428
72.1622
72.1351
72.0584
71.9285
71.7414
71.4931
71.1791
70.7948
70.3356
69.7967
69.1731
68.4597
67.6512
66.7424
65.7279
64.6023
63.3607
61.9983
60.511
58.8958
57.1505
55.2743
53.268
37.5678
38.6377
39.6486
40.6011
41.4969
42.3381
43.1275
43.8685
44.5646
45.2194
45.8369
46.4206
46.9746
47.5024
48.0077
48.494
48.9647
49.4232
49.8727
50.3162
50.7569
51.1975
51.6409
52.0897
52.5463
53.0127
53.4907
53.9818
54.4869
55.0063
55.54
56.0873
56.6473
57.2188
57.8005
58.3913
58.9901
59.5958
60.2072
60.8232
61.442
62.0616
62.6796
63.2934
63.9
64.4968
65.0817
65.6526
66.2084
66.7481
67.2711
67.7769
68.2648
68.7341
69.1835
69.6115
70.0163
70.3959
70.7482
71.0713
71.3636
71.6234
71.8496
72.0408
72.1958
72.3131
72.3908
72.4267
72.418
72.3614
72.2533
72.0895
71.8656
71.577
71.2191
70.7869
70.2757
69.6802
68.9953
68.2154
67.3347
66.3474
65.2472
64.0283
62.685
61.2123
59.6058
57.8629
55.9821
53.964
37.9506
39.0209
40.0275
40.9713
41.8543
42.6793
43.4498
44.1695
44.8428
45.4738
46.0667
46.6257
47.1549
47.6582
48.1394
48.6021
49.0498
49.486
49.914
50.337
50.7581
51.1804
51.6068
52.0402
52.4832
52.9382
53.4074
53.8922
54.3938
54.9125
55.4479
55.9991
56.5645
57.1426
57.7315
58.33
58.9369
59.5515
60.173
60.8004
61.4323
62.0664
62.6998
63.3292
63.951
64.5617
65.1588
65.7401
66.3048
66.8522
67.3825
67.8958
68.392
68.8706
69.3306
69.7703
70.1876
70.5799
70.9449
71.2804
71.5846
71.8562
72.0944
72.2984
72.4674
72.6004
72.6961
72.7525
72.7669
72.7359
72.6555
72.5213
72.3284
72.0721
71.7474
71.3494
70.8731
70.3135
69.6651
68.9221
68.0781
67.1266
66.0605
64.8726
63.5558
62.1035
60.5101
58.7716
56.8856
54.8522
38.4237
39.4946
40.4954
41.4276
42.2938
43.0975
43.8433
44.5359
45.1803
45.7812
46.3436
46.872
47.3708
47.8441
48.2959
48.7299
49.1497
49.5589
49.9607
50.3586
50.7557
51.1553
51.5606
51.9748
52.4008
52.8415
53.2994
53.7765
54.274
54.7924
55.331
55.8881
56.4615
57.0484
57.6465
58.2541
58.8703
59.4949
60.1279
60.769
61.417
62.0697
62.7234
63.3736
64.0153
64.6439
65.2558
65.8492
66.4233
66.9785
67.5159
68.0366
68.5417
69.0312
69.5042
69.9588
70.392
70.8006
71.1813
71.5316
71.8496
72.1344
72.3857
72.6034
72.7878
72.9387
73.0553
73.136
73.1783
73.1786
73.1324
73.0346
72.8798
72.6627
72.3783
72.0216
71.5879
71.0719
70.4684
69.7712
68.9737
68.0682
67.0466
65.8998
64.619
63.1954
61.6211
59.8902
57.9988
55.9466
38.996
40.0677
41.0608
41.9775
42.8215
43.5977
44.3119
44.9702
45.5785
46.1425
46.6678
47.1592
47.6216
48.0592
48.4762
48.8763
49.2632
49.6404
50.0113
50.3793
50.7477
51.1201
51.4998
51.8903
52.2953
52.718
53.1617
53.6291
54.122
54.641
55.1851
55.7517
56.3368
56.936
57.5456
58.1636
58.7894
59.424
60.0689
60.7251
61.3926
62.069
62.7497
63.4278
64.096
64.7473
65.3772
65.9835
66.5664
67.1278
67.6705
68.1975
68.7112
69.2128
69.7016
70.1752
70.6292
71.0586
71.4589
71.8265
72.1597
72.458
72.7223
72.9537
73.1537
73.3235
73.4631
73.5719
73.6474
73.6855
73.6808
73.6271
73.518
73.3475
73.1104
72.8021
72.4181
71.9537
71.4038
70.7622
70.022
69.1745
68.21
67.1176
65.8855
64.5017
62.9554
61.2373
59.3415
57.2663
39.6796
40.7523
41.7349
42.6306
43.4451
44.1855
44.8595
45.4748
46.0388
46.5581
47.0388
47.4866
47.9062
48.3023
48.6789
49.0399
49.3887
49.729
50.0641
50.3974
50.7323
51.0724
51.4214
51.7832
52.1621
52.5623
52.988
53.4431
53.9305
54.4515
55.0049
55.5865
56.1896
56.8063
57.4306
58.0595
58.6936
59.336
59.9911
60.6628
61.3529
62.0598
62.7771
63.4941
64.1984
64.8792
65.53
66.149
66.7379
67.3013
67.845
68.3748
68.8955
69.4101
69.9185
70.417
70.899
71.3559
71.7806
72.1682
72.5171
72.828
73.1033
73.3464
73.5605
73.7486
73.9127
74.0529
74.1673
74.2511
74.297
74.2966
74.2416
74.1253
73.9423
73.6889
73.3613
72.9559
72.4682
71.8926
71.2219
70.4465
69.5552
68.534
67.3676
66.0397
64.5345
62.838
60.9403
58.8373
40.4911
41.565
42.5326
43.3992
44.174
44.8674
45.49
46.0517
46.5616
47.0274
47.4557
47.8526
48.2231
48.5716
48.9024
49.219
49.5249
49.8234
50.1178
50.4113
50.7075
51.0099
51.3225
51.6497
51.9964
52.3679
52.77
53.2085
53.6885
54.2132
54.7819
55.3884
56.0206
56.6637
57.3066
57.9457
58.5836
59.2276
59.8872
60.5716
61.2868
62.0333
62.8024
63.5762
64.3321
65.0518
65.7263
66.355
66.9435
67.5008
68.037
68.5625
69.086
69.6137
70.1467
70.68
71.202
71.6971
72.1529
72.5629
72.9264
73.2463
73.5281
73.7778
74.0018
74.2056
74.3937
74.5684
74.7284
74.8682
74.9771
75.0418
75.0507
74.996
74.873
74.6794
74.4136
74.0736
73.6565
73.1574
72.5695
71.883
71.0845
70.1569
69.0797
67.8305
66.3864
64.726
62.8321
60.6961
41.4542
42.5294
43.474
44.2986
45.0185
45.6495
46.2063
46.7017
47.1463
47.5487
47.9162
48.2548
48.5696
48.8648
49.1444
49.4116
49.6697
49.9218
50.1707
50.4196
50.6718
50.9307
51.2006
51.4861
51.7928
52.1273
52.4975
52.9121
53.3802
53.9094
54.5023
55.1511
55.8338
56.5189
57.1861
57.8313
58.4624
59.0944
59.7453
60.4334
61.1735
61.9717
62.8184
63.6818
64.5154
65.2871
65.9858
66.6164
67.1916
67.7278
68.2419
68.7503
69.268
69.8067
70.3716
70.9568
71.5407
72.092
72.5883
73.0219
73.3954
73.7168
73.996
74.2435
74.4691
74.6823
74.8912
75.1019
75.3159
75.5268
75.7178
75.8644
75.9486
75.9619
75.9023
75.7711
75.5699
75.2997
74.9597
74.5471
74.0563
73.4778
72.7969
71.9924
71.0367
69.8992
68.5473
66.9478
65.0702
62.8952
42.6051
43.6801
44.5865
45.3473
45.9892
46.5367
47.0095
47.4232
47.7898
48.1185
48.4166
48.6896
48.9424
49.1789
49.4022
49.6155
49.8215
50.0227
50.2218
50.4213
50.6243
50.834
51.0544
51.2901
51.5473
51.8336
52.159
52.5365
52.9818
53.512
54.1402
54.863
55.6414
56.3978
57.0952
57.735
58.3378
58.9317
59.5477
60.218
60.9739
61.8382
62.8079
63.8278
64.7855
65.6247
66.3411
66.9548
67.4934
67.9841
68.4523
68.9221
69.417
69.9592
70.5649
71.2323
71.924
72.5631
73.1111
73.5647
73.9367
74.2451
74.5069
74.7377
74.9516
75.1622
75.3832
75.6277
75.9048
76.2114
76.5194
76.7739
76.9458
77.0298
77.032
76.9605
76.8226
76.6232
76.3645
76.0466
75.6665
75.2172
74.6845
74.0428
73.2527
72.2737
71.0622
69.5673
67.7339
65.5161
44.0051
45.0718
45.9073
46.5655
47.0944
47.5296
47.896
48.2108
48.4862
48.7307
48.951
49.1518
49.337
49.5098
49.6727
49.8282
49.9783
50.1249
50.2702
50.4162
50.5652
50.7201
50.884
51.0613
51.2578
51.4814
51.7437
52.0614
52.4591
52.9714
53.6398
54.4927
55.4787
56.3592
57.0851
57.6898
58.2236
58.7348
59.2695
59.8772
60.6159
61.5502
62.7228
64.061
65.2235
66.1367
66.8415
67.3989
67.8615
68.27
68.6576
69.055
69.4953
70.0177
70.6664
71.4704
72.38
73.1625
73.7673
74.2217
74.5669
74.8375
75.0596
75.2533
75.4358
75.6241
75.8384
76.1036
76.4482
76.8907
77.3953
77.7994
78.0662
78.2127
78.2645
78.2426
78.161
78.029
77.8517
77.6326
77.3734
77.0736
76.7263
76.3041
75.7378
74.9804
73.9822
72.6716
70.9484
68.6973
45.7774
46.7949
47.4816
47.9681
48.3327
48.6199
48.855
49.0534
49.225
49.3762
49.5116
49.6346
49.7477
49.853
49.9522
50.0467
50.138
50.2272
50.3157
50.4048
50.496
50.5911
50.6924
50.803
50.9273
51.0717
51.2465
51.469
51.7696
52.2039
52.8717
53.9288
55.4656
56.5411
57.2474
57.7445
58.1398
58.5017
58.8839
59.3455
59.9741
60.9165
62.397
64.5445
66.0182
66.9464
67.5514
67.9769
68.3048
68.5835
68.8463
69.1235
69.4525
69.8918
70.5413
71.5535
73.0163
74.0151
74.6369
75.0333
75.3017
75.4968
75.6503
75.7823
75.9085
76.0458
76.2174
76.4622
76.8476
77.4779
78.4127
79.0194
79.3571
79.5288
79.6002
79.6073
79.5692
79.4967
79.3962
79.2734
79.1357
78.9956
78.8728
78.7699
78.4952
78.0311
77.3489
76.3674
74.9202
72.7186
48.2417
48.9924
49.3425
49.5444
49.6809
49.7832
49.8649
49.9329
49.9913
50.0425
50.0883
50.1297
50.1677
50.2031
50.2364
50.2682
50.2988
50.3287
50.3585
50.3884
50.4191
50.4512
50.4855
50.5232
50.5659
50.6162
50.6787
50.7621
50.8857
51.0982
51.5409
52.6722
56.1147
57.2524
57.7087
57.9437
58.1017
58.2373
58.3818
58.5709
58.8779
59.5058
61.1083
65.9958
67.5959
68.2187
68.5172
68.6929
68.8163
68.9171
69.0117
69.1147
69.2479
69.4607
69.8912
70.985
74.3182
75.4074
75.8284
76.0264
76.1388
76.2132
76.2691
76.3165
76.3625
76.415
76.4882
76.6153
76.8913
77.6235
79.8996
80.6239
80.8838
80.9862
81.0255
81.0339
81.024
81.0015
80.9698
80.9327
80.8981
80.8897
80.9874
81.48
81.5222
81.3926
81.1438
80.7308
79.9752
78.3077
49.9289
47.2346
44.3822
41.3808
38.2411
34.9745
31.5934
28.1105
24.5385
20.89
17.1776
13.4134
9.60925
5.77681
1.92748
50.0924
47.3909
44.5295
41.5177
38.3664
35.0876
31.694
28.1985
24.6139
20.9532
17.2287
13.4528
9.63717
5.79347
1.93301
50.4216
47.7052
44.8254
41.7923
38.6177
35.3143
31.8954
28.3744
24.7647
21.0792
17.3307
13.5313
9.69281
5.82667
1.94405
50.9204
48.1812
45.2728
42.2068
38.9963
35.6551
32.1975
28.6379
24.9901
21.2675
17.4829
13.6484
9.77571
5.87611
1.96048
51.5956
48.8243
45.8761
42.7643
39.504
36.1108
32.6005
28.9885
25.2894
21.517
17.6842
13.8031
9.88518
5.94136
1.98215
52.4564
49.6424
46.6411
43.4687
40.143
36.6822
33.104
29.4251
25.6611
21.8261
17.9331
13.9941
10.0202
6.02176
2.00886
53.5155
50.6458
47.5754
44.3247
40.9155
37.3695
33.7068
29.9457
26.1027
22.1923
18.2274
14.2195
10.1793
6.11644
2.04028
54.7899
51.8479
48.6882
45.3374
41.8233
38.172
34.4065
30.5471
26.6108
22.6122
18.5638
14.4767
10.3605
6.22423
2.07605
56.3026
53.2659
49.99
46.5117
42.8668
39.0871
35.199
31.2242
27.18
23.0809
18.9383
14.7624
10.5616
6.34366
2.11566
58.0846
54.9211
51.4922
47.8507
44.0435
40.109
36.0768
31.9693
27.8033
23.592
19.3456
15.0723
10.7794
6.47292
2.15851
60.1788
56.8395
53.2051
49.3533
45.3457
41.2272
37.0286
32.7715
28.4709
24.1373
19.7788
15.4014
11.0103
6.60986
2.20388
62.6466
59.0509
55.1334
51.0098
46.7573
42.4236
38.0374
33.6161
29.1703
24.7067
20.2301
15.7437
11.2503
6.75203
2.25098
65.5772
61.5816
57.2657
52.7932
48.2481
43.6708
39.08
34.4839
29.8862
25.2882
20.6902
16.0924
11.4946
6.89676
2.29892
69.0972
64.4302
59.5523
54.647
49.7693
44.9299
40.1262
35.352
30.6013
25.8686
21.1495
16.4404
11.7384
7.04125
2.34679
73.3309
67.4871
61.864
56.4713
51.2501
46.1516
41.1412
36.1953
31.2972
26.4344
21.5979
16.7807
11.9771
7.18276
2.39368
11.2981
13.8926
16.4824
19.0645
21.6358
24.1938
26.7366
29.2632
31.7746
34.2752
36.776
39.3001
41.8965
44.6764
47.947
11.3296
13.9873
16.6405
19.2861
21.9214
24.5437
27.1508
29.7414
32.316
34.8782
37.4381
40.0177
42.6626
45.463
48.5804
11.3622
14.0851
16.8036
19.5148
22.2157
24.9036
27.5758
30.2301
32.8653
35.4821
38.0857
40.6889
43.3198
46.0282
48.8797
11.3957
14.1857
16.9715
19.7502
22.5187
25.274
28.0127
30.7314
33.4265
36.0944
38.7325
41.34
43.922
46.4928
49.0759
11.4302
14.2892
17.1442
19.9923
22.8305
25.6553
28.4629
31.2484
34.0058
36.7267
39.3995
42.0078
44.5309
46.9478
49.2551
11.4656
14.3954
17.3215
20.241
23.1511
26.0481
28.9278
31.7843
34.6097
37.3916
40.1102
42.7338
45.2124
47.4775
49.4749
11.5017
14.5041
17.503
20.4961
23.4803
26.4524
29.4081
32.3412
35.2431
38.0994
40.886
43.5596
46.0409
48.1921
49.8252
11.5387
14.6151
17.6885
20.7568
23.8176
26.8677
29.9034
32.9192
35.9072
38.8547
41.7393
44.5178
47.0974
49.2651
50.5394
11.5762
14.7279
17.8772
21.0225
24.1617
27.2925
30.4118
33.5157
36.5987
39.6528
42.6654
45.6129
48.4388
50.9574
52.3603
11.6143
14.8422
18.0686
21.2921
24.5113
27.7247
30.9303
34.1259
37.3093
40.4788
43.6356
46.7912
49.9924
53.4232
57.9062
11.6526
14.9576
18.2616
21.5642
24.8645
28.1617
31.4551
34.744
38.0288
41.3126
44.6055
47.9368
51.3853
55.1569
59.7438
11.6911
15.0734
18.4555
21.8375
25.2193
28.6008
31.9822
35.364
38.7481
42.139
45.5476
48.9997
52.5525
56.3231
60.4976
11.7296
15.1891
18.6493
22.1107
25.5739
29.0395
32.5083
35.9818
39.4618
42.9521
46.4585
49.9914
53.5671
57.2072
60.9282
11.7679
15.3041
18.8419
22.3822
25.9263
29.4752
33.0306
36.594
40.1676
43.7528
47.3498
50.9522
54.5356
58.0336
61.3187
11.8057
15.418
19.0325
22.6508
26.2747
29.9059
33.5465
37.1985
40.8642
44.5444
48.2362
51.925
55.5618
59.0064
61.9086
11.843
15.5301
19.2201
22.9152
26.6175
30.3295
34.0536
37.7927
41.5497
45.3267
49.1236
52.9326
56.7201
60.3543
63.2512
11.8796
15.6399
19.4039
23.1741
26.9532
30.7439
34.5496
38.3737
42.2203
46.0941
50.0013
53.9537
57.9833
62.2127
67.2076
11.9152
15.7471
19.5832
23.4265
27.2801
31.1474
35.032
38.9382
42.871
46.837
50.8464
54.9197
59.1063
63.5379
68.5432
11.9498
15.8511
19.7572
23.6713
27.5971
31.5381
35.4986
39.4833
43.4977
47.5487
51.646
55.8055
60.0578
64.4629
69.12
11.9833
15.9517
19.9253
23.9077
27.9028
31.9147
35.9477
40.0069
44.0979
48.227
52.401
56.6256
60.9014
65.2111
69.4975
12.0155
16.0484
20.0869
24.1349
28.1964
32.2758
36.3777
40.5074
44.6706
48.8731
53.1194
57.4087
61.7201
65.9736
69.9424
12.0464
16.1411
20.2417
24.3522
28.477
32.6205
36.7877
40.9838
45.215
49.4873
53.8067
58.1749
62.5773
66.9322
70.852
12.0758
16.2294
20.3892
24.5593
28.7441
32.9482
37.1766
41.435
45.7296
50.0678
54.4587
58.9159
63.4658
68.1912
73.4557
12.1038
16.3134
20.5293
24.7557
28.9971
33.2582
37.5439
41.86
46.2128
50.6103
55.0634
59.5909
64.2309
69.074
74.3332
12.1302
16.3928
20.6617
24.9413
29.2359
33.5503
37.8893
42.2585
46.6639
51.1128
55.6151
60.1862
64.8532
69.6661
74.6995
12.1552
16.4676
20.7864
25.1159
29.4604
33.8245
38.213
42.6309
47.0836
51.577
56.1177
60.7133
65.3724
70.1033
74.9066
12.1786
16.5379
20.9034
25.2796
29.6707
34.0811
38.5153
42.978
47.4739
52.0071
56.5808
61.1948
65.84
70.4884
75.0826
12.2005
16.6035
21.0128
25.4325
29.867
34.3204
38.797
43.3012
47.837
52.4077
57.0145
61.653
66.3037
70.9092
75.3265
12.2208
16.6646
21.1145
25.5748
30.0495
34.5427
39.0587
43.6014
48.1748
52.782
57.4248
62.101
66.797
71.4588
75.8542
12.2397
16.7212
21.2088
25.7065
30.2185
34.7486
39.3008
43.8793
48.4878
53.1302
57.8103
62.5336
67.3124
72.1916
77.3833
12.2571
16.7734
21.2957
25.828
30.3742
34.9382
39.5239
44.1353
48.7762
53.4508
58.1644
62.9262
67.7562
72.7053
77.8975
12.2731
16.8213
21.3754
25.9393
30.5169
35.112
39.7283
44.3697
49.0399
53.7429
58.4836
63.2697
68.1154
73.0484
78.1111
12.2876
16.8648
21.4479
26.0406
30.6468
35.2701
39.9144
44.5831
49.2797
54.0075
58.7699
63.5702
68.4123
73.2995
78.2307
12.3007
16.9042
21.5133
26.1321
30.7641
35.4131
40.0826
44.776
49.4965
54.2468
59.0282
63.8401
68.676
73.5181
78.3312
12.3125
16.9393
21.5718
26.2138
30.869
35.5409
40.2332
44.9491
49.6916
54.463
59.2639
64.0915
68.9335
73.7549
78.4703
12.3228
16.9702
21.6234
26.2859
30.9616
35.6539
40.3664
45.1026
49.8653
54.6572
59.4796
64.3312
69.2035
74.0634
78.7732
12.3317
16.9971
21.6681
26.3485
31.0419
35.752
40.4824
45.2365
50.0176
54.829
59.6735
64.555
69.4802
74.4741
79.6568
12.3393
17.0198
21.7059
26.4014
31.11
35.8353
40.5809
45.3505
50.1477
54.9762
59.8403
64.7466
69.7074
74.7516
79.9481
12.3455
17.0384
21.7369
26.4448
31.1658
35.9036
40.6619
45.4443
50.2547
55.0972
59.9763
64.8988
69.8747
74.9213
80.061
12.3503
17.0528
21.761
26.4786
31.2093
35.9569
40.7251
45.5176
50.3383
55.1913
60.0807
65.012
69.9911
75.0245
80.1129
12.3538
17.0632
21.7783
26.5028
31.2405
35.9951
40.7704
45.5702
50.3983
55.2585
60.1546
65.0903
70.068
75.0874
80.1406
12.3558
17.0694
21.7886
26.5173
31.2592
36.0182
40.7978
45.6021
50.4347
55.2994
60.1995
65.1375
70.114
75.1249
80.1577
12.3565
17.0714
21.792
26.5221
31.2655
36.0259
40.8072
45.6132
50.4477
55.3144
60.2165
65.1564
70.1343
75.1453
80.1739
12.3558
17.0693
21.7886
26.5173
31.2593
36.0184
40.7984
45.6033
50.437
55.3032
60.2056
65.1473
70.1296
75.1513
80.209
12.3537
17.0631
21.7781
26.5027
31.2405
35.9955
40.7715
45.5724
50.4024
55.2656
60.166
65.1081
70.0956
75.1304
80.2089
12.3503
17.0527
21.7607
26.4783
31.2092
35.9572
40.7262
45.5203
50.3436
55.2005
60.0959
65.0358
70.0269
75.0769
80.1878
12.3454
17.0381
21.7364
26.4442
31.1653
35.9034
40.6626
45.4467
50.2601
55.1073
59.9935
64.926
69.9154
74.9792
80.139
12.3392
17.0194
21.7052
26.4005
31.1089
35.8343
40.5806
45.3518
50.1519
54.9855
59.8574
64.7749
69.7505
74.8128
80.0285
12.3316
16.9965
21.6671
26.347
31.04
35.7499
40.4804
45.2356
50.0193
54.8356
59.6882
64.5817
69.5234
74.5379
79.7419
12.3226
16.9696
21.6222
26.284
30.9588
35.6502
40.3622
45.0985
49.8629
54.659
59.4891
64.3532
69.244
74.1293
78.8728
12.3123
16.9387
21.5705
26.2115
30.8653
35.5355
40.2261
44.9408
49.6834
54.4573
59.2647
64.1045
68.9665
73.8173
78.572
12.3007
16.9038
21.5122
26.1296
30.7596
35.4059
40.0723
44.7626
49.4808
54.231
59.0164
63.8387
68.6949
73.5699
78.4294
12.2877
16.8649
21.4473
26.0385
30.6421
35.2616
39.9008
44.5639
49.2549
53.9788
58.7408
63.5478
68.4083
73.3314
78.32
12.2735
16.8222
21.376
25.9384
30.5127
35.1027
39.712
44.3446
49.0051
53.6986
58.4324
63.2181
68.0763
73.0453
78.1811
12.258
16.7758
21.2984
25.8294
30.3719
34.9296
39.506
44.105
48.731
53.3891
58.0866
62.8363
67.6656
72.6415
77.9224
12.2414
16.7257
21.2148
25.7118
30.22
34.7427
39.2833
43.8456
48.4333
53.0508
57.703
62.3975
67.1513
72.0238
77.2852
12.2236
16.6722
21.1253
25.586
30.0574
34.5425
39.0447
43.5674
48.1139
52.6871
57.2886
61.9159
66.5529
71.134
75.371
12.2046
16.6153
21.0303
25.4524
29.8845
34.3297
38.791
43.2717
47.7747
52.3024
56.8548
61.4258
65.9914
70.4812
74.7204
12.1847
16.5553
20.9299
25.3113
29.702
34.1049
38.523
42.9594
47.4171
51.899
56.4067
60.9379
65.4807
70.0007
74.4311
12.1637
16.4923
20.8247
25.1631
29.5103
33.8688
38.2414
42.6312
47.0416
51.4765
55.9407
60.4405
64.984
69.5806
74.2342
12.1418
16.4266
20.7148
25.0085
29.3102
33.6222
37.947
42.2878
46.6479
51.0323
55.4485
59.911
64.4488
69.119
74.0112
12.1191
16.3584
20.6007
24.8479
29.1023
33.3658
37.6408
41.9298
46.2363
50.5647
54.9228
59.3277
63.8198
68.5015
73.618
12.0957
16.2879
20.4828
24.682
28.8874
33.1006
37.3238
41.5589
45.8083
50.075
54.3633
58.6824
63.0574
67.5803
72.6646
12.0716
16.2155
20.3616
24.5114
28.6663
32.8279
36.9976
41.177
45.3672
49.569
53.781
57.9966
62.1906
66.2674
69.8041
12.0469
16.1413
20.2375
24.3367
28.4401
32.5488
36.664
40.7865
44.917
49.0546
53.1949
57.3242
61.4034
65.3279
68.8437
12.0218
16.0657
20.1111
24.1588
28.2096
32.2645
36.3243
40.3896
44.4608
48.5371
52.6151
56.6851
60.7221
64.6705
68.4346
11.9962
15.989
19.9827
23.9781
27.9757
31.9762
35.98
39.9877
44
48.0172
52.0396
56.0675
60.1008
64.1392
68.1816
11.9704
15.9114
19.853
23.7955
27.7393
31.6847
35.6321
39.5818
43.5347
47.4924
51.4589
55.4446
59.4743
63.6034
67.9261
11.9444
15.8332
19.7223
23.6116
27.5012
31.3912
35.2817
39.1727
43.065
46.9603
50.8637
54.7896
58.7772
62.9315
67.5082
11.9183
15.7548
19.5911
23.427
27.2623
31.0968
34.9301
38.7619
42.5922
46.4214
50.2516
54.0904
57.9627
61.9645
66.5239
11.8922
15.6763
19.4599
23.2424
27.0235
30.8025
34.5787
38.3512
42.1191
45.8806
49.6324
53.3664
57.0569
60.6086
63.5941
11.8661
15.598
19.3291
23.0585
26.7856
30.5095
34.229
37.9429
41.6494
45.3453
49.0243
52.6712
56.2461
59.6441
62.6108
11.8402
15.5202
19.1991
22.8758
26.5494
30.2188
33.8825
37.539
41.186
44.8207
48.4374
52.0247
55.5566
58.9778
62.195
11.8145
15.4431
19.0703
22.6949
26.3157
29.9314
33.5403
37.1406
40.7304
44.3074
47.8697
51.4152
54.9426
58.4514
61.9434
11.7891
15.3669
18.943
22.5161
26.0851
29.6481
33.2033
36.7488
40.2826
43.8034
47.3123
50.817
54.3401
57.9354
61.6971
11.7641
15.2916
18.8174
22.34
25.858
29.3695
32.8723
36.3642
39.8428
43.3065
46.7569
50.2047
53.686
57.3021
61.3018
11.7394
15.2175
18.6937
22.1668
25.635
29.0963
32.5483
35.9881
39.4125
42.8178
46.202
49.568
52.937
56.401
60.3733
11.715
15.1445
18.5721
21.9966
25.4162
28.8289
32.232
35.622
38.9944
42.3429
45.6586
48.9278
52.1207
55.1456
57.6033
11.691
15.0725
18.4524
21.8293
25.2017
28.5676
31.9241
35.2674
38.592
41.8896
45.1466
48.3393
51.4199
54.2824
56.69
11.6674
15.0016
18.3345
21.6649
24.9914
28.3122
31.6246
34.9249
38.2075
41.4634
44.6781
47.8274
50.8692
53.7339
56.3299
11.644
14.9315
18.2181
21.5028
24.7846
28.062
31.3328
34.5941
37.8406
41.0648
44.2541
47.3889
50.4402
53.3707
56.1537
11.6207
14.862
18.1027
21.3423
24.5803
27.8157
31.0472
34.2726
37.4885
40.6895
43.8667
47.0073
50.0939
53.1086
56.0467
11.5976
14.7927
17.9878
21.1827
24.3774
27.5716
30.765
33.9569
37.146
40.3297
43.5038
46.6621
49.7961
52.8983
55.9681
11.5744
14.7234
17.8728
21.023
24.1744
27.3275
30.4833
33.6425
36.8063
39.9756
43.151
46.3325
49.5193
52.7093
55.8998
11.5511
14.6537
17.757
20.862
23.9696
27.0811
30.1985
33.3243
36.462
39.6163
42.7928
45.9982
49.239
52.5185
55.8312
11.5276
14.5832
17.6399
20.699
23.7617
26.8302
29.9072
32.997
36.1054
39.2405
42.4135
45.6383
48.9307
52.3032
55.7518
11.5038
14.5117
17.5211
20.5331
23.5494
26.5727
29.6064
32.6561
35.7294
38.8377
41.9971
45.2302
48.5657
52.0338
55.6457
11.4796
14.4391
17.4001
20.3638
23.332
26.3074
29.294
32.298
35.3283
38.3985
41.5287
44.7499
48.1073
51.6632
55.4788
11.455
14.3654
17.2771
20.191
23.109
26.0337
28.969
31.921
34.8988
37.9166
40.9963
44.1739
47.5098
51.1112
55.1608
11.4302
14.2908
17.1522
20.0152
22.8811
25.7522
28.6318
31.5253
34.4408
37.3907
40.395
43.4868
46.7267
50.2465
54.4125
77.5891
70.0846
63.7696
57.9842
52.4934
47.1889
42.0111
36.9234
31.9015
26.928
21.9905
17.0794
12.1871
7.30741
2.43501
78.9353
71.6182
65.1322
59.1536
53.4928
48.0425
42.7382
37.5387
32.4163
27.3511
22.3285
17.3374
12.3689
7.41549
2.47088
79.4963
72.5725
66.1409
60.1006
54.3447
48.7934
43.3913
38.0995
32.8904
27.7438
22.6441
17.5793
12.5398
7.51731
2.50469
79.7778
73.1831
66.8759
60.8485
55.0529
49.4395
43.9665
38.6018
33.3204
28.1031
22.9347
17.8032
12.6986
7.61209
2.5362
79.9427
73.592
67.415
61.4337
55.6333
49.9866
44.4655
39.0452
33.7049
28.4276
23.1992
18.0081
12.8443
7.69933
2.56525
80.0502
73.8784
67.8162
61.8915
56.1053
50.4451
44.8932
39.4319
34.0448
28.7174
23.4372
18.1934
12.9768
7.77879
2.59173
80.1254
74.0866
68.1201
62.2515
56.4885
50.8269
45.2569
39.7662
34.3423
28.9735
23.6491
18.3595
13.0959
7.85047
2.61565
80.1806
74.2426
68.3541
62.5365
56.7996
51.1439
45.5642
40.0529
34.6006
29.1981
23.8364
18.507
13.2022
7.91455
2.63706
80.2224
74.3622
68.5369
62.7639
57.0528
51.4065
45.823
40.2975
34.8234
29.3935
24.0004
18.637
13.2962
7.97139
2.65608
80.2547
74.4555
68.6815
62.9465
57.2595
51.6241
46.0403
40.5053
35.0145
29.5625
24.1433
18.7507
13.3788
8.02143
2.67284
80.2802
74.5294
68.797
63.0942
57.4287
51.8044
46.2224
40.6812
35.1778
29.708
24.2669
18.8496
13.4508
8.0652
2.68752
80.3005
74.5885
68.8901
63.2143
57.5676
51.9541
46.375
40.8299
35.3168
29.8326
24.3735
18.9352
13.5133
8.10327
2.7003
80.3168
74.6363
68.9657
63.3124
57.6821
52.0783
46.5026
40.9552
35.4348
29.939
24.4649
19.0089
13.5674
8.13621
2.71137
80.33
74.675
69.0273
63.3929
57.7766
52.1815
46.6095
41.0608
35.5347
30.0295
24.543
19.0721
13.6138
8.16458
2.72091
80.3408
74.7066
69.0778
63.4591
57.8547
52.2674
46.6988
41.1495
35.6191
30.1064
24.6095
19.1261
13.6535
8.1889
2.72909
80.3496
74.7326
69.1192
63.5137
57.9194
52.3388
46.7734
41.2239
35.6902
30.1714
24.6659
19.172
13.6874
8.20967
2.73609
80.3569
74.7539
69.1534
63.5588
57.9731
52.3982
46.8357
41.2864
35.7501
30.2262
24.7137
19.211
13.7162
8.22735
2.74204
80.3628
74.7714
69.1816
63.5961
58.0175
52.4476
46.8877
41.3386
35.8003
30.2724
24.754
19.2439
13.7406
8.24232
2.74709
80.3677
74.7859
69.2048
63.6269
58.0543
52.4886
46.931
41.3822
35.8423
30.3111
24.7879
19.2717
13.7612
8.25495
2.75135
80.3718
74.7978
69.2239
63.6523
58.0847
52.5226
46.9669
41.4184
35.8773
30.3434
24.8162
19.2949
13.7784
8.26555
2.75493
80.3751
74.8075
69.2397
63.6732
58.1097
52.5506
46.9966
41.4484
35.9064
30.3703
24.8398
19.3142
13.7928
8.2744
2.75792
80.3778
74.8155
69.2525
63.6903
58.1302
52.5735
47.0209
41.4731
35.9303
30.3924
24.8592
19.3302
13.8047
8.28172
2.76039
80.38
74.8219
69.2629
63.7041
58.1468
52.5921
47.0407
41.4932
35.9498
30.4105
24.8751
19.3433
13.8144
8.28771
2.76241
80.3817
74.8271
69.2711
63.7151
58.1601
52.607
47.0566
41.5093
35.9654
30.425
24.8879
19.3538
13.8222
8.29254
2.76404
80.383
74.8311
69.2776
63.7237
58.1704
52.6186
47.0689
41.5218
35.9776
30.4364
24.8979
19.3621
13.8284
8.29633
2.76533
80.3841
74.834
69.2824
63.7301
58.1782
52.6274
47.0782
41.5313
35.9869
30.445
24.9055
19.3683
13.833
8.2992
2.7663
80.3848
74.8361
69.2857
63.7346
58.1836
52.6335
47.0847
41.5379
35.9933
30.451
24.9108
19.3727
13.8363
8.30123
2.76698
80.3852
74.8373
69.2877
63.7373
58.1868
52.6371
47.0887
41.5419
35.9973
30.4546
24.9141
19.3754
13.8383
8.30247
2.7674
80.3853
74.8378
69.2884
63.7382
58.188
52.6384
47.0901
41.5434
35.9987
30.4561
24.9153
19.3765
13.8391
8.30297
2.76757
80.3852
74.8374
69.2878
63.7374
58.187
52.6374
47.0891
41.5425
35.9978
30.4553
24.9147
19.3759
13.8387
8.30273
2.76749
80.3848
74.8362
69.2859
63.7349
58.184
52.6341
47.0856
41.539
35.9945
30.4522
24.9121
19.3738
13.8372
8.30177
2.76717
80.3841
74.8341
69.2826
63.7305
58.1788
52.6283
47.0795
41.5329
35.9887
30.4469
24.9074
19.37
13.8344
8.30006
2.76659
80.383
74.8311
69.2777
63.7241
58.1712
52.6199
47.0707
41.5241
35.9802
30.4391
24.9007
19.3645
13.8303
8.29757
2.76575
80.3817
74.827
69.2712
63.7155
58.161
52.6086
47.0588
41.5122
35.9689
30.4287
24.8916
19.3571
13.8248
8.29422
2.76462
80.3798
74.8217
69.2626
63.7042
58.1477
52.5939
47.0435
41.4969
35.9543
30.4154
24.88
19.3477
13.8179
8.28996
2.76319
80.3775
74.8149
69.2518
63.69
58.1309
52.5754
47.0243
41.4778
35.9361
30.3988
24.8657
19.336
13.8093
8.28469
2.76141
80.3746