/*--------------------------------*- C++ -*----------------------------------*\
| =========                 |                                                 |
| \\      /  F ield         | OpenFOAM: The Open Source CFD Toolbox           |
|  \\    /   O peration     | Version:  5.x                                   |
|   \\  /    A nd           | Web:      www.OpenFOAM.org                      |
|    \\/     M anipulation  |                                                 |
\*---------------------------------------------------------------------------*/
FoamFile
{
    version     2.0;
    format      ascii;
    class       volScalarField;
    location    "14.3";
    object      gradTx;
}
// * * * * * * * * * * * * * * * * * * * * * * * * * * * * * * * * * * * * * //

dimensions      [0 -1 0 1 0 0 0];

internalField   nonuniform List<scalar> 
6300
(
25.2128
25.1369
24.9853
24.758
24.4551
24.0771
23.6247
23.0992
22.5027
21.8381
21.1099
20.3239
19.4879
18.6114
17.7055
25.2875
25.2117
25.06
24.8325
24.5292
24.1505
23.6969
23.1693
22.5697
21.9008
21.1667
20.3731
19.5276
18.6399
17.7214
25.4371
25.3612
25.2095
24.9817
24.6778
24.2978
23.8418
23.3106
22.7052
22.0279
21.2822
20.4734
19.6089
18.6984
17.7542
25.6614
25.5856
25.4339
25.206
24.9015
24.52
24.0612
23.5249
22.9116
22.2223
21.4598
20.6284
19.7351
18.7899
17.8058
25.9604
25.8849
25.7335
25.5058
25.2011
24.8185
24.3569
23.8153
23.1929
22.4892
21.7055
20.8446
19.9126
18.9194
17.8795
26.334
26.2588
26.1082
25.8815
25.5775
25.1949
24.7317
24.1857
23.5543
22.8354
22.0274
21.131
20.1503
19.0949
17.9806
26.7816
26.7072
26.5581
26.3333
26.0316
25.6508
25.1883
24.6403
24.0024
23.2695
22.4367
21.5007
20.4621
19.3284
18.1172
27.3024
27.2292
27.0824
26.8611
26.5636
26.1875
25.7293
25.1839
24.5446
23.8027
22.9484
21.9721
20.8679
19.6387
18.3023
27.8952
27.8237
27.6802
27.4638
27.173
26.8052
26.3564
25.8204
25.1882
24.4473
23.5811
22.5706
21.3979
20.0553
18.5572
28.5585
28.489
28.3497
28.1399
27.8584
27.5029
27.0696
26.552
25.9396
25.2161
24.3571
23.3301
22.097
20.6265
18.9186
29.29
29.2229
29.0885
28.8866
28.6166
28.2773
27.8659
27.3772
26.801
26.1191
25.3002
24.2947
23.0324
21.4342
19.4544
30.0876
30.0228
29.8936
29.7001
29.443
29.1226
28.7385
28.2887
27.767
27.158
26.4289
25.5151
24.3029
22.6224
20.3006
30.9486
30.8861
30.7616
30.5762
30.3316
30.0302
29.6755
29.271
28.819
28.3159
27.7411
27.0328
26.0405
24.4513
21.7632
31.8708
31.8101
31.6893
31.5102
31.2755
30.9901
30.6611
30.2996
29.921
29.5442
29.1855
28.8335
28.374
27.3781
24.6357
32.8525
32.7928
32.6741
32.4984
32.2691
31.9921
31.6778
31.3439
31.0197
30.7533
30.622
30.7407
31.2427
32.05
31.3484
16.8605
16.0887
15.3218
14.5678
13.8341
13.1276
12.4544
11.8197
11.2277
10.6818
10.1846
9.73757
9.34193
8.99808
8.70599
8.46519
8.27485
8.13382
8.04062
7.99345
7.99016
8.02825
8.1048
8.21646
8.35944
8.52949
8.72199
8.93202
9.15449
9.38426
9.61637
9.84613
10.0693
10.2818
10.4804
10.6616
10.8223
10.9593
11.0694
11.1493
11.1959
11.2064
11.1786
11.1112
11.0037
10.8565
10.6705
10.4471
10.1874
9.89229
9.56196
9.19576
8.79232
8.34959
7.86514
7.33641
6.76095
6.13656
5.46131
4.73343
3.95108
3.11207
2.21359
1.25197
0.222519
-0.880457
-2.06359
-3.33424
-4.70024
-6.16957
-7.7501
-9.44933
-11.2743
-13.2313
-15.3262
-17.564
-19.9487
-22.4837
-25.1707
-28.0096
-30.9981
-34.1308
-37.399
-40.7895
-44.2851
-47.8639
-51.4998
-55.1633
-58.8219
-62.4421
16.8641
16.0808
15.3026
14.5379
13.7943
13.0791
12.3985
11.7576
11.1609
10.6114
10.1117
9.66321
9.26694
8.92317
8.63176
8.39216
8.20351
8.06461
7.974
7.92991
7.93024
7.97253
8.05391
8.17104
8.3201
8.4968
8.69639
8.91376
9.14358
9.38051
9.61935
9.85529
10.084
10.3017
10.5049
10.6907
10.856
10.9977
11.1125
11.1968
11.2474
11.261
11.2352
11.1685
11.0605
10.9119
10.7241
10.4988
10.238
9.94262
9.61318
9.24902
8.84851
8.40929
7.92854
7.40337
6.83109
6.2095
5.53682
4.81161
4.03242
3.19749
2.30433
1.34947
0.328252
-0.765148
-1.93765
-3.19701
-4.55147
-6.00944
-7.5791
-9.26822
-11.0839
-13.0327
-15.1203
-17.352
-19.7321
-22.2645
-24.9514
-27.7936
-30.7897
-33.9352
-37.222
-40.6374
-44.1644
-47.7806
-51.4592
-55.169
-58.8761
-62.5448
16.8717
16.0648
15.2635
14.4768
13.7132
12.9803
12.2847
11.6316
11.0253
10.4689
9.9645
9.5133
9.11594
8.77248
8.48254
8.24543
8.06017
7.92553
7.84007
7.80209
7.80958
7.86021
7.9512
8.07929
8.24063
8.43082
8.64483
8.8772
9.12209
9.37363
9.62614
9.87449
10.1142
10.3418
10.5542
10.7489
10.9232
11.0744
11.1988
11.2927
11.3517
11.3719
11.3502
11.2848
11.1754
11.0233
10.831
10.6015
10.3377
10.0416
9.71403
9.35421
8.96007
8.52844
8.05558
7.5378
6.97194
6.3557
5.68771
4.96724
4.1938
3.36654
2.48373
1.54233
0.537789
-0.536051
-1.68673
-2.92288
-4.25368
-5.68844
-7.23606
-8.90474
-10.7018
-12.6338
-14.7067
-16.9258
-19.2961
-21.8223
-24.508
-27.3556
-30.3657
-33.5356
-36.8589
-40.3241
-43.9143
-47.6067
-51.3725
-55.1778
-58.9847
-62.7533
16.8839
16.0402
15.2028
14.3819
13.5873
12.8273
12.109
11.4377
10.8176
10.2512
9.74023
9.28544
8.88693
8.54432
8.2569
8.02369
7.84359
7.71531
7.63745
7.60844
7.62648
7.68944
7.79475
7.9393
8.1193
8.33016
8.56651
8.82223
9.09066
9.36495
9.63853
9.90564
10.1617
10.4034
10.6286
10.8359
11.0235
11.189
11.3289
11.4382
11.5113
11.5427
11.5278
11.464
11.3513
11.1922
10.9911
10.7532
10.4836
10.1856
9.86086
9.50843
9.12524
8.70658
8.24696
7.74114
7.185
6.57613
5.91386
5.19889
4.43245
3.61537
2.74729
1.82597
0.846963
-0.196417
-1.31285
-2.51249
-3.80623
-5.20493
-6.71866
-8.35628
-10.1253
-12.0321
-14.0823
-16.2815
-18.6354
-21.1499
-23.8308
-26.6833
-29.711
-32.9146
-36.2906
-39.8298
-43.5162
-47.326
-51.2278
-55.1829
-59.1473
-63.0736
16.9019
16.0061
15.1175
14.2486
13.4109
12.6139
11.865
11.1699
10.5319
9.95323
9.43465
8.97614
8.57704
8.23634
7.95282
7.72516
7.55204
7.43215
7.36416
7.34674
7.37839
7.45736
7.58148
7.74796
7.95318
8.19246
8.45994
8.7486
9.05042
9.35691
9.65988
9.95234
10.2293
10.4882
10.7285
10.9507
11.1551
11.3402
11.5024
11.6353
11.7307
11.7797
11.7753
11.7131
11.5935
11.4211
11.2036
10.9504
10.6697
10.3678
10.0472
9.70656
9.34112
8.94333
8.50452
8.01661
7.47369
6.87312
6.21563
5.50441
4.74375
3.93743
3.08733
2.1925
1.24869
0.248294
-0.819251
-1.96666
-3.20768
-4.55576
-6.02283
-7.61856
-9.35027
-11.2235
-13.2432
-15.4143
-17.7432
-20.2375
-22.9061
-25.7581
-28.8023
-32.0446
-35.4866
-39.123
-42.9396
-46.9121
-51.0053
-55.1737
-59.3635
-63.516
16.9277
15.961
15.0031
14.0698
13.1753
12.3305
11.5434
10.8191
10.1605
9.56831
9.0422
8.58091
8.1827
7.84568
7.56796
7.34776
7.18353
7.07392
7.01777
7.01407
7.06184
7.15994
7.30689
7.50053
7.73769
8.01381
8.32255
8.65567
9.00308
9.35358
9.69599
10.0209
10.3226
10.5994
10.854
11.0908
11.3138
11.524
11.7177
11.886
12.0161
12.0935
12.1054
12.0445
11.9113
11.7143
11.4673
11.1864
10.8861
10.5765
10.2618
9.94009
9.6032
9.23879
8.83246
8.37093
7.84504
7.25179
6.59445
5.88084
5.12057
4.32231
3.49156
2.62938
1.73175
0.789576
-0.21074
-1.28612
-2.45503
-3.73526
-5.14171
-6.68497
-8.37132
-10.204
-12.1856
-14.3197
-16.6126
-19.0739
-21.7166
-24.5559
-27.6077
-30.8865
-34.402
-38.1557
-42.1376
-46.3235
-50.6735
-55.1326
-59.6324
-64.0966
16.9642
15.9026
14.8524
13.8348
12.8675
11.9634
11.1307
10.3735
9.69291
9.08788
8.55607
8.09448
7.69991
7.36931
7.09994
6.88947
6.73608
6.6384
6.59555
6.607
6.67251
6.7919
6.96477
7.19012
7.4658
7.78784
8.14973
8.54178
8.95096
9.3615
9.75683
10.1227
10.4511
10.7423
11.0046
11.2503
11.4906
11.7312
11.969
12.1913
12.3771
12.5011
12.5398
12.4795
12.3207
12.0789
11.7794
11.4501
11.1154
10.7919
10.4864
10.195
9.90456
9.59423
9.23952
8.81757
8.31307
7.72243
7.054
6.32416
5.55185
4.75371
3.94083
3.11713
2.27881
1.41445
0.505749
-0.470971
-1.54213
-2.73303
-4.06358
-5.54533
-7.1815
-8.97011
-10.9083
-12.9962
-15.2391
-17.6489
-20.2437
-23.047
-26.0858
-29.387
-32.9738
-36.8592
-41.0412
-45.4976
-50.1838
-55.0316
-59.9515
-64.8396
17.0161
15.827
14.654
13.5268
12.4681
11.4929
10.6086
9.81703
9.1161
8.50165
7.96848
7.5112
7.12469
6.80448
6.5468
6.34871
6.2081
6.12366
6.09484
6.12181
6.20533
6.34656
6.54679
6.80695
7.12685
7.50419
7.93313
8.40289
8.89652
9.39097
9.85964
10.2782
10.6327
10.9264
11.1787
11.4171
11.6666
11.942
12.2422
12.5488
12.8267
13.0308
13.1165
13.0557
12.8491
12.5263
12.1339
11.7211
11.3281
10.9811
10.69
10.4482
10.2341
10.0132
9.74304
9.38273
8.90476
8.30477
7.60166
6.82833
6.02005
5.20607
4.40544
3.62573
2.86317
2.10301
1.32006
0.480061
-0.456883
-1.52975
-2.76776
-4.18331
-5.77212
-7.52067
-9.41536
-11.4492
-13.6251
-15.9571
-18.4702
-21.1988
-24.1853
-27.4759
-31.1148
-35.1349
-39.5486
-44.34
-49.4605
-54.8256
-60.3154
-65.7823
17.0911
15.7276
14.3891
13.1193
11.9481
10.8911
9.95264
9.1295
8.4143
7.79797
7.27127
6.82567
6.45373
6.14932
5.90758
5.72493
5.59899
5.52857
5.51356
5.55495
5.65478
5.81599
6.04225
6.33746
6.70492
7.14591
7.65745
8.2293
8.84051
9.45718
10.0343
10.5253
10.9015
11.1697
11.3725
11.5673
11.8049
12.1164
12.5058
12.9468
13.3822
13.7303
13.9035
13.8414
13.5444
13.0732
12.5174
11.9629
11.4742
11.0895
10.822
10.6611
10.5732
10.5026
10.376
10.1169
9.67181
9.03521
8.25012
7.38253
6.49617
5.63896
4.83966
4.1094
3.44387
2.82421
2.21638
1.57056
0.823979
-0.0887417
-1.21635
-2.57182
-4.13268
-5.86075
-7.72199
-9.69736
-11.786
-14.0045
-16.386
-18.9789
-21.8463
-25.0628
-28.7062
-32.8433
-37.5114
-42.7078
-48.384
-54.439
-60.711
-66.9822
17.2021
15.5914
14.0248
12.5695
11.2631
10.1182
9.13023
8.28616
7.56976
6.96486
6.45696
6.03376
5.68526
5.40365
5.18302
5.01923
4.90972
4.85345
4.85081
4.90371
5.0156
5.19153
5.43819
5.76368
6.17684
6.68573
7.29461
7.99868
8.77628
9.58001
10.3323
10.9377
11.3251
11.5067
11.5774
11.6553
11.8364
12.1782
12.6946
13.3523
14.063
14.6813
15.0286
14.965
14.4898
13.7414
12.8987
12.1096
11.4699
11.0288
10.8001
10.7683
10.887
11.0723
11.1992
11.1187
10.7142
9.97913
9.01702
7.96344
6.93006
5.98824
5.17426
4.49963
3.95829
3.52819
3.16723
2.80601
2.34394
1.66159
0.663099
-0.664645
-2.25247
-4.00903
-5.86419
-7.78235
-9.75955
-11.817
-13.997
-16.3634
-19.0043
-22.0343
-25.5864
-29.7862
-34.7128
-40.3836
-46.7612
-53.7387
-61.1063
-68.5319
17.3724
15.3911
13.4997
11.8044
10.3453
9.11891
8.10037
7.25875
6.56439
5.99182
5.52042
5.13402
4.82026
4.56993
4.37639
4.23515
4.1436
4.10089
4.1079
4.16734
4.28398
4.46499
4.72039
5.06341
5.51064
6.08129
6.7944
7.66183
8.67408
9.77655
10.8414
11.6634
12.0447
12.0029
11.7717
11.594
11.6361
11.988
12.6796
13.681
14.8761
16.0221
16.7447
16.6808
15.8281
14.545
13.2023
12.0406
11.1792
10.6619
10.4944
10.6583
11.1045
11.7257
12.3205
12.5867
12.2322
11.2496
9.91529
8.51494
7.23181
6.15318
5.30801
4.69773
4.31234
4.13241
4.11826
4.1865
4.18093
3.86701
3.01655
1.61697
-0.129331
-2.01535
-3.91563
-5.78222
-7.61748
-9.45273
-11.3394
-13.3522
-15.6019
-18.2537
-21.5332
-25.682
-30.8417
-37.041
-44.2735
-52.4755
-61.4169
-70.5846
17.646
15.0607
12.6919
10.6985
9.09195
7.81965
6.81517
6.01885
5.38329
4.87283
4.46123
4.12944
3.86372
3.65427
3.49428
3.37933
3.30697
3.27657
3.28932
3.34843
3.45948
3.63117
3.87623
4.21287
4.66649
5.27148
6.07169
7.11613
8.44162
10.0268
11.6999
13.0233
13.3731
12.7714
11.8885
11.2157
10.9892
11.3079
12.218
13.7302
15.7593
17.9722
19.5927
19.5318
17.7854
15.4341
13.2445
11.5389
10.3923
9.79099
9.71099
10.1416
11.0694
12.4167
13.9147
14.9478
14.6543
13.0262
10.9083
8.89729
7.23873
5.98163
5.10321
4.57177
4.37029
4.49771
4.95044
5.67306
6.46176
6.84485
6.16058
4.39771
2.19492
-0.00121337
-2.01559
-3.82721
-5.47537
-7.01429
-8.50016
-9.99956
-11.62
-13.569
-16.2279
-20.1213
-25.4732
-32.2098
-40.3888
-50.1466
-61.4003
-73.4076
18.1148
14.418
11.3426
9.03513
7.35703
6.13462
5.23006
4.54724
4.02185
3.61125
3.28692
3.02955
2.82599
2.66721
2.54717
2.46204
2.40978
2.38998
2.40387
2.45456
2.54754
2.69154
2.90005
3.1937
3.60418
4.18033
4.99703
6.16542
7.8348
10.1502
13.0615
15.7846
16.0711
13.9442
11.7026
10.194
9.557
9.77589
10.889
13.0346
16.377
20.7745
24.8612
24.8092
20.6131
16.0896
12.5893
10.2319
8.81984
8.16903
8.19195
8.90827
10.43
12.89
16.178
19.2186
18.9976
15.5076
11.7469
8.77182
6.66731
5.26461
4.39858
3.97047
3.95444
4.39436
5.39375
7.06424
9.32641
11.3594
10.8575
7.81171
4.50941
1.75112
-0.407536
-2.10753
-3.49047
-4.65215
-5.64127
-6.47252
-7.16485
-7.86159
-9.14461
-12.4602
-18.1104
-25.3006
-34.2301
-45.6625
-60.2977
-77.5048
18.9871
12.8796
8.88745
6.46509
4.96551
3.99153
3.32542
2.84871
2.49496
2.2253
2.01602
1.85207
1.72365
1.62427
1.5497
1.49731
1.46574
1.45477
1.46533
1.49971
1.56201
1.6589
1.80114
2.00617
2.30315
2.74261
3.41574
4.49303
6.29743
9.41503
14.6936
22.054
22.2438
15.2815
10.4606
7.91678
6.89192
6.95575
8.07279
10.6151
15.4749
24.0236
36.0887
36.0528
23.9115
15.2711
10.288
7.56292
6.15088
5.57658
5.67412
6.51481
8.43918
12.1707
18.797
28.1854
28.0476
18.3782
11.4538
7.39238
5.085
3.77457
3.06317
2.77559
2.88186
3.4852
4.87047
7.60313
12.5207
19.5239
19.2172
11.5948
6.04035
2.63982
0.539964
-0.844406
-1.82417
-2.53846
-3.00963
-3.14541
-2.70322
-1.30987
0.865745
-1.43715
-8.52949
-15.8863
-24.4663
-36.5656
-55.4901
-83.9149
20.7534
8.29447
4.1712
2.56601
1.81696
1.40493
1.1479
0.972991
0.846844
0.752322
0.679765
0.623349
0.579399
0.545537
0.520229
0.502535
0.491979
0.488489
0.492417
0.50461
0.526592
0.5609
0.61172
0.68615
0.796866
0.968286
1.25235
1.7734
2.86882
5.56764
13.3273
38.648
38.7147
13.5346
5.93904
3.45201
2.65883
2.61875
3.20393
4.85777
9.26028
22.2083
64.74
64.7271
22.1678
9.18553
4.73462
3.00295
2.27533
2.01647
2.08592
2.56063
3.84576
7.28224
17.438
50.869
50.8222
17.2954
7.03749
3.48688
2.06692
1.42176
1.11733
1.01345
1.09339
1.44992
2.40679
4.99547
12.7113
38.2139
38.1107
12.3997
4.46939
1.65545
0.457102
-0.16394
-0.540135
-0.774827
-0.860918
-0.650557
0.388794
4.11535
17.3251
16.4827
1.43241
-4.71046
-9.63452
-17.6398
-37.0013
-94.9135
-66.3349
-70.4373
-74.3347
-77.9849
-81.3555
-84.4236
-87.1753
-89.6043
-91.7101
-93.4965
-94.9696
-96.1367
-97.0047
-97.5797
-97.8661
-66.4885
-70.641
-74.5803
-78.263
-81.6564
-84.7383
-87.4963
-89.9257
-92.0277
-93.8079
-95.2738
-96.4337
-97.2957
-97.8664
-98.1504
-66.8015
-71.0565
-75.081
-78.8288
-82.2671
-85.3754
-88.1442
-90.5725
-92.6654
-94.4317
-95.882
-97.0268
-97.8761
-98.4376
-98.7169
-67.2863
-71.7013
-75.8567
-79.7026
-83.2062
-86.3503
-89.1308
-91.553
-93.6279
-95.3697
-96.7936
-97.9136
-98.7422
-99.289
-99.5607
-67.9634
-72.6042
-76.9406
-80.9173
-84.503
-87.687
-90.4741
-92.8789
-94.9215
-96.6239
-98.0071
-99.0899
-99.8881
-100.413
-100.674
-68.8654
-73.8102
-78.3825
-82.5213
-86.1998
-89.4189
-92.1977
-94.5651
-96.5537
-98.1954
-99.519
-100.549
-101.305
-101.801
-102.046
-70.0419
-75.3872
-80.2565
-84.5838
-88.3543
-91.5894
-94.3308
-96.6282
-98.5308
-100.083
-101.323
-102.28
-102.979
-103.436
-103.662
-71.5698
-77.4385
-82.6707
-87.2014
-91.0425
-94.2516
-96.906
-99.084
-100.856
-102.281
-103.407
-104.268
-104.894
-105.301
-105.501
-73.5721
-80.1248
-85.7846
-90.5069
-94.3606
-97.4668
-99.9555
-101.944
-103.526
-104.777
-105.752
-106.491
-107.024
-107.369
-107.539
-76.2532
-83.7025
-89.8345
-94.679
-98.4244
-101.298
-103.504
-105.206
-106.525
-107.547
-108.331
-108.919
-109.34
-109.612
-109.745
-79.974
-88.5959
-95.1702
-99.9485
-103.358
-105.794
-107.555
-108.851
-109.82
-110.551
-111.103
-111.512
-111.803
-111.99
-112.082
-85.4294
-95.5349
-102.3
-106.585
-109.263
-110.961
-112.069
-112.82
-113.349
-113.733
-114.015
-114.222
-114.368
-114.462
-114.508
-94.1236
-105.812
-111.908
-114.825
-116.148
-116.715
-116.938
-117.01
-117.022
-117.013
-117
-116.99
-116.983
-116.979
-116.978
-109.846
-121.681
-124.692
-124.657
-123.785
-122.812
-121.955
-121.258
-120.712
-120.294
-119.98
-119.751
-119.592
-119.492
-119.444
-144.017
-146.37
-140.521
-135.323
-131.521
-128.791
-126.81
-125.353
-124.273
-123.468
-122.873
-122.441
-122.141
-121.951
-121.86
33.8058
33.7464
33.628
33.4523
33.2223
32.9435
32.6266
32.291
31.9725
31.7368
31.7085
32.1365
33.5911
37.7143
50.7469
34.7129
34.6532
34.5341
34.3563
34.1217
33.834
33.5011
33.1392
32.7801
32.4861
32.3784
32.6916
33.8718
36.6754
41.5866
35.6604
35.6004
35.48
35.2989
35.057
34.7547
34.3947
33.9845
33.5416
33.1051
32.7549
32.6437
33.0241
34.1722
35.8504
36.6487
36.5884
36.467
36.2827
36.0331
35.7145
35.3222
34.8513
34.2979
33.6633
32.9645
32.2531
31.6423
31.2997
31.2936
37.6779
37.6179
37.4966
37.311
37.0561
36.7242
36.3032
35.7744
35.1095
34.2653
33.1818
31.7918
30.0733
28.1927
26.7466
38.7478
38.6891
38.5698
38.3863
38.1316
37.7947
37.3578
36.7911
36.0447
35.0326
33.6108
31.5577
28.616
24.7832
21.2094
39.8573
39.8011
39.6867
39.5098
39.2629
38.9335
38.5013
37.9315
37.1633
36.0835
34.4771
31.9397
27.7767
21.1932
13.2047
41.0049
40.9526
40.846
40.681
40.4504
40.1426
39.739
39.2088
38.4973
37.4989
35.989
33.4497
28.6173
18.5783
-0.333039
42.1877
42.1406
42.0447
41.8965
41.6902
41.4169
41.0634
40.6108
40.0296
39.2682
38.2147
36.5512
33.0726
22.1243
-26.9888
43.4021
43.3613
43.2786
43.1513
42.9754
42.7454
42.4554
42.1011
41.6862
41.2391
40.8629
40.9122
42.714
52.1729
100.353
44.6436
44.6101
44.5424
44.4387
44.2967
44.1142
43.8906
43.6323
43.3642
43.1592
43.2145
44.055
47.0366
55.3306
73.0818
45.9072
45.8816
45.83
45.7514
45.6449
45.51
45.3485
45.1692
44.9975
44.8971
45.0194
45.7099
47.6686
51.9194
58.156
47.1873
47.1699
47.135
47.0823
47.0115
46.9226
46.8172
46.6997
46.5803
46.4788
46.4284
46.4828
46.7075
47.1276
47.5796
48.4782
48.4692
48.4513
48.4246
48.3892
48.3453
48.2928
48.2302
48.1498
48.0234
47.7631
47.1363
45.6091
42.3124
37.3357
49.7741
49.7735
49.7724
49.7715
49.7714
49.7723
49.7738
49.7717
49.7502
49.6593
49.3511
48.4138
45.738
38.6628
23.6548
51.0692
51.0767
51.0922
51.1166
51.1513
51.1974
51.2558
51.3252
51.3977
51.4443
51.3746
50.8973
48.9206
40.5209
-0.42907
52.3576
52.373
52.4044
52.4533
52.5217
52.6122
52.7284
52.8754
53.0619
53.3085
53.6796
54.4207
56.5621
64.9823
105.848
53.6341
53.6568
53.7032
53.775
53.8752
54.0075
54.1781
54.3966
54.6832
55.0845
55.726
56.9703
59.8414
66.9107
81.7462
54.8934
54.9229
54.9829
55.0757
55.2046
55.3746
55.5925
55.8693
56.2237
56.6919
57.3522
58.3888
60.2034
63.4442
67.9689
56.1308
56.1663
56.2384
56.3497
56.504
56.7066
56.9643
57.2865
57.6839
58.164
58.7153
59.2655
59.5731
59.0843
57.356
57.3421
57.3827
57.4653
57.5925
57.7683
57.9983
58.2895
58.65
59.0854
59.5848
60.0775
60.3093
59.4941
55.5838
45.5652
58.5238
58.5687
58.6598
58.8
58.9933
59.2456
59.5647
59.96
60.4412
61.0083
61.6192
62.0785
61.5626
56.3236
26.8397
59.6727
59.7209
59.8188
59.969
60.1756
60.4447
60.7849
61.2088
61.7361
62.3993
63.2644
64.5234
66.909
73.8986
104.505
60.7866
60.8373
60.94
61.0972
61.3128
61.5925
61.9451
62.3843
62.9354
63.6479
64.6344
66.1843
69.0561
75.0715
86.6056
61.8637
61.916
62.0218
62.1832
62.4036
62.6878
63.0429
63.4806
64.0213
64.7042
65.6112
66.9257
69.0181
72.4101
76.7407
62.9029
62.9561
63.0634
63.2267
63.4483
63.7318
64.0815
64.5037
65.0071
65.6027
66.3032
67.1252
68.0755
69.095
69.9079
63.9035
63.957
64.0647
64.2279
64.4483
64.7276
65.0676
65.4689
65.9276
66.4262
66.9088
67.2341
67.0827
65.9217
63.6643
64.8652
64.9187
65.0259
65.1879
65.4054
65.6793
66.0091
66.3924
66.8192
67.2586
67.6218
67.6722
66.7891
63.5081
55.878
65.7883
65.8413
65.9476
66.1075
66.3216
66.5899
66.9115
67.284
67.7006
68.1417
68.5501
68.7571
68.1586
64.113
42.8182
66.6729
66.7253
66.8302
66.9879
67.1984
67.4613
67.7763
68.1432
68.5637
69.0453
69.6164
70.3997
71.9197
76.6948
98.3765
67.5194
67.5712
67.6747
67.8299
68.0367
68.2945
68.6029
68.9635
69.3832
69.8844
70.5335
71.5289
73.4181
77.5342
85.6366
68.3283
68.3794
68.4815
68.6345
68.8377
69.0902
69.3912
69.741
70.1446
70.6184
71.2081
72.0358
73.368
75.6032
78.5498
69.1
69.1505
69.2515
69.4024
69.6025
69.8501
70.1433
70.4794
70.8559
71.2696
71.7155
72.1907
72.6885
73.1765
73.5354
69.8348
69.8849
69.985
70.1345
70.3322
70.5763
70.8633
71.188
71.54
71.8962
72.2006
72.328
72.0137
70.8376
68.7967
70.533
70.5829
70.6825
70.8312
71.0278
71.2703
71.5551
71.8758
72.2198
72.5564
72.8065
72.7705
71.9352
69.0974
62.6674
71.1948
71.2447
71.3442
71.4929
71.6896
71.9328
72.2195
72.5456
72.9033
73.2743
73.609
73.7664
73.2451
69.8501
52.0994
71.8203
71.8703
71.9701
72.1193
72.3172
72.5627
72.8544
73.1917
73.5763
74.015
74.5325
75.2319
76.5483
80.5704
98.6481
72.4092
72.4595
72.5599
72.7101
72.9098
73.1582
73.4553
73.8033
74.2102
74.6985
75.3278
76.2672
77.9703
81.528
88.3614
72.9614
73.0121
73.1133
73.2648
73.4664
73.7176
74.0186
74.372
74.7862
75.2817
75.9056
76.7704
78.1021
80.2087
82.8476
73.4767
73.5278
73.63
73.783
73.9865
74.24
74.5431
74.8968
75.3045
75.7732
76.314
76.9477
77.6934
78.5179
79.1939
73.9546
74.0063
74.1096
74.2643
74.4699
74.7256
75.0302
75.3821
75.7789
76.2121
76.6559
77.0454
77.2277
76.9284
76.0374
74.3947
74.4471
74.5517
74.7084
74.9165
75.175
75.482
75.8346
76.2265
76.6414
77.0332
77.2853
77.0941
75.7478
72.29
74.7967
74.8498
74.956
75.1149
75.3261
75.5884
75.8999
76.2578
76.6568
77.0842
77.5056
77.8312
77.7603
76.0318
66.1691
75.16
75.2139
75.3217
75.4833
75.6981
75.9652
76.2832
76.6505
77.0659
77.5285
78.0424
78.6506
79.5755
81.9626
92.1586
75.4839
75.5387
75.6484
75.8128
76.0316
76.3042
76.6298
77.0081
77.4409
77.9348
78.5117
79.2483
80.3728
82.4687
86.3253
75.7679
75.8237
75.9352
76.1026
76.3257
76.6042
76.9375
77.3259
77.7718
78.281
78.8679
79.5748
80.4931
81.75
83.1986
76.0114
76.0681
76.1815
76.3519
76.5793
76.8636
77.2045
77.6021
78.0574
78.5707
79.1387
79.7527
80.3759
80.8962
81.1061
76.2136
76.2712
76.3864
76.5597
76.7913
77.0813
77.4296
77.8364
78.3011
78.8198
79.3756
79.9223
80.3278
80.2562
79.1876
76.374
76.4324
76.5493
76.7252
76.9606
77.2561
77.6118
78.0284
78.506
79.0407
79.6164
80.1883
80.6086
80.3066
76.5556
76.4921
76.551
76.6693
76.8474
77.0862
77.3866
77.7494
78.1763
78.6696
79.2306
79.8579
80.5576
81.3888
82.7501
87.1112
76.5673
76.6267
76.7459
76.9257
77.167
77.4712
77.84
78.2763
78.7848
79.372
80.0469
80.8338
81.7984
83.1086
84.9596
76.5994
76.659
76.7786
76.9592
77.202
77.5086
77.8814
78.3243
78.8439
79.45
80.1558
80.9849
81.9656
83.0895
84.122
76.5883
76.6477
76.7672
76.9477
77.1906
77.4977
77.8717
78.3171
78.8414
79.4562
80.177
81.0288
82.0309
83.1319
84.0299
76.5339
76.593
76.7117
76.891
77.1324
77.4379
77.81
78.2531
78.7747
79.3862
80.1051
80.9667
82.0251
83.3134
84.5899
76.4367
76.495
76.6122
76.7893
77.0277
77.3293
77.6965
78.1329
78.6442
79.239
79.9321
80.7659
81.8572
83.5012
86.0648
76.2972
76.3544
76.4693
76.6431
76.877
77.1729
77.5326
77.9588
78.4543
79.021
79.6592
80.3845
81.3031
83.0485
89.3484
76.116
76.1718
76.2838
76.4531
76.6812
76.9697
77.3202
77.7346
78.2134
78.7509
79.3238
79.867
80.1723
79.4311
73.6869
75.8944
75.9483
76.0567
76.2206
76.4414
76.721
77.0611
77.4639
77.9302
78.4537
79.0069
79.5129
79.766
79.2862
77.4127
75.6334
75.6851
75.7892
75.9466
76.1588
76.4278
76.7561
77.1473
77.6058
78.1334
78.7207
79.3325
79.8663
80.1074
79.8655
75.3346
75.3839
75.4829
75.6326
75.8347
76.0911
76.4051
76.7822
77.2319
77.7691
78.4154
79.2046
80.1674
81.262
82.1783
74.9998
75.0462
75.1395
75.2805
75.4707
75.712
76.0079
76.3648
76.7958
77.3267
78.0088
78.9542
80.3748
82.5387
85.1554
74.631
74.6743
74.7612
74.8925
75.0692
75.2928
75.5659
75.8941
76.2891
76.7767
77.4173
78.3721
80.0635
83.4988
89.9775
74.2303
74.2702
74.3503
74.471
74.633
74.8368
75.0834
75.3751
75.7166
76.118
76.6054
77.2768
78.5389
82.3437
99.3263
73.8001
73.8365
73.9095
74.0192
74.1657
74.3487
74.5673
74.8197
75.1012
75.3973
75.6635
75.7696
75.2463
72.0352
55.365
73.3428
73.3756
73.4414
73.54
73.671
73.8335
74.0254
74.2423
74.4744
74.6948
74.8308
74.6977
73.818
71.0718
64.9853
72.8608
72.8901
72.9488
73.0364
73.1525
73.2957
73.4637
73.6527
73.8544
74.0484
74.1831
74.1427
73.6835
72.4263
70.4056
72.3567
72.3826
72.4343
72.5113
72.6131
72.7383
72.8853
73.0524
73.2383
73.4408
73.6548
73.8769
74.1011
74.3093
74.4494
71.8328
71.8554
71.9004
71.9674
72.0554
72.1634
72.2906
72.4375
72.6095
72.8227
73.119
73.6081
74.5276
76.2379
78.617
71.2914
71.3109
71.3496
71.4069
71.4819
71.5731
71.6798
71.8033
71.9507
72.1446
72.4473
73.0387
74.4027
77.7003
84.4633
70.7348
70.7514
70.7843
70.8326
70.895
70.9698
71.0553
71.1507
71.2585
71.3886
71.5731
71.931
72.933
76.7543
95.0325
70.1649
70.1789
70.2065
70.2466
70.2976
70.3569
70.4216
70.4877
70.5494
70.5926
70.5765
70.3743
69.5033
65.7668
47.502
69.5834
69.5953
69.6184
69.6514
69.6923
69.7381
69.7847
69.8261
69.8517
69.8356
69.7071
69.2806
68.0616
64.8668
58.1324
68.9921
69.0022
69.0217
69.049
69.0818
69.1167
69.1492
69.1738
69.1819
69.1542
69.0428
68.7357
67.9898
66.4233
64.1115
68.392
68.4009
68.4179
68.4411
68.4679
68.4946
68.517
68.5314
68.5355
68.5288
68.5124
68.494
68.4858
68.4957
68.5106
67.784
67.7924
67.808
67.829
67.8521
67.8733
67.8883
67.8945
67.8953
67.9078
67.9814
68.2438
68.9671
70.5631
72.9452
67.1686
67.1771
67.1929
67.2138
67.2359
67.2543
67.2635
67.2597
67.2457
67.2422
67.3174
67.6721
68.8403
72.0828
79.0592
66.5456
66.5551
66.5728
66.596
66.6203
66.6395
66.6456
66.6304
66.5876
66.5198
66.4575
66.5337
67.2709
71.0079
90.0429
65.9144
65.9258
65.9472
65.9757
66.0063
66.0316
66.0405
66.0186
65.9456
65.7913
65.4994
64.9349
63.6164
59.3077
39.8752
65.2736
65.2879
65.3151
65.3523
65.3944
65.4328
65.4548
65.4405
65.359
65.1563
64.7287
63.8582
62.0364
58.1087
50.632
64.6214
64.6394
64.6745
64.7239
64.783
64.8435
64.8922
64.9076
64.8551
64.6754
64.2636
63.4407
61.9169
59.3727
56.2207
63.9549
63.9776
64.0223
64.0873
64.1688
64.2604
64.3505
64.4202
64.4384
64.3535
64.0823
63.5085
62.504
61.0573
59.6446
63.271
63.2989
63.3546
63.4375
63.5459
63.6762
63.821
63.967
64.092
64.1587
64.1094
63.8739
63.3962
62.7169
62.1114
62.5662
62.5994
62.6664
62.7683
62.9061
63.08
63.2885
63.5269
63.7849
64.0423
64.2641
64.4059
64.4265
64.3235
64.1816
61.8368
61.8749
61.9526
62.0727
62.2394
62.4577
62.7332
63.0716
63.4771
63.9485
64.4724
65.0205
65.5408
65.9556
66.177
61.0794
61.1214
61.2077
61.3431
61.535
61.7936
62.1322
62.5681
63.1224
63.8161
64.6622
65.6528
66.7263
67.7203
68.3501
60.2913
60.3356
60.4273
60.5728
60.7827
61.0719
61.4616
61.981
62.6695
63.5757
64.7498
66.2261
67.9649
69.7362
70.9843
59.471
59.5154
59.6079
59.7564
59.9736
60.2785
60.6989
61.2749
62.0644
63.1472
64.6256
66.6156
69.1787
72.1138
74.5088
58.6184
58.6603
58.7482
58.8907
59.1018
59.403
59.8261
60.4191
61.2546
62.4417
64.1444
66.6056
70.132
74.8648
79.7201
57.7352
57.7718
57.8492
57.9759
58.1659
58.4408
58.8333
59.3934
60.1993
61.3763
63.1346
65.8543
70.2453
77.5289
88.3266
56.825
56.8536
56.9146
57.0155
57.1692
57.3951
57.7223
58.1956
58.8852
59.9052
61.4553
63.9407
68.3478
77.7508
104.455
-238.387
-176.519
-154.429
-143.821
-137.624
-133.582
-130.778
-128.761
-127.28
-126.184
-125.373
-124.783
-124.373
-124.114
-123.988
-201.457
-176.301
-159.098
-148.48
-141.675
-137.077
-133.836
-131.484
-129.746
-128.451
-127.489
-126.787
-126.296
-125.985
-125.834
-182.023
-170.556
-159.19
-150.491
-144.19
-139.627
-136.276
-133.78
-131.903
-130.486
-129.423
-128.642
-128.093
-127.743
-127.573
-170.581
-164.739
-157.429
-150.835
-145.496
-141.333
-138.12
-135.644
-133.737
-132.272
-131.159
-130.334
-129.749
-129.375
-129.193
-163.222
-159.939
-155.167
-150.304
-145.985
-142.377
-139.45
-137.112
-135.262
-133.812
-132.695
-131.856
-131.258
-130.873
-130.685
-158.17
-156.171
-152.967
-149.395
-145.976
-142.945
-140.37
-138.239
-136.506
-135.12
-134.034
-133.209
-132.616
-132.232
-132.044
-154.533
-153.238
-151.02
-148.378
-145.695
-143.195
-140.981
-139.088
-137.507
-136.217
-135.19
-134.4
-133.827
-133.455
-133.271
-151.824
-150.944
-149.364
-147.388
-145.286
-143.243
-141.369
-139.717
-138.305
-137.129
-136.179
-135.439
-134.898
-134.543
-134.368
-149.753
-149.134
-147.981
-146.485
-144.832
-143.171
-141.6
-140.178
-138.936
-137.883
-137.019
-136.339
-135.837
-135.506
-135.342
-148.139
-147.693
-146.834
-145.688
-144.383
-143.034
-141.725
-140.513
-139.434
-138.503
-137.729
-137.113
-136.655
-136.352
-136.201
-146.863
-146.535
-145.886
-144.998
-143.963
-142.868
-141.781
-140.755
-139.825
-139.012
-138.327
-137.777
-137.364
-137.089
-136.952
-145.842
-145.599
-145.102
-144.408
-143.583
-142.693
-141.793
-140.929
-140.134
-139.429
-138.829
-138.343
-137.976
-137.73
-137.607
-145.018
-144.837
-144.453
-143.907
-143.247
-142.522
-141.778
-141.053
-140.378
-139.772
-139.25
-138.824
-138.501
-138.283
-138.174
-144.348
-144.213
-143.915
-143.482
-142.953
-142.362
-141.748
-141.142
-140.571
-140.053
-139.603
-139.233
-138.951
-138.76
-138.664
-143.8
-143.699
-143.467
-143.124
-142.698
-142.217
-141.71
-141.205
-140.724
-140.284
-139.899
-139.58
-139.335
-139.169
-139.085
-143.349
-143.276
-143.095
-142.823
-142.479
-142.088
-141.67
-141.25
-140.846
-140.474
-140.146
-139.873
-139.662
-139.519
-139.446
-142.976
-142.924
-142.785
-142.568
-142.292
-141.973
-141.63
-141.282
-140.945
-140.631
-140.354
-140.121
-139.941
-139.818
-139.756
-142.667
-142.632
-142.525
-142.354
-142.133
-141.874
-141.592
-141.305
-141.024
-140.762
-140.528
-140.331
-140.177
-140.073
-140.02
-142.41
-142.389
-142.308
-142.173
-141.996
-141.787
-141.558
-141.321
-141.089
-140.87
-140.674
-140.508
-140.379
-140.29
-140.245
-142.195
-142.185
-142.125
-142.021
-141.881
-141.712
-141.526
-141.332
-141.141
-140.96
-140.797
-140.658
-140.55
-140.476
-140.438
-142.014
-142.013
-141.971
-141.892
-141.782
-141.648
-141.498
-141.341
-141.184
-141.036
-140.901
-140.786
-140.696
-140.634
-140.602
-141.862
-141.869
-141.841
-141.782
-141.697
-141.592
-141.473
-141.346
-141.22
-141.099
-140.989
-140.894
-140.82
-140.769
-140.743
-141.733
-141.746
-141.73
-141.688
-141.625
-141.544
-141.45
-141.351
-141.25
-141.153
-141.064
-140.987
-140.927
-140.885
-140.863
-141.623
-141.641
-141.635
-141.608
-141.563
-141.502
-141.431
-141.354
-141.275
-141.199
-141.128
-141.067
-141.018
-140.985
-140.967
-141.528
-141.551
-141.554
-141.539
-141.509
-141.466
-141.414
-141.356
-141.297
-141.238
-141.183
-141.136
-141.098
-141.071
-141.058
-141.445
-141.472
-141.482
-141.478
-141.462
-141.434
-141.399
-141.358
-141.315
-141.272
-141.232
-141.196
-141.167
-141.147
-141.137
-141.372
-141.402
-141.419
-141.424
-141.42
-141.406
-141.385
-141.36
-141.332
-141.303
-141.275
-141.249
-141.229
-141.214
-141.207
-141.305
-141.338
-141.362
-141.376
-141.382
-141.381
-141.373
-141.362
-141.347