/*--------------------------------*- C++ -*----------------------------------*\
| =========                 |                                                 |
| \\      /  F ield         | OpenFOAM: The Open Source CFD Toolbox           |
|  \\    /   O peration     | Version:  5.x                                   |
|   \\  /    A nd           | Web:      www.OpenFOAM.org                      |
|    \\/     M anipulation  |                                                 |
\*---------------------------------------------------------------------------*/
FoamFile
{
    version     2.0;
    format      ascii;
    class       volScalarField;
    location    "14.9";
    object      gradTx;
}
// * * * * * * * * * * * * * * * * * * * * * * * * * * * * * * * * * * * * * //

dimensions      [0 -1 0 1 0 0 0];

internalField   nonuniform List<scalar> 
6300
(
19.6684
19.6091
19.4906
19.3129
19.0763
18.7809
18.4275
18.0171
17.5513
17.0325
16.4642
15.851
15.1988
14.5153
13.809
19.7268
19.6675
19.549
19.3711
19.1341
18.8382
18.4838
18.0718
17.6036
17.0814
16.5084
15.8892
15.2297
14.5373
13.8212
19.8437
19.7844
19.6658
19.4877
19.2502
18.9532
18.5969
18.1819
17.7091
17.1803
16.5982
15.9671
15.2927
14.5827
13.8465
20.0192
19.9599
19.8412
19.6629
19.4248
19.1266
18.768
18.349
17.8699
17.3317
16.7364
16.0876
15.3907
14.6535
13.8862
20.253
20.1939
20.0754
19.8972
19.6589
19.3596
18.9987
18.5754
18.089
17.5394
16.9275
16.2556
15.5284
14.7538
13.943
20.5452
20.4864
20.3684
20.1909
19.9529
19.6535
19.2911
18.8641
18.3706
17.8089
17.1778
16.4781
15.7129
14.8897
14.0208
20.8954
20.8371
20.7203
20.5441
20.3077
20.0095
19.6474
19.2186
18.7197
18.1468
17.4962
16.7654
15.9549
15.0706
14.1261
21.3031
21.2457
21.1304
20.9568
20.7234
20.4286
20.0695
19.6424
19.142
18.5618
17.8941
17.1317
16.2699
15.311
14.269
21.7673
21.7111
21.5983
21.4282
21.1998
20.9111
20.5589
20.1386
19.6434
19.0634
18.3861
17.5966
16.6812
15.6339
14.4658
22.2869
22.2321
22.1224
21.9573
21.7357
21.4561
21.1155
20.709
20.2286
19.6617
18.9895
18.1867
17.2239
16.0767
14.7453
22.8603
22.8072
22.7011
22.5418
22.3288
22.0612
21.7371
21.3525
20.8996
20.3643
19.7227
18.9361
17.9501
16.7032
15.1601
23.4858
23.4345
23.3321
23.179
22.9755
22.722
22.4185
22.0633
21.6519
21.1726
20.5999
19.884
18.9365
17.6254
15.8159
24.1616
24.1119
24.013
23.8657
23.6713
23.432
23.1504
22.8295
22.4713
22.0732
21.6195
21.0627
20.2857
19.0453
16.9509
24.8861
24.8376
24.7413
24.5984
24.4111
24.1833
23.9207
23.6321
23.3296
23.0285
22.7415
22.4606
22.0974
21.3186
19.1827
25.6581
25.6102
25.5152
25.3744
25.1905
24.9683
24.716
24.4474
24.1856
23.9685
23.8566
23.9401
24.3237
24.9481
24.4028
13.1504
12.5489
11.9513
11.364
10.7926
10.2425
9.71847
9.22456
8.76409
8.33967
7.95324
7.60615
7.29919
7.03274
6.80677
6.62092
6.47454
6.36675
6.29638
6.26205
6.26208
6.29451
6.35707
6.44713
6.56172
6.69752
6.8509
7.01799
7.19479
7.37726
7.56148
7.74374
7.92063
8.08906
8.24619
8.38938
8.51605
8.6236
8.70938
8.77071
8.80501
8.80999
8.78383
8.72533
8.63399
8.50995
8.35384
8.16652
7.9488
7.70114
7.42344
7.115
6.77443
6.39987
5.9891
5.53979
5.04972
4.51683
3.93926
3.31529
2.6431
1.92055
1.14499
0.313019
-0.579601
-1.53797
-2.56798
-3.67613
-4.86933
-6.15463
-7.53899
-9.02911
-10.6313
-12.3512
-14.1941
-16.1646
-18.2666
-20.5029
-22.8752
-25.3836
-28.0261
-30.7978
-33.691
-36.6941
-39.7916
-42.9641
-46.1884
-49.438
-52.6843
-55.8971
13.153
12.5425
11.9362
11.3405
10.7614
10.2045
9.6747
9.17602
8.71181
8.2846
7.89626
7.54801
7.24056
6.97416
6.74871
6.56379
6.41872
6.31258
6.24424
6.21231
6.21516
6.25088
6.3172
6.41154
6.53091
6.67192
6.83087
7.00373
7.18632
7.37444
7.56398
7.75115
7.9325
8.10499
8.26593
8.41282
8.54323
8.65461
8.74423
8.80926
8.84686
8.85447
8.83004
8.77227
8.68072
8.55577
8.39843
8.20996
7.99158
7.74404
7.4674
7.16093
6.82308
6.45171
6.04429
5.59823
5.11112
4.5809
4.00585
3.38451
2.7154
1.99671
1.22605
0.400206
-0.485048
-1.43492
-2.45554
-3.55373
-4.73674
-6.01197
-7.38668
-8.86773
-10.4615
-12.1739
-14.0102
-15.9752
-18.0729
-20.3067
-22.6789
-25.1902
-27.8394
-30.6225
-33.5322
-36.5575
-39.683
-42.8888
-46.1511
-49.4421
-52.7315
-55.9875
13.1586
12.5298
11.9054
11.2926
10.6978
10.1272
9.58567
9.07747
8.60586
8.17322
7.7812
7.4308
7.12249
6.85632
6.63201
6.44901
6.30657
6.20374
6.1394
6.11223
6.12067
6.1629
6.23675
6.33966
6.46865
6.62024
6.79052
6.97517
7.16963
7.36926
7.56962
7.76663
7.9568
8.13723
8.30556
8.45968
8.59749
8.71658
8.81415
8.88695
8.93156
8.94474
8.9239
8.86748
8.77518
8.6479
8.48747
8.29615
8.07602
7.8285
7.55401
7.25172
6.9197
6.55516
6.15484
5.71549
5.23434
4.70926
4.13888
3.52233
2.85888
2.1475
1.38643
0.572791
-0.297569
-1.23011
-2.23149
-3.30923
-4.47139
-5.72609
-7.08119
-8.54395
-10.121
-11.8182
-13.641
-15.5943
-17.6829
-19.911
-22.2818
-24.7979
-27.4594
-30.2642
-33.2065
-36.2761
-39.4579
-42.7316
-46.0715
-49.4475
-52.8259
-56.171
13.1676
12.5101
11.8575
11.2181
10.5992
10.0074
9.44826
8.92588
8.44342
8.003
7.60588
7.25266
6.94344
6.67791
6.45553
6.27555
6.1371
6.03921
5.98079
5.96061
5.97727
6.02913
6.11417
6.22998
6.37358
6.54139
6.72919
6.9322
7.14518
7.36275
7.57976
7.79165
7.99479
8.18658
8.36531
8.52968
8.67833
8.80922
8.91938
9.00488
9.06115
9.08363
9.06863
9.014
8.91963
8.7874
8.62067
8.42347
8.19954
7.9515
7.6803
7.385
7.06286
6.70983
6.32127
5.89269
5.42054
4.90262
4.33816
3.72744
3.07116
2.36969
1.62234
0.826903
-0.0206704
-0.926298
-1.89755
-2.94324
-4.0728
-5.29566
-6.62065
-8.05559
-9.60723
-11.2814
-13.0835
-15.0186
-17.092
-19.3092
-21.6755
-24.1956
-26.8727
-29.7075
-32.6968
-35.8324
-39.0999
-42.4782
-45.9392
-49.4487
-52.9673
-56.4529
13.1809
12.4828
11.7904
11.1135
10.461
9.84041
9.25747
8.71643
8.22011
7.77009
7.36702
7.01088
6.70116
6.43709
6.21771
6.04202
5.90899
5.8176
5.76685
5.75568
5.78296
5.84731
5.94706
6.08003
6.24338
6.43347
6.6457
6.87458
7.11382
7.35676
7.59697
7.82896
8.0488
8.25443
8.44539
8.62201
8.78438
8.93134
9.05978
9.16455
9.23901
9.27616
9.27006
9.21739
9.11825
8.97621
8.79739
8.58894
8.35743
8.10751
7.841
7.55661
7.25017
6.91539
6.54504
6.13236
5.67238
5.16275
4.60381
3.99794
3.34833
2.65773
1.92732
1.15595
0.339698
-0.528088
-1.45653
-2.45654
-3.53991
-4.71819
-6.00176
-7.39913
-8.91694
-10.5604
-12.3343
-14.2434
-16.2938
-18.4924
-20.8473
-23.3668
-26.0586
-28.9279
-31.976
-35.1981
-38.5817
-42.1049
-45.7364
-49.4358
-53.1552
-56.8424
13.2001
12.4467
11.7003
10.9733
10.2766
9.61872
9.00595
8.44227
7.92981
7.46926
7.06029
6.70195
6.39289
6.13164
5.91673
5.74681
5.62065
5.53723
5.49567
5.49518
5.535
5.61428
5.73186
5.88607
6.07444
6.29339
6.53799
6.80176
7.07684
7.35441
7.62572
7.88344
8.12295
8.34308
8.54577
8.73449
8.91229
9.07979
9.2339
9.3675
9.47027
9.53056
9.53821
9.48733
9.37827
9.21763
9.01642
8.78726
8.54151
8.28707
8.02711
7.75966
7.478
7.17188
6.82948
6.43987
5.99544
5.4936
4.93681
4.33119
3.68432
3.00291
2.29113
1.54945
0.774151
-0.0426436
-0.912537
-1.84989
-2.87038
-3.98914
-5.21899
-6.56922
-8.04563
-9.65164
-11.3901
-13.2648
-15.2819
-17.4503
-19.7817
-22.2896
-24.9883
-27.8903
-31.0041
-34.3309
-37.8617
-41.5749
-45.4351
-49.3933
-53.3888
-57.3536
13.2274
12.4001
11.5818
10.7891
10.0357
9.33167
8.68335
8.094
7.56444
7.09385
6.6804
6.32178
6.0155
5.7592
5.55073
5.38832
5.27055
5.19637
5.16511
5.17638
5.23001
5.32588
5.46369
5.64269
5.8612
6.11613
6.40239
6.71241
7.03598
7.36076
7.67375
7.96384
8.22466
8.45653
8.6659
8.86236
9.05469
9.24715
9.43716
9.61448
9.76231
9.86042
9.89025
9.84067
9.7122
9.51708
9.27533
9.00912
8.73774
8.47423
8.22369
7.98285
7.74073
7.48032
7.18163
6.826
6.40091
5.90332
5.33985
4.72362
4.0698
3.39163
2.69782
1.99119
1.26822
0.519145
-0.271498
-1.12362
-2.0594
-3.10018
-4.26288
-5.55759
-6.98763
-8.55211
-10.2495
-12.0809
-14.0518
-16.1733
-18.4615
-20.9375
-23.6248
-26.5473
-29.725
-33.1694
-36.8784
-40.8325
-44.9919
-49.2961
-53.6657
-58.0081
13.2664
12.3398
11.4259
10.5478
9.72333
8.96393
8.27544
7.65926
7.11382
6.63585
6.2213
5.86598
5.56592
5.31763
5.11819
4.96534
4.85744
4.79349
4.77309
4.79638
4.86398
4.97685
5.136
5.34218
5.59528
5.8935
6.23231
6.60327
6.9931
7.38378
7.75445
8.08605
8.36774
8.60205
8.80425
8.99584
9.19652
9.41767
9.65831
9.90354
10.1255
10.2882
10.3562
10.3072
10.1417
9.88329
9.56907
9.23804
8.92226
8.64236
8.40593
8.20755
8.02947
7.84357
7.61545
7.31187
6.91047
6.40762
5.8186
5.16994
4.49011
3.80265
3.12276
2.45627
1.79973
1.14065
0.457953
-0.276952
-1.09732
-2.03571
-3.11671
-4.3511
-5.73601
-7.26108
-8.91599
-10.696
-12.6049
-14.6558
-16.8708
-19.2806
-21.9223
-24.8363
-28.0613
-31.6262
-35.5416
-39.7937
-44.3394
-49.104
-53.9809
-58.8388
13.3232
12.2607
11.218
10.229
9.31677
8.49368
7.76302
7.12227
6.56569
6.08621
5.67665
5.33035
5.04156
4.80548
4.61837
4.47744
4.38086
4.32771
4.31794
4.35236
4.43259
4.56096
4.74036
4.97389
5.26416
5.61219
6.0157
6.46668
6.94873
7.4353
7.89111
8.2798
8.5787
8.79347
8.95751
9.11586
9.30853
9.55973
9.87246
10.2256
10.5738
10.8519
10.9903
10.9411
10.7047
10.3294
9.88664
9.44463
9.05477
8.7475
8.53303
8.40265
8.32914
8.26727
8.15762
7.9383
7.5658
7.03573
6.38294
5.66088
4.92117
4.20255
3.52818
2.90684
2.33472
1.79602
1.26244
0.692664
0.0346149
-0.76597
-1.74973
-2.9279
-4.28257
-5.78305
-7.40219
-9.12543
-10.9534
-12.9017
-14.9995
-17.2896
-19.8272
-22.6772
-25.9079
-29.5776
-33.7195
-38.3314
-43.3711
-48.7493
-54.3224
-59.8968
13.4076
12.1528
10.9325
9.79893
8.78161
7.89006
7.12085
6.46379
5.90623
5.43561
5.04062
4.7117
4.44107
4.22265
4.05185
3.92547
3.84155
3.79927
3.79899
3.84222
3.93169
4.07139
4.2666
4.52369
4.84963
5.25077
5.73049
6.28507
6.89756
7.53083
8.12408
8.6025
8.91046
9.0576
9.11858
9.18612
9.33587
9.61285
10.028
10.5546
11.1225
11.6163
11.8939
11.8443
11.4671
10.8724
10.2027
9.57578
9.06802
8.71867
8.53868
8.51549
8.6117
8.75941
8.85739
8.78499
8.4477
7.84028
7.04672
6.17699
5.32165
4.53854
3.85704
3.28636
2.82138
2.44383
2.11891
1.78925
1.37168
0.767437
-0.102888
-1.25058
-2.6192
-4.13413
-5.73844
-7.4039
-9.12863
-10.9319
-12.8512
-14.9421
-17.2817
-19.9696
-23.122
-26.8487
-31.2199
-36.2524
-41.9146
-48.1129
-54.6611
-61.2637
13.5379
11.9945
10.5215
9.20117
8.06498
7.11001
6.317
5.66183
5.12141
4.67591
4.30927
4.00891
3.76523
3.57105
3.4212
3.31222
3.2421
3.2102
3.21723
3.26533
3.35828
3.50174
3.70356
3.97417
4.32661
4.77598
5.33726
6.0198
6.8162
7.68369
8.52207
9.17034
9.47346
9.44543
9.26987
9.13763
9.17961
9.46669
10.0226
10.8236
11.7775
12.6916
13.2682
13.2189
12.5421
11.523
10.4567
9.53497
8.85283
8.44568
8.31822
8.45607
8.81977
9.32281
9.80213
10.0128
9.71826
8.91254
7.8199
6.67211
5.61786
4.72802
4.02615
3.5135
3.18197
3.01571
2.98206
3.01225
2.97739
2.68387
1.94326
0.744767
-0.745184
-2.35654
-3.98664
-5.59692
-7.19059
-8.79516
-10.4554
-12.2363
-14.2343
-16.593
-19.5085
-23.1913
-27.7674
-33.266
-39.6855
-46.9717
-54.9205
-63.0752
13.7481
11.7347
9.89005
8.33785
7.0869
6.09627
5.31422
4.6943
4.19964
3.80243
3.48228
3.22435
3.01795
2.85545
2.73157
2.64288
2.5875
2.56494
2.57618
2.62373
2.71202
2.84788
3.04132
3.30665
3.66383
4.13986
4.76919
5.59032
6.6322
7.87817
9.19346
10.2348
10.513
10.0454
9.3584
8.83789
8.67002
8.93297
9.66391
10.8718
12.4894
14.2523
15.5434
15.4967
14.1095
12.2412
10.5021
9.1487
8.24125
7.76955
7.71535
8.07108
8.82682
9.92003
11.1333
11.9677
11.7246
10.3976
8.67218
7.03223
5.67704
4.64657
3.92255
3.47962
3.30439
3.39644
3.75308
4.32875
4.95539
5.24395
4.64857
3.1597
1.30357
-0.552054
-2.2634
-3.81387
-5.2368
-6.57811
-7.88585
-9.21771
-10.6672
-12.4145
-14.7898
-18.2473
-22.9861
-28.9528
-36.2076
-44.8753
-54.8828
-65.5679
14.1099
11.2315
8.837
7.04038
5.73382
4.78207
4.07783
3.54627
3.13734
2.81783
2.56554
2.36545
2.20731
2.08412
1.99117
1.92548
1.8855
1.87092
1.88272
1.92336
1.99716
2.11099
2.27545
2.50674
2.82974
3.28281
3.92473
4.84274
6.15405
7.97251
10.2589
12.398
12.6258
10.9607
9.20686
8.03
7.53973
7.72504
8.618
10.3297
12.9918
16.4919
19.7441
19.7044
16.3689
12.7731
9.99159
8.11998
7.00193
6.49193
6.5219
7.10974
8.34757
10.3439
13.0099
15.4737
15.2911
12.4563
9.40097
6.98202
5.26845
4.12365
3.41404
3.06009
3.04176
3.39597
4.20852
5.57167
7.42001
9.07666
8.64027
6.10327
3.35146
1.04459
-0.771832
-2.21447
-3.40051
-4.40933
-5.28146
-6.02958
-6.67119
-7.3315
-8.51246
-11.4579
-16.4364
-22.7842
-30.6945
-40.8489
-53.8686
-69.1888
14.7854
10.0308
6.92286
5.03698
3.86949
3.11119
2.59261
2.2215
1.94616
1.73632
1.57352
1.44604
1.34627
1.26916
1.21142
1.17099
1.14685
1.13882
1.14766
1.17517
1.22457
1.30111
1.41323
1.57465
1.80825
2.15369
2.68255
3.52862
4.94537
7.39272
11.536
17.3131
17.464
12.0034
8.2241
6.23308
5.43629
5.49778
6.39273
8.41882
12.2868
19.0876
28.6846
28.6574
19.0024
12.1318
8.17045
6.00576
4.88676
4.43649
4.52488
5.21214
6.77576
9.80319
15.1771
22.7899
22.6763
14.8319
9.21309
5.91576
4.04061
2.97387
2.3932
2.15714
2.24254
2.73535
3.87091
6.11568
10.1603
15.923
15.6565
9.35593
4.75846
1.93486
0.181399
-0.984579
-1.81939
-2.43736
-2.85559
-2.99476
-2.64818
-1.49867
0.305742
-1.74061
-7.91452
-14.3655
-21.9494
-32.6959
-49.5401
-74.8605
16.157
6.45836
3.24854
1.99893
1.41578
1.095
0.894904
0.75874
0.660552
0.586995
0.530551
0.486686
0.452541
0.426265
0.406666
0.393015
0.384943
0.382402
0.385669
0.395414
0.412836
0.439929
0.47998
0.538563
0.625629
0.760343
0.983468
1.39258
2.25243
4.3705
10.4598
30.3291
30.3821
10.6246
4.66584
2.7162
2.09671
2.07013
2.53835
3.85534
7.35779
17.6563
51.483
51.4732
17.6255
7.30098
3.76176
2.38553
1.80842
1.60522
1.66529
2.05241
3.09578
5.88324
14.1195
41.2315
41.1929
14.0021
5.68201
2.80132
1.6485
1.12402
0.876041
0.791174
0.856551
1.14906
1.93588
4.0676
10.4264
31.4508
31.3612
10.1558
3.61088
1.28404
0.288597
-0.231594
-0.550542
-0.752986
-0.83154
-0.659418
0.218612
3.39108
14.6689
13.9203
1.00632
-4.31496
-8.6497
-15.7618
-33.0053
-84.6066
-59.3527
-62.9951
-66.4559
-69.6978
-72.6917
-75.4171
-77.8617
-80.0197
-81.8907
-83.4779
-84.7868
-85.8238
-86.5951
-87.106
-87.3605
-59.4884
-63.1754
-66.6737
-69.9445
-72.9588
-75.6967
-78.1469
-80.3053
-82.173
-83.7547
-85.0573
-86.088
-86.8539
-87.361
-87.6134
-59.7651
-63.5435
-67.1177
-70.4467
-73.5011
-76.2625
-78.7225
-80.8801
-82.7398
-84.3093
-85.598
-86.6153
-87.37
-87.8689
-88.1172
-60.1935
-64.1146
-67.8057
-71.2222
-74.335
-77.1285
-79.5992
-81.7515
-83.5953
-85.1432
-86.4085
-87.4038
-88.1402
-88.6261
-88.8675
-60.7922
-64.9146
-68.7671
-72.3004
-75.4867
-78.3161
-80.7929
-82.93
-84.7454
-86.2583
-87.4875
-88.4498
-89.1592
-89.6261
-89.8578
-61.5899
-65.9833
-70.0463
-73.7245
-76.9938
-79.855
-82.3247
-84.4289
-86.1964
-87.6555
-88.8319
-89.7473
-90.419
-90.8597
-91.078
-62.6307
-67.3812
-71.7093
-75.556
-78.9078
-81.7837
-84.2207
-86.263
-87.9542
-89.3339
-90.4359
-91.287
-91.9082
-92.3142
-92.5149
-63.983
-69.2003
-73.8523
-77.8809
-81.2963
-84.1498
-86.5099
-88.4463
-90.0218
-91.2887
-92.289
-93.0552
-93.6108
-93.9725
-94.1509
-65.7561
-71.5834
-76.6173
-80.8175
-84.2452
-87.0079
-89.2211
-90.989
-92.3961
-93.5082
-94.3749
-95.0322
-95.5057
-95.8126
-95.9635
-68.1315
-74.7588
-80.2148
-84.5253
-87.8577
-90.4139
-92.3765
-93.8906
-95.0634
-95.9714
-96.6685
-97.1915
-97.5656
-97.807
-97.9254
-71.4303
-79.1042
-84.9563
-89.2097
-92.2446
-94.4121
-95.9792
-97.132
-97.9936
-98.6438
-99.1342
-99.4981
-99.7565
-99.9226
-100.004
-76.2708
-85.2698
-91.295
-95.1112
-97.4969
-99.0084
-99.9947
-100.663
-101.133
-101.474
-101.725
-101.908
-102.038
-102.121
-102.162
-83.9923
-94.4077
-99.8409
-102.442
-103.622
-104.128
-104.326
-104.391
-104.401
-104.392
-104.38
-104.371
-104.364
-104.361
-104.359
-97.9707
-108.526
-111.218
-111.191
-110.418
-109.554
-108.791
-108.171
-107.684
-107.312
-107.032
-106.828
-106.686
-106.597
-106.554
-128.38
-130.506
-125.309
-120.687
-117.304
-114.875
-113.112
-111.815
-110.852
-110.136
-109.606
-109.221
-108.953
-108.784
-108.703
26.4086
26.3608
26.2656
26.1243
25.9391
25.7146
25.459
25.1876
24.9284
24.733
24.6987
25.0202
26.1427
29.3462
39.4916
27.1234
27.0753
26.9792
26.8357
26.6463
26.4139
26.1447
25.8513
25.5586
25.3154
25.2164
25.4453
26.3505
28.523
32.3415
27.871
27.8223
27.7249
27.5784
27.3826
27.1379
26.8464
26.5137
26.1538
25.7969
25.5058
25.3999
25.6775
26.5559
27.8537
28.6515
28.6025
28.504
28.3545
28.152
27.8936
27.5757
27.1943
26.7461
26.2322
25.6657
25.0873
24.5864
24.297
24.2778
29.4652
29.4164
29.3176
29.1666
28.9594
28.6899
28.3484
27.9204
27.3833
26.7033
25.8331
24.7201
23.3479
21.8496
20.6994
30.3121
30.2641
30.1668
30.0169
29.8093
29.5351
29.1803
28.7214
28.1191
27.3059
26.1682
24.5323
22.1962
19.1598
16.3331
31.1915
31.1454
31.0515
30.9066
30.7045
30.4355
30.0835
29.6212
29.0006
28.1328
26.8486
24.83
21.5302
16.324
10.0147
32.1022
32.0589
31.971
31.835
31.6453
31.3926
31.0623
30.6301
30.0531
29.248
28.0384
26.0166
22.1873
14.2537
-0.674013
33.0419
33.0027
32.923
32.7999
32.6288
32.4026
32.111
31.7389
31.2631
30.6432
29.7913
28.4579
25.6938
17.0402
-21.7178
34.0081
33.9738
33.9042
33.7973
33.6496
33.457
33.2145
32.9188
32.5725
32.1983
31.8779
31.8919
33.2893
40.732
78.7331
34.9971
34.9685
34.9106
34.8219
34.7007
34.5449
34.354
34.1328
33.9007
33.715
33.7313
34.3644
36.6857
43.2015
57.1892
36.0051
35.9827
35.9373
35.8683
35.7747
35.656
35.5134
35.3536
35.1959
35.0902
35.1554
35.6637
37.1681
40.4811
45.3727
37.0278
37.0118
36.9796
36.9308
36.8652
36.7825
36.6837
36.5718
36.4543
36.3456
36.2708
36.2701
36.3935
36.6632
36.9675
38.0606
38.0512
38.0323
38.0041
37.9664
37.9191
37.8619
37.793
37.7057
37.5764
37.3336
36.7895
35.5162
32.8204
28.7881
39.099
39.0962
39.0907
39.0829
39.0731
39.0613
39.0469
39.026
38.9855
38.8846
38.6045
37.8145
35.6255
29.9048
17.823
40.1383
40.142
40.1497
40.1621
40.18
40.2042
40.2352
40.2715
40.3063
40.3162
40.2284
39.8099
38.1862
31.4059
-1.51721
41.174
41.184
41.2044
41.2363
41.2813
41.3411
41.4185
41.517
41.6435
41.8141
42.0807
42.6414
44.3265
51.061
83.8784
42.2017
42.2176
42.2501
42.3005
42.371
42.4646
42.5857
42.742
42.9491
43.2441
43.7276
44.6911
46.9588
52.6015
64.4967
43.2173
43.2387
43.2822
43.3496
43.4435
43.5675
43.7271
43.9306
44.1927
44.5418
45.0399
45.834
47.2458
49.7988
53.3925
44.217
44.2433
44.2967
44.3792
44.4938
44.6444
44.8366
45.0774
45.3749
45.7345
46.1454
46.5467
46.739
46.272
44.8012
45.1973
45.2278
45.2898
45.3854
45.5177
45.691
45.9109
46.1836
46.5132
46.8902
47.2563
47.4032
46.6887
43.441
35.206
46.1553
46.1894
46.2585
46.3649
46.5118
46.7038
46.9471
47.2491
47.6174
48.0518
48.518
48.8568
48.396
44.0723
19.9098
47.0885
47.1254
47.2002
47.315
47.4732
47.6796
47.9409
48.2673
48.6748
49.1898
49.867
50.8643
52.7845
58.4795
83.5237
47.9949
48.0339
48.1128
48.2338
48.3999
48.6156
48.8879
49.2281
49.6565
50.2137
50.9921
52.2297
54.5498
59.4483
68.8766
48.8729
48.9134
48.9952
49.12
49.2906
49.5108
49.7863
50.1264
50.5477
51.0822
51.7969
52.8422
54.523
57.27
60.796
49.7216
49.763
49.8464
49.9732
50.1455
50.366
50.6382
50.967
51.3594
51.8239
52.3705
53.0122
53.7539
54.5494
55.1833
50.5404
50.5822
50.6662
50.7936
50.9656
51.1837
51.4491
51.7623
52.1199
52.5069
52.8766
53.1114
52.9459
51.9397
50.0303
51.3288
51.3707
51.4547
51.5816
51.7521
51.9668
52.2253
52.5254
52.8589
53.2001
53.475
53.4872
52.7203
49.9557
43.571
52.0869
52.1286
52.2122
52.3381
52.5066
52.7177
52.9709
53.264
53.5916
53.9375
54.2545
54.4028
53.8802
50.4844
32.6977
52.8148
52.8562
52.9391
53.0637
53.23
53.4379
53.687
53.9773
54.3106
54.6931
55.1495
55.7831
57.0336
61.0056
79.098
53.5125
53.5536
53.6357
53.7589
53.923
54.1277
54.3727
54.6596
54.9942
55.3956
55.92
56.7338
58.2953
61.7194
68.4773
54.1804
54.2211
54.3025
54.4244
54.5863
54.7877
55.0278
55.3072
55.6303
56.011
56.488
57.1638
58.2619
60.1167
62.5703
54.8186
54.8591
54.9398
55.0606
55.2207
55.419
55.6538
55.9233
56.2253
56.5576
56.9163
57.2992
57.7013
58.0965
58.388
55.4274
55.4677
55.5481
55.6681
55.8271
56.0232
56.2541
56.5152
56.7983
57.0841
57.3261
57.4199
57.1438
56.147
54.4291
56.0069
56.0471
56.1274
56.2473
56.4059
56.6016
56.8315
57.0905
57.3683
57.6391
57.8374
57.796
57.0852
54.6967
49.2982
56.557
56.5974
56.6779
56.7982
56.9575
57.1545
57.3869
57.6515
57.9418
58.2428
58.5134
58.6357
58.1899
55.3354
40.4394
57.0777
57.1183
57.1993
57.3205
57.4813
57.6809
57.9183
58.1931
58.5069
58.8657
59.2906
59.8687
60.9656
64.3348
79.5004
57.5688
57.6097
57.6915
57.8139
57.9766
58.1792
58.4218
58.7063
59.0396
59.4407
59.96
60.7399
62.1614
65.1408
70.8718
58.0301
58.0714
58.1541
58.2779
58.4426
58.648
58.8944
59.184
59.524
59.9316
60.4468
61.1641
62.2735
64.0344
66.245
58.4612
58.503
58.5867
58.712
58.8788
59.0865
59.3351
59.6254
59.9604
60.346
60.7916
61.3146
61.9313
62.6143
63.1753
58.8617
58.9041
58.9889
59.1159
59.2848
59.4948
59.745
60.0343
60.3605
60.7167
61.0809
61.3988
61.5411
61.2773
60.5171
59.2314
59.2744
59.3605
59.4893
59.6605
59.8732
60.1259
60.4161
60.7387
61.0798
61.4009
61.6034
61.4313
60.2836
57.3532
59.5697
59.6134
59.7009
59.8318
60.0058
60.222
60.4788
60.7739
61.1029
61.4549
61.8014
62.0666
61.997
60.5265
52.1763
59.8761
59.9206
60.0096
60.1429
60.3202
60.5407
60.8033
61.1067
61.4498
61.8319
62.2568
62.761
63.5336
65.5456
74.1701
60.1502
60.1955
60.2861
60.422
60.6029
60.8283
61.0976
61.4105
61.7685
62.1773
62.6553
63.2676
64.2078
65.971
69.2285
60.3913
60.4374
60.5298
60.6683
60.8531
61.0836
61.3597
61.6815
62.0508
62.4725
62.9588
63.5451
64.3084
65.3573
66.5716
60.5988
60.6458
60.7399
60.8811
61.0697
61.3054
61.5881
61.9179
62.2955
62.7209
63.1913
63.6981
64.2089
64.6271
64.7807
60.7723
60.8201
60.9157
61.0596
61.2518
61.4926
61.7819
62.1197
62.5057
62.9362
63.3967
63.8469
64.1718
64.0792
63.119
60.9111
60.9596
61.0567
61.2029
61.3986
61.6442
61.94
62.2866
62.6839
63.1287
63.6074
64.0814
64.4226
64.1322
60.8133
61.0148
61.0638
61.1622
61.3104
61.5091
61.759
62.0611
62.4167
62.8278
63.2957
63.8197
64.4065
65.1103
66.2867
70.1174
61.0829
61.1323
61.2316
61.3813
61.5823
61.8357
62.143
62.5068
62.9311
63.4216
63.9867
64.6489
65.468
66.5963
68.2127
61.1151
61.1648
61.2645
61.415
61.6174
61.873
62.1839
62.5534
62.9872
63.4937
64.0846
64.7809
65.6089
66.5655
67.4534
61.1114
61.161
61.2607
61.4112
61.6138
61.87
62.1821
62.5538
62.9916
63.5051
64.1076
64.82
65.6586
66.5807
67.3335
61.0717
61.121
61.2201
61.3697
61.5713
61.8262
62.1369
62.5069
62.9424
63.4528
64.0525
64.7699
65.6484
66.712
67.7593
60.9963
61.045
61.1429
61.2908
61.4899
61.7419
62.0485
62.413
62.84
63.3363
63.9139
64.6066
65.5076
66.853
68.9353
60.8856
60.9334
61.0295
61.1747
61.3703
61.6175
61.9182
62.2743
62.6882
63.1614
63.6937
64.2972
65.0563
66.4808
71.58
60.7402
60.7869
60.8806
61.0222
61.213
61.4542
61.7474
62.0938
62.494
62.9433
63.4225
63.8782
64.1409
63.5552
58.921
60.561
60.6061
60.6969
60.8341
61.019
61.253
61.5376
61.8746
62.2646
62.7026
63.1658
63.5917
63.8129
63.4395
61.9342
60.3489
60.3922
60.4794
60.6114
60.7892
61.0146
61.2896
61.6172
62.0008
62.4422
62.9334
63.4459
63.8959
64.1082
63.9245
60.1052
60.1465
60.2296
60.3552
60.5247
60.7398
61.0032
61.3192
61.6958
62.1451
62.6846
63.342
64.1423
65.0504
65.8098
59.8313
59.8703
59.9487
60.0672
60.227
60.4297
60.6782
60.9778
61.3392
61.7833
62.3522
63.1374
64.3118
66.0944
68.245
59.5289
59.5653
59.6385
59.749
59.8977
60.0859
60.3159
60.592
60.924
61.3329
61.868
62.661
64.0572
66.8811
72.1961
59.1997
59.2334
59.3009
59.4027
59.5393
59.7113
59.9196
60.166
60.4544
60.793
61.2029
61.7642
62.8092
65.9364
79.8604
58.8457
58.8765
58.9381
59.0309
59.1547
59.3096
59.495
59.7093
59.9488
60.2015
60.4311
60.5302
60.1135
57.4922
43.8361
58.4689
58.4967
58.5524
58.6359
58.747
58.885
59.0483
59.2336
59.4328
59.6241
59.7481
59.6531
58.9469
56.7098
51.7304
58.0714
58.0962
58.1459
58.2203
58.3189
58.4409
58.5846
58.7469
58.9213
59.0916
59.2157
59.1991
58.8416
57.8304
56.1883
57.6551
57.6771
57.7209
57.7864
57.873
57.98
58.1061
58.2502
58.4117
58.5891
58.7793
58.9804
59.1885
59.3878
59.5275
57.2222
57.2413
57.2795
57.3364
57.4114
57.5039
57.6132
57.7402
57.8899
58.0759
58.3338
58.7556
59.5397
60.9851
62.985
56.7745
56.791
56.8238
56.8724
56.9362
57.0143
57.1062
57.2132
57.3417
57.5108
57.7728
58.2779
59.4298
62.196
67.8527
56.314
56.328
56.3556
56.3964
56.4494
56.5133
56.5868
56.6697
56.7644
56.8793
57.0413
57.3498
58.197
61.398
76.67
55.8424
55.8541
55.8771
55.9106
55.9534
56.0038
56.0592
56.1168
56.1719
56.2132
56.2066
56.0462
55.328
52.216
36.9676
55.3613
55.3709
55.3898
55.417
55.4508
55.4889
55.5283
55.5642
55.588
55.5785
55.4771
55.1287
54.1198
51.4607
45.8429
54.872
54.88
54.8955
54.9173
54.9435
54.9715
54.998
55.0185
55.0263
55.0059
54.9176
54.6687
54.0558
52.7589
50.8373
54.3758
54.3826
54.3955
54.4132
54.4334
54.4534
54.47
54.4804
54.4831
54.4785
54.4683
54.4601
54.4651
54.4897
54.5177
53.8736
53.8796
53.891
53.9059
53.922
53.936
53.9447
53.9463
53.944
53.9531
54.0159
54.2412
54.859
56.2167
58.2378
53.3658
53.3717
53.3825
53.3965
53.4105
53.4206
53.4226
53.4134
53.3961
53.3886
53.4493
53.7484
54.7375
57.4816
63.3817
52.8526
52.859
52.8707
52.8856
52.9002
52.9092
52.9064
52.885
52.8403
52.775
52.7156
52.7752
53.3956
56.5536
72.643
52.3336
52.3412
52.3554
52.3738
52.3921
52.4043
52.4014
52.3714
52.2978
52.1555
51.8977
51.4113
50.2898
46.6439
30.218
51.8079
51.8176
51.836
51.8605
51.8869
51.9082
51.9136
51.8869
51.8021
51.6145
51.2372
50.4871
48.9356
45.6079
39.2852
51.2742
51.2868
51.311
51.3447
51.3838
51.4215
51.4465
51.4413
51.3768
51.2035
50.8341
50.1184
48.8133
46.6507
43.9809
50.7305
50.7466
50.7782
50.8238
50.8802
50.9418
50.9989
51.0356
51.0259
50.9271
50.6699
50.1578
49.285
48.0446
46.8417
50.1742
50.1944
50.2346
50.2941
50.3716
50.4635
50.5637
50.6608
50.7361
50.7588
50.6813
50.4465
50.0103
49.4112
48.8864
49.6027
49.627
49.6762
49.7508
49.8514
49.978
50.1289
50.2999
50.4819
50.6583
50.8006
50.8738
50.8472
50.725
50.5857
49.013
49.0413
49.0989
49.1881
49.3119
49.474
49.6787
49.9299
50.2307
50.5797
50.9664
51.3691
51.749
52.0493
52.2073
48.4025
48.4339
48.4985
48.6001
48.7442
48.9389
49.1944
49.5244
49.9451
50.4733
51.1197
51.8791
52.7045
53.4712
53.9577
47.7689
47.8022
47.8713
47.9812
48.1401
48.3598
48.6569
49.0545
49.5837
50.2832
51.1932
52.3418
53.6993
55.0861
56.0651
47.111
47.1445
47.2145
47.3272
47.4925
47.7255
48.048
48.492
49.1033
49.9452
51.0994
52.6583
54.672
56.9829
58.8712
46.4286
46.4603
46.527
46.6353
46.7965
47.0273
47.3532
47.8122
48.4617
49.3887
50.723
52.6578
55.4365
59.1718
63.0075
45.7231
45.7508
45.8093
45.9056
46.0507
46.2617
46.5645
46.9988
47.6267
48.5476
49.9283
52.07
55.5349
61.2896
69.8262
44.9971
45.0186
45.0644
45.1408
45.2577
45.4307
45.6829
46.0498
46.5872
47.3856
48.6036
50.5619
54.0414
61.4741
82.5916
-212.464
-157.366
-137.698
-128.254
-122.738
-119.14
-116.643
-114.847
-113.529
-112.552
-111.83
-111.305
-110.939
-110.708
-110.596
-179.582
-157.177
-141.858
-132.404
-126.345
-122.251
-119.365
-117.271
-115.724
-114.57
-113.713
-113.088
-112.65
-112.373
-112.239
-162.279
-152.065
-141.942
-134.196
-128.585
-124.521
-121.537
-119.314
-117.643
-116.381
-115.434
-114.738
-114.249
-113.938
-113.787
-152.092
-146.887
-140.376
-134.503
-129.749
-126.041
-123.179
-120.974
-119.275
-117.971
-116.979
-116.244
-115.723
-115.39
-115.228
-145.541
-142.615
-138.363
-134.032
-130.184
-126.97
-124.363
-122.28
-120.632
-119.341
-118.346
-117.598
-117.065
-116.723
-116.555
-141.044
-139.261
-136.405
-133.223
-130.176
-127.476
-125.183
-123.284
-121.74
-120.505
-119.537
-118.803
-118.274
-117.932
-117.765
-137.807
-136.651
-134.672
-132.318
-129.927
-127.699
-125.727
-124.039
-122.631
-121.481
-120.566
-119.863
-119.352
-119.02
-118.856
-135.396
-134.609
-133.199
-131.437
-129.563
-127.742
-126.071
-124.599
-123.341
-122.293
-121.446
-120.787
-120.305
-119.989
-119.833
-133.552
-132.998
-131.968
-130.633
-129.159
-127.678
-126.277
-125.01
-123.903
-122.964
-122.194
-121.588
-121.14
-120.846
-120.699
-132.116
-131.715
-130.948
-129.924
-128.76
-127.556
-126.389
-125.308
-124.346
-123.516
-122.826
-122.277
-121.868
-121.598
-121.463
-130.981
-130.685
-130.104
-129.31
-128.386
-127.408
-126.439
-125.524
-124.694
-123.969
-123.358
-122.867
-122.499
-122.254
-122.132
-130.072
-129.852
-129.406
-128.785
-128.048
-127.253
-126.449
-125.678
-124.969
-124.34
-123.805
-123.371
-123.043
-122.824
-122.715
-129.339
-129.173
-128.828
-128.339
-127.748
-127.101
-126.436
-125.789
-125.186
-124.645
-124.18
-123.8
-123.511
-123.317
-123.219
-128.742
-128.618
-128.349
-127.961
-127.487
-126.959
-126.409
-125.868
-125.357
-124.895
-124.494
-124.163
-123.911
-123.741
-123.655
-128.254
-128.161
-127.951
-127.643
-127.26
-126.829
-126.376
-125.924
-125.494
-125.1
-124.757
-124.472
-124.253
-124.105
-124.03
-127.853
-127.784
-127.62
-127.374
-127.066
-126.714
-126.34
-125.964
-125.603
-125.27
-124.977
-124.733
-124.544
-124.416
-124.351
-127.521
-127.472
-127.344
-127.148
-126.899
-126.613
-126.305
-125.993
-125.69
-125.41
-125.161
-124.953
-124.792
-124.682
-124.627
-127.246
-127.212
-127.113
-126.957
-126.757
-126.524
-126.271
-126.013
-125.761
-125.526
-125.316
-125.14
-125.003
-124.909
-124.862
-127.017
-126.995
-126.919
-126.796
-126.636
-126.447
-126.24
-126.027
-125.818
-125.622
-125.446
-125.298
-125.182
-125.103
-125.062
-126.826
-126.813
-126.757
-126.661
-126.533
-126.38
-126.212
-126.037
-125.865
-125.702
-125.556
-125.432
-125.334
-125.267
-125.234
-126.666
-126.661
-126.62
-126.546
-126.445
-126.323
-126.187
-126.045
-125.904
-125.77
-125.648
-125.545
-125.464
-125.408
-125.38
-126.53
-126.532
-126.504
-126.448
-126.37
-126.273
-126.164
-126.05
-125.936
-125.826
-125.727
-125.641
-125.574
-125.528
-125.505
-126.416
-126.423
-126.406
-126.365
-126.306
-126.231
-126.145
-126.054
-125.962
-125.874
-125.793
-125.724
-125.669
-125.631
-125.612
-126.318
-126.33
-126.321
-126.294
-126.25
-126.194
-126.127
-126.056
-125.984
-125.915
-125.85
-125.795
-125.751
-125.72
-125.705
-126.233
-126.25
-126.249
-126.232
-126.202
-126.161
-126.112
-126.059
-126.004
-125.95
-125.899
-125.856
-125.821
-125.797
-125.785
-126.16
-126.179
-126.185
-126.178
-126.16
-126.133
-126.099
-126.06
-126.02
-125.98
-125.942
-125.909
-125.883
-125.864
-125.855
-126.095
-126.117
-126.129
-126.131
-126.123
-126.108
-126.087
-126.062
-126.035
-126.007
-125.98
-125.957
-125.938
-125.924
-125.917
-126.036
-126.061
-126.078
-126.087
-126.09
-126.086
-126.076
-126.063
-126.048
-126.031
-126.015