/*--------------------------------*- C++ -*----------------------------------*\
| =========                 |                                                 |
| \\      /  F ield         | OpenFOAM: The Open Source CFD Toolbox           |
|  \\    /   O peration     | Version:  5.x                                   |
|   \\  /    A nd           | Web:      www.OpenFOAM.org                      |
|    \\/     M anipulation  |                                                 |
\*---------------------------------------------------------------------------*/
FoamFile
{
    version     2.0;
    format      ascii;
    class       volScalarField;
    location    "3.3";
    object      gradTx;
}
// * * * * * * * * * * * * * * * * * * * * * * * * * * * * * * * * * * * * * //

dimensions      [0 -1 0 1 0 0 0];

internalField   nonuniform List<scalar> 
6300
(
3784.03
3773.27
3751.71
3719.26
3675.84
3621.33
3555.64
3478.75
3390.75
3291.87
3182.54
3063.46
2935.65
2800.39
2659.32
3794.62
3783.9
3762.42
3730.08
3686.77
3632.34
3566.68
3489.72
3401.49
3302.16
3192.14
3072.07
2942.95
2806.09
2663.16
3815.76
3805.13
3783.82
3751.71
3708.64
3654.42
3588.86
3511.8
3423.16
3323.01
3211.64
3089.61
2957.86
2817.74
2671
3847.35
3836.88
3815.86
3784.14
3741.5
3687.68
3622.38
3545.3
3456.19
3354.95
3241.65
3116.73
2981.01
2835.87
2683.22
3889.25
3879
3858.42
3827.31
3785.38
3732.27
3667.52
3590.67
3501.22
3398.78
3283.16
3154.49
3013.46
2861.39
2700.42
3941.21
3931.3
3911.35
3881.13
3840.28
3788.32
3724.62
3648.47
3559.07
3455.65
3337.55
3204.5
3056.8
2895.7
2723.55
4002.92
3993.45
3974.37
3945.41
3906.13
3855.93
3794
3719.35
3630.8
3527.03
3406.76
3268.99
3113.41
2940.91
2754.1
4073.92
4065.03
4047.1
4019.84
3982.74
3935.09
3875.93
3803.97
3717.57
3614.75
3493.32
3351.16
3186.79
3000.31
2794.39
4153.63
4145.47
4129
4103.92
4069.71
4025.6
3970.5
3902.86
3820.59
3720.93
3600.46
3455.36
3282.13
3079.03
2848.17
4241.31
4234.03
4219.34
4196.95
4166.4
4126.93
4077.43
4016.22
3940.84
3847.75
3732.07
3587.55
3407.19
3185.35
2921.79
4336.09
4329.82
4317.18
4297.97
4271.81
4238.11
4195.88
4143.56
4078.6
3996.97
3892.36
3755.42
3573.59
3333.25
3026.77
4436.96
4431.79
4421.42
4405.74
4384.59
4357.62
4324.24
4283.34
4232.87
4169.01
4084.8
3967.99
3798.37
3547.12
3185.9
4542.8
4538.78
4530.76
4518.81
4502.98
4483.35
4459.93
4432.51
4400.33
4361.19
4309.68
4233.21
4104.59
3870.8
3449.83
4652.47
4649.56
4643.85
4635.54
4624.97
4612.67
4599.4
4586.25
4574.54
4565.57
4559.31
4550.38
4515.8
4381.47
3948.69
4764.84
4762.96
4759.35
4754.34
4748.49
4742.74
4738.57
4738.34
4745.82
4767.03
4811.43
4892.98
5026.54
5190.39
5078.38
2526.6
2404.29
2281.73
2160.13
2040.64
1924.31
1812.06
1704.68
1602.82
1506.96
1417.45
1334.51
1258.24
1188.68
1125.74
1069.3
1019.19
975.16
936.954
904.267
876.761
854.065
835.772
821.443
810.602
802.743
797.337
793.838
791.705
790.41
789.463
788.428
786.931
784.668
781.403
776.954
771.18
763.969
755.217
744.831
732.723
718.822
703.079
685.48
666.047
644.842
621.952
597.48
571.52
544.147
515.398
485.267
453.706
420.625
385.909
349.426
311.039
270.614
228.023
183.138
135.825
85.9331
33.2826
-22.3442
-81.2083
-143.615
-209.908
-280.466
-355.685
-435.969
-521.719
-613.316
-711.117
-815.449
-926.598
-1044.81
-1170.28
-1303.13
-1443.43
-1591.13
-1746.07
-1907.94
-2076.26
-2250.35
-2429.34
-2612.15
-2797.49
-2983.9
-3169.79
-3353.53
2528.59
2404.54
2280.25
2157.01
2036.01
1918.34
1804.96
1696.68
1594.11
1497.76
1407.93
1324.83
1248.55
1179.08
1116.33
1060.16
1010.38
966.74
928.973
896.774
869.805
847.695
830.039
816.395
806.284
799.19
794.568
791.853
790.478
789.89
789.574
789.077
788.018
786.098
783.095
778.848
773.241
766.176
757.561
747.301
735.299
721.469
705.749
688.116
668.597
647.266
624.232
599.622
573.557
546.131
517.391
487.334
455.9
422.988
388.464
352.179
313.986
273.748
231.341
186.65
139.557
89.9255
37.59
-17.6595
-76.0826
-137.99
-203.739
-273.723
-348.357
-428.065
-513.261
-604.341
-701.671
-805.585
-916.379
-1034.31
-1159.58
-1292.36
-1432.71
-1580.64
-1736.02
-1898.58
-2067.86
-2243.21
-2423.76
-2608.42
-2795.84
-2984.53
-3172.8
-3358.92
2532.64
2405
2277.18
2150.56
2026.48
1906.11
1790.46
1680.35
1576.41
1479.08
1388.66
1305.28
1229
1159.75
1097.4
1041.79
992.681
949.826
912.941
881.719
855.821
834.883
818.502
806.236
797.598
792.054
789.031
787.92
788.099
788.959
789.93
790.519
790.33
789.074
786.564
782.691
777.39
770.606
762.266
752.272
740.502
726.832
711.167
693.464
673.754
652.14
628.78
603.861
577.558
550.01
521.288
491.388
460.232
427.682
393.563
357.69
319.89
280.019
237.964
193.639
146.961
97.8322
46.1154
-8.38102
-65.9139
-126.807
-191.443
-260.251
-333.69
-412.22
-496.291
-586.323
-682.7
-785.767
-895.834
-1013.17
-1138.03
-1270.6
-1411.02
-1559.36
-1715.57
-1879.45
-2050.63
-2228.49
-2412.19
-2600.59
-2792.29
-2985.64
-3178.81
-3369.83
2538.9
2405.64
2272.26
2140.38
2011.51
1886.99
1767.9
1655.07
1549.11
1450.4
1359.17
1275.48
1199.27
1130.42
1068.74
1014
965.939
924.278
888.723
858.963
834.668
815.482
801.014
790.828
784.431
781.268
780.719
782.108
784.723
787.849
790.82
793.067
794.163
793.841
791.982
788.577
783.664
777.265
769.345
759.793
748.432
735.063
719.514
701.7
681.652
659.527
635.575
610.091
583.356
555.583
526.885
497.256
466.577
434.643
401.199
365.988
328.789
289.446
247.872
204.032
157.913
109.485
58.6644
5.29263
-50.8823
-110.206
-173.109
-240.083
-311.657
-388.361
-470.699
-559.128
-654.052
-755.825
-864.765
-981.168
-1105.31
-1237.47
-1377.86
-1526.68
-1683.99
-1849.75
-2023.68
-2205.29
-2393.76
-2587.92
-2786.27
-2986.93
-3187.79
-3386.54
2547.64
2406.36
2265.07
2125.75
1990.21
1859.98
1736.24
1619.82
1511.29
1410.91
1318.78
1234.83
1158.89
1090.73
1030.05
976.555
929.944
889.904
856.127
828.306
806.128
789.26
777.336
769.939
766.585
766.696
769.597
774.513
780.59
786.944
792.735
797.258
800.024
800.805
799.613
796.624
792.065
786.103
778.765
769.91
759.249
746.426
731.119
713.147
692.539
669.543
644.576
618.124
590.649
562.492
533.829
504.642
474.738
443.786
411.389
377.158
340.787
302.1
261.058
217.724
172.21
124.601
74.9085
23.0257
-31.2917
-88.4263
-148.884
-213.262
-282.205
-356.354
-436.298
-522.541
-615.499
-715.516
-822.902
-937.959
-1061.01
-1192.41
-1332.52
-1481.69
-1640.19
-1808.18
-1985.61
-2172.13
-2367.03
-2569.14
-2776.79
-2987.84
-3199.7
-3409.54
2559.26
2407.01
2254.93
2105.57
1961.18
1823.54
1693.93
1573.16
1461.64
1359.48
1266.55
1182.6
1107.28
1040.2
980.958
929.165
884.451
846.476
814.922
789.496
769.915
755.892
747.112
743.208
743.725
748.085
755.554
765.227
776.04
786.831
796.458
803.961
808.729
810.596
809.819
806.92
802.476
796.912
790.362
782.617
773.171
761.36
746.558
728.387
706.861
682.398
655.713
627.634
598.924
570.133
541.53
513.067
484.413
455.019
424.23
391.422
356.134
318.159
277.557
234.574
189.538
142.736
94.3275
44.2866
-7.62045
-61.8356
-118.986
-179.837
-245.225
-315.97
-392.789
-476.245
-566.737
-664.554
-769.943
-883.185
-1004.64
-1134.76
-1274.08
-1423.19
-1582.66
-1752.96
-1934.37
-2126.83
-2329.84
-2542.28
-2762.34
-2987.46
-3214.42
-3439.52
2574.37
2407.31
2240.75
2078.14
1922.34
1775.46
1638.83
1513.11
1398.46
1294.68
1201.34
1117.9
1043.76
978.345
921.106
871.544
829.223
793.768
764.863
742.241
725.674
714.949
709.844
710.089
715.311
724.976
738.317
754.281
771.504
788.378
803.224
814.587
821.594
824.181
823.065
819.427
814.487
809.131
803.672
797.765
790.492
780.594
766.842
748.456
725.409
698.45
668.855
638.056
607.315
577.509
549.033
521.773
495.16
468.268
439.989
409.267
375.359
338.017
297.496
254.396
209.426
163.204
116.117
68.2563
19.3978
-30.9933
-83.7313
-139.85
-200.5
-266.804
-339.689
-419.779
-507.389
-602.643
-705.629
-816.536
-935.732
-1063.79
-1201.48
-1349.71
-1509.45
-1681.66
-1867.12
-2066.26
-2278.98
-2504.36
-2740.5
-2984.34
-3231.69
-3477.56
2593.91
2406.78
2220.79
2040.81
1870.58
1712.55
1567.93
1437.05
1319.57
1214.79
1121.83
1039.74
967.63
904.678
850.16
803.461
764.075
731.599
705.728
686.242
672.994
665.889
664.852
669.781
680.479
696.553
717.286
741.501
767.453
792.83
814.985
831.472
840.808
843.085
839.93
833.795
827.085
821.489
817.615
814.872
811.585
805.371
793.792
775.233
749.587
718.298
683.731
648.395
614.359
582.976
554.788
529.554
506.316
483.523
459.273
431.709
399.542
362.465
321.165
276.925
231.135
184.935
139.038
93.6838
48.6455
3.25262
-43.5827
-93.3095
-147.605
-208.127
-276.18
-352.447
-436.995
-529.557
-629.866
-737.903
-854.011
-978.907
-1113.65
-1259.58
-1418.23
-1591.22
-1780.09
-1986.07
-2209.79
-2450.86
-2707.47
-2976.03
-3251.01
-3525.27
2619.36
2404.49
2192.1
1989.35
1801.19
1630.22
1477.2
1341.64
1222.35
1117.84
1026.59
947.165
878.275
818.83
767.921
724.817
688.947
659.893
637.374
621.237
611.447
608.07
611.246
621.147
637.889
661.402
691.221
726.203
764.211
801.903
834.891
858.637
870.169
869.796
861.073
848.978
838.065
831.359
829.922
832.752
836.889
837.864
830.791
812.209
781.888
742.862
699.717
656.859
617.587
583.843
556.293
534.466
516.836
500.885
483.339
460.791
430.806
393.006
349.08
301.701
253.451
206.246
161.196
118.676
78.425
39.5987
0.754517
-40.1632
-85.715
-138.576
-200.811
-273.155
-355.026
-445.275
-542.931
-647.605
-759.585
-879.789
-1009.66
-1151.08
-1306.3
-1477.84
-1668.33
-1880.26
-2115.52
-2374.87
-2657.14
-2958.39
-3271.25
-3585.12
2653.11
2398.55
2149.42
1916.79
1706.94
1521.98
1361.27
1222.74
1103.77
1001.75
914.302
839.375
775.282
720.655
674.414
635.726
603.978
578.751
559.806
547.071
540.646
540.794
547.94
562.642
585.529
617.153
657.704
706.53
761.409
817.731
868.087
903.375
916.656
908.518
887.055
862.448
842.973
833.63
836.075
848.741
866.74
881.942
884.356
866.086
826.721
773.358
715.286
660.161
612.858
575.792
549.56
533.342
524.944
520.552
514.616
500.594
473.332
432.381
381.981
327.744
274.276
224.468
179.729
140.418
106.173
75.9923
48.1011
19.6819
-13.2726
-55.4965
-110.854
-180.11
-260.957
-350.289
-445.852
-546.741
-653.274
-766.701
-888.98
-1022.65
-1170.81
-1337.1
-1525.64
-1740.76
-1986.5
-2265.8
-2579.38
-2923.91
-3289.94
-3661.03
2699.25
2384.7
2082.9
1811.34
1576.77
1378.74
1213.34
1075.6
960.742
864.641
783.93
715.948
658.626
610.376
570.001
536.616
509.596
488.544
473.274
463.801
460.361
463.424
473.735
492.335
520.574
560.032
612.257
678.122
756.51
842.135
922.962
979.785
993.97
966.408
917.552
868.512
833.28
818.915
827.5
857.04
900.609
944.428
967.701
950.336
891.706
810.63
726.613
652.199
593.387
552.145
528.408
520.964
527.291
542.448
557.547
559.47
535.584
485.374
420.417
352.695
289.842
235.409
190.46
154.884
128.087
109.109
96.2302
86.082
72.5441
46.5236
-0.853029
-70.345
-154.634
-246.296
-341.067
-437.712
-536.991
-640.822
-751.845
-873.304
-1009.15
-1164.25
-1344.59
-1557.11
-1809.05
-2107.27
-2456.97
-2858.36
-3301.22
-3759.56
2765.3
2352.36
1972.72
1652.55
1393.92
1188.47
1025.53
895.473
790.667
705.33
635.196
577.14
528.875
488.733
455.502
428.319
406.599
389.995
378.375
371.83
370.695
375.605
387.578
408.134
439.448
484.51
547.156
631.666
741.171
873.432
1012.38
1117.57
1131.38
1054.94
948.296
854.677
793.528
771.141
788.74
845.13
934.113
1036.49
1109.56
1094
989.011
852.136
724.109
621.768
548.616
503.296
483.795
488.763
516.927
564.434
619.461
655.521
635.753
559.616
462.847
370.648
293.296
232.704
187.707
156.724
138.757
133.463
140.447
157.386
176.361
179.324
141.023
60.7588
-37.6655
-137.793
-233.551
-324.856
-414.115
-504.548
-599.638
-703.19
-819.703
-955.015
-1117.13
-1316.6
-1564.89
-1874.54
-2260.01
-2733.01
-3290.13
-3892.51
2866.44
2271.97
1776.82
1405.05
1134.44
936.938
790.289
678.948
592.52
524.096
469.043
424.207
387.407
357.119
332.275
312.137
296.221
284.253
276.156
272.054
272.311
277.604
289.051
308.428
338.516
383.656
450.555
549.204
693.046
895.076
1150.4
1386.94
1398.72
1186.95
960.267
794.069
697.947
665.775
694.113
786.278
948.317
1170.77
1379.01
1366.46
1132.22
880.898
684.615
549.307
463.766
417.271
403.947
423.165
478.717
575.602
708.694
831.978
817.105
663.581
498.705
367.232
272.629
207.556
164.785
139.832
131.193
140.152
170.348
225.781
303.259
371.57
343.356
218.041
81.7838
-35.5557
-132.42
-214.913
-289.519
-361.53
-435.208
-514.369
-603.131
-707.122
-835.812
-1005.71
-1232.31
-1532.53
-1936.94
-2486.45
-3213.72
-4083.08
3036.24
2048.48
1403.16
1011.83
769.61
612.144
504.175
426.519
368.421
323.585
288.157
259.683
236.544
217.65
202.258
189.863
180.145
172.928
168.175
165.992
166.666
170.731
179.097
193.289
215.897
251.462
308.225
401.652
561.113
839.967
1315.42
1979.92
1987.94
1340.43
885.114
632.539
510.267
473.268
507.569
626.802
875.517
1325.51
1966.39
1958.14
1300.03
830.398
557.314
405.182
322.69
283.481
277.243
305.251
380.992
534.637
812.064
1207.39
1198.13
783.908
486.472
310.732
209.445
150.302
116.214
99.46
98.2987
116.274
163.922
262.452
443.384
702.841
685.543
391.11
174.016
37.2196
-51.9606
-116.303
-168.637
-216.082
-262.85
-311.686
-364.581
-423.605
-495.079
-613.113
-793.663
-1040.39
-1404.87
-1983.81
-2932.62
-4381.5
3351.74
1331.76
663.685
403.851
282.7
216.048
174.388
145.909
125.21
109.511
97.2457
87.4633
79.5586
73.1319
67.915
63.7291
60.4608
58.0499
56.4857
55.8106
56.1338
57.6606
60.749
66.0235
74.6177
88.7352
113.09
159.002
257.241
501.735
1208.19
3518.21
3521.06
1217.13
517.997
283.359
199.786
178.081
198.717
280.866
512.871
1205.36
3488.51
3485.62
1196.4
496.875
255.839
160.776
119.285
102.214
101.228
118.603
171.089
315.436
745.667
2165.45
2162.29
736.083
299.005
147.029
85.5795
56.9741
42.6899
36.64
37.8554
49.675
84.2411
180.478
470.46
1432.67
1426.84
452.834
150.641
41.4442
-7.25262
-34.9714
-54.7777
-71.5915
-87.4929
-103.13
-117.166
-122.104
-87.2237
-130.406
-259.648
-378.634
-563.931
-948.466
-1931.31
-4901.14
-3550.92
-3758.82
-3956.23
-4141.08
-4311.76
-4467.12
-4606.48
-4729.5
-4836.17
-4926.68
-5001.32
-5060.46
-5104.46
-5133.6
-5148.12
-3558.82
-3769.18
-3968.67
-4155.13
-4326.94
-4482.99
-4622.66
-4745.7
-4852.19
-4942.39
-5016.67
-5075.46
-5119.15
-5148.07
-5162.48
-3574.87
-3790.29
-3993.99
-4183.69
-4357.74
-4515.11
-4655.32
-4778.32
-4884.35
-4973.86
-5047.36
-5105.39
-5148.44
-5176.91
-5191.08
-3599.68
-3823
-4033.2
-4227.78
-4405.08
-4564.25
-4705.06
-4827.76
-4932.9
-5021.18
-5093.36
-5150.15
-5192.17
-5219.9
-5233.68
-3634.23
-3868.71
-4087.89
-4289
-4470.42
-4631.6
-4772.75
-4894.6
-4998.14
-5084.46
-5154.6
-5209.53
-5250.02
-5276.68
-5289.9
-3680.05
-3929.6
-4160.54
-4369.76
-4555.86
-4718.83
-4859.6
-4979.6
-5080.45
-5163.74
-5230.91
-5283.19
-5321.55
-5346.73
-5359.19
-3739.49
-4008.97
-4254.77
-4473.49
-4664.28
-4828.12
-4967.07
-5083.59
-5180.15
-5258.98
-5321.95
-5370.6
-5406.11
-5429.32
-5440.8
-3816.23
-4111.87
-4375.96
-4605.02
-4799.49
-4962.16
-5096.82
-5207.4
-5297.43
-5369.89
-5427.14
-5470.99
-5502.8
-5523.5
-5533.71
-3916.1
-4246.18
-4532.03
-4771.01
-4966.36
-5124.04
-5250.5
-5351.59
-5432.14
-5495.86
-5545.55
-5583.25
-5610.41
-5628.02
-5636.67
-4048.92
-4424.61
-4734.83
-4980.49
-5170.76
-5316.97
-5429.39
-5516.19
-5583.5
-5635.69
-5675.78
-5705.89
-5727.42
-5741.32
-5748.13
-4232.28
-4668.36
-5002.04
-5245.19
-5419.07
-5543.52
-5633.69
-5700.12
-5749.84
-5787.43
-5815.82
-5836.91
-5851.89
-5861.52
-5866.24
-4500.64
-5014.37
-5359.61
-5579.02
-5716.65
-5804.19
-5861.56
-5900.59
-5928.14
-5948.19
-5963
-5973.86
-5981.54
-5986.48
-5988.89
-4929.86
-5528.72
-5842.87
-5994.45
-6064.14
-6094.85
-6107.6
-6112.35
-6113.79
-6114.02
-6113.92
-6113.81
-6113.77
-6113.77
-6113.79
-5713.33
-6327.61
-6488.51
-6491.59
-6450.46
-6403.29
-6361.42
-6327.26
-6300.47
-6279.99
-6264.66
-6253.5
-6245.76
-6240.88
-6238.53
-7436.56
-7579.7
-7291.8
-7032.71
-6842.65
-6706.24
-6607.32
-6534.6
-6480.69
-6440.63
-6411.04
-6389.59
-6374.69
-6365.29
-6360.74
4869.39
4868.31
4866.32
4863.81
4861.44
4860.33
4862.33
4870.49
4890.05
4930.25
5008.27
5159.15
5466.73
6184.59
8306.49
4965.04
4964.57
4963.79
4963.08
4963.09
4964.93
4970.4
4982.56
5006.7
5052.22
5136.44
5292.14
5581.83
6113.17
6947.98
5060.88
5060.89
5061.06
5061.7
5063.33
5066.85
5073.67
5086.17
5108.35
5147.17
5214.81
5331.9
5528.94
5830.8
6171.42
5156.56
5156.96
5157.86
5159.46
5162.11
5166.31
5172.85
5182.9
5198.28
5221.93
5258.66
5315.99
5403.08
5521.33
5633.64
5251.83
5252.55
5254.03
5256.35
5259.64
5264
5269.44
5275.77
5282.31
5287.43
5288.05
5279.24
5255.42
5215.78
5176.11
5346.45
5347.45
5349.45
5352.42
5356.28
5360.76
5365.25
5368.36
5367.16
5355.9
5323.8
5252.74
5118.58
4910.06
4693.29
5440.23
5441.51
5444.03
5447.71
5452.31
5457.36
5461.87
5463.77
5458.85
5438.66
5386.43
5269.91
5033.2
4609.9
4062.2
5532.98
5534.56
5537.67
5542.19
5547.86
5554.18
5560.14
5563.75
5560.97
5543.51
5493.54
5370.37
5077.23
4395.96
3053.04
5624.48
5626.39
5630.16
5635.7
5642.8
5651.09
5659.9
5668.01
5673.11
5670.76
5651.32
5588.68
5390.64
4641.33
1113.58
5714.5
5716.77
5721.27
5727.96
5736.74
5747.47
5760
5774.19
5790.25
5809.72
5838.92
5900.85
6086.7
6815.99
10325.1
5802.81
5805.44
5810.7
5818.6
5829.15
5842.45
5858.78
5878.91
5904.82
5941.76
6003.63
6126.77
6405.21
7060.05
8377.32
5889.13
5892.13
5898.14
5907.22
5919.48
5935.16
5954.78
5979.45
6011.55
6056.33
6125.61
6244.67
6462.16
6843.9
7346.7
5973.23
5976.57
5983.28
5993.46
6007.25
6024.96
6047.12
6074.68
6109.27
6153.71
6212.87
6294
6404.89
6543.49
6667.62
6054.86
6058.52
6065.86
6077.01
6092.13
6111.51
6135.57
6164.88
6199.96
6240.69
6284.7
6322.49
6328.19
6252.93
6077.12
6133.81
6137.74
6145.64
6157.63
6173.87
6194.63
6220.21
6250.91
6286.51
6325.25
6360.69
6373.07
6307.54
6032.02
5366.91
6209.88
6214.04
6222.41
6235.11
6252.3
6274.22
6301.16
6333.37
6370.71
6411.91
6452.53
6477.56
6432.57
6081.45
4197.2
6282.92
6287.27
6296.03
6309.3
6327.26
6350.15
6378.3
6412.1
6452.02
6498.82
6555.01
6630.48
6770
7195.39
9117.92
6352.78
6357.28
6366.34
6380.06
6398.62
6422.26
6451.36
6486.44
6528.36
6579.06
6643.94
6738.73
6908.76
7269.45
7979.55
6419.36
6423.97
6433.24
6447.29
6466.26
6490.42
6520.11
6555.85
6598.41
6649.27
6711.92
6794.55
6914.96
7100.68
7336.67
6482.59
6487.27
6496.67
6510.91
6530.13
6554.56
6584.52
6620.38
6662.51
6711.13
6765.87
6823.96
6875.62
6896.82
6860.03
6542.42
6547.13
6556.59
6570.9
6590.2
6614.7
6644.67
6680.38
6721.91
6768.57
6817.33
6857.63
6857.29
6733.04
6360.21
6598.83
6603.53
6612.97
6627.25
6646.48
6670.88
6700.69
6736.2
6777.56
6824.37
6874.51
6919.33
6924.83
6741.71
5603.83
6651.83
6656.49
6665.84
6679.97
6699
6723.12
6752.59
6787.8
6829.23
6877.7
6935.23
7008.16
7123.21
7413.2
8615.87
6701.44
6706.03
6715.23
6729.12
6747.81
6771.47
6800.36
6834.91
6875.83
6924.59
6985.08
7067.56
7199.93
7450.74
7909.14
6747.72
6752.21
6761.2
6774.77
6793
6816.02
6844.06
6877.46
6916.78
6963.18
7019.49
7092.13
7194.24
7343.94
7523.04
6790.73
6795.1
6803.84
6817.02
6834.68
6856.92
6883.89
6915.73
6952.62
6994.73
7042.41
7096.04
7155.36
7216.55
7263.61
6830.57
6834.79
6843.25
6855.97
6873
6894.39
6920.18
6950.35
6984.66
7022.24
7061.04
7095.83
7115.02
7098.8
7039.14
6867.33
6871.4
6879.53
6891.77
6908.12
6928.62
6953.27
6981.96
7014.23
7048.76
7082.29
7106.29
7099.1
7011.03
6775.52
6901.13
6905.02
6912.82
6924.53
6940.19
6959.82
6983.42
7010.93
7042.04
7075.81
7110.02
7138.22
7139.2
7025.47
6350.62
6932.07
6935.78
6943.22
6954.39
6969.34
6988.08
7010.7
7037.27
7067.81
7102.42
7141.75
7188.87
7258.82
7429.39
8134.41
6960.29
6963.81
6970.87
6981.47
6995.66
7013.5
7035.11
7060.69
7090.59
7125.59
7167.93
7223.51
7308.4
7462.02
7734.89
6985.92
6989.24
6995.89
7005.9
7019.29
7036.14
7056.61
7080.96
7109.63
7143.53
7184.76
7237.61
7310.1
7411.7
7527.04
7009.11
7012.21
7018.44
7027.8
7040.34
7056.12
7075.29
7098.08
7124.86
7156.23
7193.36
7237.92
7291.46
7351.66
7401.45
7029.99
7032.87
7038.65
7047.34
7058.96
7073.59
7091.31
7112.3
7136.73
7164.79
7196.64
7231.84
7268.04
7298.68
7312.6
7048.72
7051.37
7056.69
7064.67
7075.35
7088.74
7104.93
7123.98
7145.92
7170.56
7197.45
7224.91
7248.34
7257.15
7235.54
7065.47
7067.89
7072.72
7079.98
7089.67
7101.81
7116.42
7133.53
7153.04
7174.65
7197.73
7220.6
7238.66
7236.58
7145.6
7080.4
7082.57
7086.91
7093.43
7102.13
7113
7126.05
7141.28
7158.54
7177.56
7198.01
7219.48
7242.84
7277.58
7384.86
7093.68
7095.6
7099.45
7105.22
7112.91
7122.52
7134.05
7147.47
7162.65
7179.36
7197.43
7216.91
7238.99
7268.08
7310.32
7105.49
7107.15
7110.49
7115.5
7122.19
7130.56
7140.6
7152.3
7165.53
7180.08
7195.76
7212.4
7230.14
7249.35
7267.1
7115.99
7117.4
7120.22
7124.47
7130.15
7137.28
7145.87
7155.93
7167.35
7179.9
7193.28
7206.98
7220.17
7231.5
7238.16
7125.37
7126.51
7128.81
7132.28
7136.94
7142.83
7150
7158.48
7168.22
7179
7190.47
7201.78
7211.37
7216.77
7215.79
7133.81
7134.68
7136.44
7139.11
7142.72
7147.35
7153.08
7160.02
7168.2
7177.51
7187.64
7197.66
7205.37
7206.36
7194.69
7141.5
7142.09
7143.28
7145.11
7147.63
7150.95
7155.2
7160.58
7167.26
7175.32
7184.77
7195
7203.94
7204.61
7167.4
7148.63
7148.92
7149.52
7150.46
7151.83
7153.75
7156.41
7160.11
7165.19
7172.06
7181.23
7193.13
7208.15
7229.07
7278.06
7155.41
7155.39
7155.36
7155.36
7155.49
7155.87
7156.76
7158.54
7161.73
7167.08
7175.71
7188.96
7208.19
7233.95
7262.71
7162.06
7161.71
7161.01
7160.02
7158.8
7157.5
7156.37
7155.86
7156.63
7159.71
7166.86
7180.54
7203.62
7236.68
7269.16
7168.8
7168.1
7166.71
7164.65
7161.99
7158.84
7155.42
7152.17
7149.77
7149.41
7153.36
7165.5
7192.05
7239.75
7300.01
7175.86
7174.8
7172.7
7169.54
7165.36
7160.2
7154.23
7147.75
7141.32
7136
7134.07
7140.35
7165.73
7234.06
7374.55
7183.48
7182.07
7179.25
7174.97
7169.21
7161.96
7153.24
7143.16
7131.96
7120.13
7108.98
7101.83
7109.53
7178.21
7548.55
7191.91
7190.16
7186.62
7181.24
7173.93
7164.57
7153.04
7139.21
7122.87
7103.66
7080.99
7052.89
7010.91
6912.85
6522.86
7201.37
7199.3
7195.09
7188.67
7179.88
7168.51
7154.3
7136.87
7115.6
7089.47
7056.68
7013.46
6951.15
6850.1
6687.28
7212.1
7209.72
7204.92
7197.55
7187.41
7174.24
7157.62
7137.02
7111.55
7079.76
7039.48
6987.19
6918.19
6830.15
6740.82
7224.28
7221.65
7216.32
7208.14
7196.86
7182.15
7163.55
7140.4
7111.69
7075.82
7030.48
6972.39
6898.38
6811.02
6734.57
7238.08
7235.25
7229.5
7220.66
7208.48
7192.58
7172.47
7147.48
7116.6
7078.3
7030.22
6968.54
6887.75
6784.27
6677.54
7253.64
7250.66
7244.6
7235.29
7222.45
7205.7
7184.58
7158.45
7126.48
7087.41
7039.26
6977.81
6892.83
6759.75
6548.8
7271.06
7267.98
7261.74
7252.14
7238.9
7221.65
7199.95
7173.29
7141.07
7102.65
7057.35
7003.3
6931.22
6789.31
6276.1
7290.38
7287.28
7280.97
7271.27
7257.89
7240.46
7218.56
7191.77
7159.73
7122.47
7081.34
7041.1
7018
7076.69
7536.09
7311.62
7308.55
7302.31
7292.7
7279.43
7262.11
7240.33
7213.66
7181.76
7144.78
7104.49
7066.77
7047.76
7085.48
7232.24
7334.75
7331.78
7325.73
7316.4
7303.49
7286.61
7265.27
7238.94
7207.04
7169.13
7125.62
7079.2
7037.84
7018.17
7034.02
7359.68
7356.87
7351.15
7342.31
7330.04
7313.91
7293.41
7267.84
7236.21
7197.09
7148.52
7087.82
7012.6
6925.88
6850.64
7386.3
7383.72
7378.46
7370.31
7358.95
7343.97
7324.8
7300.67
7270.27
7231.34
7179.57
7106.24
6995.06
6825.36
6618.98
7414.44
7412.15
7407.48
7400.22
7390.07
7376.62
7359.36
7337.55
7309.94
7274.2
7225.28
7150.64
7017.89
6750.07
6248.08
7443.88
7441.94
7437.99
7431.81
7423.14
7411.6
7396.78
7378.14
7354.92
7325.88
7288.54
7235.06
7134.26
6837.21
5532.83
7474.36
7472.84
7469.72
7464.81
7457.85
7448.53
7436.54
7421.59
7403.57
7383
7362.64
7351.98
7386.59
7623.66
8885.55
7505.58
7504.54
7502.36
7498.88
7493.85
7486.98
7478.02
7466.83
7453.59
7439.62
7429.63
7437.04
7497.88
7697.84
8150.59
7537.23
7536.7
7535.57
7533.66
7530.74
7526.52
7520.73
7513.14
7503.71
7493.08
7484.11
7484.54
7512.09
7595.84
7735.57
7568.91
7568.96
7568.97
7568.78
7568.16
7566.79
7564.34
7560.36
7554.22
7545
7531.64
7512.71
7486.76
7454.36
7423.28
7600.23
7600.9
7602.15
7603.83
7605.69
7607.44
7608.65
7608.71
7606.43
7599.37
7582.61
7545.26
7465.42
7311.4
7095.16
7630.76
7632.09
7634.67
7638.35
7642.91
7648.06
7653.41
7658.32
7661.49
7660.04
7647.43
7606.82
7495.09
7211.11
6622.7
7660.03
7662.06
7666.05
7671.86
7679.31
7688.15
7698.1
7708.74
7719.29
7728.05
7731.24
7717.29
7643.89
7321.7
5747.48
7687.55
7690.31
7695.78
7703.84
7714.32
7727.06
7741.93
7758.85
7777.85
7799.49
7826.49
7868.54
7965.01
8301.24
9875.24
7712.8
7716.33
7723.34
7733.72
7747.35
7764.1
7783.96
7807.1
7834.1
7866.79
7910.84
7981.48
8119.14
8420.69
9011.76
7735.25
7739.57
7748.16
7760.93
7777.77
7798.58
7823.35
7852.28
7885.9
7925.77
7976.28
8047.37
8158.98
8338.56
8564.75
7754.35
7759.48
7769.69
7784.91
7805.01
7829.89
7859.49
7893.8
7932.87
7976.92
8026.98
8084.6
8151.15
8223.53
8280.84
7769.53
7775.48
7787.35
7805.07
7828.5
7857.52
7891.98
7931.62
7975.87
8023.49
8071.98
8115.12
8138.81
8118.43
8042.75
7780.22
7787.01
7800.57
7820.83
7847.68
7880.97
7920.49
7965.84
8016.06
8069.01
8120.27
8158.66
8156.59
8051.21
7758.11
7785.84
7793.48
7808.74
7831.59
7861.94
7899.67
7944.59
7996.3
8053.84
8115.31
8177.04
8229.81
8245.66
8113.8
7275.89
7785.8
7794.29
7811.25
7836.71
7870.64
7912.98
7963.62
8022.3
8088.42
8161.02
8239.61
8326.11
8436.88
8666.19
9551.95
7779.52
7788.83
7807.48
7835.54
7873.06
7920.11
7976.7
8042.76
8118.01
8202.17
8296.27
8405.11
8545.4
8762.3
9114.52
7766.42
7776.52
7796.79
7827.37
7868.44
7920.2
7982.84
8056.46
8140.94
8236.03
8342.27
8461.84
8600.33
8764.06
8927.28
7745.95
7756.78
7778.55
7811.51
7855.97
7912.33
7980.99
8062.24
8156.03
8261.76
8378.63
8504.98
8637.36
8765.78
8858.92
7717.62
7729.07
7752.16
7787.24
7834.81
7895.51
7970.03
8058.95
8162.35
8279.38
8408
8543.49
8676.79
8791.59
8860.75
7680.99
7692.93
7717.07
7753.89
7804.12
7868.7
7948.72
8045.23
8158.74
8288.58
8432.2
8583.1
8728.7
8848.69
8916.11
7635.71
7647.96
7672.78
7710.82
7763.04
7830.77
7915.62
8019.34
8143.32
8287.83
8450.96
8625.95
8798.01
8941.89
9023.77
7581.59
7593.91
7618.94
7657.49
7710.78
7780.55
7869.06
7979.01
8113.2
8273.77
8461.1
8670.39
8886.51
9077.72
9193.75
7518.57
7530.68
7555.35
7593.52
7646.67
7716.93
7807.26
7921.5
8064.29
8240.74
8455.6
8709.64
8991.92
9265.32
9449.77
7446.8
7458.38
7482.02
7518.76
7570.26
7638.99
7728.52
7843.82
7991.57
8180.65
8422.5
8728.83
9103.09
9514.25
9839.32
7366.67
7377.36
7399.23
7433.36
7481.48
7546.23
7631.56
7743.24
7889.7
8083.54
8344.24
8700.42
9188.22
9822.49
10460
7278.78
7288.22
7307.58
7337.87
7380.75
7438.81
7515.97
7618.16
7754.48
7939.63
8199.27
8580.16
9171.24
10128
11528.9
7184
7191.86
7207.99
7233.25
7269.1
7317.77
7382.68
7469.05
7584.92
7743.63
7969.71
8313.49
8899.96
10124.4
13576
-12274.1
-9122.36
-8001.56
-7465.27
-7152.8
-6949.4
-6808.5
-6707.26
-6633.03
-6578.11
-6537.57
-6508.15
-6487.66
-6474.71
-6468.43
-10394.6
-9114.26
-8240.72
-7702.91
-7358.89
-7126.92
-6963.69
-6845.35
-6757.98
-6692.98
-6644.74
-6609.57
-6585
-6569.42
-6561.86
-9406.27
-8823.48
-8246.59
-7805.8
-7487.03
-7256.55
-7087.55
-6961.79
-6867.28
-6796.06
-6742.7
-6703.5
-6675.96
-6658.43
-6649.9
-8824.68
-8528.44
-8157.78
-7823.79
-7553.7
-7343.35
-7181.22
-7056.38
-6960.29
-6886.6
-6830.66
-6789.18
-6759.83
-6741.06
-6731.91
-8450.87
-8284.91
-8043.33
-7797.23
-7578.77
-7396.51
-7248.82
-7130.88
-7037.63
-6964.66
-6908.45
-6866.29
-6836.22
-6816.89
-6807.42
-8194.37
-8093.74
-7931.85
-7751.33
-7578.54
-7425.51
-7295.61
-7188.1
-7100.74
-7030.95
-6976.32
-6934.85
-6905.02
-6885.72
-6876.24
-8009.8
-7944.95
-7833.17
-7699.88
-7564.45
-7438.29
-7326.68
-7231.19
-7151.53
-7086.56
-7034.89
-6995.18
-6966.36
-6947.6
-6938.35
-7872.33
-7828.6
-7749.25
-7649.77
-7543.78
-7440.81
-7346.39
-7263.15
-7191.99
-7132.8
-7084.99
-7047.81
-7020.57
-7002.74
-6993.92
-7767.29
-7736.82
-7679.16
-7604.02
-7520.88
-7437.25
-7358.16
-7286.57
-7224
-7171
-7127.55
-7093.37
-7068.12
-7051.48
-7043.22
-7685.47
-7663.76
-7621.07
-7563.66
-7498.17
-7430.38
-7364.56
-7303.59
-7249.24
-7202.42
-7163.52
-7132.58
-7109.54
-7094.27
-7086.66
-7620.81
-7605.12
-7573.04
-7528.74
-7476.93
-7421.98
-7367.44
-7315.88
-7269.1
-7228.21
-7193.8
-7166.16
-7145.41
-7131.59
-7124.68
-7569.11
-7557.7
-7533.34
-7498.89
-7457.71
-7413.16
-7368.07
-7324.7
-7284.74
-7249.34
-7219.22
-7194.8
-7176.34
-7163.98
-7157.78
-7527.41
-7519.13
-7500.51
-7473.55
-7440.71
-7404.55
-7367.35
-7331.02
-7297.08
-7266.66
-7240.51
-7219.14
-7202.88
-7191.94
-7186.44
-7493.53
-7487.59
-7473.31
-7452.13
-7425.87
-7396.51
-7365.86
-7335.52
-7306.84
-7280.87
-7258.34
-7239.79
-7225.59
-7215.99
-7211.16
-7465.85
-7461.69
-7450.74
-7434.08
-7413.05
-7389.21
-7363.99
-7338.73
-7314.6
-7292.54
-7273.24
-7257.25
-7244.94
-7236.59
-7232.38
-7443.13
-7440.35
-7432
-7418.89
-7402.06
-7382.7
-7361.99
-7341.01
-7320.78
-7302.13
-7285.7
-7272
-7261.4
-7254.19
-7250.54
-7424.42
-7422.71
-7416.42
-7406.14
-7392.68
-7376.99
-7360.01
-7342.63
-7325.73
-7310.03
-7296.11
-7284.43
-7275.36
-7269.17
-7266.03
-7408.98
-7408.12
-7403.45
-7395.44
-7384.71
-7372.03
-7358.14
-7343.78
-7329.71
-7316.54
-7304.8
-7294.9
-7287.18
-7281.89
-7279.2
-7396.2
-7396.02
-7392.66
-7386.48
-7377.97
-7367.74
-7356.42
-7344.6
-7332.92
-7321.92
-7312.06
-7303.7
-7297.16
-7292.66
-7290.37
-7385.61
-7385.98
-7383.68
-7378.98
-7372.28
-7364.07
-7354.88
-7345.17
-7335.51
-7326.37
-7318.12
-7311.09
-7305.57
-7301.76
-7299.82
-7376.85
-7377.66
-7376.2
-7372.71
-7367.49
-7360.95
-7353.51
-7345.58
-7337.62
-7330.04
-7323.16
-7317.28
-7312.63
-7309.43
-7307.79
-7369.59
-7370.76
-7369.99
-7367.48
-7363.47
-7358.3
-7352.32
-7345.87
-7339.33
-7333.07
-7327.35
-7322.44
-7318.55
-7315.86
-7314.48
-7363.6
-7365.06
-7364.85
-7363.14
-7360.11
-7356.08
-7351.3
-7346.07
-7340.72
-7335.56
-7330.83
-7326.75
-7323.5
-7321.24
-7320.08
-7358.67
-7360.36
-7360.61
-7359.54
-7357.33
-7354.21
-7350.43
-7346.2
-7341.84
-7337.61
-7333.7
-7330.31
-7327.6
-7325.71
-7324.74
-7354.64
-7356.52
-7357.14
-7356.59
-7355.03
-7352.66
-7349.69
-7346.29
-7342.75
-7339.28
-7336.06
-7333.24
-7330.99
-7329.41
-7328.6
-7351.39
-7353.41
-7354.32
-7354.19
-7353.15
-7351.39
-7349.07
-7346.35
-7343.47
-7340.62
-7337.97
-7335.63
-7333.75
-7332.43
-7331.75
-7348.79
-7350.94
-7352.07
-7352.27
-7351.64
-7350.36
-7348.55
-7346.37
-7344.03
-7341.69
-7339.49
-7337.55
-7335.97
-7334.87
-7334.29
-7346.79
-7349.02
-7350.32
-7350.77
-7350.46
-7349.53
-7348.13
-7346.37
-7344.45
-7342.51
-7340.68
-7339.05
-7337.72
-7336.79
-7336.3
-7345.31
-7347.6
-7349.02
-7349.64
-7349.55