/*--------------------------------*- C++ -*----------------------------------*\
| =========                 |                                                 |
| \\      /  F ield         | OpenFOAM: The Open Source CFD Toolbox           |
|  \\    /   O peration     | Version:  5.x                                   |
|   \\  /    A nd           | Web:      www.OpenFOAM.org                      |
|    \\/     M anipulation  |                                                 |
\*---------------------------------------------------------------------------*/
FoamFile
{
    version     2.0;
    format      ascii;
    class       volScalarField;
    location    "17";
    object      gradTy;
}
// * * * * * * * * * * * * * * * * * * * * * * * * * * * * * * * * * * * * * //

dimensions      [0 -1 0 1 0 0 0];

internalField   nonuniform List<scalar> 
6300
(
1004.24
1012.72
1021.16
1029.53
1037.82
1045.99
1054.01
1061.88
1069.55
1077.01
1084.23
1091.2
1097.89
1104.29
1110.39
0.019001
0.056996
0.0949614
0.132854
0.170593
0.208045
0.244993
0.281125
0.316002
0.349046
0.379532
0.40661
0.429346
0.446803
0.45814
0.0316757
0.0950221
0.158344
0.221586
0.284637
0.347292
0.409222
0.469928
0.528698
0.584573
0.636327
0.68249
0.721419
0.751437
0.771024
0.0443547
0.133072
0.2218
0.310502
0.399063
0.487251
0.57466
0.660649
0.744271
0.824201
0.898692
0.965584
1.02239
1.06649
1.09546
0.0570229
0.171104
0.285276
0.399549
0.513851
0.627973
0.741499
0.853719
0.963515
1.06924
1.16863
1.25874
1.33603
1.39664
1.43687
0.0696542
0.209039
0.348639
0.488552
0.6288
0.769267
0.909618
1.04918
1.18679
1.32059
1.44782
1.56467
1.6663
1.74713
1.80152
0.0822079
0.246752
0.411676
0.577205
0.743509
0.910651
1.0785
1.24657
1.41385
1.57847
1.73733
1.88577
2.01733
2.12399
2.19713
0.094629
0.284076
0.474093
0.665061
0.857355
1.0513
1.24711
1.44471
1.64353
1.84204
2.03719
2.22366
2.39317
2.53428
2.63355
0.106857
0.320819
0.535541
0.751571
0.969519
1.19005
1.41387
1.64159
1.87345
2.1089
2.34566
2.57844
2.79729
2.98628
3.12409
0.118833
0.356794
0.595662
0.836137
1.07906
1.32549
1.5767
1.83425
2.09973
2.37438
2.65801
2.94703
3.23114
3.48934
3.6876
0.130512
0.391848
0.654157
0.918227
1.18507
1.45608
1.73315
2.0189
2.31674
2.63077
2.96487
3.32039
3.69078
4.05222
4.35202
0.141876
0.425917
0.71087
0.997507
1.28689
1.58056
1.88087
2.19138
2.51748
2.86696
3.25019
3.67874
4.15922
4.67659
5.15969
0.152946
0.459059
0.765875
1.07401
1.38436
1.69834
2.0183
2.34819
2.69475
3.06927
3.49006
3.98502
4.59062
5.33509
6.16899
0.163789
0.491482
0.819533
1.14826
1.47816
1.8101
2.14571
2.48822
2.84394
3.22517
3.65564
4.18051
4.88301
5.90391
7.40631
0.174514
0.523528
0.872487
1.22131
1.56988
1.9181
2.26615
2.61495
2.9675
3.33168
3.72671
4.19822
4.85684
5.99097
8.45686
1115.69
1120.3
1124.69
1128.86
1132.82
1136.58
1140.15
1143.53
1146.74
1149.79
1152.69
1155.47
1158.12
1160.67
1163.13
1165.52
1167.85
1170.13
1172.39
1174.62
1176.85
1179.08
1181.33
1183.6
1185.92
1188.28
1190.68
1193.15
1195.68
1198.27
1200.92
1203.64
1206.42
1209.25
1212.14
1215.08
1218.06
1221.07
1224.1
1227.15
1230.21
1233.25
1236.28
1239.26
1242.2
1245.07
1247.86
1250.55
1253.14
1255.6
1257.91
1260.07
1262.06
1263.86
1265.45
1266.8
1267.91
1268.74
1269.26
1269.46
1269.31
1268.76
1267.81
1266.4
1264.51
1262.1
1259.12
1255.53
1251.28
1246.31
1240.58
1234
1226.53
1218.08
1208.59
1197.97
1186.15
1173.05
1158.57
1142.63
1125.16
1106.06
1085.25
1062.66
1038.23
1011.9
983.621
953.374
921.147
886.949
0.462349
0.461295
0.455355
0.444698
0.429649
0.410657
0.388256
0.363019
0.335522
0.306315
0.275898
0.244712
0.213136
0.181489
0.15004
0.11902
0.0886298
0.0590603
0.0305001
0.00314839
-0.0227759
-0.0470296
-0.0693445
-0.0894332
-0.107001
-0.121767
-0.133486
-0.141978
-0.147156
-0.149036
-0.147742
-0.143478
-0.136493
-0.127018
-0.115219
-0.10116
-0.0848042
-0.0660458
-0.0447744
-0.02095
0.00532895
0.0337879
0.0639842
0.0953643
0.127362
0.159509
0.19154
0.223444
0.255482
0.288137
0.322036
0.357841
0.396149
0.437409
0.481871
0.529591
0.580486
0.634419
0.691308
0.751221
0.814442
0.881489
0.953094
1.03014
1.11356
1.20428
1.3031
1.41062
1.5272
1.65295
1.78776
1.93134
2.08324
2.24295
2.40979
2.58298
2.76144
2.94376
3.12802
3.31168
3.4915
3.66351
3.82308
3.96502
4.08389
4.17434
4.2315
4.25143
4.23155
4.17087
0.778363
0.776626
0.766466
0.748191
0.722396
0.689896
0.651647
0.608668
0.561967
0.512491
0.461092
0.408511
0.355373
0.302198
0.249417
0.197391
0.146439
0.0968546
0.0489357
0.0030005
-0.0405947
-0.0814449
-0.119094
-0.153044
-0.182772
-0.20777
-0.227585
-0.24188
-0.250481
-0.25342
-0.250935
-0.243438
-0.231428
-0.215374
-0.195604
-0.17223
-0.145134
-0.114041
-0.0786479
-0.0387802
0.00545693
0.0535933
0.104799
0.157998
0.212068
0.266071
0.319468
0.372231
0.424859
0.478291
0.533735
0.592461
0.655597
0.723962
0.797969
0.877633
0.962669
1.05268
1.14738
1.24678
1.35132
1.4619
1.57984
1.70674
1.84432
1.99426
2.158
2.33661
2.53072
2.74048
2.96564
3.20562
3.45966
3.72687
4.00625
4.29659
4.59631
4.90326
5.21442
5.5257
5.83175
6.12586
6.40005
6.6453
6.85197
7.01048
7.11201
7.14937
7.11777
7.01536
1.10645
1.10405
1.08922
1.06248
1.02476
0.977381
0.921826
0.859657
0.792392
0.721425
0.647983
0.57311
0.497664
0.422343
0.347709
0.274224
0.202285
0.13226
0.0645256
-0.000505106
-0.0623529
-0.120455
-0.174156
-0.222717
-0.265339
-0.301217
-0.329616
-0.349961
-0.361942
-0.365593
-0.361327
-0.34988
-0.332167
-0.309061
-0.281164
-0.248642
-0.211203
-0.168215
-0.11895
-0.0628883
-1.60529e-05
0.0689921
0.142757
0.219391
0.296878
0.373517
0.448318
0.521217
0.593085
0.665555
0.740714
0.820737
0.907523
1.0024
1.10593
1.21795
1.33769
1.4642
1.59669
1.73494
1.8795
2.03172
2.19369
2.36795
2.55729
2.76436
2.99147
3.24028
3.51169
3.80584
4.12216
4.45965
4.8171
5.19327
5.58691
5.99666
6.42076
6.85667
7.30062
7.74723
8.18916
8.61686
9.01868
9.38108
9.68937
9.92861
10.0849
10.1466
10.1059
9.9597
1.45239
1.44936
1.42915
1.39256
1.34106
1.27665
1.20154
1.118
1.02817
0.933954
0.836976
0.738578
0.639827
0.541555
0.444408
0.348895
0.255441
0.164438
0.0762945
-0.00851811
-0.0894262
-0.16572
-0.236536
-0.300853
-0.357525
-0.405344
-0.44315
-0.46999
-0.485298
-0.489068
-0.481959
-0.465243
-0.44057
-0.409547
-0.373279
-0.332032
-0.285162
-0.231328
-0.168935
-0.0967022
-0.0142225
0.077644
0.176684
0.279661
0.383009
0.48371
0.580007
0.671786
0.760543
0.849045
0.940788
1.03937
1.14791
1.26846
1.40179
1.54723
1.70308
1.8672
2.03781
2.21413
2.39673
2.58761
2.78991
3.00756
3.2448
3.50572
3.79379
4.11149
4.46003
4.83934
5.24827
5.68502
6.14767
6.63457
7.14443
7.67613
8.22827
8.79853
9.38302
9.97556
10.5671
11.1452
11.6941
12.1948
12.6262
12.9662
13.1939
13.2912
13.2458
13.0527
1.82295
1.81935
1.79262
1.74402
1.67589
1.59123
1.49331
1.38533
1.27019
1.15038
1.02795
0.904494
0.781244
0.659097
0.538709
0.420561
0.305031
0.192465
0.0832381
-0.0221796
-0.123166
-0.218894
-0.30829
-0.390013
-0.462473
-0.523897
-0.572483
-0.606633
-0.625274
-0.628217
-0.616429
-0.592072
-0.558124
-0.517597
-0.472576
-0.423532
-0.369164
-0.306783
-0.23311
-0.145297
-0.0419734
0.0759353
0.204912
0.339357
0.472917
0.600201
0.718157
0.826656
0.928316
1.02781
1.13094
1.24363
1.3709
1.51609
1.68013
1.86145
2.05648
2.26078
2.47063
2.68417
2.90198
3.12697
3.36394
3.61885
3.89811
4.20787
4.55335
4.93818
5.36396
5.8301
6.33421
6.87297
7.44319
8.04267
8.67036
9.32603
10.0095
10.7198
11.4537
12.2052
12.9641
13.7154
14.4386
15.1082
15.6944
16.1656
16.4902
16.6411
16.5984
16.3536
2.22667
2.22257
2.18748
2.12351
2.03442
1.92482
1.79948
1.66286
1.51882
1.37048
1.22028
1.07002
0.920975
0.774018
0.629702
0.488378
0.350281
0.215615
0.0846337
-0.0422803
-0.164532
-0.281237
-0.391139
-0.492555
-0.583348
-0.660973
-0.722638
-0.765639
-0.787887
-0.788606
-0.769031
-0.732741
-0.685184
-0.63215
-0.577701
-0.522739
-0.464745
-0.39854
-0.317692
-0.216281
-0.0907864
0.0582231
0.225196
0.400254
0.571779
0.73004
0.869837
0.991283
1.09911
1.20124
1.30724
1.42674
1.56799
1.73643
1.93346
2.15583
2.39638
2.64625
2.898
3.14793
3.39671
3.64894
3.91199
4.19492
4.50732
4.85841
5.25606
5.70572
6.20956
6.76598
7.37006
8.01539
8.69637
9.40992
10.1558
10.9356
11.752
12.6066
13.4987
14.4238
15.3719
16.3257
17.26
18.1412
18.9281
19.5754
20.0366
20.2693
20.2417
19.9386
2.67483
2.67031
2.62379
2.53907
2.42238
2.28095
2.12178
1.95098
1.77351
1.59313
1.41257
1.23366
1.05759
0.885026
0.716283
0.551452
0.390501
0.233376
0.0800924
-0.0691681
-0.213956
-0.353438
-0.486266
-0.610449
-0.723237
-0.821077
-0.899716
-0.954574
-0.981543
-0.978262
-0.945745
-0.889682
-0.820181
-0.748792
-0.683618
-0.626365
-0.572205
-0.511439
-0.431947
-0.322012
-0.173536
0.014559
0.233742
0.466139
0.689635
0.886354
1.04783
1.17541
1.27797
1.36899
1.46397
1.5784
1.72579
1.91547
2.15012
2.42387
2.7227
3.02881
3.32783
3.61315
3.88632
4.15512
4.43125
4.72834
5.06061
5.44172
5.88364
6.39501
6.97924
7.63297
8.34628
9.10621
9.90239
10.7304
11.5919
12.4923
13.4392
14.439
15.4959
16.6092
17.771
18.9637
20.1577
21.3093
22.3627
23.2529
23.9114
24.272
24.2812
23.9108
3.18341
3.17841
3.11501
3.00053
2.84589
2.66257
2.46077
2.24869
2.03238
1.81606
1.60246
1.39323
1.18917
0.990542
0.797252
0.608964
0.425243
0.245643
0.0698045
-0.102444
-0.270963
-0.435156
-0.593773
-0.744677
-0.884572
-1.00875
-1.11095
-1.18358
-1.21867
-1.20993
-1.15628
-1.06589
-0.957811
-0.856399
-0.778048
-0.725458
-0.689095
-0.651222
-0.589952
-0.483154
-0.313258
-0.0738004
0.223322
0.544895
0.846098
1.09347
1.27466
1.39559
1.47351
1.53109
1.59275
1.68266
1.82275
2.0298
2.31052
2.65583
3.03855
3.42162
3.77741
4.0959
4.38221
4.65077
4.92034
5.21116
5.54358
5.93749
6.41123
6.97939
7.64886
8.41413
9.25533
10.1448
11.0625
12.0028
12.9717
13.9823
15.0499
16.1893
17.412
18.7245
20.1253
21.5999
23.1161
24.6189
26.0318
27.264
28.2149
28.7804
28.8673
28.4182
3.7767
3.77051
3.67968
3.51974
3.31062
3.07072
2.81456
2.55249
2.2913
2.03511
1.78617
1.54543
1.31301
1.08848
0.871126
0.66002
0.454178
0.252628
0.0544873
-0.14094
-0.334045
-0.524741
-0.712218
-0.894581
-1.06836
-1.22788
-1.36456
-1.46647
-1.51871
-1.50607
-1.41953
-1.26736
-1.08566
-0.93061
-0.835189
-0.800997
-0.807973
-0.82451
-0.813326
-0.734965
-0.552955
-0.245009
0.177876
0.653159
1.08025
1.39605
1.58842
1.67787
1.69852
1.68746
1.68106
1.71483
1.82349
2.03825
2.37811
2.83411
3.35407
3.85387
4.28088
4.62514
4.90383
5.14512
5.37902
5.63422
5.9382
6.31849
6.80305
7.41805
8.18067
9.08611
10.0951
11.1428
12.1904
13.2339
14.2915
15.3901
16.5575
17.8196
19.1986
20.7129
22.3732
24.1764
26.0938
28.0578
29.9613
31.68
33.0732
33.9782
34.2253
33.6872
4.49541
4.48441
4.34377
4.10972
3.81956
3.50214
3.17671
2.85484
2.54282
2.24356
1.9579
1.6855
1.42532
1.17597
0.93587
0.703373
0.476822
0.254598
0.0351669
-0.182868
-0.400674
-0.619035
-0.83809
-1.0569
-1.27274
-1.47994
-1.6683
-1.8209
-1.9122
-1.90867
-1.77732
-1.51139
-1.17517
-0.919
-0.804206
-0.817298
-0.913132
-1.03778
-1.13351
-1.1361
-0.974081
-0.581816
0.0568778
0.830707
1.47453
1.87625
2.05028
2.05906
1.96902
1.83695
1.71136
1.63898
1.67127
1.86636
2.27826
2.92011
3.69841
4.39072
4.9033
5.24858
5.47906
5.64986
5.80678
5.98676
6.22269
6.54907
7.00675
7.64387
8.50655
9.60873
10.8786
12.1405
13.3238
14.4445
15.552
16.6983
17.9285
19.2809
20.7902
22.4904
24.4149
26.5881
29.0036
31.5836
34.1561
36.5644
38.6339
40.1226
40.7136
40.0968
5.41754
5.38481
5.14219
4.78028
4.36759
3.94497
3.53361
3.1429
2.77588
2.43231
2.11046
1.80789
1.52197
1.25008
0.989622
0.738129
0.493205
0.252529
0.0138269
-0.225127
-0.466496
-0.71231
-0.964288
-1.22348
-1.48949
-1.75909
-2.02348
-2.26352
-2.4422
-2.49523
-2.32883
-1.8566
-1.14935
-0.703779
-0.589043
-0.714429
-0.976767
-1.29264
-1.58774
-1.77424
-1.72671
-1.27344
-0.258699
1.19545
2.21738
2.68426
2.75
2.58251
2.30001
1.97705
1.665
1.41239
1.28458
1.38224
1.84726
2.80956
4.16649
5.18629
5.76649
6.03721
6.14014
6.17448
6.20122
6.25864
6.37683
6.59047
6.95195
7.54478
8.48743
9.8897
11.6736
13.2514
14.547
15.6739
16.7564
17.8855
19.1234
20.5161
22.1065
23.9448
26.0979
28.6507
31.6763
35.1196
38.5872
41.9361
45.0304
47.5594
48.9405
48.3713
6.72413
6.58716
6.11211
5.52379
4.9297
4.37145
3.86065
3.39678
2.97509
2.58979
2.23522
1.90628
1.59846
1.30773
1.0305
0.763461
0.503522
0.247673
-0.00708349
-0.263831
-0.525832
-0.79661
-1.08
-1.3801
-1.70096
-2.04562
-2.41356
-2.79436
-3.15297
-3.39762
-3.32056
-2.54009
-0.746582
-0.0120676
-0.0280072
-0.414249
-0.963209
-1.57726
-2.19823
-2.74923
-3.06342
-2.77345
-1.2069
2.18264
3.75951
4.06993
3.78555
3.2716
2.68929
2.10151
1.5331
1.0062
0.573311
0.369211
0.700301
2.13082
5.12007
6.61484
7.07532
7.06745
6.89994
6.71005
6.55148
6.44303
6.39357
6.41903
6.56407
6.942
7.80648
9.62115
12.7652
14.7686
16.0129
16.9673
17.8933
18.9159
20.095
21.4666
23.0658
24.9458
27.2051
30.0322
33.7472
38.6204
43.1887
47.6743
52.2402
56.6488
59.9754
60.1818
8.95438
8.27613
7.24492
6.27539
5.44004
4.72942
4.1199
3.58973
3.12175
2.70284
2.32293
1.97415
1.6502
1.34583
1.05659
0.778495
0.507875
0.24118
-0.0251784
-0.295012
-0.572561
-0.862772
-1.17166
-1.50682
-1.87813
-2.2986
-2.78507
-3.35708
-4.02775
-4.76318
-5.32512
-4.6823
1.18111
1.76026
1.06622
0.120223
-0.855918
-1.85192
-2.90944
-4.06515
-5.27006
-6.11166
-4.78024
5.77996
7.12517
6.31192
5.15151
4.05896
3.0863
2.19796
1.34132
0.464571
-0.467468
-1.41453
-2.02989
-0.792621
8.22552
9.53254
9.05834
8.3273
7.69175
7.20029
6.82937
6.5423
6.30222
6.07525
5.84065
5.63845
5.7571
7.43798
15.4993
17.3783
17.8962
18.3009
18.891
19.7207
20.7891
22.089
23.6203
25.4002
27.4944
30.1347
34.1497
42.5596
47.9086
53.2961
59.6758
67.2955
75.5027
80.4791
14.1876
10.4731
8.28866
6.83354
5.77056
4.94167
4.26476
3.69304
3.19768
2.75967
2.36576
2.00626
1.67371
1.36216
1.06664
0.782784
0.506603
0.234244
-0.0382195
-0.315019
-0.600985
-0.901954
-1.22539
-1.58138
-1.98439
-2.4564
-3.03322
-3.77756
-4.80907
-6.37831
-9.06429
-14.3419
10.7182
5.36596
2.5233
0.698154
-0.719933
-2.03783
-3.47905
-5.31001
-7.99958
-12.5787
-21.6428
22.6467
13.5988
9.05364
6.41966
4.67365
3.36186
2.24883
1.17854
0.00267057
-1.48647
-3.67572
-7.42765
-14.9203
22.4348
15.015
11.411
9.44951
8.27599
7.51691
6.98646
6.57388
6.19203
5.74247
5.07066
3.87298
1.45819
-3.93298
27.1358
21.9477
19.9423
19.3676
19.5432
20.1816
21.1497
22.378
23.8167
25.4016
26.9972
28.2573
28.2234
50.906
52.5727
57.4883
65.3253
77.0956
95.6814
128.29
847.196
801.108
752.415
701.267
647.838
592.318
534.912
475.828
415.278
353.471
290.612
226.902
162.537
97.7069
32.5997
4.06015
3.88573
3.66495
3.40702
3.12185
2.819
2.50685
2.19213
1.87976
1.57289
1.27313
0.980786
0.695171
0.414851
0.137899
6.82642
6.52764
6.14949
5.70862
5.22276
4.70872
4.181
3.651
3.12686
2.61362
2.11366
1.62718
1.15274
0.68768
0.228552
9.68532
9.2489
8.69673
8.05519
7.35182
6.61212
5.85742
5.10402
4.36306
3.64107
2.94069
2.26153
1.60091
0.954567
0.317173
12.6812
12.0858
11.3333
10.4635
9.51718
8.53047
7.53253
6.54458
5.58029
4.6469
3.7465
2.87732
2.0348
1.21249
0.402743
15.8671
15.0798
14.0868
12.9483
11.7228
10.4599
9.19758
7.96144
6.76661
5.61974
4.52109
3.46644
2.44845
1.45783
0.48405
19.3092
18.2791
16.9857
15.52
13.9655
12.3887
10.8362
9.33686
7.90492
6.54431
5.25168
4.01887
2.83474
1.68632
0.559673
23.0945
21.7413
20.0566
18.1801
16.2303
14.2929
12.4216
10.6446
8.97175
7.40085
5.92241
4.52263
3.18529
1.89305
0.627989
27.3422
25.5349
23.3191
20.9133
18.4825
16.1308
13.9126
11.8481
9.93643
8.1648
6.51445
4.96389
3.49074
2.07258
0.687223
32.2234
29.7371
26.7715
23.6714
20.6557
17.8353
15.2498
12.8987
10.7609
8.80736
7.00662
5.32771
3.74119
2.21928
0.73555
37.9934
34.4179
30.3581
26.3447
22.6331
19.3045
16.3527
13.7357
11.401
9.29703
7.37687
5.59908
3.927
2.32779
0.771244
45.0437
39.5824
33.8977
28.716
24.2272
20.3965
17.1206
14.2902
11.8102
9.60276
7.6047
5.76468
4.03992
2.3936
0.792881
53.9251
44.97
36.9343
30.3939
25.1631
20.9337
17.4426
14.494
11.9469
9.69897
7.67439
5.81498
4.07435
2.41381
0.799554
64.9353
49.4375
38.4753
30.7617
25.0974
20.7324
17.222
14.2963
11.7842
9.57171
7.57884
5.74647
4.02864
2.3877
0.791075
74.4855
49.3689
36.7672
29.08
23.7319
19.6764
16.4165
13.6847
11.3217
9.22474
7.32271
5.56336
3.90602
2.31727
0.768109
0.184347
0.552923
0.921089
1.28839
1.65409
2.01704
2.37555
2.72739
3.0701
3.40207
3.72571
4.05536
4.4367
4.99404
6.04579
0.19337
0.579937
0.965894
1.35053
1.73265
2.11018
2.47977
2.83605
3.17065
3.47074
3.71683
3.87803
3.89607
3.61317
2.42443
0.202511
0.607362
1.01159
1.4144
1.81434
2.20878
2.59316
2.95968
3.29507
3.57684
3.76682
3.80001
3.56428
2.86127
1.34472
0.211766
0.635205
1.05825
1.48024
1.89981
2.3143
2.71888
3.10483
3.45664
3.7466
3.9256
3.90861
3.55695
2.6742
1.07951
0.221082
0.663308
1.10562
1.54774
1.98875
2.42665
2.85745
3.27362
3.66107
3.9933
4.22035
4.2495
3.91836
2.98148
1.20616
0.230351
0.691336
1.15311
1.61596
2.07981
2.54386
3.0061
3.46227
3.90377
4.31295
4.65239
4.84053
4.70028
3.87092
1.77516
0.239419
0.718804
1.19981
1.68346
2.17067
2.66226
3.15888
3.66102
4.16882
4.68092
5.18932
5.65953
5.96061
5.63971
3.35423
0.248102
0.745131
1.24466
1.74844
2.25845
2.77709
3.30772
3.85573
4.4308
5.05137
5.75258
6.59587
7.6527
8.77263
8.00471
0.256207
0.769706
1.28652
1.80907
2.34019
2.88353
3.4444
4.03153
4.66107
5.3657
6.21699
7.38377
9.30076
13.2163
23.2393
0.263551
0.79196
1.32437
1.86371
2.41338
2.97772
3.56273
4.17777
4.83906
5.57806
6.46212
7.6505
9.56067
13.4184
23.3192
0.269979
0.811418
1.35737
1.91112
2.47635
3.05749
3.66013
4.29175
4.96296
5.68954
6.49574
7.41578
8.46788
9.42339
8.27031
0.275372
0.827719
1.38494
1.95051
2.5282
3.12225
3.7373
4.37814
5.04826
5.7456
6.45015
7.08913
7.44194
6.89247
3.90698
0.279643
0.840612
1.40668
1.98142
2.56864
3.17234
3.79648
4.44407
5.11451
5.79651
6.44991
6.96102
7.0424
6.05303
2.89667
0.282739
0.849941
1.42236
2.00363
2.59757
3.20815
3.83928
4.49402
5.17259
5.86713
6.54832
7.13115
7.38625
6.7183
3.71752
0.284631
0.855625
1.43187
2.017
2.61488
3.22961
3.86557
4.52731
5.21947
5.94685
6.71485
7.52869
8.3709
9.00341
7.61762
0.285312
0.857647
1.43516
2.02146
2.62041
3.23625
3.87386
4.53935
5.24176
5.99823
6.84934
7.90637
9.50096
12.6899
21.1352
0.284799
0.856052
1.43232
2.01709
2.61415
3.2277
3.86269
4.52561
5.22638
5.98373
6.84065
7.91054
9.5236
12.7257
21.1576
0.28313
0.850957
1.42353
2.00415
2.59638
3.20416
3.83202
4.48547
5.17156
5.89996
6.68388
7.5373
8.44247
9.12948
7.70672
0.280367
0.842549
1.40911
1.9831
2.56775
3.16659
3.78349
4.42252
5.08724
5.77747
6.47868
7.12791
7.51262
6.99811
3.9714
0.276592
0.831079
1.38951
1.9546
2.52921
3.11642
3.71948
4.34163
4.98505
5.64723
6.30942
6.90202
7.20705
6.61115
3.64991
0.271904
0.816853
1.36524
1.91943
2.48187
3.05516
3.64212
4.24586
4.8697
5.51682
6.1883
6.87567
7.52693
7.86663
6.34122
0.266417
0.800218
1.33692
1.87849
2.42693
2.98432
3.55302
4.13601
4.73808
5.36935
6.05599
6.87423
8.06298
10.4171
16.7803
0.260253
0.781546
1.30519
1.83274
2.3657
2.90557
3.45392
4.0128
4.58606
5.18331
5.83212
6.61534
7.78952
10.1833
16.678
0.253535
0.76122
1.27073
1.78319
2.29963
2.82085
3.34739
3.87951
4.41728
4.96136
5.51475
6.08478
6.66894
7.10127
5.98355
0.246385
0.739612
1.23418
1.73085
2.23018
2.73236
3.23692
3.74217
4.24401
4.73283
5.18567
5.54427
5.65362
5.09551
2.82325
0.238912
0.717059
1.19613
1.67661
2.1587
2.64215
3.12587
3.60712
4.07965
4.52917
4.92191
5.1767
5.1017
4.27999
2.00611
0.231208
0.693843
1.15709
1.62122
2.08623
2.55169
3.01646
3.47802
3.93118
4.36483
4.75383
5.03801
5.06819
4.47283
2.39608
0.223347
0.670185
1.11742
1.56517
2.01338
2.46166
2.90921
3.35467
3.79615
4.23138
4.6584
5.07561
5.46895
5.69431
4.67169
0.215381
0.646237
1.07735
1.50878
1.94045
2.37209
2.80333
3.23401
3.66538
4.10355
4.56965
5.12967
5.98622
7.78231
12.7255
0.207343
0.622099
1.03703
1.45218
1.86748
2.28273
2.69776
3.11279
3.52979
3.95623
4.41557
4.97768
5.8509
7.68463
12.6887
0.199254
0.597821
0.996544
1.39546
1.7945
2.19348
2.59211
2.9901
3.38758
3.78597
4.18999
4.60952
5.04841
5.38511
4.55268
0.191118
0.57342
0.955898
1.33861
1.72152
2.10443
2.48684
2.86771
3.24463
3.61172
3.95354
4.22781
4.31677
3.89737
2.16158
0.182933
0.548883
0.915068
1.2816
1.64851
2.01566
2.38259
2.74798
3.10842
3.45493
3.76392
3.97467
3.93806
3.32369
1.56722
0.174686
0.524169
0.873974
1.2243
1.57529
1.92701
2.27934
2.63162
2.98182
3.32411
3.64241
3.89322
3.96047
3.54304
1.92975
0.166359
0.499218
0.832502
1.1665
1.50152
1.8379
2.17607
2.51665
2.86063
3.20986
3.56769
3.93915
4.31935
4.59278
3.8521
0.157929
0.47396
0.790514
1.10797
1.42677
1.74749
2.07107
2.39924
2.73575
3.08955
3.48342
3.97891
4.75228
6.34664
10.6101
0.149377
0.448328
0.747883
1.04848
1.35064
1.65506
1.96283
2.27597
2.59881
2.94135
3.3285
3.82561
4.61496
6.2468
10.5723
0.140683
0.422266
0.70451
0.987885
1.27292
1.56026
1.8508
2.14592
2.44811
2.76209
3.09712
3.46928
3.89246
4.27618
3.72928
0.131834
0.395735
0.660334
0.926113
1.19357
1.46321
1.73554
2.01092
2.28915
2.56817
2.83988
3.07744
3.19726
2.95173
1.68592
0.122822
0.368709
0.615326
0.863156
1.11267
1.36426
1.61812
1.87387
2.12958
2.37925
2.60627
2.76729
2.75571
2.33572
1.10502
0.113638
0.341167
0.569459
0.799012
1.0303
1.26369
1.49935
1.7368
1.97416
2.20601
2.41844
2.57693
2.59771
2.28264
1.20421
0.104274
0.313089
0.522703
0.733647
0.946437
1.16154
1.37928
1.59976
1.82251
2.04621
2.26798
2.48216
2.67287
2.75961
2.22698
0.0947229
0.284447
0.475011
0.666984
0.860949
1.05751
1.25729
1.46108
1.67017
1.88768
2.12274
2.40362
2.82016
3.66664
5.97282
0.0849759
0.255216
0.426329
0.598921
0.77364
0.951207
1.13249
1.31869
1.51195
1.71694
1.9456
2.23083
2.66881
3.5599
5.93383
0.0750266
0.225373
0.376609
0.529366
0.684335
0.842306
1.00423
1.17136
1.34553
1.52972
1.72913
1.95191
2.20271
2.42331
2.10291
0.0648719
0.194906
0.325824
0.458263
0.592929
0.730636
0.872333
1.01911
1.1721
1.33189
1.49639
1.65346
1.75754
1.66236
0.970129
0.0545138
0.16382
0.273975
0.385601
0.499397
0.616177
0.73688
0.862521
0.993919
1.13076
1.26878
1.39175
1.45071
1.31599
0.704007
0.0439612
0.132139
0.221099
0.311422
0.40378
0.498977
0.597978
0.701908
0.811926
0.928783
1.05156
1.17447
1.27834
1.30101
0.990665
0.0332302
0.0999104
0.167269
0.23582
0.306181
0.379121
0.455636
0.537045
0.625161
0.722666
0.83422
0.970389
1.1623
1.51724
2.4377
0.0223454
0.0672083
0.112605
0.158955
0.206781
0.256771
0.30988
0.367507
0.431859
0.506771
0.599754
0.72757
0.933015
1.34072
2.36702
0.0113405
0.0341329
0.057276
0.0810605
0.105871
0.132244
0.160973
0.193284
0.231208
0.278314
0.341076
0.430818
0.563241
0.734555
0.753969
0.000257532
0.000812216
0.00149879
0.00244968
0.00386912
0.00607551
0.00956825
0.0151502
0.0241687
0.0389745
0.0636435
0.104409
0.166437
0.233855
0.201552
-0.0108533
-0.0326011
-0.0544636
-0.0764885
-0.0986814
-0.120991
-0.143293
-0.165378
-0.186898
-0.207221
-0.224976
-0.236778
-0.23412
-0.197608
-0.0933733
-0.0219357
-0.065935
-0.110314
-0.155311
-0.201152
-0.248062
-0.296308
-0.346302
-0.398798
-0.455202
-0.517735
-0.588009
-0.658193
-0.676101
-0.4456
-0.0329292
-0.0990054
-0.165734
-0.233545
-0.302878
-0.374204
-0.448109
-0.525486
-0.607981
-0.698924
-0.805118
-0.939296
-1.11856
-1.32709
-1.25664
-0.0437711
-0.131622
-0.220399
-0.310722
-0.403218
-0.498551
-0.597492
-0.701111
-0.811289
-0.932045
-1.07306
-1.25926
-1.5586
-2.17181
-3.76406
-0.054398
-0.163594
-0.273989
-0.386384
-0.501582
-0.620387
-0.743619
-0.872172
-1.00724
-1.15108
-1.30961
-1.50063
-1.78064
-2.3366
-3.82724
-0.0647467
-0.19473
-0.326186
-0.460095
-0.597433
-0.739139
-0.886041
-1.0387
-1.19707
-1.3599
-1.52359
-1.68016
-1.81103
-1.85226
-1.46335
-0.074754
-0.224842
-0.376673
-0.531417
-0.690243
-0.85427
-1.02445
-1.20124
-1.3838
-1.56811
-1.74249
-1.87751
-1.90365
-1.66661
-0.861798
-0.0843575
-0.25374
-0.425132
-0.599898
-0.779428
-0.965115
-1.15825
-1.35975
-1.56929
-1.78317
-1.9887
-2.15043
-2.17899
-1.87521
-0.898276
-0.0934964
-0.281238
-0.471241
-0.665059
-0.864324
-1.07077
-1.28624
-1.51265
-1.75173
-2.00399
-2.2653
-2.51578
-2.68508
-2.55125
-1.50391
-0.102114
-0.307162
-0.514691
-0.726429
-0.944222
-1.17013
-1.40659
-1.65672
-1.92499
-2.2185
-2.54939
-2.93746
-3.40163
-3.86163
-3.47097
-0.11016
-0.331357
-0.555212
-0.78358
-1.01847
-1.26215
-1.51743
-1.78818
-2.08069
-2.407
-2.79371
-3.30624
-4.12102
-5.76267
-9.98744
-0.117594
-0.353701
-0.592589
-0.836192
-1.08659
-1.34609
-1.61749
-1.90448
-2.21287
-2.55352
-2.95061
-3.46505
-4.2661
-5.86976
-10.0284
-0.124388
-0.374109
-0.626681
-0.884074
-1.14836
-1.42175
-1.70669
-2.0059
-2.3226
-2.6608
-3.02596
-3.42476
-3.85372
-4.20248
-3.60461
-0.130524
-0.392529
-0.657415
-0.927156
-1.20378
-1.48937
-1.78594
-2.09514
-2.41734
-2.74931
-3.07788
-3.36347
-3.49697
-3.1925
-1.77201
-0.135995
-0.408941
-0.684768
-0.96544
-1.25296
-1.54933
-1.85639
-2.17529
-2.50527
-2.84014
-3.1596
-3.40771
-3.44429
-2.95747
-1.41406
-0.140799
-0.423345
-0.708744
-0.99895
-1.29597
-1.60185
-1.91857
-2.24773
-2.58974
-2.9416
-3.29081
-3.5988
-3.75501
-3.45611
-1.94825
-0.144944
-0.435758
-0.72937
-1.02771
-1.33281
-1.64681
-1.97207
-2.31119
-2.66733
-3.04483
-3.45059
-3.89522
-4.38172
-4.79424
-4.14117
-0.148444
-0.446222
-0.7467
-1.05176
-1.36343
-1.68393
-2.01591
-2.3628
-2.73004
-3.12838
-3.58331
-4.1625
-5.0597
-6.87228
-11.6321
-0.151321
-0.454803
-0.760833
-1.07121
-1.38788
-1.71305
-2.04935
-2.40022
-2.7711
-3.17258
-3.62965
-4.20887
-5.1019
-6.90348
-11.6441
-0.153613
-0.461607
-0.771935
-1.08626
-1.40641
-1.73442
-2.07262
-2.42371
-2.79085
-3.17811
-3.59111
-4.03723
-4.51307
-4.89356
-4.18031
-0.15537
-0.466782
-0.780247
-1.09725
-1.41944
-1.74867
-2.08691
-2.43598
-2.79659
-3.16569
-3.5295
-3.84486
-3.99037
-3.6431
-2.02711
-0.156656
-0.470521
-0.786088
-1.10462
-1.42757
-1.75663
-2.09364
-2.4402
-2.79637
-3.1569
-3.50147
-3.77037
-3.80981
-3.27361
-1.5671
-0.157554
-0.47307
-0.789854
-1.1089
-1.43143
-1.75903
-2.09369
-2.4377
-2.79306
-3.15912
-3.52591
-3.85515
-4.02892
-3.71678
-2.09853
-0.158166
-0.47473
-0.792034
-1.11073
-1.43175
-1.7565
-2.08719
-2.42728
-2.78226
-3.16078
-3.57634
-4.04785
-4.58539
-5.06689
-4.42074
-0.158613
-0.475865
-0.793231
-1.11093
-1.42944
-1.74982
-2.07413
-2.40648
-2.75505
-3.13666
-3.58784
-4.19461
-5.1807
-7.19999
-12.4341
-0.15904
-0.476912
-0.794183
-1.11053
-1.42582
-1.74036
-2.05543
-2.37435
-2.70485
-3.06416
-3.49122
-4.07787
-5.05839
-7.10046
-12.3938
-0.159606
-0.478367
-0.795761
-1.11085
-1.42269
-1.7305
-2.034
-2.33413
-2.63457
-2.94457
-3.2837
-3.68754
-4.19881
-4.74297
-4.28508
-0.160483
-0.480761
-0.798925
-1.11339
-1.42232
-1.7236
-2.01487
-2.29364
-2.55761
-2.80468
-3.03118
-3.22251
-3.3163
-3.08127
-1.80981
-0.161832
-0.484612
-0.804642
-1.11975
-1.42724
-1.72363
-2.00437
-2.26338
-2.49234
-2.67901
-2.80302
-2.82516
-2.66207
-2.13923
-0.96519
-0.163791
-0.490362
-0.813759
-1.13138
-1.43983
-1.73449
-2.0089
-2.25393
-2.45638
-2.59679
-2.64553
-2.55638
-2.25762
-1.64938
-0.645779
-0.166449
-0.498306
-0.82687
-1.14935
-1.46196
-1.75936
-2.03381
-2.27401
-2.46346
-2.57816
-2.58375
-2.43311
-2.06802
-1.43405
-0.526327
-0.169825
-0.508524
-0.844188
-1.17414
-1.49463
-1.80013
-2.08244
-2.32927
-2.52241
-2.63526
-2.63038
-2.45871
-2.06511
-1.40878
-0.507514
-0.173856
-0.520838
-0.865452
-1.20549
-1.53767
-1.85698
-2.15566
-2.42177
-2.63705
-2.77404
-2.79277
-2.63836
-2.24459
-1.55357
-0.567692
-0.17839
-0.534785
-0.889875
-1.24226
-1.58961
-1.9281
-2.25145
-2.54951
-2.80598
-2.99489
-3.0753
-2.98417
-2.63045
-1.90307
-0.73168
-0.183186
-0.549624
-0.91616
-1.28249
-1.64767
-2.0097
-2.36476
-2.70606
-3.02174
-3.29102
-3.47688
-3.51225
-3.27573
-2.56087
-1.0984
-0.187931
-0.564384
-0.942566
-1.32349
-1.7079
-2.09609
-2.48755
-2.88033
-3.26965
-3.64498
-3.98286
-4.22906
-4.2531
-3.73778
-1.97501
-0.192262
-0.577928
-0.967049
-1.36203
-1.76545
-2.18016
-2.60939
-3.05692
-3.52719
-4.02484
-4.55238
-5.10003
-5.60489
-5.78093
-4.37041
-0.195795
-0.589059
-0.98744
-1.39469
-1.81515
-2.2541
-2.71844
-3.21764
-3.76559
-4.38381
-5.10784
-6.00062
-7.1848
-8.92573
-11.8562
52.5597
39.1923
31.1159
25.5663
21.3846
18.0329
15.2298
12.811
10.6721
8.74147
6.96708
5.30913
3.73554
2.21921
0.736103
19.2057
25.0312
23.8416
21.2653
18.5927
16.1085
13.8512
11.7995
9.92024
8.18125
6.55382
5.0129
3.5364
2.10443
0.698604
8.48047
15.7417
17.5301
17.0309
15.67
14.0264
12.3297
10.668
9.07088
7.54349
6.08044
4.6719
3.30631
1.97149
0.655113
4.49115
10.2525
12.8072
13.3948
12.9433
11.9811
10.7839
9.49156
8.17303
6.86101
5.56916
4.30105
3.05483
1.82571
0.60735
2.7386
6.98999
9.45014
10.4802
10.5714
10.0987
9.30418
8.33322
7.2706
6.16446
5.04135
3.91497
2.79146
1.67246
0.557041
1.83726
4.97139
7.08617
8.2174
8.59083
8.43992
7.94684
7.23847
6.39832
5.47967
4.51577
3.52687
2.52493
1.5167
0.505804
1.31118
3.66062
5.40518
6.48084
6.97436
7.01862
6.73896
6.23518
5.5805
4.82627
4.00752
3.1478
2.26274
1.36278
0.455058
0.974633
2.76988
4.18866
5.14849
5.66982
5.82222
5.68666
5.33663
4.83178
4.21762
3.5277
2.7863
2.0109
1.21424
0.405973
0.745036
2.14054
3.29084
4.1206
4.62142
4.82575
4.78324
4.54556
4.15894
3.66156
3.08361
2.44839
1.7738
1.07374
0.359442
0.581101
1.68149
2.61557
3.32112
3.77888
4.00066
4.01532
3.8579
3.56298
3.16142
2.67926
2.1378
1.55437
0.943137
0.316089
0.46009
1.3379
2.09897
2.69368
3.10019
3.31938
3.36686
3.26568
3.04105
2.71725
2.31605
1.85635
1.35423
0.823506
0.276296
0.368498
1.07537
1.69789
2.19692
2.55156
2.75731
2.82162
2.75916
2.58797
2.32679
1.99347
1.60434
1.17395
0.715317
0.240238
0.297819
0.871416
1.38256
1.8004
2.10631
2.29344
2.36438
2.32813
2.19738
1.98639
1.70964
1.38096
1.01327
0.618542
0.207926
0.242444
0.710821
1.13201
1.4816
1.74352
1.91025
1.98156
1.9627
1.86248
1.69166
1.46184
1.18465
0.871372
0.532793
0.179248
0.198532
0.582989
0.931178
1.22366
1.44683
1.59331
1.66135
1.65377
1.57658
1.4379
1.24694
1.0134
0.747031
0.457434
0.154008
0.163374
0.48034
0.769023
1.01385
1.20339
1.33081
1.39365
1.39315
1.33338
1.22042
1.06159
0.864937
0.638814
0.391674
0.131954
0.135006
0.397328
0.637319
0.842418
1.00307
1.11315
1.16993
1.17368
1.12712
1.03478
0.902506
0.736932
0.545186
0.334647
0.112806
0.111979
0.329821
0.529842
0.701849
0.837862
0.932501
0.983029
0.989147
0.952624
0.876876
0.766535
0.627094
0.464605
0.285467
0.0962759
0.0932
0.274685
0.441817
0.586269
0.70138
0.782475
0.826958
0.834213
0.805364
0.742983
0.650767
0.533257
0.395582
0.243266