/*--------------------------------*- C++ -*----------------------------------*\
| =========                 |                                                 |
| \\      /  F ield         | OpenFOAM: The Open Source CFD Toolbox           |
|  \\    /   O peration     | Version:  5.x                                   |
|   \\  /    A nd           | Web:      www.OpenFOAM.org                      |
|    \\/     M anipulation  |                                                 |
\*---------------------------------------------------------------------------*/
FoamFile
{
    version     2.0;
    format      ascii;
    class       volScalarField;
    location    "17";
    object      gradTx;
}
// * * * * * * * * * * * * * * * * * * * * * * * * * * * * * * * * * * * * * //

dimensions      [0 -1 0 1 0 0 0];

internalField   nonuniform List<scalar> 
6300
(
8.47033
8.44466
8.39336
8.31645
8.21403
8.08626
7.93343
7.75601
7.55472
7.33064
7.08527
6.82063
6.53931
6.24452
5.94005
8.49565
8.46998
8.41863
8.34164
8.23905
8.111
7.9577
7.77956
7.57722
7.35165
7.10427
6.83703
6.55251
6.25396
5.94525
8.54632
8.52062
8.46922
8.39208
8.28922
8.16066
8.00651
7.82701
7.62264
7.39417
7.14284
6.87044
6.5795
6.27332
5.95598
8.62235
8.59664
8.54519
8.46793
8.36476
8.23558
8.08034
7.89904
7.69186
7.45928
7.20218
6.92212
6.62146
6.30356
5.97285
8.72375
8.69807
8.64665
8.56935
8.46597
8.33625
8.17991
7.99663
7.78619
7.5486
7.28422
6.99414
6.6804
6.34639
5.99695
8.85048
8.8249
8.77364
8.6965
8.59318
8.46323
8.30608
8.12105
7.90739
7.66439
7.39168
7.08952
6.75937
6.40441
6.03001
9.00244
8.97705
8.92616
8.84951
8.74668
8.61707
8.45982
8.2738
8.0576
7.80962
7.5283
7.21262
6.86287
6.48161
6.07472
9.17944
9.15437
9.10409
9.02834
8.92663
8.79822
8.642
8.45641
8.23928
7.98787
7.69898
7.36952
6.99759
6.58421
6.13537
9.38115
9.35652
9.30715
9.23277
9.13292
9.00682
8.85323
8.67023
8.45493
8.20328
7.90992
7.56859
7.17348
6.722
6.21902
9.60711
9.58305
9.53484
9.46231
9.36511
9.24257
9.09354
8.91599
8.7066
8.46008
8.16851
7.82115
7.40543
6.91101
6.33788
9.85677
9.83335
9.78649
9.71617
9.62227
9.50446
9.36199
9.19325
8.99506
8.76157
8.48257
8.14172
7.71579
7.17845
6.51448
10.1295
10.1067
10.0612
9.99323
9.90296
9.79065
9.65636
9.49958
9.31847
9.10821
8.85814
8.54705
8.13726
7.57226
6.79411
10.4246
10.4023
10.3581
10.2922
10.2053
10.0984
9.97282
9.82987
9.67064
9.49428
9.29435
9.05075
8.71365
8.17892
7.27886
10.7415
10.7196
10.6762
10.6117
10.5273
10.4246
10.3062
10.176
10.0395
9.90352
9.77389
9.64761
9.48733
9.15063
8.23362
11.0798
11.0581
11.0149
10.9508
10.8672
10.766
10.6509
10.5281
10.4076
10.306
10.2497
10.2781
10.4371
10.7022
10.4701
5.65621
5.39703
5.13962
4.88661
4.64051
4.40361
4.17795
3.96524
3.76693
3.58413
3.41765
3.26809
3.13576
3.02083
2.92328
2.84293
2.77951
2.73261
2.70173
2.68624
2.68542
2.69839
2.72415
2.76153
2.80922
2.86575
2.92949
2.99873
3.07168
3.14651
3.22145
3.29481
3.36501
3.43059
3.49018
3.54249
3.58624
3.6201
3.64272
3.65272
3.64874
3.62954
3.59405
3.54147
3.47131
3.3833
3.27738
3.15356
3.01177
2.85177
2.67301
2.47462
2.25541
2.01391
1.74844
1.45727
1.13863
0.790804
0.412097
0.00081007
-0.444864
-0.926958
-1.44784
-2.01031
-2.61764
-3.27362
-3.98248
-4.74881
-5.57748
-6.4735
-7.44185
-8.48745
-9.61499
-10.8289
-12.1333
-13.5319
-15.0277
-16.6232
-18.3199
-20.1179
-22.0158
-24.0101
-26.0952
-28.2624
-30.5005
-32.7953
-35.1297
-37.4844
-39.8385
-42.1699
5.65727
5.39425
5.13307
4.87647
4.62708
4.38726
4.1591
3.94436
3.74445
3.56045
3.39317
3.24312
3.11059
2.99569
2.89837
2.81844
2.7556
2.70943
2.67944
2.66502
2.66544
2.67987
2.7073
2.74657
2.79638
2.85523
2.92145
2.99328
3.06883
3.14622
3.2236
3.29923
3.37152
3.43905
3.50051
3.55468
3.60031
3.63613
3.66074
3.67269
3.67051
3.65282
3.61848
3.56664
3.49684
3.40892
3.303
3.17927
3.03785
2.87862
2.70111
2.50446
2.28737
2.04826
1.78532
1.49669
1.18054
0.835143
0.458891
0.0502168
-0.392525
-0.871201
-1.38805
-1.94578
-2.54767
-3.19755
-3.89976
-4.65908
-5.48055
-6.36934
-7.33063
-8.36944
-9.49058
-10.6986
-11.9977
-13.3917
-14.884
-16.4775
-18.1738
-19.9739
-21.8767
-23.8793
-25.9765
-28.1601
-30.4187
-32.7378
-35.1
-37.4851
-39.8707
-42.2338
5.65953
5.38864
5.1197
4.85577
4.59966
4.35394
4.12078
3.90196
3.69889
3.51258
3.34373
3.19277
3.0599
2.94512
2.84831
2.76924
2.70755
2.66285
2.63463
2.62231
2.62521
2.64251
2.67326
2.71634
2.77042
2.83397
2.90524
2.98233
3.06321
3.14581
3.22812
3.30831
3.38476
3.45612
3.52121
3.57899
3.62838
3.66814
3.69684
3.71285
3.71443
3.69992
3.66794
3.61753
3.54828
3.46031
3.3541
3.23029
3.0894
2.93163
2.75665
2.56356
2.35089
2.11677
1.85906
1.57561
1.26443
0.92379
0.552259
0.148571
-0.288543
-0.760576
-1.26947
-1.81775
-2.40866
-3.04617
-3.73487
-4.4799
-5.28669
-6.16082
-7.10778
-8.13286
-9.24105
-10.4371
-11.7253
-13.1099
-14.5948
-16.1833
-17.8784
-19.6817
-21.5936
-23.6122
-25.7334
-27.9494
-30.2493
-32.6181
-35.0372
-37.4844
-39.9352
-42.3635
5.66319
5.37997
5.09894
4.82359
4.55712
4.30236
4.06163
3.83674
3.62903
3.4394
3.26839
3.11625
2.98301
2.86855
2.77261
2.69487
2.63495
2.59243
2.56682
2.55758
2.56411
2.58567
2.62138
2.67016
2.73071
2.80145
2.88052
2.9658
3.05498
3.14567
3.23557
3.32264
3.4052
3.48204
3.55229
3.61524
3.67014
3.71591
3.75106
3.77362
3.78135
3.77203
3.74376
3.69537
3.62653
3.5378
3.43039
3.30574
3.16512
3.00927
2.83812
2.65069
2.44517
2.2191
1.96973
1.69433
1.3906
1.0568
0.691812
0.294944
-0.13438
-0.596978
-1.09425
-1.6284
-2.20264
-2.82113
-3.48894
-4.21181
-4.9959
-5.84744
-6.77246
-7.77661
-8.86507
-10.0427
-11.314
-12.6836
-14.156
-15.7357
-17.4269
-19.2331
-21.1565
-23.1974
-25.3532
-27.6178
-29.9805
-32.4258
-34.9334
-37.4782
-40.0315
-42.5628
5.66864
5.36796
5.06981
4.77841
4.49755
4.23042
3.97951
3.74664
3.53301
3.33929
3.16575
3.01239
2.87898
2.76517
2.67057
2.59473
2.5372
2.49754
2.47531
2.47006
2.48127
2.50834
2.55055
2.60692
2.67622
2.75683
2.84675
2.94354
3.04445
3.14654
3.24698
3.3433
3.43375
3.51732
3.59371
3.66294
3.72489
3.77884
3.82323
3.85557
3.87269
3.87125
3.84842
3.80247
3.73323
3.64204
3.53134
3.40401
3.26261
3.10879
2.94287
2.76373
2.56889
2.35486
2.11772
1.85372
1.55993
1.23459
0.877153
0.48794
0.0675923
-0.383553
-0.865992
-1.38143
-1.93297
-2.52515
-3.16378
-3.85563
-4.60802
-5.42826
-6.32321
-7.29893
-8.36071
-9.51328
-10.7612
-12.1093
-13.5628
-15.1275
-16.8097
-18.6155
-20.55
-22.6168
-24.8163
-27.1446
-29.5923
-32.1436
-34.7756
-37.4592
-40.1594
-42.8382
5.67649
5.35209
5.03077
4.71787
4.41803
4.13494
3.87126
3.6287
3.40818
3.20997
3.03394
2.87967
2.74659
2.63404
2.54141
2.46811
2.4136
2.37745
2.35927
2.35872
2.37547
2.40914
2.45922
2.52497
2.60532
2.6987
2.80295
2.91522
3.03209
3.14968
3.26416
3.3723
3.47204
3.56279
3.6453
3.72098
3.79098
3.85539
3.91261
3.95927
3.99057
4.00112
3.98618
3.94296
3.87138
3.7742
3.65608
3.52238
3.37783
3.22556
3.06651
2.89923
2.72008
2.52376
2.30424
2.05588
1.77456
1.45848
1.10813
0.725654
0.313804
-0.125166
-0.590314
-1.08254
-1.60485
-2.16234
-2.76202
-3.41232
-4.12247
-4.90155
-5.75765
-6.69733
-7.72561
-8.84656
-10.0641
-11.383
-12.8092
-14.35
-16.0145
-17.8122
-19.7529
-21.845
-24.0937
-26.4992
-29.0547
-31.7446
-34.5434
-37.4158
-40.3177
-43.1998
5.68769
5.33156
4.97941
4.63834
4.31421
4.01133
3.73243
3.47889
3.25107
3.0486
2.87069
2.71634
2.5845
2.47413
2.38433
2.31431
2.26348
2.23139
2.21774
2.22237
2.24521
2.2862
2.34521
2.42191
2.51556
2.62482
2.74746
2.88019
3.01855
3.15716
3.29035
3.41327
3.52312
3.61998
3.70659
3.78704
3.86499
3.94211
4.01701
4.08493
4.13816
4.16751
4.16452
4.12408
4.04625
3.93633
3.80309
3.6562
3.504
3.35194
3.20185
3.05168
2.89584
2.72593
2.53216
2.30534
2.03913
1.73158
1.38522
1.00555
0.598954
0.170809
-0.275738
-0.740433
-1.22615
-1.73886
-2.2874
-2.8829
-3.53772
-4.26396
-5.07176
-5.96815
-6.95707
-8.04068
-9.22117
-10.5023
-11.8903
-13.3945
-15.0272
-16.8029
-18.7378
-20.8474
-23.145
-25.6376
-28.3234
-31.1886
-34.205
-37.3293
-40.5044
-43.6627
5.70379
5.30506
4.9119
4.53421
4.17959
3.853
3.55691
3.29191
3.05731
2.85172
2.67339
2.52051
2.39139
2.28452
2.19865
2.1328
2.08629
2.05867
2.04979
2.05972
2.08872
2.13721
2.20563
2.29432
2.40322
2.53155
2.67735
2.83693
3.00453
3.17231
3.3312
3.47292
3.59275
3.69177
3.7766
3.85653
3.94002
4.03185
4.13132
4.23156
4.31997
4.3803
4.39662
4.35886
4.26713
4.13187
3.96957
3.7975
3.62978
3.47532
3.33711
3.21214
3.09171
2.96232
2.80752
2.61138
2.36306
2.06043
1.71015
1.32411
0.915013
0.49317
0.0648623
-0.368154
-0.808655
-1.26386
-1.74525
-2.26812
-2.85017
-3.50895
-4.25835
-5.10575
-6.05217
-7.09531
-8.2333
-9.46752
-10.804
-12.254
-13.8338
-15.5644
-17.4707
-19.5792
-21.9151
-24.4975
-27.3336
-30.4145
-33.7108
-37.1696
-40.7145
-44.2501
5.7273
5.27032
4.82192
4.39665
4.00447
3.6506
3.33646
3.06097
2.82165
2.61546
2.43932
2.29037
2.16614
2.06456
1.98404
1.92337
1.88179
1.8589
1.85469
1.86951
1.90408
1.95942
2.03679
2.13754
2.26281
2.41305
2.58727
2.782
2.99012
3.20011
3.39665
3.56395
3.69218
3.78385
3.8535
3.92073
4.0029
4.11042
4.24433
4.39502
4.54205
4.65625
4.70642
4.67115
4.5505
4.36616
4.14995
3.93238
3.7363
3.57514
3.45314
3.36587
3.30033
3.23513
3.14224
2.99243
2.76505
2.45774
2.08643
1.67573
1.24931
0.824729
0.412132
0.0147988
-0.370092
-0.751219
-1.14346
-1.56818
-2.05217
-2.62352
-3.30387
-4.10081
-5.00801
-6.01333
-7.10687
-8.28548
-9.55425
-10.9264
-12.423
-14.0729
-15.9123
-17.9834
-20.3303
-22.9916
-25.9911
-29.3302
-32.9821
-36.8855
-40.9378
-44.9978
5.76251
5.22298
4.69845
4.21126
3.77404
3.39087
3.06026
2.77783
2.53815
2.33583
2.166
2.02455
1.90817
1.81422
1.74075
1.68639
1.6503
1.63215
1.63209
1.6508
1.68947
1.74984
1.83421
1.94536
2.08634
2.2599
2.46755
2.70766
2.97291
3.24717
3.50405
3.71108
3.84413
3.90749
3.93373
3.96327
4.02911
4.15082
4.333
4.56359
4.8112
5.02419
5.13906
5.10619
4.92541
4.64614
4.33212
4.03613
3.79238
3.61841
3.519
3.48813
3.50829
3.54764
3.55875
3.48501
3.282
2.94706
2.51928
2.04987
1.58086
1.13893
0.737326
0.379734
0.0629503
-0.222674
-0.494975
-0.782969
-1.12848
-1.58118
-2.18157
-2.93713
-3.8226
-4.80434
-5.8579
-6.9736
-8.15558
-9.41952
-10.7915
-12.3084
-14.0202
-15.9902
-18.2924
-20.9986
-24.1595
-27.7949
-31.891
-36.3866
-41.1493
-45.9629
5.81709
5.15389
4.521
3.95377
3.46563
3.05534
2.71459
2.43305
2.2008
2.00931
1.8517
1.72258
1.6178
1.53431
1.46988
1.42304
1.39292
1.37927
1.38241
1.40327
1.44352
1.50562
1.59299
1.71017
1.86285
2.0576
2.30096
2.59702
2.9426
3.31913
3.6831
3.96459
4.09628
4.08441
4.00904
3.95339
3.97468
4.10399
4.35178
4.70747
5.13
5.53324
5.78422
5.754
5.44198
4.97597
4.48813
4.06449
3.74781
3.55419
3.48598
3.53678
3.68843
3.90067
4.09728
4.16358
3.98876
3.56991
3.01195
2.42327
1.87329
1.39496
0.999053
0.685819
0.451033
0.286593
0.176017
0.0849706
-0.0505083
-0.326263
-0.835887
-1.58641
-2.49862
-3.49197
-4.51947
-5.56625
-6.63885
-7.75707
-8.95105
-10.2634
-11.756
-13.5187
-15.6726
-18.3506
-21.6445
-25.5959
-30.2243
-35.5029
-41.287
-47.2405
5.90573
5.04101
4.24881
3.58221
3.04495
2.61944
2.2835
2.01717
1.80462
1.63392
1.49632
1.38546
1.29673
1.22688
1.17364
1.13553
1.11177
1.10216
1.10713
1.12779
1.16607
1.22494
1.30877
1.42379
1.57869
1.78522
2.0584
2.41498
2.86759
3.40904
3.98078
4.43366
4.555
4.35264
4.05577
3.83256
3.76453
3.88637
4.21501
4.7549
5.47634
6.26134
6.83408
6.80737
6.18007
5.33704
4.5515
3.93862
3.52584
3.30922
3.28144
3.44002
3.78114
4.27604
4.82325
5.18919
5.04673
4.39293
3.54872
2.74079
2.06239
1.53219
1.14161
0.87883
0.73772
0.718196
0.818789
1.01679
1.22936
1.26532
0.8566
-0.00295712
-1.05784
-2.13048
-3.15333
-4.12175
-5.05643
-5.98552
-6.94009
-7.95887
-9.10295
-10.4837
-12.2978
-14.8156
-18.1825
-22.4216
-27.6211
-33.891
-41.1803
-48.9977
6.0591
4.82347
3.79557
3.02425
2.46326
2.05456
1.7521
1.52377
1.34809
1.21081
1.10239
1.0164
0.948432
0.895486
0.855544
0.827338
0.810201
0.804015
0.809219
0.826887
0.858904
0.908266
0.979587
1.07992
1.2201
1.41682
1.69565
2.09456
2.66455
3.45518
4.44946
5.37997
5.47967
4.75678
3.99626
3.48812
3.28083
3.37082
3.77385
4.54071
5.73096
7.29486
8.74689
8.72529
7.22855
5.61511
4.36603
3.52451
3.02125
2.79217
2.80839
3.08027
3.65224
4.5759
5.81007
6.94666
6.84083
5.48991
4.03307
2.87164
2.03801
1.46826
1.10004
0.896556
0.849233
0.976738
1.32119
1.92754
2.76339
3.49713
3.19815
1.86166
0.408398
-0.840727
-1.86558
-2.72583
-3.48207
-4.17726
-4.83662
-5.47383
-6.10902
-6.82463
-7.90987
-10.0575
-13.4647
-17.8641
-23.4764
-30.8107
-40.3128
-51.5536
6.34697
4.30659
2.97277
2.16332
1.66214
1.33658
1.11389
0.954503
0.836225
0.746073
0.67612
0.621341
0.578464
0.545328
0.520519
0.503167
0.492826
0.489436
0.493327
0.50529
0.52673
0.559936
0.608583
0.678639
0.78006
0.930106
1.15992
1.52769
2.14368
3.20792
5.00981
7.52243
7.58863
5.21493
3.57315
2.71032
2.36892
2.40435
2.80865
3.71667
5.44728
8.48916
12.7814
12.7671
8.44481
5.36828
3.5935
2.62311
2.12173
1.92179
1.96707
2.28828
3.01675
4.42843
6.93718
10.4929
10.4276
6.73923
4.09184
2.53033
1.63352
1.11404
0.821187
0.689333
0.708919
0.922797
1.44635
2.50769
4.44433
7.21584
7.03351
3.89428
1.58059
0.125995
-0.814916
-1.47972
-1.99561
-2.42059
-2.76507
-2.99168
-2.99928
-2.63326
-1.99203
-3.48576
-7.31785
-11.5598
-16.8517
-24.6087
-36.9408
-55.5756
6.934
2.77212
1.39468
0.858395
0.608098
0.47039
0.384473
0.325997
0.283822
0.252222
0.22797
0.209121
0.194448
0.183157
0.174738
0.168878
0.165422
0.164351
0.165789
0.170028
0.177592
0.189348
0.206728
0.232158
0.269968
0.328495
0.42547
0.603334
0.977231
1.89833
4.54652
13.1875
13.2107
4.61891
2.02822
1.18155
0.914267
0.906599
1.11797
1.70796
3.27515
7.88264
23.0168
23.0118
7.8669
3.24672
1.66249
1.04625
0.788055
0.698196
0.728319
0.909734
1.39732
2.70099
6.55636
19.2531
19.231
6.4893
2.58678
1.23174
0.685602
0.433396
0.310448
0.263985
0.288773
0.422855
0.797037
1.82727
4.92283
15.1878
15.1265
4.73794
1.51557
0.352949
-0.16188
-0.448054
-0.640096
-0.77983
-0.863247
-0.824909
-0.427582
1.16176
7.00004
6.45316
-0.58091
-3.74341
-6.67704
-11.8185
-24.4924
-62.5388
-44.6791
-47.3255
-49.8414
-52.1993
-54.3777
-56.3614
-58.1412
-59.7128
-61.0756
-62.2319
-63.1856
-63.9412
-64.5032
-64.8755
-65.061
-44.7763
-47.4555
-49.9989
-52.3782
-54.5717
-56.5648
-58.3489
-59.9209
-61.2815
-62.4339
-63.383
-64.134
-64.6922
-65.0617
-65.2457
-44.9743
-47.7207
-50.3201
-52.7424
-54.9657
-56.9764
-58.7681
-60.3399
-61.6949
-62.8385
-63.7777
-64.5191
-65.0691
-65.4328
-65.6137
-45.2812
-48.1324
-50.818
-53.3049
-55.5716
-57.6065
-59.4066
-60.9751
-62.3189
-63.4471
-64.3694
-65.0949
-65.6317
-65.9859
-66.1619
-45.7101
-48.7093
-51.5138
-54.0873
-56.4087
-58.4708
-60.2762
-61.8343
-63.1578
-64.2609
-65.1572
-65.8589
-66.3761
-66.7165
-66.8854
-46.2818
-49.4804
-52.4403
-55.121
-57.5047
-59.5912
-61.3925
-62.9273
-64.2165
-65.2809
-66.139
-66.8066
-67.2965
-67.618
-67.7772
-47.0282
-50.4896
-53.6453
-56.4513
-58.8972
-60.996
-62.7747
-64.2652
-65.4995
-66.5064
-67.3105
-67.9315
-68.3847
-68.6809
-68.8273
-47.9986
-51.8039
-55.1994
-58.1412
-60.6359
-62.7204
-64.4443
-65.8586
-67.0091
-67.9341
-68.6644
-69.2236
-69.6291
-69.893
-70.0232
-49.2719
-53.5275
-57.2065
-60.2776
-62.7843
-64.8047
-66.4229
-67.7151
-68.7433
-69.5558
-70.1887
-70.6686
-71.0143
-71.2382
-71.3484
-50.9796
-55.827
-59.821
-62.9778
-65.4184
-67.2903
-68.727
-69.8348
-70.6924
-71.3561
-71.8653
-72.2473
-72.5204
-72.6966
-72.783
-53.3551
-58.9793
-63.2722
-66.3935
-68.6205
-70.2105
-71.3595
-72.204
-72.8346
-73.31
-73.6684
-73.9341
-74.1227
-74.2439
-74.3032
-56.8498
-63.4623
-67.8941
-70.7027
-72.4587
-73.5708
-74.2959
-74.7865
-75.1311
-75.3802
-75.5633
-75.6972
-75.7917
-75.8523
-75.882
-62.4465
-70.1253
-74.1386
-76.0639
-76.9399
-77.3172
-77.4659
-77.5144
-77.522
-77.5156
-77.5065
-77.4989
-77.4938
-77.4909
-77.4897
-72.6304
-80.453
-82.4702
-82.4739
-81.9188
-81.2913
-80.7356
-80.2822
-79.9261
-79.6527
-79.4473
-79.2972
-79.1929
-79.1271
-79.0953
-94.9011
-96.5852
-92.8144
-89.4418
-86.9692
-85.1926
-83.9021
-82.9522
-82.2466
-81.7209
-81.3317
-81.0491
-80.8525
-80.7285
-80.6685
11.4095
11.3876
11.344
11.2793
11.1943
11.0913
10.9737
10.8483
10.7272
10.633
10.6079
10.7361
11.2098
12.5799
16.9349
11.7242
11.702
11.6577
11.5915
11.5041
11.3968
11.2722
11.136
10.9989
10.882
10.8267
10.9123
11.2895
12.2138
13.8492
12.054
12.0314
11.9862
11.9182
11.8274
11.7139
11.5786
11.424
11.2561
11.0882
10.9473
10.8855
10.9891
11.3536
11.9036
12.3991
12.3762
12.3302
12.2605
12.1661
12.0458
11.898
11.7209
11.5132
11.2752
11.0126
10.7435
10.5073
10.3642
10.3442
12.7598
12.7368
12.6904
12.6195
12.5224
12.3964
12.2374
12.0388
11.7909
11.4789
11.0823
10.5783
9.96045
9.28904
8.77548
13.1361
13.1133
13.0672
12.9964
12.8985
12.7697
12.6038
12.3906
12.1129
11.7412
11.2261
10.4918
9.45057
8.10404
6.85454
13.5279
13.5058
13.4609
13.3918
13.2957
13.1684
13.0027
12.7869
12.4998
12.1028
11.5219
10.6182
9.15244
6.85145
4.07041
13.9346
13.9137
13.8711
13.8055
13.7142
13.5932
13.4361
13.2322
12.9628
12.5917
12.0416
11.1346
9.43405
5.93205
-0.640406
14.3555
14.3362
14.297
14.2366
14.1529
14.0428
13.9016
13.7228
13.4962
13.2043
12.809
12.2016
10.9664
7.14479
-9.91071
14.7895
14.7723
14.7372
14.6835
14.6096
14.5134
14.3928
14.2461
14.0746
13.8882
13.7234
13.7044
14.2945
17.5475
34.2496
15.2351
15.2202
15.1901
15.1441
15.0812
15.0005
14.9016
14.7864
14.6631
14.5568
14.5361
14.7837
15.7729
18.6102
24.7444
15.6907
15.6784
15.6537
15.616
15.5649
15.4999
15.4213
15.3318
15.2394
15.1656
15.1619
15.3478
15.9675
17.3829
19.5049
16.1544
16.1449
16.1258
16.0968
16.0577
16.0081
15.9482
15.8788
15.8026
15.7251
15.6557
15.6102
15.6091
15.6644
15.7449
16.6242
16.6176
16.6043
16.5843
16.5573
16.5231
16.4811
16.4302
16.3665
16.2784
16.1323
15.8415
15.2109
13.9281
12.0468
17.0983
17.0946
17.0872
17.0762
17.0615
17.0429
17.0198
16.9899
16.9469
16.8715
16.709
16.3085
15.265
12.6072
7.04838
17.5745
17.5737
17.5722
17.5701
17.5678
17.5653
17.5625
17.5584
17.5494
17.5246
17.4505
17.2216
16.4398
13.3004
-1.80405
18.0507
18.0528
18.057
18.0639
18.0738
18.0874
18.1057
18.1298
18.1626
18.2112
18.2991
18.5182
19.2513
22.3023
37.3174
18.5252
18.5299
18.5397
18.555
18.5766
18.6058
18.6441
18.6948
18.7645
18.8698
19.0562
19.4574
20.4524
22.9954
28.4164
18.9958
19.0031
19.018
19.0412
19.0738
19.1171
19.1734
19.2461
19.3414
19.4714
19.6636
19.9837
20.5781
21.6892
23.2872
19.4609
19.4705
19.4901
19.5205
19.5629
19.6189
19.6907
19.7813
19.8937
20.0293
20.1816
20.319
20.3443
20.0444
19.2751
19.9189
19.9305
19.9543
19.991
20.042
20.109
20.1944
20.3008
20.4294
20.5751
20.7092
20.7317
20.3357
18.7249
14.7363
20.3682
20.3817
20.409
20.451
20.5093
20.5858
20.683
20.8043
20.9528
21.1282
21.3139
21.4345
21.1701
19.0563
7.43528
20.8077
20.8226
20.8529
20.8993
20.9635
21.0474
21.1542
21.2883
21.4572
21.6733
21.9633
22.4042
23.2881
25.9894
37.9908
21.2364
21.2524
21.285
21.3348
21.4034
21.4926
21.6057
21.7477
21.9282
22.1665
22.5073
23.0657
24.1434
26.4633
30.9699
21.6534
21.6703
21.7045
21.7568
21.8282
21.9206
22.0364
22.1799
22.3587
22.5879
22.8995
23.366
24.1352
25.4182
27.0868
22.0581
22.0756
22.111
22.1648
22.2379
22.3316
22.4472
22.587
22.7538
22.9513
23.1835
23.4557
23.7694
24.1047
24.3709
22.45
22.468
22.5041
22.5589
22.6328
22.7265
22.8405
22.9747
23.1271
23.2898
23.4391
23.5159
23.3879
22.8386
21.8484
22.8289
22.8472
22.8838
22.9391
23.0133
23.1068
23.2191
23.3492
23.4928
23.6368
23.7445
23.7176
23.2984
21.8779
18.6468
23.1946
23.213
23.2499
23.3055
23.3799
23.4731
23.5847
23.7138
23.8577
24.0083
24.1426
24.1913
23.9035
22.1742
13.2101
23.5469
23.5655
23.6026
23.6583
23.7328
23.8258
23.9374
24.0676
24.2174
24.3904
24.5996
24.8981
25.5089
27.494
36.5938
23.8858
23.9044
23.9417
23.9976
24.072
24.165
24.2764
24.4072
24.5605
24.7464
24.9938
25.3874
26.1593
27.8724
31.2691
24.2112
24.2299
24.2673
24.3233
24.3978
24.4905
24.6013
24.7305
24.8806
25.059
25.2859
25.6135
26.1553
27.0809
28.3123
24.5229
24.5418
24.5793
24.6356
24.7102
24.8027
24.9125
25.0387
25.1806
25.3372
25.5072
25.6901
25.8839
26.0764
26.2199
24.821
24.84
24.8779
24.9345
25.0095
25.1022
25.2115
25.3353
25.4697
25.6053
25.719
25.7586
25.6128
25.1052
24.2365
25.1053
25.1245
25.1628
25.22
25.2958
25.3894
25.4997
25.6241
25.7576
25.8877
25.9815
25.9552
25.5921
24.3841
21.6593
25.3757
25.3951
25.4339
25.492
25.569
25.6644
25.7771
25.9058
26.0474
26.1945
26.3267
26.385
26.1575
24.7158
17.1992
25.6319
25.6517
25.6911
25.7502
25.8287
25.9264
26.0428
26.178
26.3329
26.5108
26.7226
27.0125
27.5652
29.2657
36.9198
25.8738
25.8939
25.9341
25.9943
26.0745
26.1745
26.2946
26.4358
26.6019
26.8026
27.0636
27.457
28.1751
29.6803
32.5744
26.101
26.1215
26.1625
26.2239
26.3057
26.4079
26.5308
26.6757
26.8464
27.0516
27.312
27.6753
28.2376
29.1297
30.2486
26.3134
26.3343
26.3761
26.4387
26.5221
26.6262
26.751
26.8971
27.0663
27.2615
27.488
27.7548
28.0704
28.4208
28.7097
26.5106
26.5319
26.5745
26.6383
26.7233
26.8291
26.9555
27.102
27.2675
27.4489
27.6353
27.7999
27.878
27.7541
27.3813
26.6924
26.7141
26.7576
26.8227
26.9093
27.017
27.1452
27.2928
27.4573
27.6317
27.7971
27.9042
27.8251
27.2596
25.8039
26.8584
26.8806
26.925
26.9915
27.0799
27.1898
27.3207
27.4713
27.6396
27.8201
27.9986
28.1373
28.1092
27.3825
23.2258
27.0084
27.031
27.0764
27.1443
27.2347
27.3473
27.4816
27.6369
27.8128
28.0089
28.2271
28.4854
28.8776
29.8868
34.1892
27.1419
27.1651
27.2114
27.2809
27.3734
27.4889
27.6269
27.7875
27.9714
28.1815
28.4269
28.7399
29.2168
30.1034
31.7325
27.2587
27.2824
27.3297
27.4008
27.4955
27.6139
27.7558
27.9213
28.1114
28.3286
28.5789
28.8801
29.2705
29.8036
30.4173
27.3584
27.3825
27.4309
27.5035
27.6004
27.7217
27.8673
28.0373
28.2321
28.4517
28.6948
28.9576
29.2242
29.4472
29.5387
27.4407
27.4652
27.5145
27.5886
27.6877
27.8118
27.9611
28.1355
28.3349
28.5576
28.7964
29.0317
29.2073
29.1814
28.734
27.5052
27.5302
27.5803
27.6557
27.7567
27.8836
28.0364
28.2156
28.4211
28.6514
28.8996
29.1465
29.3296
29.2075
27.629
27.5516
27.5769
27.6278
27.7044
27.8071
27.9363
28.0927
28.2768
28.4896
28.7318
29.0028
29.3051
29.663
30.2442
32.0893
27.5798
27.6054
27.6567
27.7342
27.8382
27.9695
28.1287
28.3173
28.5372
28.7913
29.0836
29.4243
29.8406
30.4025
31.1903
27.5895
27.6152
27.6669
27.7449
27.8497
27.9823
28.1435
28.3353
28.5605
28.8234
29.1299
29.4902
29.9162
30.4031
30.8488
27.5807
27.6064
27.6581
27.7362
27.8413
27.9742
28.1363
28.3294
28.5571
28.8242
29.1381
29.5099
29.9485
30.4317
30.8274
27.5533
27.5789
27.6303
27.708
27.8127
27.9451
28.1065
28.299
28.5256
28.7916
29.1053
29.4826
29.9488
30.5204
31.0913
27.5074
27.5328
27.5836
27.6605
27.764
27.8949
28.0544
28.244
28.4663
28.7251
29.0274
29.3929
29.875
30.6089
31.7622
27.4433
27.4682
27.5182
27.5937
27.6954
27.8241
27.9805
28.1657
28.3811
28.6274
28.905
29.2214
29.6256
30.4054
33.2444
27.3613
27.3856
27.4344
27.5081
27.6074
27.733
27.8856
28.0659
28.2739
28.5069
28.7548
28.9883
29.1146
28.771
26.1754
27.2617
27.2852
27.3325
27.4041
27.5004
27.6224
27.7706
27.9461
28.1487
28.3754
28.6137
28.8289
28.929
28.6999
27.8476
27.1451
27.1677
27.2132
27.2821
27.3749
27.4925
27.636
27.8067
28.0062
28.2348
28.4879
28.7487
28.9712
29.0607
28.9384
27.012
27.0336
27.0771
27.1428
27.2314
27.3439
27.4815
27.6466
27.8429
28.0765
28.3558
28.6946
29.1047
29.5681
29.9546
26.8633
26.8837
26.9248
26.9868
27.0706
27.1768
27.3071
27.4641
27.6533
27.8853
28.1818
28.5901
29.2005
30.128
31.2497
26.6997
26.7188
26.7572
26.8152
26.8933
26.9923
27.1133
27.2587
27.4335
27.6485
27.9294
28.3448
29.0752
30.5524
33.3339
26.5222
26.5399
26.5754
26.6289
26.7008
26.7915
26.9016
27.0321
27.1852
27.365
27.5827
27.8799
28.4304
30.0702
37.3602
26.3318
26.348
26.3803
26.4291
26.4945
26.5765
26.6749
26.7893
26.9178
27.0543
27.18
27.2387
27.0281
25.6637
18.5222
26.1295
26.1441
26.1733
26.2172
26.2759
26.3491
26.4363
26.536
26.6443
26.7502
26.8231
26.7837
26.4264
25.2683
22.6718
25.9164
25.9294
25.9554
25.9944
26.0464
26.1112
26.1881
26.276
26.372
26.4682
26.5434
26.5489
26.38
25.8713
25.0281
25.6936
25.705
25.7278
25.7619
25.8074
25.864
25.9315
26.0098
26.0992
26.1998
26.3113
26.4345
26.5689
26.7058
26.8089
25.4623
25.4721
25.4916
25.5209
25.5598
25.6083
25.6665
25.7353
25.818
25.9229
26.0704
26.3116
26.7553
27.5631
28.6711
25.2235
25.2317
25.2481
25.2726
25.305
25.3451
25.3933
25.4505
25.521
25.6155
25.7636
26.0476
26.6878
28.2114
31.3125
24.9784
24.985
24.9983
25.0181
25.0439
25.0756
25.1128
25.1559
25.2067
25.2702
25.3617
25.5357
26.0061
27.7636
36.1173
24.7279
24.7332
24.7435
24.7586
24.7781
24.8014
24.8275
24.8554
24.883
24.9045
24.9018
24.8173
24.4297
22.7344
14.4049
24.4733
24.4771
24.4847
24.4955
24.5091
24.5244
24.5402
24.5545
24.563
24.5547
24.4981
24.3088
23.7606
22.3118
19.2456
24.2153
24.2179
24.2229
24.2299
24.238
24.2462
24.2531
24.2569
24.2543
24.2376
24.1859
24.049
23.7161
23.0117
21.9665
23.9548
23.9564
23.9593
23.9629
23.9662
23.9682
23.9674
23.9631
23.9549
23.944
23.9322
23.9248
23.9287
23.9478
23.9708
23.6926
23.6934
23.6945
23.6953
23.6947
23.6912
23.6835
23.6713
23.6571
23.65
23.6747
23.7921
24.13
24.8806
26.0004
23.4293
23.4295
23.4294
23.4282
23.4244
23.4163
23.4019
23.3803
23.3538
23.3332
23.3521
23.5056
24.044
25.5565
28.8169
23.1652
23.1651
23.1645
23.1622
23.1565
23.145
23.1245
23.0921
23.0458
22.9883
22.9355
22.9512
23.2808
25.0178
33.9067
22.9006
22.9006
22.9002
22.898
22.892
22.8791
22.8547
22.8128
22.7453
22.6393
22.4705
22.1782
21.5395
19.512
10.4294
22.6352
22.6359
22.6365
22.6359
22.6317
22.6203
22.5962
22.5509
22.471
22.333
22.0907
21.6452
20.762
18.905
15.4027
22.3689
22.3705
22.3731
22.3756
22.3756
22.3696
22.3516
22.3124
22.2366
22.0983
21.8514
21.4156
20.66
19.4401
17.9527
22.1009
22.1038
22.1093
22.1164
22.1232
22.1265
22.1211
22.0986
22.0451
21.9383
21.7425
21.4076
20.8797
20.1604
19.4786
21.8302
21.8348
21.8439
21.8568
21.8724
21.8887
21.9019
21.9057
21.8902
21.8394
21.7296
21.5331
21.2316
20.8542
20.5398
21.5557
21.5622
21.5751
21.5946
21.6206
21.6523
21.6883
21.7257
21.7594
21.7807
21.7762
21.7309
21.6355
21.5036
21.3912
21.2762
21.2845
21.3013
21.3275
21.3641
21.4121
21.473
21.5477
21.6368
21.7392
21.8505
21.9628
22.0642
22.1389
22.1734
20.9905
21.0002
21.0205
21.0526
21.0989
21.1624
21.2473
21.359
21.5044
21.6907
21.9233
22.2019
22.5105
22.8016
22.9882
20.6973
20.7081
20.7308
20.7673
20.8212
20.8972
21.0023
21.1465
21.3432
21.6094
21.9635
22.4196
22.9681
23.5363
23.9411
20.3961
20.4073
20.4309
20.4695
20.5274
20.6109
20.7295
20.8969
21.1333
21.4663
21.9322
22.5726
23.4114
24.3839
25.1838
20.0867
20.0973
20.1201
20.1577
20.2151
20.2996
20.422
20.599
20.8557
21.2301
21.7792
22.5873
23.761
25.3508
26.9905
19.7692
19.7785
19.7983
19.8317
19.8835
19.9612
20.076
20.2452
20.4961
20.872
21.4455
22.3474
23.8208
26.2823
29.9444
19.4448
19.4517
19.4666
19.4924
19.5334
19.5963
19.6914
19.8342
20.0491
20.3758
20.8832
21.7102
23.1936
26.3795
35.45
-156.887
-116.372
-101.93
-95.0035
-90.9597
-88.3222
-86.4918
-85.1749
-84.2078
-83.4908
-82.9606
-82.5752
-82.3067
-82.137
-82.0547
-132.73
-116.254
-104.998
-98.0569
-93.6099
-90.6061
-88.489
-86.9522
-85.8162
-84.9694
-84.3401
-83.8807
-83.5597
-83.3561
-83.2572
-120.023
-112.509
-105.069
-99.3776
-95.257
-92.2735
-90.0827
-88.4507
-87.2229
-86.2962
-85.6008
-85.0897
-84.7305
-84.5018
-84.3906
-112.545
-108.712
-103.924
-99.6071
-96.1136
-93.3897
-91.2877
-89.668
-88.4199
-87.4614
-86.7331
-86.1925
-85.81
-85.5654
-85.4461
-107.737
-105.579
-102.45
-99.2642
-96.4351
-94.073
-92.1573
-90.6265
-89.4151
-88.466
-87.7341
-87.185
-86.7932
-86.5414
-86.4181
-104.437
-103.12
-101.015
-98.6727
-96.4315
-94.4457
-92.7589
-91.3626
-90.2272
-89.3191
-88.6076
-88.0674
-87.6788
-87.4274
-87.304
-102.063
-101.205
-99.7451
-98.0103
-96.2497
-94.6097
-93.1585
-91.9169
-90.8807
-90.0348
-89.3615
-88.844
-88.4684
-88.224
-88.1035
-100.294
-99.7079
-98.6651
-97.3651
-95.9833
-94.6418
-93.4118
-92.328
-91.4013
-90.6299
-90.0064
-89.5214
-89.1663
-88.9338
-88.8188
-98.9426
-98.5267
-97.7629
-96.776
-95.6882
-94.5957
-93.5631
-92.6293
-91.8132
-91.1216
-90.5543
-90.108
-89.7784
-89.5614
-89.4537
-97.8897
-97.5864
-97.015
-96.2562
-95.3957
-94.507
-93.6453
-92.8482
-92.138
-91.526
-91.0173
-90.6129
-90.3118
-90.1124
-90.0132
-97.0572
-96.8313
-96.3966
-95.8066
-95.122
-94.3986
-93.6821
-93.0063
-92.3936
-91.858
-91.4073
-91.0454
-90.774
-90.5933
-90.5031
-96.3913
-96.2206
-95.8852
-95.4219
-94.8743
-94.2847
-93.6901
-93.1197
-92.595
-92.1302
-91.7348
-91.4144
-91.1725
-91.0107
-90.9297
-95.8539
-95.7235
-95.462
-95.0952
-94.655
-94.1736
-93.6805
-93.201
-92.7539
-92.3534
-92.0093
-91.7283
-91.5148
-91.3714
-91.2994
-95.417
-95.3167
-95.1111
-94.8188
-94.4634
-94.0697
-93.6611
-93.2589
-92.8798
-92.5367
-92.2393
-91.9947
-91.8079
-91.6818
-91.6184
-95.0595
-94.9822
-94.8196
-94.5856
-94.2978
-93.9752
-93.6368
-93.3002
-92.9798
-92.6873
-92.4318
-92.2204
-92.0581
-91.9482
-91.8927
-94.7657
-94.7061
-94.5772
-94.3891
-94.1554
-93.8909
-93.6108
-93.3296
-93.0597
-92.8114
-92.593
-92.4113
-92.2712
-92.176
-92.1279
-94.5231
-94.4775
-94.3751
-94.2236
-94.0336
-93.8167
-93.5849
-93.3504
-93.1238
-92.9138
-92.7281
-92.5727
-92.4524
-92.3705
-92.3291
-94.3221
-94.2875
-94.2063
-94.0843
-93.9298
-93.7519
-93.5603
-93.3652
-93.1754
-92.9985
-92.8412
-92.7091
-92.6064
-92.5363
-92.5008
-94.155
-94.1293
-94.065
-93.9669
-93.8414
-93.6957
-93.5377
-93.3758
-93.2173
-93.0689
-92.9362
-92.8243
-92.7371
-92.6775
-92.6472
-94.0155
-93.997
-93.9466
-93.868
-93.7663
-93.6472
-93.5172
-93.3832
-93.2515
-93.1274
-93.016
-92.9217
-92.8481
-92.7976
-92.7719
-93.8988
-93.8862
-93.8471
-93.7844
-93.7024
-93.6055
-93.4989
-93.3885
-93.2794
-93.1762
-93.0832
-93.0042
-92.9423
-92.8998
-92.8782
-93.8008
-93.793
-93.7632
-93.7138
-93.6481
-93.5697
-93.4828
-93.3923
-93.3025
-93.2171
-93.1399
-93.0741
-93.0224
-92.9869
-92.9688
-93.7181
-93.7142
-93.6922
-93.6538
-93.6017
-93.5389
-93.4686
-93.3951
-93.3217
-93.2516
-93.1879
-93.1335
-93.0907
-93.0612
-93.0461
-93.6479
-93.6474
-93.6318
-93.6027
-93.5621
-93.5124
-93.4562
-93.3971
-93.3377
-93.2807
-93.2288
-93.1842
-93.149
-93.1248
-93.1124
-93.588
-93.5903
-93.5802
-93.5589
-93.5281
-93.4895
-93.4454
-93.3985
-93.3512
-93.3056
-93.2637
-93.2277
-93.1992
-93.1795
-93.1694
-93.5364
-93.5411
-93.5357
-93.5211
-93.4986
-93.4697
-93.4359
-93.3997
-93.3628
-93.327
-93.2939
-93.2653
-93.2426
-93.2268
-93.2188