/*--------------------------------*- C++ -*----------------------------------*\
| =========                 |                                                 |
| \\      /  F ield         | OpenFOAM: The Open Source CFD Toolbox           |
|  \\    /   O peration     | Version:  5.x                                   |
|   \\  /    A nd           | Web:      www.OpenFOAM.org                      |
|    \\/     M anipulation  |                                                 |
\*---------------------------------------------------------------------------*/
FoamFile
{
    version     2.0;
    format      ascii;
    class       volScalarField;
    location    "17";
    object      T;
}
// * * * * * * * * * * * * * * * * * * * * * * * * * * * * * * * * * * * * * //

dimensions      [0 0 0 1 0 0 0];

internalField   nonuniform List<scalar> 
6300
(
10.0424
10.127
10.2113
10.2949
10.3776
10.4592
10.5393
10.6178
10.6945
10.7689
10.8411
10.9106
10.9775
11.0414
11.1024
10.0425
10.1274
10.2119
10.2958
10.3787
10.4606
10.541
10.6197
10.6966
10.7713
10.8436
10.9133
10.9803
11.0444
11.1054
10.0428
10.1282
10.2132
10.2975
10.381
10.4633
10.5442
10.6235
10.7008
10.7759
10.8487
10.9188
10.9861
11.0504
11.1115
10.0431
10.1293
10.2151
10.3002
10.3844
10.4675
10.5491
10.6291
10.7071
10.7829
10.8563
10.927
10.9948
11.0594
11.1208
10.0437
10.1308
10.2176
10.3038
10.389
10.4731
10.5557
10.6367
10.7157
10.7924
10.8666
10.9381
11.0065
11.0717
11.1334
10.0443
10.1327
10.2208
10.3082
10.3947
10.4801
10.564
10.6462
10.7264
10.8043
10.8797
10.9522
11.0215
11.0874
11.1496
10.045
10.135
10.2246
10.3135
10.4016
10.4885
10.5739
10.6577
10.7394
10.8188
10.8956
10.9694
11.0398
11.1066
11.1695
10.0459
10.1377
10.229
10.3197
10.4096
10.4983
10.5855
10.6711
10.7547
10.8359
10.9144
10.9899
11.0618
11.1298
11.1935
10.0469
10.1407
10.2341
10.3268
10.4187
10.5095
10.5989
10.6866
10.7723
10.8557
10.9363
11.0138
11.0877
11.1573
11.2221
10.0481
10.1441
10.2397
10.3348
10.429
10.5221
10.6138
10.7039
10.7921
10.8781
10.9613
11.0414
11.1178
11.1896
11.256
10.0493
10.1478
10.246
10.3436
10.4403
10.536
10.6304
10.7232
10.8143
10.9031
10.9895
11.0728
11.1523
11.2271
11.2959
10.0507
10.1519
10.2528
10.3531
10.4527
10.5512
10.6485
10.7443
10.8385
10.9307
11.0206
11.1079
11.1916
11.2706
11.343
10.0522
10.1563
10.2602
10.3635
10.466
10.5676
10.668
10.7671
10.8646
10.9605
11.0545
11.1464
11.2355
11.3206
11.3991
10.0537
10.1611
10.2681
10.3746
10.4804
10.5852
10.6889
10.7913
10.8924
10.9921
11.0904
11.1876
11.2834
11.3773
11.4664
10.0554
10.1662
10.2766
10.3865
10.4956
10.6038
10.7109
10.8168
10.9215
11.025
11.1276
11.23
11.3332
11.4387
11.5472
11.1554
11.2015
11.2454
11.2871
11.3268
11.3645
11.4002
11.4341
11.4663
11.4969
11.526
11.5538
11.5805
11.6061
11.6308
11.6548
11.6782
11.7011
11.7238
11.7462
11.7685
11.7909
11.8135
11.8363
11.8595
11.8832
11.9073
11.932
11.9573
11.9832
12.0097
12.0369
12.0646
12.0929
12.1218
12.1511
12.1808
12.2109
12.2412
12.2716
12.3021
12.3324
12.3625
12.3923
12.4216
12.4502
12.478
12.5048
12.5305
12.555
12.578
12.5995
12.6193
12.6371
12.6529
12.6663
12.6771
12.6852
12.6903
12.6921
12.6903
12.6847
12.6749
12.6606
12.6414
12.6169
12.5868
12.5506
12.5077
12.4576
12.3998
12.3336
12.2583
12.1733
12.0778
11.9711
11.8523
11.7206
11.5753
11.4153
11.24
11.0484
10.8398
10.6135
10.3688
10.1051
9.82217
9.51963
9.19743
8.85565
11.1585
11.2045
11.2484
11.2901
11.3296
11.3672
11.4028
11.4365
11.4685
11.4989
11.5279
11.5555
11.5819
11.6073
11.6318
11.6556
11.6788
11.7015
11.724
11.7462
11.7684
11.7906
11.813
11.8357
11.8588
11.8824
11.9064
11.931
11.9563
11.9822
12.0087
12.0359
12.0637
12.0921
12.121
12.1505
12.1803
12.2105
12.2409
12.2715
12.3021
12.3326
12.363
12.393
12.4224
12.4512
12.4792
12.5063
12.5322
12.5569
12.5802
12.6019
12.6219
12.6401
12.6561
12.6698
12.681
12.6895
12.6949
12.6971
12.6958
12.6906
12.6813
12.6675
12.6488
12.625
12.5955
12.56
12.5179
12.4687
12.4117
12.3465
12.2722
12.1883
12.0939
11.9883
11.8707
11.7403
11.5961
11.4374
11.2632
11.0728
10.8652
10.6398
10.3959
10.1328
9.85026
9.54785
9.22551
8.88333
11.1647
11.2107
11.2545
11.296
11.3354
11.3727
11.408
11.4414
11.473
11.503
11.5315
11.5587
11.5847
11.6097
11.6338
11.6572
11.68
11.7023
11.7244
11.7462
11.7681
11.79
11.8121
11.8345
11.8574
11.8807
11.9046
11.9291
11.9543
11.9802
12.0068
12.034
12.0619
12.0904
12.1195
12.1491
12.1791
12.2096
12.2403
12.2712
12.3022
12.3331
12.3638
12.3942
12.4241
12.4534
12.4818
12.5093
12.5356
12.5608
12.5845
12.6067
12.6272
12.6459
12.6625
12.6769
12.6888
12.6979
12.7042
12.7071
12.7066
12.7023
12.694
12.6812
12.6637
12.641
12.6129
12.5788
12.5382
12.4907
12.4355
12.3722
12.3
12.2182
12.126
12.0228
11.9075
11.7795
11.6378
11.4815
11.3098
11.1217
10.9163
10.6928
10.4504
10.1886
9.9068
9.60466
9.28206
8.93907
11.174
11.2201
11.2637
11.305
11.3441
11.381
11.4158
11.4487
11.4797
11.5092
11.5371
11.5636
11.589
11.6134
11.6368
11.6596
11.6817
11.7035
11.7249
11.7463
11.7676
11.789
11.8107
11.8327
11.8552
11.8782
11.9019
11.9262
11.9513
11.9771
12.0037
12.031
12.0591
12.0878
12.1171
12.147
12.1774
12.2082
12.2393
12.2707
12.3022
12.3337
12.3651
12.3961
12.4267
12.4566
12.4856
12.5137
12.5407
12.5665
12.5909
12.6138
12.6351
12.6545
12.672
12.6874
12.7003
12.7105
12.7179
12.7221
12.7228
12.7198
12.7129
12.7016
12.6857
12.6649
12.6387
12.6067
12.5685
12.5235
12.471
12.4106
12.3414
12.2628
12.1741
12.0743
11.9627
11.8383
11.7004
11.5479
11.3798
11.1953
10.9932
10.7727
10.5329
10.2731
9.9925
9.69083
9.36786
9.02364
11.1868
11.2328
11.2762
11.3173
11.3559
11.3922
11.4264
11.4585
11.4888
11.5174
11.5445
11.5702
11.5947
11.6182
11.6408
11.6627
11.684
11.705
11.7257
11.7462
11.7668
11.7876
11.8086
11.8301
11.8521
11.8747
11.898
11.9221
11.9471
11.9729
11.9995
12.027
12.0552
12.0842
12.1139
12.1441
12.1749
12.2062
12.2379
12.2699
12.3022
12.3345
12.3667
12.3986
12.4301
12.4608
12.4908
12.5197
12.5475
12.5741
12.5993
12.6231
12.6454
12.6659
12.6846
12.7012
12.7155
12.7272
12.7361
12.7418
12.7442
12.743
12.7378
12.7285
12.7148
12.6963
12.6727
12.6436
12.6085
12.5668
12.518
12.4614
12.3963
12.3221
12.2378
12.1427
12.036
11.9167
11.7838
11.6365
11.4736
11.294
11.0966
10.8804
10.6442
10.3872
10.1085
9.80759
9.48417
9.13826
11.2031
11.249
11.2923
11.3329
11.3709
11.4065
11.4398
11.471
11.5003
11.5278
11.5538
11.5784
11.6018
11.6242
11.6457
11.6665
11.6868
11.7068
11.7265
11.7461
11.7658
11.7857
11.8059
11.8267
11.848
11.8701
11.893
11.9168
11.9416
11.9673
11.9941
12.0217
12.0503
12.0796
12.1097
12.1404
12.1717
12.2035
12.2359
12.2688
12.3019
12.3353
12.3686
12.4017
12.4343
12.4662
12.4972
12.5272
12.5559
12.5835
12.6097
12.6346
12.658
12.6799
12.7001
12.7183
12.7343
12.7479
12.7586
12.7664
12.7707
12.7716
12.7687
12.7617
12.7506
12.735
12.7146
12.689
12.6577
12.6203
12.576
12.5243
12.4644
12.3955
12.3169
12.2278
12.1272
12.0143
11.8881
11.7474
11.5912
11.4182
11.2271
11.0166
10.7855
10.5324
10.2564
9.95666
9.63278
9.28469
11.2232
11.2692
11.3121
11.3521
11.3894
11.424
11.4563
11.4863
11.5142
11.5404
11.5651
11.5883
11.6103
11.6314
11.6516
11.6711
11.6901
11.7088
11.7273
11.7458
11.7644
11.7832
11.8025
11.8223
11.8428
11.8642
11.8866
11.91
11.9346
11.9603
11.9872
12.0152
12.0441
12.0739
12.1044
12.1357
12.1675
12.2001
12.2332
12.267
12.3013
12.336
12.3708
12.4054
12.4395
12.4728
12.5051
12.5362
12.5661
12.5946
12.6219
12.648
12.6728
12.6962
12.7182
12.7384
12.7566
12.7724
12.7855
12.7955
12.8023
12.8055
12.8051
12.8009
12.7928
12.7805
12.7638
12.7423
12.7157
12.6834
12.6447
12.5989
12.5452
12.4829
12.4112
12.3292
12.2361
12.131
12.0129
11.8806
11.7329
11.5683
11.3854
11.1826
10.9581
10.7105
10.4383
10.1404
9.81614
9.46534
11.2476
11.2935
11.336
11.3754
11.4116
11.445
11.4758
11.5043
11.5307
11.5553
11.5782
11.5998
11.6202
11.6397
11.6583
11.6763
11.6938
11.7111
11.7282
11.7452
11.7625
11.7801
11.7981
11.8168
11.8363
11.8569
11.8785
11.9015
11.9258
11.9516
11.9787
12.0071
12.0366
12.067
12.0981
12.1299
12.1624
12.1956
12.2296
12.2644
12.3001
12.3364
12.3731
12.4097
12.4458
12.4808
12.5146
12.547
12.5779
12.6075
12.6358
12.6631
12.6894
12.7146
12.7387
12.7614
12.7823
12.8008
12.8166
12.8293
12.8387
12.8446
12.8469
12.8456
12.8408
12.8322
12.8197
12.8031
12.7819
12.7556
12.7234
12.6846
12.6383
12.5837
12.5201
12.4465
12.3623
12.2664
12.158
12.0359
11.8986
11.7447
11.5723
11.3794
11.164
10.9239
10.6571
10.362
10.0376
9.68347
11.2767
11.3226
11.3646
11.4029
11.4379
11.4697
11.4987
11.5253
11.5497
11.5723
11.5933
11.613
11.6315
11.6491
11.6659
11.6821
11.6979
11.7135
11.7289
11.7444
11.7601
11.7761
11.7927
11.8101
11.8284
11.8478
11.8686
11.8909
11.9149
11.9408
11.9683
11.9974
12.0277
12.0589
12.0907
12.1231
12.1561
12.1898
12.2246
12.2606
12.2978
12.3363
12.3755
12.4147
12.4533
12.4906
12.5261
12.5597
12.5916
12.622
12.6512
12.6796
12.7073
12.7346
12.7612
12.7869
12.8111
12.833
12.8521
12.8678
12.88
12.8886
12.8937
12.8955
12.894
12.8893
12.8815
12.8702
12.8553
12.836
12.8116
12.781
12.7432
12.6975
12.643
12.5791
12.5049
12.4198
12.3228
12.2128
12.0883
11.9476
11.7886
11.6087
11.4054
11.1756
10.9165
10.6258
10.3018
9.94355
11.3113
11.3571
11.3983
11.4354
11.4685
11.4983
11.525
11.5493
11.5713
11.5916
11.6103
11.6277
11.644
11.6595
11.6742
11.6885
11.7024
11.716
11.7296
11.7432
11.7571
11.7714
11.7862
11.8019
11.8187
11.8367
11.8563
11.8778
11.9014
11.9274
11.9556
11.9858
12.0174
12.0498
12.0825
12.1154
12.1486
12.1826
12.2178
12.2548
12.2938
12.335
12.3776
12.4206
12.4627
12.5027
12.5401
12.5749
12.6074
12.6381
12.6677
12.6968
12.7258
12.7552
12.785
12.8145
12.843
12.8692
12.8922
12.9112
12.9263
12.9376
12.9453
12.9499
12.9516
12.9509
12.9479
12.9427
12.9349
12.9239
12.9085
12.8875
12.8596
12.8238
12.7795
12.7262
12.6633
12.5902
12.5063
12.4104
12.3011
12.1767
12.0346
11.8718
11.6847
11.4692
11.2214
10.9377
10.615
10.2518
11.3523
11.398
11.4382
11.4733
11.5041
11.5311
11.555
11.5763
11.5955
11.613
11.629
11.6439
11.6577
11.6708
11.6833
11.6953
11.707
11.7185
11.73
11.7416
11.7534
11.7656
11.7785
11.7922
11.807
11.8232
11.8413
11.8616
11.8846
11.9106
11.9399
11.972
12.006
12.0403
12.074
12.1071
12.1399
12.1733
12.2083
12.2459
12.2868
12.3314
12.379
12.4278
12.4749
12.5185
12.5578
12.5933
12.6256
12.6557
12.6848
12.7138
12.7438
12.7753
12.8088
12.8436
12.8782
12.9101
12.9377
12.9603
12.9781
12.9915
13.0013
13.0082
13.0127
13.0157
13.0175
13.0186
13.0189
13.0178
13.0135
13.0038
12.9871
12.9622
12.9289
12.8869
12.8361
12.7762
12.7068
12.627
12.5357
12.4311
12.3104
12.1699
12.0046
11.8092
11.578
11.3054
10.9863
10.6173
11.4012
11.4467
11.4852
11.5176
11.5449
11.5683
11.5886
11.6064
11.6222
11.6364
11.6494
11.6614
11.6725
11.683
11.693
11.7026
11.7119
11.7211
11.7303
11.7395
11.7491
11.759
11.7695
11.7808
11.7932
11.8071
11.823
11.8414
11.8632
11.8892
11.92
11.9555
11.9939
12.0315
12.0665
12.0991
12.1303
12.1618
12.1951
12.232
12.2744
12.3233
12.3787
12.4372
12.4922
12.5402
12.5811
12.6161
12.6468
12.6748
12.7019
12.7295
12.7593
12.7926
12.8305
12.8729
12.917
12.9571
12.9902
13.0162
13.0359
13.0506
13.0614
13.0696
13.0761
13.0819
13.0881
13.0955
13.105
13.116
13.1261
13.1303
13.126
13.1127
13.0905
13.0601
13.0218
12.9758
12.9221
12.8602
12.7894
12.7085
12.6147
12.5035
12.3678
12.2005
11.9941
11.7401
11.4292
11.0538
11.4606
11.5057
11.541
11.5689
11.5914
11.61
11.6257
11.6392
11.6511
11.6616
11.6712
11.68
11.6882
11.6958
11.7031
11.7101
11.7169
11.7236
11.7303
11.7371
11.7441
11.7514
11.7592
11.7677
11.7772
11.7881
11.8008
11.8163
11.8357
11.8607
11.8933
11.9349
11.983
12.0262
12.0623
12.0928
12.1204
12.1475
12.1766
12.2104
12.2523
12.3059
12.3738
12.4517
12.5193
12.5722
12.6128
12.6449
12.6716
12.6953
12.7181
12.7421
12.7695
12.803
12.8457
12.8998
12.9615
13.0138
13.053
13.081
13.1009
13.115
13.1253
13.1333
13.1403
13.1475
13.1566
13.1695
13.1887
13.2156
13.247
13.2689
13.278
13.2757
13.264
13.2446
13.2186
13.1865
13.1489
13.1059
13.0577
13.0041
12.944
12.8723
12.7763
12.6479
12.4786
12.2566
11.9651
11.5847
11.5357
11.5785
11.6075
11.628
11.6435
11.6557
11.6658
11.6743
11.6817
11.6882
11.6941
11.6995
11.7045
11.7091
11.7136
11.7178
11.722
11.726
11.7301
11.7343
11.7385
11.743
11.7479
11.7532
11.7592
11.7662
11.7747
11.7855
11.8001
11.8212
11.8536
11.9047
11.979
12.0312
12.0659
12.0908
12.1111
12.1303
12.1511
12.1771
12.2131
12.2679
12.3546
12.4809
12.5674
12.6216
12.6568
12.6815
12.7005
12.7169
12.7326
12.7497
12.7707
12.7999
12.8445
12.9156
13.0194
13.0894
13.1317
13.1575
13.1739
13.1848
13.1925
13.1985
13.204
13.2103
13.2193
13.2344
13.2611
13.3085
13.3814
13.4257
13.4463
13.452
13.4484
13.4384
13.4237
13.4052
13.3834
13.3591
13.3335
13.3091
13.2896
13.2759
13.2315
13.1539
13.0389
12.8731
12.6287
12.2574
11.6397
11.6712
11.6859
11.6944
11.7002
11.7046
11.7081
11.711
11.7135
11.7157
11.7177
11.7195
11.7212
11.7227
11.7242
11.7257
11.727
11.7284
11.7298
11.7312
11.7326
11.7341
11.7358
11.7376
11.7396
11.7421
11.7451
11.7492
11.7552
11.7655
11.7868
11.8412
12.0066
12.0614
12.0836
12.0952
12.1033
12.1105
12.1184
12.1291
12.1469
12.1837
12.2782
12.5673
12.6618
12.6984
12.7159
12.7261
12.7333
12.7392
12.7449
12.7514
12.7601
12.7747
12.8051
12.8839
13.126
13.2045
13.2342
13.2476
13.2547
13.259
13.2619
13.2642
13.2663
13.269
13.2734
13.2823
13.3038
13.3643
13.557
13.6164
13.6359
13.6417
13.6418
13.639
13.6343
13.6283
13.6213
13.6139
13.6076
13.6068
13.6269
13.7235
13.7345
13.7138
13.6721
13.6025
13.4751
13.1943
8.45849
7.99818
7.51198
7.00135
6.46799
5.9138
5.34076
4.75097
4.14651
3.52946
2.90187
2.26575
1.62305
0.975683
0.325536
8.48544
8.02398
7.53633
7.024
6.48876
5.93257
5.35747
4.76559
4.15905
3.53996
2.91037
2.2723
1.62769
0.978456
0.326458
8.53969
8.07589
7.58528
7.06949
6.53043
5.97018
5.3909
4.79481
4.1841
3.56092
2.92733
2.28536
1.63695
0.98398
0.328294
8.62197
8.15453
7.65932
7.13817
6.59322
6.02674
5.44109
4.83861
4.22159
3.59223
2.95265
2.30484
1.65075
0.99221
0.331029
8.7334
8.26087
7.75921
7.23059
6.67747
6.10242
5.50805
4.89689
4.27136
3.63374
2.98615
2.33059
1.66897
1.00307
0.334638
8.87559
8.39625
7.88598
7.34744
6.78356
6.19735
5.59174
4.9695
4.33319
3.68517
3.02758
2.36239
1.69144
1.01646
0.339084
9.05074
8.56246
8.04095
7.48956
6.91192
6.31162
5.692
5.05612
4.4067
3.74613
3.07657
2.39992
1.71794
1.03223
0.344319
9.26177
8.76183
8.2257
7.65784
7.06287
6.44512
5.80846
5.15624
4.49129
3.81606
3.13261
2.44277
1.74814
1.05019
0.350277
9.51263
8.99729
8.44208
7.85316
7.23653
6.59747
5.94043
5.26901
4.58613
3.89415
3.19502
2.49037
1.78164
1.07009
0.356878
9.80862
9.27253
8.69208
8.07611
7.43252
6.76774
6.08672
5.3932
4.69002
3.97935
3.2629
2.54205
1.81795
1.09164
0.364022
10.1571
9.59203
8.97751
8.32659
7.64964
6.95418
6.24543
5.52699
4.80135
4.0703
3.33515
2.59693
1.85647
1.11447
0.371589
10.5685
9.96089
9.29924
8.603
7.88519
7.15383
6.41377
5.66791
4.91804
4.16529
3.41044
2.65403
1.89649
1.13819
0.379447
11.058
10.3837
9.65546
8.90091
8.13419
7.36211
6.58784
5.81279
5.03755
4.26235
3.48724
2.71222
1.93727
1.16235
0.387447
11.647
10.8603
10.0379
9.21088
8.38845
7.5725
6.76262
5.95779
5.15698
4.35927
3.56392
2.77033
1.97798
1.18647
0.395438
12.3567
11.3724
10.425
9.51614
8.63613
7.77676
6.93228
6.09872
5.27324
4.45379
3.63882
2.82715
2.01784
1.2101
0.403268
10.0571
10.1711
10.2848
10.398
10.5104
10.6219
10.7322
10.8414
10.9492
11.0559
11.1619
11.2681
11.3766
11.4923
11.6282
10.0586
10.1758
10.2927
10.409
10.5245
10.6391
10.7525
10.8645
10.9752
11.0845
11.1928
11.301
11.4111
11.5268
11.6553
10.0603
10.1808
10.3009
10.4205
10.5393
10.6571
10.7736
10.8886
11.002
11.1137
11.2238
11.3327
11.4415
11.5525
11.6686
10.062
10.186
10.3095
10.4326
10.5548
10.6759
10.7957
10.9138
11.0301
11.1441
11.2556
11.3644
11.4705
11.5745
11.6777
10.0638
10.1914
10.3186
10.4452
10.571
10.6956
10.8189
10.9404
11.0597
11.1762
11.2892
11.3978
11.5008
11.597
11.6866
10.0657
10.197
10.328
10.4584
10.5879
10.7163
10.8433
10.9684
11.0911
11.2107
11.3259
11.4352
11.5358
11.6242
11.6979
10.0677
10.2029
10.3378
10.4721
10.6056
10.738
10.869
10.9981
11.1247
11.2481
11.3668
11.4785
11.5791
11.6616
11.7162
10.0697
10.209
10.348
10.4864
10.6241
10.7607
10.8959
11.0294
11.1606
11.2887
11.4124
11.5295
11.6351
11.7182
11.7538
10.0718
10.2153
10.3585
10.5012
10.6433
10.7843
10.9241
11.0623
11.1986
11.3323
11.4627
11.5884
11.7067
11.8078
11.8496
10.074
10.2218
10.3694
10.5166
10.6631
10.8088
10.9534
11.0966
11.2383
11.3781
11.516
11.6526
11.7901
11.9385
12.1411
10.0762
10.2285
10.3806
10.5323
10.6835
10.8339
10.9835
11.132
11.2792
11.4252
11.5704
11.716
11.866
12.0314
12.2382
10.0785
10.2353
10.392
10.5484
10.7044
10.8597
11.0144
11.1681
11.321
11.4729
11.6243
11.7762
11.9313
12.0955
12.2789
10.0808
10.2423
10.4037
10.5648
10.7256
10.886
11.0458
11.2049
11.3634
11.521
11.6779
11.8341
11.9901
12.1463
12.3034
10.0831
10.2494
10.4155
10.5814
10.7472
10.9126
11.0776
11.2422
11.4062
11.5695
11.7318
11.8922
12.0486
12.1964
12.3272
10.0855
10.2565
10.4274
10.5982
10.7689
10.9394
11.1098
11.2798
11.4496
11.6188
11.787
11.953
12.1132
12.2583
12.3653
10.0879
10.2636
10.4393
10.6151
10.7907
10.9664
11.1421
11.3177
11.4932
11.6687
11.8437
12.0177
12.1881
12.3465
12.4542
10.0903
10.2708
10.4513
10.6319
10.8126
10.9934
11.1743
11.3555
11.5369
11.7187
11.9012
12.0847
12.2715
12.4698
12.7176
10.0926
10.2779
10.4632
10.6487
10.8343
11.0202
11.2064
11.3931
11.5803
11.7684
11.9577
12.1495
12.3469
12.5586
12.8068
10.095
10.2849
10.475
10.6653
10.8559
11.0468
11.2382
11.4303
11.6231
11.8171
12.0126
12.2104
12.4122
12.6219
12.846
10.0973
10.2919
10.4867
10.6817
10.8771
11.073
11.2695
11.4668
11.6651
11.8647
12.0657
12.2683
12.4721
12.6752
12.873
10.0996
10.2988
10.4982
10.6979
10.898
11.0987
11.3002
11.5026
11.7062
11.9112
12.1177
12.3254
12.5323
12.7321
12.9068
10.1018
10.3055
10.5095
10.7137
10.9185
11.1239
11.3302
11.5376
11.7463
11.9566
12.1688
12.3829
12.5975
12.8063
12.9787
10.104
10.3121
10.5205
10.7292
10.9385
11.1485
11.3594
11.5715
11.7852
12.0007
12.2186
12.44
12.6667
12.9057
13.1865
10.1062
10.3186
10.5312
10.7443
10.9579
11.1723
11.3878
11.6044
11.8227
12.043
12.266
12.4932
12.7274
12.976
13.2566
10.1082
10.3248
10.5417
10.7589
10.9768
11.1955
11.4152
11.6362
11.8588
12.0834
12.3106
12.5414
12.7779
13.0241
13.2862
10.1103
10.3309
10.5518
10.7731
10.9951
11.2179
11.4417
11.6668
11.8934
12.1219
12.3525
12.5856
12.8216
13.0609
13.3037
10.1122
10.3368
10.5616
10.7869
11.0128
11.2395
11.4673
11.6963
11.9268
12.1589
12.3926
12.6276
12.8629
13.0954
13.3197
10.1141
10.3425
10.5711
10.8001
11.0298
11.2604
11.492
11.7248
11.959
12.1946
12.4317
12.6695
12.9061
13.1355
13.3436
10.116
10.3479
10.5802
10.8129
11.0463
11.2805
11.5158
11.7522
11.9901
12.2294
12.4702
12.7122
12.9541
13.1903
13.3975
10.1177
10.3532
10.589
10.8253
11.0622
11.2999
11.5387
11.7787
12.0201
12.263
12.5079
12.755
13.0058
13.2652
13.5557
10.1194
10.3583
10.5975
10.8371
11.0774
11.3186
11.5607
11.8041
12.0489
12.2953
12.5438
12.7952
13.0516
13.3184
13.609
10.121
10.3632
10.6056
10.8485
11.0921
11.3365
11.5819
11.8285
12.0765
12.3261
12.5777
12.8318
13.09
13.355
13.6316
10.1226
10.3679
10.6134
10.8595
11.1061
11.3537
11.6022
11.8519
12.103
12.3555
12.6097
12.8657
13.1235
13.3833
13.645
10.1241
10.3723
10.6209
10.8699
11.1196
11.3701
11.6216
11.8743
12.1283
12.3837
12.6404
12.8981
13.1556
13.4103
13.6577
10.1255
10.3766
10.628
10.8799
11.1324
11.3858
11.6402
11.8958
12.1527
12.4109
12.6704
12.9306
13.1895
13.4424
13.6772
10.1269
10.3807
10.6348
10.8893
11.1446
11.4007
11.6579
11.9163
12.176
12.4372
12.6999
12.9637
13.2276
13.4869
13.7219
10.1281
10.3845
10.6412
10.8983
11.1562
11.4149
11.6747
11.9358
12.1983
12.4624
12.7285
12.9969
13.2687
13.5482
13.854
10.1293
10.3881
10.6472
10.9068
11.1671
11.4283
11.6906
11.9542
12.2193
12.4862
12.7554
13.0275
13.3045
13.591
13.8981
10.1305
10.3915
10.6529
10.9148
11.1774
11.4409
11.7055
11.9715
12.2391
12.5084
12.7801
13.0547
13.3336
13.6194
13.9162
10.1315
10.3947
10.6582
10.9222
11.187
11.4527
11.7195
11.9877
12.2575
12.529
12.8027
13.0788
13.3578
13.6402
13.9262
10.1325
10.3977
10.6632
10.9292
11.1959
11.4636
11.7325
12.0028
12.2746
12.5481
12.8235
13.1008
13.3795
13.6584
13.9346
10.1334
10.4004
10.6677
10.9356
11.2042
11.4738
11.7445
12.0167
12.2904
12.5658
12.843
13.1217
13.4011
13.6782
13.9463
10.1343
10.4029
10.6719
10.9414
11.2117
11.483
11.7555
12.0294
12.3049
12.5822
12.8613
13.1422
13.4241
13.7044
13.9717
10.135
10.4052
10.6756
10.9467
11.2185
11.4914
11.7655
12.041
12.3182
12.5973
12.8784
13.1618
13.4481
13.7394
14.0458
10.1357
10.4072
10.679
10.9514
11.2246
11.4989
11.7744
12.0514
12.3301
12.6108
12.8938
13.1794
13.4686
13.7637
14.0706
10.1363
10.4089
10.6819
10.9555
11.2299
11.5054
11.7822
12.0605
12.3406
12.6228
12.9072
13.1943
13.4848
13.7797
14.0809
10.1368
10.4104
10.6844
10.959
11.2345
11.511
11.7889
12.0684
12.3497
12.633
12.9187
13.2069
13.4978
13.7914
14.0868
10.1372
10.4116
10.6865
10.9619
11.2382
11.5157
11.7945
12.0749
12.3572
12.6416
12.9283
13.2175
13.509
13.8017
14.0926
10.1375
10.4126
10.6881
10.9642
11.2412
11.5193
11.7989
12.0801
12.3632
12.6485
12.9362
13.2265
13.5192
13.8131
14.1033
10.1377
10.4133
10.6893
10.9659
11.2434
11.522
11.8021
12.0839
12.3676
12.6536
12.9423
13.2337
13.5284
13.827
14.1332
10.1379
10.4137
10.69
10.9669
11.2447
11.5236
11.804
12.0862
12.3704
12.6569
12.9462
13.2386
13.5347
13.8354
14.1428
10.1379
10.4139
10.6902
10.9672
11.2451
11.5242
11.8048
12.0871
12.3715
12.6583
12.9479
13.2409
13.5377
13.8392
14.1458
10.1379
10.4137
10.69
10.9669
11.2447
11.5237
11.8042
12.0865
12.3708
12.6576
12.9473
13.2404
13.5375
13.8393
14.1461
10.1377
10.4133
10.6893
10.9659
11.2435
11.5222
11.8024
12.0843
12.3684
12.6548
12.9442
13.2369
13.5338
13.8359
14.1442
10.1375
10.4126
10.6882
10.9643
11.2414
11.5196
11.7993
12.0807
12.3641
12.65
12.9387
13.2306
13.5265
13.8281
14.1387
10.1372
10.4117
10.6865
10.962
11.2384
11.516
11.7949
12.0756
12.3582
12.6432
12.9308
13.2213
13.5152
13.8138
14.1233
10.1368
10.4104
10.6845
10.9591
11.2346
11.5113
11.7893
12.069
12.3506
12.6345
12.9208
13.2096
13.5005
13.7919
14.076
10.1363
10.409
10.682
10.9556
11.2301
11.5056
11.7825
12.061
12.3414
12.624
12.9089
13.1963
13.4855
13.7749
14.0595
10.1357
10.4072
10.6791
10.9515
11.2247
11.499
11.7745
12.0517
12.3307
12.6118
12.8954
13.1816
13.4703
13.761
14.0516
10.135
10.4052
10.6757
10.9467
11.2186
11.4914
11.7654
12.041
12.3184
12.5979
12.8799
13.165
13.4538
13.7471
14.0452
10.1343
10.403
10.672
10.9415
11.2117
11.4829
11.7552
12.029
12.3045
12.5821
12.8622
13.1457
13.434
13.7297
14.0366
10.1335
10.4005
10.6679
10.9357
11.2042
11.4735
11.744
12.0158
12.2892
12.5645
12.8421
13.1231
13.409
13.7046
14.0201
10.1326
10.3979
10.6634
10.9294
11.196
11.4634
11.7318
12.0014
12.2724
12.5451
12.8197
13.0968
13.3773
13.6654
13.9787
10.1316
10.395
10.6586
10.9226
11.1872
11.4525
11.7187
11.986
12.2545
12.5243
12.7956
13.0679
13.3404
13.6085
13.8536
10.1306
10.392
10.6535
10.9154
11.1779
11.4409
11.7048
11.9697
12.2356
12.5026
12.7706
13.039
13.3062
13.5675
13.8116
10.1296
10.3888
10.6482
10.9079
11.168
11.4288
11.6903
11.9526
12.2158
12.48
12.7451
13.0109
13.2761
13.5385
13.7936
10.1285
10.3854
10.6426
10.9
11.1578
11.4161
11.6751
11.9348
12.1953
12.4567
12.7193
12.983
13.248
13.5143
13.7821
10.1273
10.3819
10.6367
10.8918
11.1472
11.403
11.6593
11.9163
12.174
12.4327
12.6925
12.9541
13.2187
13.4892
13.77
10.1261
10.3784
10.6307
10.8833
11.1362
11.3894
11.6431
11.8973
12.1521
12.4077
12.6644
12.923
13.1854
13.4567
13.7496
10.1249
10.3747
10.6246
10.8747
11.1249
11.3755
11.6265
11.8778
12.1296
12.3819
12.635
12.8892
13.1457
13.4093
13.701
10.1236
10.3709
10.6183
10.8658
11.1135
11.3614
11.6095
11.8579
12.1066
12.3556
12.6047
12.8536
13.101
13.3422
13.5557
10.1224
10.3671
10.6119
10.8568
11.1018
11.347
11.5923
11.8378
12.0834
12.329
12.5745
12.819
13.0607
13.2942
13.5069
10.1211
10.3632
10.6054
10.8477
11.09
11.3325
11.575
11.8175
12.0601
12.3026
12.5448
12.7863
13.0258
13.2606
13.4861
10.1198
10.3593
10.5989
10.8385
11.0782
11.3178
11.5575
11.7972
12.0368
12.2763
12.5157
12.7549
12.9942
13.2335
13.4731
10.1185
10.3554
10.5923
10.8293
11.0662
11.3032
11.5401
11.7768
12.0135
12.25
12.4865
12.7235
12.9623
13.2061
13.4599
10.1171
10.3514
10.5857
10.82
11.0543
11.2885
11.5226
11.7566
11.9902
12.2236
12.4569
12.6907
12.927
13.1716
13.4381
10.1158
10.3475
10.5791
10.8108
11.0424
11.2739
11.5053
11.7364
11.9671
12.1973
12.4269
12.656
12.8859
13.1216
13.3863
10.1145
10.3435
10.5725
10.8015
11.0305
11.2594
11.4881
11.7164
11.9443
12.1714
12.3971
12.6208
12.8407
13.0516
13.2309
10.1132
10.3395
10.5659
10.7923
11.0186
11.2449
11.471
11.6968
11.922
12.1462
12.3687
12.5881
12.8016
13.0033
13.1797
10.1118
10.3355
10.5593
10.783
11.0068
11.2305
11.4542
11.6775
11.9004
12.1223
12.3424
12.5593
12.7707
12.9725
13.1595
10.1105
10.3315
10.5526
10.7737
10.9949
11.2162
11.4374
11.6586
11.8794
12.0995
12.3182
12.5343
12.7463
12.9519
13.1495
10.1091
10.3275
10.5458
10.7643
10.983
11.2018
11.4208
11.6398
11.8589
12.0776
12.2957
12.5122
12.7263
12.9368
13.1434
10.1078
10.3233
10.539
10.7548
10.9709
11.1873
11.404
11.621
11.8385
12.0562
12.2741
12.4917
12.7087
12.9244
13.1388
10.1064
10.3192
10.5321
10.7452
10.9586
11.1725
11.3869
11.6019
11.8178
12.0347
12.2526
12.4717
12.6918
12.9129
13.1346
10.1049
10.3149
10.5249
10.7353
10.946
11.1573
11.3692
11.5822
11.7964
12.0123
12.2302
12.4508
12.6743
12.901
13.1303
10.1035
10.3105
10.5176
10.7251
10.933
11.1415
11.3509
11.5616
11.7739
11.9884
12.206
12.4277
12.6544
12.8871
13.1252
10.102
10.306
10.5101
10.7146
10.9195
11.1251
11.3317
11.5397
11.7497
11.9624
12.179
12.401
12.6304
12.8692
13.1181
10.1004
10.3013
10.5024
10.7037
10.9055
11.108
11.3115
11.5165
11.7235
11.9336
12.1481
12.3692
12.5998
12.8444
13.1069
10.0988
10.2965
10.4944
10.6925
10.891
11.0902
11.2903
11.4917
11.6952
11.9016
12.1126
12.3305
12.5596
12.807
13.0852
10.0972
10.2917
10.4862
10.681
10.8761
11.0717
11.268
11.4655
11.6647
11.8665
12.0722
12.2842
12.5064
12.748
13.034
13.0717
11.8081
10.7442
9.76945
8.84417
7.95026
7.07773
6.22042
5.37423
4.53627
3.70441
2.87706
2.05291
1.23092
0.410172
13.2977
12.0652
10.9726
9.96528
9.01146
8.09308
7.19933
6.3233
5.46029
4.60698
3.7609
2.92017
2.08329
1.24898
0.416164
13.3918
12.2252
11.1416
10.1239
9.15405
8.21873
7.30858
6.41708
5.53957
4.67262
3.81365
2.9606
2.11185
1.266
0.421816
13.439
12.3276
11.2648
10.2491
9.27262
8.32685
7.40483
6.5011
5.61147
4.7327
3.86224
2.99804
2.13839
1.28184
0.427083
13.4666
12.3961
11.3551
10.3471
9.36978
8.41842
7.48831
6.57527
5.67579
4.78697
3.90646
3.03229
2.16277
1.29642
0.431938
13.4847
12.4441
11.4223
10.4238
9.44881
8.49516
7.5599
6.63999
5.73265
4.83544
3.94626
3.06329
2.18492
1.30971
0.436367
13.4973
12.479
11.4732
10.4841
9.51296
8.55908
7.62076
6.69591
5.78242
4.8783
3.98173
3.09107
2.20485
1.3217
0.440368
13.5065
12.5051
11.5124
10.5318
9.56505
8.61214
7.67221
6.7439
5.82565
4.91588
4.01306
3.11575
2.22263
1.33243
0.443951
13.5135
12.5251
11.543
10.5699
9.60745
8.65612
7.71554
6.78486
5.86295
4.94859
4.04052
3.13751
2.23836
1.34194
0.447134
13.5189
12.5408
11.5672
10.6005
9.64207
8.69257
7.75193
6.81966
5.89497
4.9769
4.06445
3.15656
2.25219
1.35032
0.449942
13.5232
12.5532
11.5866
10.6252
9.67043
8.7228
7.78246
6.84916
5.92234
5.00128
4.08518
3.17314
2.26427
1.35766
0.452403
13.5266
12.5631
11.6022
10.6454
9.69374
8.74789
7.80805
6.87409
5.94565
5.02219
4.10305
3.1875
2.27476
1.36405
0.454547
13.5293
12.5711
11.6149
10.6619
9.71296
8.76875
7.82949
6.89514
5.96547
5.04006
4.1184
3.19988
2.28383
1.36958
0.456407
13.5316
12.5776
11.6252
10.6754
9.72885
8.78612
7.84746
6.91289
5.98228
5.0553
4.13154
3.21051
2.29165
1.37436
0.458012
13.5334
12.5829
11.6337
10.6865
9.74202
8.80059
7.86252
6.92785
5.99651
5.06826
4.14277
3.21962
2.29836
1.37846
0.459394
13.5349
12.5873
11.6407
10.6958
9.75296
8.81267
7.87514
6.94046
6.00855
5.07926
4.15233
3.2274
2.3041
1.38198
0.460579
13.5361
12.5909
11.6465
10.7034
9.76208
8.82277
7.88574
6.95107
6.01873
5.0886
4.16046
3.23404
2.309
1.38499
0.461593
13.5371
12.5939
11.6514
10.7098
9.76968
8.83122
7.89464
6.96002
6.02734
5.09651
4.16737
3.23969
2.31319
1.38756
0.462459
13.538
12.5964
11.6554
10.7151
9.77604
8.83831
7.90213
6.96756
6.03461
5.10321
4.17323
3.24449
2.31675
1.38975
0.463198
13.5387
12.5985
11.6587
10.7196
9.78137
8.84427
7.90843
6.97392
6.04076
5.10889
4.17821
3.24857
2.31978
1.39161
0.463827
13.5393
12.6003
11.6615
10.7233
9.78585
8.84928
7.91374
6.9793
6.04597
5.11371
4.18244
3.25205
2.32236
1.3932
0.464364
13.5398
12.6017
11.6639
10.7265
9.78962
8.85351
7.91823
6.98385
6.05038
5.1178
4.18604
3.255
2.32456
1.39455
0.464821
13.5402
12.603
11.6659
10.7291
9.79282
8.85709
7.92204
6.98772
6.05414
5.12128
4.1891
3.25752
2.32643
1.39571
0.465212
13.5405
12.604
11.6676
10.7314
9.79553
8.86014
7.92528
6.99101
6.05734
5.12426
4.19173
3.25968
2.32804
1.3967
0.465546
13.5408
12.6049
11.669
10.7333
9.79785
8.86274
7.92806
6.99384
6.06009
5.12681
4.19398
3.26154
2.32942
1.39755
0.465834
13.5411
12.6057
11.6703
10.735
9.79985
8.865
7.93046
6.99628
6.06247
5.12902
4.19593
3.26314
2.33062
1.39829
0.466084
13.5413
12.6064
11.6714
10.7364
9.8016
8.86696
7.93255
6.99841
6.06454
5.13095
4.19763
3.26455
2.33167
1.39894
0.466302
13.5415
12.607
11.6723
10.7377
9.80314
8.8687
7.93441
7.00029
6.06637
5.13266
4.19913
3.26579
2.33259
1.39951
0.466494
13.5417
12.6075
11.6732
10.7389
9.80454
8.87026
7.93607
7.00199
6.06802
5.13419
4.20048
3.2669
2.33342
1.40002
0.466667
13.5419
12.608
11.674
10.7399
9.80583
8.87171
7.93761
7.00355
6.06954
5.13559
4.20172
3.26792
2.33418
1.40048
0.466825
13.542
12.6085
11.6748
10.7409
9.80705
8.87307
7.93906
7.00501
6.07096
5.13691
4.20288
3.26887
2.33488
1.40092
0.466972
13.5422
12.6089
11.6755
10.7419
9.80824
8.87441
7.94047
7.00644
6.07233
5.13818
4.20399
3.26978
2.33556
1.40134
0.467112
13.5424
12.6094
11.6763
10.743
9.80945
8.87575
7.94188
7.00785
6.0737
5.13943
4.20508
3.27067
2.33622
1.40174
0.467249
13.5425
12.6099
11.6771
10.744
9.81071
8.87714
7.94334
7.00931
6.07509
5.1407
4.20619
3.27157
2.33689
1.40215
0.467387
13.5427
12.6105
11.678
10.7452
9.81208
8.87864
7.94489
7.01085
6.07654
5.14203
4.20733
3.2725
2.33757
1.40257
0.467527
13.5429
12.6111
11.679
10.7465
9.8136
8.88029
7.94658
7.01251
6.07811