/*--------------------------------*- C++ -*----------------------------------*\
| =========                 |                                                 |
| \\      /  F ield         | OpenFOAM: The Open Source CFD Toolbox           |
|  \\    /   O peration     | Version:  5.x                                   |
|   \\  /    A nd           | Web:      www.OpenFOAM.org                      |
|    \\/     M anipulation  |                                                 |
\*---------------------------------------------------------------------------*/
FoamFile
{
    version     2.0;
    format      ascii;
    class       volScalarField;
    location    "6.8";
    object      T;
}
// * * * * * * * * * * * * * * * * * * * * * * * * * * * * * * * * * * * * * //

dimensions      [0 0 0 1 0 0 0];

internalField   nonuniform List<scalar> 
6300
(
13.206
19.6088
25.9837
32.312
38.5751
44.7541
50.8301
56.7842
62.5977
68.2522
73.7301
79.0148
84.0913
88.9466
93.5701
13.2152
19.6362
26.0295
32.3763
38.658
44.8556
50.9502
56.9227
62.7543
68.4262
73.9204
79.2199
84.3092
89.1747
93.8056
13.2334
19.691
26.121
32.5048
38.8236
45.0585
51.1905
57.2001
63.0681
68.7752
74.3026
79.6322
84.7476
89.634
94.2797
13.2607
19.7731
26.258
32.6971
39.0717
45.3629
51.5512
57.6171
63.5405
69.3013
74.8796
80.2557
85.4115
90.3306
94.9994
13.297
19.8821
26.4401
32.953
39.402
45.7684
52.0326
58.1744
64.1731
70.0074
75.6557
81.0964
86.3088
91.2737
95.9753
13.3421
20.0176
26.6667
33.2715
39.8138
46.2746
52.6344
58.8726
64.9677
70.8969
76.6365
82.1623
87.45
92.4767
97.2226
13.3959
20.1792
26.9369
33.6516
40.3056
46.8802
53.3558
59.7118
65.9256
71.9732
77.8283
83.4631
88.8487
93.9567
98.7615
13.458
20.3659
27.2492
34.0915
40.8754
47.583
54.1951
60.6908
67.0474
73.2391
79.2373
85.0098
90.5215
95.7361
100.619
13.5281
20.5765
27.602
34.5886
41.5202
48.3797
55.1487
61.8069
68.3314
74.6958
80.8689
86.8139
92.4878
97.8431
102.832
13.6056
20.8098
27.9926
35.1396
42.2358
49.2653
56.2111
63.0543
69.7729
76.3408
82.7255
88.8856
94.7692
100.313
105.447
13.6901
21.0639
28.4184
35.7404
43.0166
50.2328
57.3741
64.4238
71.3625
78.1662
84.8032
91.2303
97.3865
103.189
108.532
13.7809
21.3369
28.8758
36.3859
43.8558
51.2734
58.6266
65.902
73.0845
80.1551
87.0877
93.8422
100.354
106.519
112.179
13.8772
21.6266
29.361
37.0706
44.7457
52.3768
59.9547
67.4706
74.9154
82.2789
89.5467
96.6929
103.665
110.35
116.524
13.9783
21.9307
29.8702
37.7886
45.6781
53.5314
61.3427
69.1077
76.8248
84.4953
92.1237
99.7143
107.258
114.688
121.757
14.0836
22.2471
30.3997
38.5344
46.6449
54.7261
62.7746
70.7902
78.7778
86.7505
94.7349
102.779
110.96
119.382
128.064
97.5892
101.074
104.39
107.537
110.519
113.339
116.004
118.52
120.895
123.138
125.257
127.263
129.166
130.976
132.702
134.355
135.944
137.479
138.969
140.422
141.847
143.252
144.644
146.03
147.415
148.804
150.202
151.613
153.038
154.479
155.937
157.411
158.902
160.407
161.925
163.452
164.987
166.527
168.067
169.605
171.136
172.657
174.162
175.647
177.109
178.542
179.942
181.305
182.628
183.907
185.139
186.321
187.45
188.523
189.536
190.486
191.369
192.181
192.919
193.578
194.154
194.642
195.038
195.337
195.533
195.62
195.593
195.444
195.166
194.75
194.187
193.468
192.582
191.519
190.266
188.812
187.145
185.252
183.122
180.74
178.096
175.177
171.972
168.47
164.663
160.543
156.104
151.345
146.264
140.864
97.8282
101.314
104.628
107.771
110.747
113.559
116.214
118.718
121.081
123.31
125.415
127.407
129.296
131.091
132.802
134.441
136.017
137.538
139.015
140.457
141.871
143.265
144.648
146.025
147.402
148.786
150.179
151.586
153.008
154.448
155.906
157.382
158.875
160.382
161.903
163.435
164.975
166.519
168.065
169.608
171.145
172.672
174.183
175.675
177.143
178.582
179.988
181.356
182.684
183.968
185.204
186.391
187.524
188.602
189.62
190.575
191.463
192.282
193.026
193.691
194.273
194.768
195.171
195.477
195.681
195.778
195.761
195.623
195.357
194.954
194.406
193.701
192.831
191.784
190.548
189.112
187.463
185.588
183.476
181.113
178.486
175.583
172.393
168.904
165.107
160.995
156.561
151.802
146.718
141.311
98.3096
101.797
105.108
108.243
111.205
114.001
116.635
119.116
121.453
123.655
125.732
127.695
129.554
131.32
133.002
134.613
136.161
137.656
139.108
140.525
141.916
143.29
144.653
146.013
147.376
148.746
150.13
151.529
152.947
154.385
155.844
157.322
158.819
160.333
161.86
163.4
164.948
166.502
168.058
169.613
171.162
172.701
174.226
175.731
177.212
178.663
180.08
181.459
182.796
184.089
185.334
186.529
187.672
188.758
189.786
190.752
191.652
192.482
193.238
193.915
194.51
195.019
195.436
195.757
195.978
196.092
196.095
195.979
195.737
195.361
194.84
194.166
193.328
192.314
191.112
189.711
188.098
186.26
184.185
181.857
179.266
176.397
173.237
169.775
166.001
161.904
157.48
152.723
147.632
142.209
99.0408
102.531
105.836
108.958
111.901
114.669
117.272
119.717
122.014
124.174
126.208
128.127
129.941
131.662
133.302
134.869
136.375
137.831
139.244
140.625
141.982
143.323
144.658
145.991
147.331
148.683
150.051
151.44
152.851
154.287
155.746
157.229
158.733
160.256
161.794
163.346
164.907
166.475
168.047
169.619
171.187
172.745
174.29
175.816
177.316
178.786
180.22
181.614
182.966
184.272
185.529
186.737
187.892
188.992
190.035
191.017
191.934
192.781
193.555
194.251
194.865
195.393
195.831
196.174
196.419
196.561
196.593
196.51
196.304
195.967
195.49
194.861
194.07
193.106
191.956
190.609
189.051
187.268
185.248
182.977
180.439
177.622
174.51
171.091
167.351
163.281
158.872
154.118
149.018
143.572
100.033
103.526
106.824
109.927
112.841
115.573
118.131
120.526
122.768
124.871
126.845
128.703
130.457
132.118
133.698
135.208
136.658
138.059
139.421
140.753
142.063
143.362
144.656
145.955
147.264
148.59
149.938
151.312
152.714
154.147
155.609
157.099
158.613
160.149
161.703
163.271
164.85
166.437
168.03
169.624
171.217
172.803
174.376
175.929
177.457
178.952
180.41
181.825
183.194
184.516
185.789
187.012
188.184
189.302
190.365
191.368
192.308
193.179
193.977
194.698
195.337
195.89
196.354
196.726
197.002
197.179
197.25
197.211
197.053
196.769
196.349
195.781
195.055
194.158
193.079
191.803
190.319
188.612
186.668
184.472
182.009
179.264
176.22
172.861
169.172
165.14
160.754
156.007
150.895
145.418
101.302
104.8
108.087
111.165
114.04
116.722
119.22
121.549
123.72
125.747
127.644
129.424
131.1
132.685
134.19
135.627
137.007
138.34
139.636
140.905
142.157
143.4
144.644
145.897
147.166
148.458
149.78
151.136
152.528
153.959
155.426
156.926
158.456
160.011
161.584
163.173
164.774
166.384
168.002
169.625
171.25
172.871
174.482
176.074
177.638
179.167
180.653
182.093
183.484
184.824
186.114
187.354
188.545
189.685
190.773
191.803
192.773
193.675
194.504
195.255
195.924
196.508
197.003
197.409
197.722
197.94
198.059
198.074
197.977
197.76
197.412
196.923
196.279
195.467
194.476
193.291
191.9
190.289
188.442
186.345
183.98
181.33
178.376
175.099
171.48
167.503
163.152
158.416
153.29
147.774
102.87
106.374
109.646
112.69
115.513
118.129
120.55
122.793
124.872
126.805
128.606
130.29
131.87
133.362
134.775
136.123
137.417
138.667
139.883
141.076
142.256
143.432
144.613
145.809
147.028
148.278
149.568
150.901
152.282
153.711
155.188
156.706
158.258
159.838
161.437
163.051
164.677
166.313
167.96
169.617
171.282
172.948
174.608
176.251
177.863
179.435
180.957
182.426
183.839
185.197
186.503
187.76
188.971
190.137
191.254
192.32
193.327
194.268
195.135
195.923
196.627
197.244
197.774
198.217
198.571
198.837
199.011
199.09
199.066
198.931
198.673
198.279
197.735
197.028
196.144
195.07
193.792
192.298
190.571
188.596
186.355
183.827
180.991
177.823
174.299
170.398
166.097
161.382
156.242
150.676
104.766
108.278
111.529
114.527
117.282
119.811
122.133
124.266
126.232
128.047
129.731
131.298
132.764
134.144
135.449
136.692
137.884
139.036
140.158
141.261
142.355
143.45
144.555
145.681
146.839
148.037
149.285
150.591
151.959
153.39
154.883
156.428
158.015
159.63
161.263
162.906
164.558
166.221
167.898
169.592
171.304
173.028
174.753
176.463
178.14
179.767
181.332
182.831
184.265
185.637
186.955
188.226
189.457
190.649
191.803
192.913
193.969
194.96
195.874
196.705
197.447
198.1
198.664
199.144
199.54
199.857
200.093
200.246
200.309
200.272
200.123
199.844
199.42
198.836
198.078
197.133
195.989
194.633
193.051
191.225
189.136
186.762
184.077
181.052
177.657
173.86
169.634
164.953
159.802
154.176
107.031
110.552
113.774
116.708
119.371
121.787
123.98
125.977
127.802
129.475
131.017
132.446
133.778
135.027
136.206
137.328
138.403
139.442
140.456
141.454
142.447
143.446
144.461
145.503
146.585
147.718
148.914
150.185
151.538
152.976
154.496
156.085
157.724
159.391
161.066
162.742
164.417
166.101
167.803
169.535
171.301
173.099
174.912
176.717
178.481
180.179
181.795
183.325
184.772
186.148
187.467
188.743
189.989
191.21
192.409
193.577
194.698
195.754
196.727
197.606
198.388
199.074
199.67
200.182
200.618
200.985
201.287
201.523
201.687
201.769
201.75
201.61
201.328
200.887
200.274
199.477
198.485
197.288
195.874
194.224
192.321
190.138
187.645
184.807
181.585
177.936
173.818
169.196
164.041
158.342
109.719
113.251
116.43
119.273
121.811
124.077
126.106
127.932
129.584
131.086
132.461
133.729
134.906
136.006
137.042
138.026
138.968
139.879
140.77
141.648
142.526
143.413
144.321
145.262
146.25
147.301
148.43
149.654
150.987
152.437
154.002
155.664
157.388
159.132
160.863
162.57
164.259
165.947
167.66
169.421
171.247
173.139
175.079
177.021
178.911
180.704
182.377
183.929
185.374
186.734
188.034
189.297
190.547
191.798
193.052
194.3
195.514
196.659
197.706
198.64
199.46
200.171
200.787
201.322
201.789
202.201
202.568
202.895
203.178
203.403
203.546
203.573
203.458
203.18
202.727
202.092
201.269
200.251
199.027
197.583
195.901
193.952
191.703
189.11
186.122
182.68
178.724
174.199
169.056
163.272
112.91
116.454
119.564
122.275
124.637
126.703
128.521
130.133
131.574
132.874
134.055
135.138
136.138
137.07
137.946
138.777
139.572
140.341
141.094
141.838
142.585
143.344
144.126
144.947
145.82
146.765
147.804
148.961
150.262
151.726
153.362
155.146
157.017
158.884
160.689
162.419
164.093
165.751
167.44
169.206
171.089
173.106
175.233
177.394
179.473
181.392
183.124
184.68
186.092
187.4
188.644
189.865
191.097
192.371
193.698
195.064
196.422
197.698
198.84
199.832
200.679
201.399
202.015
202.551
203.03
203.474
203.9
204.322
204.744
205.149
205.498
205.734
205.814
205.716
205.435
204.971
204.327
203.501
202.489
201.279
199.856
198.192
196.25
193.977
191.304
188.156
184.445
180.084
174.988
169.104
116.723
120.276
123.268
125.774
127.885
129.68
131.226
132.574
133.764
134.827
135.786
136.659
137.463
138.21
138.91
139.573
140.208
140.822
141.423
142.02
142.62
143.234
143.873
144.549
145.281
146.089
147.002
148.055
149.293
150.764
152.502
154.499
156.644
158.718
160.617
162.341
163.946
165.505
167.101
168.817
170.733
172.907
175.333
177.877
180.26
182.344
184.118
185.632
186.954
188.15
189.281
190.407
191.582
192.86
194.278
195.834
197.441
198.921
200.185
201.225
202.073
202.768
203.35
203.855
204.316
204.764
205.23
205.744
206.326
206.969
207.607
208.113
208.417
208.509
208.398
208.103
207.639
207.013
206.227
205.277
204.15
202.826
201.267
199.41
197.166
194.434
191.098
187.02
182.048
176.056
121.365
124.901
127.666
129.839
131.581
133.011
134.21
135.237
136.132
136.924
137.633
138.276
138.865
139.411
139.922
140.405
140.867
141.315
141.754
142.19
142.63
143.083
143.558
144.066
144.624
145.255
145.99
146.877
147.985
149.408
151.264
153.632
156.366
158.798
160.789
162.429
163.856
165.2
166.583
168.134
169.997
172.336
175.258
178.584
181.47
183.734
185.479
186.854
187.989
188.984
189.92
190.87
191.912
193.139
194.653
196.523
198.634
200.446
201.844
202.889
203.678
204.291
204.788
205.216
205.613
206.02
206.483
207.058
207.812
208.787
209.899
210.772
211.321
211.584
211.619
211.473
211.176
210.746
210.194
209.52
208.722
207.792
206.703
205.394
203.724
201.576
198.813
195.235
190.568
184.499
127.248
130.631
132.909
134.519
135.723
136.667
137.438
138.086
138.644
139.133
139.569
139.963
140.323
140.656
140.967
141.261
141.542
141.815
142.082
142.348
142.617
142.895
143.188
143.505
143.858
144.265
144.755
145.376
146.214
147.423
149.284
152.231
156.518
159.508
161.459
162.816
163.878
164.831
165.819
166.992
168.57
170.919
174.595
179.916
183.568
185.867
187.364
188.414
189.219
189.897
190.531
191.192
191.968
192.997
194.509
196.858
200.249
202.563
204.001
204.915
205.53
205.974
206.319
206.612
206.889
207.189
207.566
208.109
208.973
210.4
212.526
213.891
214.63
214.98
215.093
215.051
214.896
214.65
214.327
213.934
213.479
212.977
212.451
211.891
210.961
209.597
207.693
205.013
201.101
195.181
135.443
137.946
139.11
139.78
140.231
140.568
140.836
141.058
141.248
141.414
141.561
141.694
141.815
141.927
142.031
142.13
142.224
142.316
142.405
142.495
142.585
142.679
142.778
142.886
143.007
143.149
143.324
143.557
143.902
144.495
145.731
148.895
158.53
161.709
162.977
163.623
164.05
164.408
164.78
165.259
166.027
167.586
171.554
183.646
187.606
189.147
189.885
190.319
190.622
190.868
191.096
191.341
191.654
192.151
193.151
195.686
203.408
205.931
206.906
207.363
207.621
207.791
207.917
208.022
208.124
208.239
208.402
208.688
209.317
210.998
216.243
217.903
218.489
218.711
218.784
218.783
218.738
218.659
218.554
218.429
218.294
218.188
218.239
218.914
218.816
218.388
217.683
216.556
214.52
210.05
134.579
127.285
119.571
111.462
102.986
94.1738
85.0579
75.6718
66.0493
56.2241
46.2291
36.0967
25.8583
15.5449
5.18659
135.013
127.699
119.962
111.825
103.319
94.4742
85.325
75.9054
66.2497
56.3918
46.3649
36.2013
25.9325
15.5891
5.20131
135.886
128.533
120.747
112.554
103.986
95.0758
85.8595
76.3725
66.6499
56.7265
46.6357
36.4098
26.0803
15.6773
5.23061
137.21
129.796
121.934
113.654
104.99
95.9804
86.6618
77.0722
67.2487
57.2266
47.0398
36.7208
26.3005
15.8086
5.27425
139
131.502
123.535
115.133
106.338
97.1903
87.7317
78.0032
68.0435
57.8892
47.5745
37.1318
26.5912
15.982
5.33183
141.284
133.673
125.565
117.003
108.034
98.7073
89.0685
79.1626
69.0306
58.7101
48.2357
37.6391
26.9498
16.1956
5.40277
144.093
136.335
128.044
119.275
110.085
100.532
90.6693
80.5453
70.2036
59.6829
49.0174
38.2379
27.3725
16.4471
5.48627
147.474
139.525
130.998
121.964
112.496
102.663
92.5279
82.1426
71.5532
60.7983
49.9113
38.9213
27.8541
16.7335
5.5813
151.487
143.288
134.453
125.081
115.267
105.094
94.6329
83.9413
73.0656
62.0436
50.9064
39.6804
28.3884
17.0508
5.68655
156.215
147.681
138.442
128.637
118.392
107.809
96.9651
85.921
74.7217
63.4018
51.9885
40.504
28.9672
17.3943
5.80042
161.772
152.774
142.991
132.629
121.852
110.78
99.4942
88.053
76.4958
64.8511
53.1399
41.3787
29.581
17.7583
5.92102
168.323
158.647
148.114
137.031
125.603
113.959
102.176
90.2979
78.3548
66.3645
54.3394
42.2884
30.2187
18.1362
6.04621
176.107
165.373
153.782
141.771
129.567
117.275
104.947
92.6049
80.2581
67.9104
55.5628
43.2154
30.8682
18.521
6.17366
185.465
172.948
159.863
146.702
133.612
120.623
107.729
94.9132
82.1595
69.4536
56.7839
44.1408
31.5166
18.9051
6.30093
196.735
181.084
166.015
151.555
137.551
123.873
110.429
97.1561
84.0102
70.9583
57.9763
45.0456
32.1513
19.2815
6.42563
14.1833
22.5468
30.9007
39.2391
47.5567
55.8494
64.1152
72.3557
80.5788
88.8039
97.0706
105.458
114.128
123.444
134.419
14.2761
22.8254
31.3663
39.8933
48.4018
56.8879
65.3498
73.7889
82.2127
90.6393
99.1075
107.695
116.555
125.981
136.5
14.3707
23.1096
31.8408
40.5595
49.2612
57.9418
66.5986
75.231
83.8423
92.4432
101.059
109.74
118.585
127.757
137.459
14.467
23.3986
32.3234
41.2367
50.134
59.0107
67.8626
76.6857
85.4768
94.2345
102.962
111.669
120.385
129.161
138.059
14.5647
23.6921
32.8133
41.9241
51.0198
60.0954
69.1449
78.1606
87.1322
96.0446
104.875
113.589
122.139
130.475
138.579
14.6637
23.9894
33.3098
42.6209
51.9184
61.1968
70.4488
79.6641
88.8264
97.9091
106.866
115.619
124.04
131.947
139.187
14.7638
24.2901
33.812
43.3263
52.829
62.3149
71.7764
81.2022
90.5737
99.858
108.996
117.877
126.293
133.878
140.127
14.8648
24.5934
34.3189
44.0388
53.7501
63.4483
73.127
82.7761
92.3789
101.906
111.302
120.454
129.12
136.734
142.018
14.9663
24.8984
34.8289
44.7564
54.6789
64.5936
74.4962
84.3799
94.2343
104.042
113.773
123.367
132.674
141.203
146.815
15.068
25.2041
35.3403
45.4764
55.6119
65.7458
75.8765
86.0019
96.1197
106.229
116.336
126.474
136.766
147.692
161.41
15.1696
25.5094
35.8511
46.1958
56.5446
66.8985
77.2586
87.627
98.0084
108.414
118.875
129.472
140.413
152.24
166.24
15.2706
25.813
36.359
46.9114
57.4725
68.0452
78.633
89.241
99.8774
110.558
121.317
132.226
143.442
155.274
168.209
15.3706
26.1135
36.862
47.6197
58.3909
69.1797
79.9915
90.8328
101.713
112.645
123.651
134.765
146.038
157.539
169.315
15.4691
26.4098
37.3577
48.3178
59.2955
70.2966
81.3274
92.3955
103.509
114.678
125.907
137.189
148.472
159.607
170.287
15.5659
26.7006
37.8441
49.0027
60.1826
71.391
82.6353
93.9239
105.265
116.666
128.123
139.608
151.006
161.988
171.714
15.6604
26.9848
38.3194
49.6715
61.0486
72.4586
83.9104
95.4134
106.977
118.611
130.318
142.082
153.826
165.235
174.918
15.7525
27.2613
38.7818
50.322
61.8902
73.4955
85.1478
96.858
108.638
120.503
132.469
144.567
156.873
169.677
184.315
15.8417
27.5294
39.2298
50.9518
62.7046
74.498
86.3429
98.2515
110.238
122.32
134.525
146.902
159.571
172.841
187.49
15.9279
27.7881
39.6621
51.5592
63.4892
75.4628
87.4916
99.5885
111.769
124.05
136.458
149.032
161.846
175.044
188.86
16.0107
28.0369
40.0775
52.1425
64.2421
76.3876
88.5908
100.865
113.226
125.689
138.272
150.991
163.851
176.813
189.749
16.0901
28.2752
40.4753
52.7006
64.9617
77.2703
89.6384
102.08
114.609
127.241
139.988
152.849
165.779
178.596
190.78
16.1659
28.5027
40.8547
53.2326
65.647
78.1097
90.633
103.231
115.918
128.709
141.62
154.656
167.783
180.814
192.864
16.238
28.7191
41.2155
53.738
66.2973
78.905
91.5737
104.317
117.151
130.092
143.163
156.395
169.848
183.708
198.802
16.3064
28.9243
41.5575
54.2166
66.9123
79.6561
92.4603
105.338
118.306
131.382
144.591
157.976
171.625
185.741
200.808
16.3711
29.1184
41.8808
54.6686
67.4924
80.3634
93.2934
106.295
119.383
132.575
145.893
159.371
173.073
187.109
201.649
16.4322
29.3015
42.1855
55.0944
68.0383
81.0278
94.0742
107.189
120.386
133.677
147.079
160.608
174.283
188.123
202.128
16.4897
29.4738
42.4722
55.4946
68.5508
81.6509
94.8051
108.024
121.319
134.7
148.173
161.738
175.375
189.017
202.535
16.5437
29.6357
42.7415
55.8702
69.0313
82.2343
95.4887
108.804
122.19
135.654
149.199
162.815
176.458
189.994
203.098
16.5944
29.7876
42.9939
56.2222
69.4812
82.78
96.1274
109.533
123.004
136.55
150.173
163.87
177.609
191.268
204.313
16.6419
29.9299
43.2304
56.5516
69.902
83.2898
96.7237
110.212
123.764
137.387
151.092
164.891
178.812
192.962
207.826
16.6864
30.0631
43.4515
56.8595
70.295
83.7658
97.2799
110.845
124.471
138.165
151.942
165.822
179.853
194.154
209.011
16.728
30.1875
43.6582
57.1472
70.662
84.2098
97.798
111.434
125.126
138.883
152.716
166.644
180.702
194.956
209.505
16.7668
30.3039
43.8513
57.4158
71.0044
84.6237
98.2805
111.982
125.734
139.544
153.42
167.372
181.41
195.547
209.784
16.8031
30.4125
44.0316
57.6666
71.3239
85.0097
98.73
112.491
126.298
140.156
154.069
168.036
182.046
196.064
210.017
16.837
30.514
44.1999
57.9006
71.622
85.3696
99.1489
112.965
126.823
140.727
154.676
168.666
182.671
196.62
210.333
16.8687
30.6087
44.3571
58.1191
71.9002
85.7055
99.5398
113.408
127.314
141.262
155.252
169.281
183.331
197.335
211.002
16.8982
30.6972
44.5039
58.3232
72.1601
86.0191
99.9049
113.822
127.773
141.764
155.796
169.877
184.019
198.278
212.921
16.9259
30.7799
44.6411
58.5139
72.4028
86.3122
100.246
114.208
128.203
142.233
156.304
170.426
184.621
198.951
213.574
16.9517
30.8572
44.7693
58.6921
72.6298
86.5863
100.565
114.57
128.604
142.671
156.774
170.919
185.123
199.417
213.854
16.9758
30.9294
44.8891
58.8587
72.8421
86.8427
100.864
114.909
128.98
143.08
157.209
171.369
185.559
199.779
214.023
16.9984
30.997
45.0012
59.0146
73.0407
87.0827
101.144
115.226
129.333
143.464
157.619
171.793
185.97
200.118
214.179
17.0195
31.0601
45.106
59.1604
73.2266
87.3076
101.406
115.525
129.666
143.829
158.013
172.21
186.397
200.513
214.415
17.0392
31.1191
45.2039
59.2967
73.4005
87.5181
101.652
115.805
129.98
144.176
158.394
172.63
186.867
201.052
214.947
17.0576
31.1743
45.2955
59.4241
73.5631
87.715
101.883
116.068
130.275
144.504
158.759
173.044
187.371
201.786
216.509
17.0748
31.2258
45.381
59.5431
73.715
87.8991
102.098
116.314
130.551
144.811
159.099
173.425
187.808
202.301
217.033
17.0908
31.2738
45.4607
59.6541
73.8566
88.0707
102.299
116.543
130.808
145.095
159.41
173.761
188.164
202.647
217.251
17.1058
31.3185
45.535
59.7576
73.9886
88.2304
102.485
116.756
131.045
145.356
159.692
174.058
188.461
202.903
217.377
17.1197
31.3602
45.6041
59.8538
74.1113
88.3789
102.659
116.953
131.264
145.595
159.948
174.325
188.724
203.132
217.498
17.1326
31.3989
45.6684
59.9432
74.2253
88.5168
102.82
117.136
131.467
145.816
160.184
174.572
188.978
203.384
217.707
17.1446
31.4348
45.728
60.0262
74.3311
88.6447
102.969
117.304
131.654
146.019
160.401
174.802
189.227
203.69
218.264
17.1557
31.4681
45.7833
60.1031
74.4292
88.7632
103.107
117.461
131.827
146.207
160.601
175.011
189.443
203.913
218.46
17.166
31.499
45.8345
60.1743
74.5199
88.8729
103.234
117.606
131.988
146.381
160.785
175.201
189.63
204.076
218.551
17.1755
31.5274
45.8817
60.24
74.6038
88.9744
103.353
117.74
132.137
146.544
160.958
175.378
189.798
204.213
218.613
17.1843
31.5536
45.9252
60.3006
74.6812
89.0682
103.463
117.865
132.277
146.697
161.122
175.549
189.967
204.354
218.68
17.1923
31.5776
45.9651
60.3562
74.7522
89.1544
103.564
117.981
132.407
146.841
161.281
175.722
190.151
204.533
218.793
17.1996
31.5994
46.0014
60.4069
74.8172
89.2334
103.657
118.088
132.528
146.978
161.436
175.9
190.361
204.79
219.063
17.2062
31.6192
46.0344
60.4529
74.8761
89.3051
103.741
118.186
132.64
147.104
161.582
176.074
190.589
205.151
219.873
17.2121
31.637
46.0639
60.4942
74.929
89.3696
103.817
118.273
132.74
147.218
161.713
176.229
190.779
205.393
220.138
17.2174
31.6528
46.0902
60.5308
74.9759
89.4267
103.884
118.351
132.827
147.317
161.824
176.354
190.92
205.539
220.238
17.222
31.6666
46.1131
60.5628
75.0169
89.4765
103.943
118.418
132.903
147.4
161.914
176.45
191.017
205.625
220.281
17.2259
31.6784
46.1328
60.5903
75.0521
89.5192
103.993
118.474
132.965
147.467
161.984
176.519
191.079
205.671
220.299
17.2292
31.6883
46.1492
60.6133
75.0815
89.5549
104.034
118.521
133.016
147.521
162.037
176.567
191.114
205.687
220.295
17.2319
31.6962
46.1625
60.6318
75.1053
89.5838
104.068
118.559
133.056
147.561
162.074
176.596
191.127
205.671
220.251
17.2338
31.7022
46.1725
60.6459
75.1235
89.6061
104.094
118.588
133.088
147.593
162.102
176.613
191.124
205.625
220.087
17.2351
31.7061
46.1792
60.6556
75.1363
89.622
104.113
118.61
133.111
147.616
162.122
176.626
191.122
205.599
220.04
17.2357
31.708
46.1825
60.6606
75.1434
89.6316
104.125
118.625
133.128
147.634
162.14
176.64
191.127
205.593
220.027
17.2356
31.7075
46.1821
60.6608
75.1447
89.6347
104.131
118.633
133.14
147.649
162.156
176.656
191.141
205.601
220.029
17.2345
31.7047
46.1778
60.6557
75.1397
89.6307
104.129
118.634
133.145
147.659
162.172
176.677
191.166
205.626
220.043
17.2326
31.699
46.169
60.6446
75.1276
89.619
104.119
118.628
133.145
147.666
162.188
176.704
191.205
205.675
220.08
17.2296
31.6902
46.1551
60.6268
75.1074
89.5983
104.1
118.614
133.137
147.668
162.202
176.736
191.26
205.76
220.184
17.2254
31.6778
46.1354
60.6012
75.0778
89.5671
104.071
118.588
133.119
147.662
162.213
176.768
191.326
205.892
220.513
17.2197
31.6612
46.1088
60.5663
75.037
89.5234
104.027
118.55
133.09
147.646
162.215
176.793
191.379
205.98
220.618
17.2123
31.6395
46.0741
60.5206
74.983
89.4648
103.968
118.495
133.045
147.616
162.204
176.806
191.417
206.033
220.659
17.203
31.6121
46.0299
60.462
74.9134
89.3882
103.89
118.42
132.98
147.568
162.18
176.808
191.444
206.073
220.684
17.1914
31.5778
45.9746
60.3883
74.8251
89.2902
103.788
118.322
132.892
147.499
162.138
176.799
191.468
206.119
220.715
17.1772
31.5357
45.9063
60.2969
74.7148
89.1665
103.658
118.193
132.775
147.403
162.074
176.779
191.498
206.194
220.788
17.1599
31.4844
45.8229
60.1848
74.5786
89.0125
103.494
118.028
132.621
147.272
161.982
176.742
191.539
206.334
221.002
17.139
31.4225
45.7222
60.0487
74.4122
88.8227
103.289
117.82
132.421
147.097
161.848
176.674
191.573
206.554
221.706
17.1142
31.3487
45.6016
59.885
74.2109
88.5911
103.037
117.558
132.165
146.863
161.657
176.55
191.543
206.647
221.904
17.0849
31.2614
45.4586
59.69
73.9696
88.3111
102.728
117.234
131.84
146.557
161.393
176.349
191.428
206.628
221.944
17.0505
31.1591
45.2904
59.4598
73.6829
87.9757
102.354
116.835
131.434
146.165
161.038
176.058
191.223
206.521
221.92
17.0107
31.0404
45.0947
59.1905
73.3455
87.5777
101.906
116.351
130.932
145.668
160.574
175.659
190.92
206.335
221.86
16.965
30.9037
44.8688
58.8785
72.9519
87.1097
101.374
115.769
130.318
145.049
159.981
175.132
190.501
206.066
221.768
16.913
30.748
44.6107
58.5203
72.4975
86.5649
100.748
115.074
129.575
144.283
159.231
174.447
189.94
205.693
221.636
16.8544
30.5725
44.3188
58.1134
71.978
85.937
100.018
114.254
128.682
143.346
158.29
173.562
189.193
205.18
221.451
16.7891
30.3766
43.9922
57.6561
71.3907
85.2213
99.178
113.297
127.622
142.208
157.116
172.421
188.191
204.464
221.181
16.7171
30.1604
43.6308
57.1481
70.7343
84.4151
98.2216
112.193
126.377
140.84
155.662
170.951
186.833
203.431
220.764
16.6388
29.9246
43.2357
56.5905
70.0099
83.5187
97.1476
110.936
124.935
139.217
153.878
169.062
184.971
201.879
220.046
16.5544
29.6705
42.809
55.9863
69.2211
82.536
95.9595
109.529
123.293
137.325
151.727
166.663
182.408
199.447
218.611
16.4647
29.4002
42.3542
55.3404
68.3743
81.4752
94.667
107.981
121.462
135.17
149.198
163.697
178.941
195.53
215.158
208.091
188.005
171.088
155.582
140.86
126.633
112.743
99.0928
85.6175
72.2712
59.0206
45.8401
32.7097
19.613
6.53555
211.68
192.091
174.717
158.695
143.52
128.904
114.677
100.73
86.987
73.3966
59.9197
46.5265
33.1933
19.9005
6.63095
213.175
194.633
177.403
161.216
145.787
130.903
116.415
102.222
88.2486
74.4414
60.7592
47.17
33.648
20.1713
6.72091
213.925
196.26
179.361
163.208
147.672
132.622
117.946
103.559
89.3926
75.3974
61.5326
47.7658
34.0704
20.4235
6.80475
214.364
197.349
180.796
164.766
149.217
134.079
119.274
104.739
90.416
76.261
62.2364
48.3109
34.4584
20.6557
6.88203
214.651
198.111
181.865
165.985
150.474
135.299
120.413
105.768
91.3207
77.0323
62.8697
48.8043
34.8109
20.8672
6.95252
214.851
198.666
182.674
166.943
151.494
136.316
121.381
106.658
92.1127
77.7143
63.434
49.2464
35.1281
21.058
7.0162
214.998
199.081
183.297
167.702
152.323
137.16
122.2
107.421
92.8005
78.3122
63.9326
49.6391
35.411
21.2286
7.07322
215.109
199.4
183.784
168.308
152.997
137.859
122.889
108.073
93.3939
78.8327
64.3696
49.9854
35.6614
21.38
7.12388
215.195
199.649
184.169
168.795
153.548
138.439
123.468
108.627
93.9033
79.2832
64.7504
50.2885
35.8815
21.5134
7.16856
215.263
199.846
184.477
169.188
153.999
138.92
123.953
109.096
94.3388
79.6711
65.0802
50.5523
36.0737
21.6302
7.20772
215.317
200.003
184.726
169.509
154.37
139.319
124.361
109.493
94.7097
80.0038
65.3646
50.7808
36.2407
21.7318
7.24184
215.361
200.131
184.927
169.771
154.676
139.651
124.702
109.827
95.025
80.2882
65.6088
50.9778
36.385
21.8199
7.27143
215.396
200.234
185.092
169.986
154.928
139.927
124.987
110.11
95.2924
80.5306
65.8179
51.147
36.5094
21.8959
7.29698
215.425
200.319
185.228
170.164
155.138
140.158
125.227
110.348
95.5189
80.7367
65.9965
51.292
36.6161
21.9612
7.31897
215.449
200.389
185.339
170.311
155.312
140.35
125.428
110.548
95.7105
80.9118
66.1486
51.4158
36.7075
22.0172
7.33782
215.469
200.446
185.431
170.432
155.457
140.51
125.597
110.717
95.8724
81.0603
66.2779
51.5213
36.7855
22.065
7.35395
215.485
200.494
185.508
170.534
155.578
140.645
125.738
110.859
96.0092
81.1861
66.3878
51.6111
36.852
22.1059
7.36773
215.498
200.534
185.572
170.618
155.679
140.757
125.857
110.979
96.1249
81.2927
66.4811
51.6875
36.9086
22.1407
7.37947
215.509
200.567
185.625
170.689
155.764
140.852
125.957
111.08
96.2226
81.383
66.5602
51.7524
36.9568
22.1703
7.38947
215.519
200.595
185.67
170.748
155.835
140.932
126.042
111.166
96.3053
81.4595
66.6274
51.8076
36.9978
22.1956
7.39799
215.527
200.618
185.707
170.798
155.895
140.999
126.113
111.238
96.3753
81.5244
66.6845
51.8545
37.0327
22.2171
7.40525
215.533
200.637
185.739
170.84
155.945
141.056
126.173
111.299
96.4348
81.5796
66.7331
51.8945
37.0624
22.2354
7.41144
215.539
200.654
185.765
170.876
155.988
141.104
126.224
111.352
96.4855
81.6266
66.7745
51.9286
37.0879
22.2511
7.41674
215.544
200.668
185.788
170.906
156.025
141.145
126.268
111.396
96.5289
81.667
66.8101
51.9579
37.1097
22.2645
7.42129
215.548
200.68
185.808
170.933
156.056
141.18
126.306
111.435
96.5663
81.7018
66.8408
51.9832
37.1285
22.2762
7.42522
215.551
200.691
185.825
170.955
156.084
141.211
126.339
111.468
96.5988
81.732
66.8675
52.0052
37.1449
22.2863
7.42864
215.555
200.7
185.84
170.975
156.108
141.238
126.368
111.497
96.6274
81.7586
66.891
52.0246
37.1594
22.2952
7.43165
215.557
200.708
185.853
170.993
156.129
141.262
126.393
111.523
96.653
81.7824
66.9119
52.0418
37.1723
22.3031
7.43434
215.56
200.716
185.865
171.009
156.149
141.284
126.417
111.547
96.6762
81.804
66.931
52.0575
37.184
22.3104
7.43678
215.562
200.723
185.877
171.025
156.167
141.305
126.439
111.57
96.6978
81.824
66.9486
52.0721
37.1948
22.317
7.43903
215.565
200.73
185.888
171.039
156.185
141.325
126.46
111.591
96.7185
81.8432
66.9655
52.086
37.2051
22.3234
7.44118
215.567
200.737
185.899
171.054
156.202
141.344
126.481
111.612
96.7388
81.862
66.982
52.0995
37.2151
22.3296
7.44326
215.569
200.744
185.91
171.069
156.22
141.364
126.502
111.633
96.7594
81.8809
66.9985
52.113
37.2252
22.3357
7.44534
215.572
200.752
185.923
171.085
156.24
141.386
126.524
111.656
96.7807
81.9004
67.0155
52.1269
37.2354
22.342
7.44747
215.575
200.76
185.936
171.103
156.261
141.409
126.548
111.679
96.8034
81.9212
67.0335
52.1415
37.2462
22.3486
7.44969
215.578
200.77