/*--------------------------------*- C++ -*----------------------------------*\
| =========                 |                                                 |
| \\      /  F ield         | OpenFOAM: The Open Source CFD Toolbox           |
|  \\    /   O peration     | Version:  5.x                                   |
|   \\  /    A nd           | Web:      www.OpenFOAM.org                      |
|    \\/     M anipulation  |                                                 |
\*---------------------------------------------------------------------------*/
FoamFile
{
    version     2.0;
    format      ascii;
    class       volScalarField;
    location    "5.9";
    object      gradTy;
}
// * * * * * * * * * * * * * * * * * * * * * * * * * * * * * * * * * * * * * //

dimensions      [0 -1 0 1 0 0 0];

internalField   nonuniform List<scalar> 
6300
(
1506.68
2518.58
3526.12
4526.36
5516.37
6493.16
7453.76
8395.17
9314.39
10208.5
11074.7
11910.2
12712.6
13479.9
14210.1
2.13684
6.41748
10.718
15.048
19.4113
23.8026
28.2051
32.5866
36.8962
41.0625
44.9926
48.5744
51.6833
54.1925
55.9874
3.55347
10.6734
17.8302
25.0426
32.32
39.6576
47.0308
54.3895
61.6515
68.6983
75.3724
81.4802
86.8022
91.1115
94.1996
4.95703
14.8916
24.8856
34.9708
45.167
55.475
65.8688
76.2862
86.619
96.7034
106.314
115.167
122.928
129.246
133.788
6.33984
19.0498
31.8484
44.7862
57.8999
71.2038
84.6797
98.2636
111.83
125.177
138.009
149.939
160.491
169.146
175.399
7.69189
23.1183
38.6703
54.4236
70.4396
86.7569
103.378
120.253
137.255
154.156
170.599
186.078
199.942
211.438
219.804
9.0009
27.06
45.2891
63.7953
82.6742
102.001
121.818
142.109
162.774
183.586
204.142
223.819
241.748
256.846
267.951
10.2523
30.8305
51.6286
72.791
94.4566
116.751
139.776
163.582
188.136
213.259
238.552
263.296
286.368
306.229
321.075
11.4297
34.3793
57.601
81.2798
105.605
130.765
156.945
184.299
212.916
242.749
273.496
304.427
334.182
360.608
380.856
12.5161
37.6542
63.1133
89.1185
115.911
143.753
172.93
203.74
236.468
271.311
308.237
346.716
385.306
421.145
449.699
13.496
40.6062
68.0764
96.1652
125.161
155.398
187.272
221.252
257.889
297.773
341.407
388.875
439.159
488.944
531.2
14.3572
43.1964
72.4174
102.3
133.164
165.399
199.495
236.094
276.048
320.469
370.722
428.197
493.488
564.245
630.856
15.0927
45.4027
76.0937
107.447
139.789
173.528
209.202
247.567
289.723
337.314
392.796
459.681
542.321
643.656
756.385
15.703
47.2257
79.1042
111.599
145.009
179.711
216.208
255.235
297.946
346.249
403.445
475.384
572.425
711.634
911.94
16.1961
48.6906
81.4952
114.828
148.931
184.089
220.669
259.205
300.56
346.273
399.328
465.956
560.321
718.472
1047.29
14844.5
15394.3
15916.9
16412.5
16881.6
17324.9
17743
18137.3
18508.9
18859.2
19189.5
19501.6
19796.8
20076.8
20343.2
20597.4
20841
21075.4
21302.1
21522.4
21737.5
21948.7
22157
22363.6
22569.2
22774.6
22980.6
23187.5
23395.9
23605.9
23817.7
24031.2
24246.3
24462.7
24680.3
24898.6
25117.2
25335.8
25553.8
25770.8
25986.1
26199.2
26409.5
26616.3
26819.1
27017.1
27209.8
27396.7
27577.2
27750.9
27917.4
28076.1
28226.8
28368.9
28502.1
28625.8
28739.4
28842.6
28934.6
29015
29083
29138
29179.4
29206.5
29218.4
29214.4
29193.5
29154.8
29097.1
29019.2
28919.9
28797.7
28651.1
28478.6
28278.5
28049
27788.5
27495.2
27167.1
26802.6
26399.8
25957
25472.5
24944.9
24372.8
23755.1
23091.2
22380.5
21623.1
20819.2
56.8979
57.1386
56.7872
55.8617
54.401
52.4604
50.1066
47.4119
44.4495
41.2893
37.9953
34.624
31.224
27.8357
24.4928
21.2232
18.0501
14.9938
12.0731
9.30618
6.71173
4.30956
2.12065
0.166714
-1.53088
-2.95285
-4.0842
-4.91682
-5.45173
-5.70063
-5.68594
-5.43897
-4.99624
-4.39447
-3.6656
-2.83303
-1.91038
-0.902929
0.188513
1.36252
2.6121
3.92143
5.26526
6.61138
7.92561
9.17794
10.3481
11.4293
12.429
13.3669
14.2712
15.1731
16.1021
17.0809
18.1233
19.2338
20.4091
21.6421
22.9259
24.2583
25.6445
27.0978
28.6397
30.2969
32.0989
34.0737
36.2454
38.6309
41.2383
44.067
47.1081
50.3467
53.7635
57.3368
61.0433
64.8576
68.7506
72.6875
76.6245
80.5069
84.2665
87.821
91.0751
93.9221
96.2497
97.946
98.9085
99.0532
98.3236
96.6977
95.7643
96.1723
95.5573
93.9526
91.4297
88.0891
84.0506
79.4428
74.3939
69.0248
63.4447
57.7487
52.0171
46.3164
40.7006
35.2139
29.8929
24.7693
19.8723
15.2309
10.8753
6.83821
3.15546
-0.135088
-2.99507
-5.38873
-7.28713
-8.67307
-9.54587
-9.92497
-9.85065
-9.38101
-8.58475
-7.53103
-6.27893
-4.86951
-3.32311
-1.64249
0.179115
2.14709
4.25501
6.4774
8.76825
11.066
13.304
15.4232
17.3843
19.1745
20.8092
22.3275
23.7848
25.2416
26.7534
28.3626
30.0928
31.9484
33.9184
35.9839
38.1269
40.3394
42.6279
45.0161
47.5431
50.2584
53.2166
56.4699
60.0624
64.0249
68.3716
73.0999
78.1923
83.6205
89.3497
95.3425
101.561
107.964
114.509
121.14
127.79
134.369
140.767
146.844
152.437
157.361
161.419
164.409
166.147
166.478
165.296
162.56
136.087
136.675
135.749
133.362
129.632
124.718
118.81
112.105
104.795
97.0603
89.0579
80.9221
72.7642
64.6737
56.7221
48.9661
41.452
34.2194
27.3049
20.7457
14.5819
8.85888
3.62794
-1.05421
-5.12783
-8.53468
-11.2248
-13.1648
-14.3475
-14.7987
-14.5811
-13.7898
-12.5404
-10.9498
-9.11533
-7.09985
-4.92587
-2.58187
-0.0380163
2.73308
5.73588
8.9375
12.264
15.6093
18.8558
21.8987
24.6691
27.146
29.3588
31.3782
33.3012
35.2325
37.2663
39.4718
41.8834
44.5
47.292
50.2154
53.2296
56.3121
59.4687
62.7357
66.1759
69.8709
73.9096
78.3777
83.3467
88.8654
94.9548
101.608
108.792
116.46
124.555
133.022
141.808
150.865
160.138
169.562
179.051
188.489
197.723
206.557
214.755
222.042
228.118
232.67
235.405
236.072
234.499
230.611
178.561
179.348
178.028
174.693
169.523
162.766
154.703
145.621
135.794
125.466
114.848
104.113
93.3997
82.8174
72.4487
62.3574
52.5937
43.1997
34.2147
25.6802
17.6433
10.1608
3.30022
-2.85932
-8.23024
-12.7221
-16.2516
-18.7564
-20.2114
-20.6446
-20.1466
-18.8675
-16.997
-14.7291
-12.2222
-9.56836
-6.78353
-3.81936
-0.592934
2.97456
6.91928
11.2063
15.7207
20.2831
24.6884
28.7544
32.3637
35.4852
38.1741
40.5546
42.7922
45.0619
47.5183
50.2701
53.3647
56.7847
60.4616
64.3016
68.2188
72.1631
76.1354
80.1902
84.4263
88.9722
93.968
99.5477
105.823
112.867
120.709
129.332
138.678
148.665
159.205
170.221
181.648
193.434
205.529
217.87
230.365
242.882
255.231
267.163
278.361
288.445
296.985
303.524
307.616
308.871
307.011
301.911
224.029
225.041
223.199
218.652
211.688
202.683
192.051
180.199
167.5
154.276
140.793
127.259
113.835
100.642
87.7651
75.267
63.1937
51.5822
40.4679
29.8904
19.8994
10.5603
1.95685
-5.80592
-12.604
-18.3006
-22.7591
-25.8644
-27.5515
-27.8363
-26.8419
-24.8018
-22.0307
-18.8577
-15.5458
-12.231
-8.90508
-5.44031
-1.64495
2.66663
7.60312
13.1408
19.1009
25.1753
31.0014
36.2597
40.7524
44.4386
47.4247
49.9281
52.228
54.6133
57.335
60.5649
64.3669
68.6892
73.3856
78.2656
83.158
87.9623
92.6719
97.3719
102.219
107.413
113.173
119.704
127.177
135.704
145.326
156.001
167.625
180.056
193.155
206.81
220.952
235.54
250.548
265.935
281.628
297.492
313.318
328.804
343.549
357.048
368.709
377.876
383.884
386.131
384.164
377.767
273.554
274.826
272.249
266.076
256.776
244.929
231.142
215.985
199.953
183.452
166.8
150.236
133.93
118.002
102.528
87.5576
73.122
59.2431
45.943
33.2513
21.2131
9.89678
-0.599954
-10.1442
-18.5661
-25.6637
-31.2167
-35.0164
-36.912
-36.8717
-35.0443
-31.7905
-27.6447
-23.1883
-18.8756
-14.912
-11.2289
-7.53977
-3.44282
1.4562
7.41841
14.4637
22.3126
30.4211
38.1278
44.8624
50.2976
54.3949
57.3651
59.5897
61.5356
63.6749
66.4145
70.0301
74.6137
80.0485
86.0384
92.2046
98.2169
103.89
109.215
114.334
119.502
125.032
131.258
138.494
147.002
156.957
168.413
181.292
195.398
210.474
226.289
242.685
259.598
277.026
295.002
313.545
332.626
352.14
371.875
391.493
410.508
428.277
444.002
456.756
465.549
469.438
467.675
459.872
328.564
330.139
326.46
317.991
305.519
289.957
272.199
253.026
233.078
212.844
192.683
172.843
153.486
134.711
116.57
99.0837
82.2545
66.0775
50.5496
35.6794
21.4967
8.06282
-4.51799
-16.0875
-26.424
-35.2391
-42.187
-46.898
-49.0477
-48.468
-45.2886
-40.0514
-33.6938
-27.3
-21.6908
-17.1772
-13.5497
-10.215
-6.38412
-1.27358
5.68579
14.6408
25.1616
36.2563
46.6645
55.3464
61.7797
65.9843
68.3889
69.6629
70.5748
71.8828
74.2429
78.1118
83.6449
90.6179
98.4469
106.374
113.773
120.329
126.06
131.235
136.271
141.658
147.896
155.46
164.752
176.054
189.458
204.823
221.776
239.833
258.588
277.82
297.501
317.725
338.64
360.377
382.999
406.465
430.596
455.043
479.255
502.443
523.565
541.33
554.267
560.875
559.875
550.532
391.092
393.003
387.552
375.656
358.697
338.135
315.278
291.173
266.605
242.125
218.099
194.75
172.202
150.508
129.67
109.665
90.4508
71.9809
54.2138
37.1232
20.7082
5.00759
-9.88448
-23.7978
-36.4638
-47.4937
-56.3683
-62.458
-65.1035
-63.7976
-58.4857
-49.9157
-39.7853
-30.2721
-22.919
-18.1568
-15.4398
-13.596
-11.1597
-6.65741
1.08769
12.5713
27.1923
43.0875
57.6945
69.0752
76.478
80.1725
81.0469
80.2636
79.0494
78.582
79.9048
83.8035
90.6086
99.9607
110.719
121.311
130.546
137.96
143.713
148.339
152.539
157.059
162.628
169.939
179.611
192.124
207.683
226.066
246.563
268.187
290.196
312.307
334.615
357.423
381.089
405.927
432.147
459.821
488.85
518.922
549.463
579.572
607.946
632.84
652.084
663.252
664.071
653.057
464.248
466.445
457.905
440.593
417.041
389.6
360.129
329.961
299.978
270.727
242.512
215.479
189.667
165.047
141.552
119.089
97.5569
76.8547
56.8878
37.5786
18.8769
0.7745
-16.673
-33.3164
-48.8708
-62.8624
-74.5703
-82.9873
-86.8587
-84.9055
-76.3839
-62.0371
-44.9984
-30.1448
-20.4281
-16.2029
-16.0844
-17.8425
-18.923
-16.7244
-8.90792
5.96925
27.3731
51.7579
73.3534
88.5151
96.4985
98.4039
96.0737
91.4662
86.4295
82.6839
81.8375
85.2899
93.8844
107.258
123.209
138.18
149.92
157.962
162.964
166.031
168.325
170.925
174.828
180.99
190.355
203.781
221.811
244.239
269.696
295.953
321.627
346.478
370.976
395.85
421.814
449.447
479.161
511.187
545.559
582.08
620.249
659.149
697.292
732.44
761.477
780.482
785.253
772.554
553.263
555.32
540.857
514.484
480.957
443.961
405.965
368.465
332.285
297.822
265.213
234.441
205.405
177.961
151.939
127.166
103.465
80.667
58.6132
37.159
16.183
-4.39993
-24.6168
-44.3994
-63.5238
-81.5146
-97.505
-110.056
-116.995
-115.465
-102.664
-78.0292
-47.0603
-22.6169
-10.0265
-8.33294
-14.0244
-23.0616
-31.4049
-34.8772
-29.0675
-10.0284
23.2628
64.4453
98.2763
118.29
125.269
122.732
114.378
103.285
91.9497
82.6101
77.5791
79.371
90.2771
110.841
137.109
159.696
174.616
182.336
184.995
184.83
183.663
182.91
183.768
187.424
195.242
208.801
229.597
258.039
291.668
324.548
354.23
381.14
406.779
432.691
460.115
489.951
522.825
559.149
599.147
642.839
689.954
739.786
790.918
840.804
885.281
918.174
931.551
917.762
668.161
667.948
640.925
598.644
549.838
499.737
451.064
405.047
362.102
322.236
285.257
250.893
218.847
188.82
160.527
133.696
108.071
83.4092
59.4775
36.054
12.9276
-10.0957
-33.179
-56.4224
-79.8001
-103.037
-125.381
-145.195
-159.313
-162.242
-145.975
-103.132
-39.7175
1.98644
16.0731
10.1781
-7.1397
-29.2728
-50.8931
-66.3879
-68.2694
-46.5417
7.79476
87.7229
143.099
166.834
167.744
155.437
136.628
115.456
94.599
76.3358
63.4998
60.3316
72.7655
106.214
156.31
192.253
209.679
213.995
211.094
205.071
198.402
192.576
188.676
187.865
191.861
203.399
226.368
264.364
314.712
357.738
390.813
417.622
442.176
467.34
494.926
526.062
561.502
601.798
647.396
698.64
755.722
818.523
886.305
956.923
1025.73
1083.93
1116.93
1105.48
832.155
819.145
762.935
692.166
620.553
553.428
492.31
437.177
387.462
342.467
301.512
263.988
229.362
197.167
166.994
138.477
111.28
85.0889
59.6006
34.5131
9.51738
-15.7107
-41.5149
-68.2549
-96.2802
-125.847
-156.9
-188.535
-217.74
-236.66
-227.555
-157.857
-1.11532
66.3534
70.94
45.1322
6.67437
-36.2264
-79.2048
-117.504
-141.471
-130.016
-44.5318
146.345
233.473
248.233
229.239
197.493
162.268
127.162
93.5022
62.2365
35.489
18.8157
24.9831
77.6005
195.88
251.457
263.602
256.033
241.669
226.226
211.911
199.452
189.117
181.366
177.602
181.516
201.483
252.881
348.279
405.231
436.393
457.323
476.665
498.472
524.589
555.943
593.147
636.775
687.47
745.993
813.207
890.039
977.558
1075.59
1181.4
1285.93
1366.22
1374.57
1114.03
1032.5
905.867
786.864
684.768
598.435
524.911
461.481
406.006
356.863
312.812
272.899
236.364
202.593
171.071
141.351
113.036
85.7552
59.1464
32.8414
6.44428
-20.4919
-48.4976
-78.2298
-110.532
-146.506
-187.57
-235.363
-290.96
-351.418
-396.374
-337.911
166.043
221.271
169.575
98.3035
26.8894
-43.0627
-114.246
-189.251
-265.669
-320.08
-248.617
354.363
428.049
378.231
309.091
244.554
187.734
136.783
88.9593
41.633
-7.02519
-55.5868
-89.6835
-45.5643
325.734
373.199
345.906
307.849
273.79
245.75
222.743
203.263
185.833
169.122
152.281
136.514
131.329
178.029
437.195
489.846
496.691
499.293
507.583
523.378
546.691
577.373
615.516
661.544
716.241
780.794
856.805
946.127
1053.63
1183.02
1338.85
1522.75
1719.08
1839.92
1777.78
1310.75
1037.75
857.168
726.243
624.961
542.945
474.3
415.409
363.901
318.137
276.927
239.373
204.77
172.54
142.194
113.297
85.4472
58.2503
31.2991
4.14589
-23.7334
-52.9926
-84.5011
-119.491
-159.829
-208.542
-270.94
-357.165
-488.483
-714.098
-1159.46
979.36
530.146
296.391
151.674
44.9969
-48.1251
-143.779
-258.955
-421.546
-691.388
-1218.08
1324.55
800.448
536.036
382.299
280.493
204.739
141.893
83.6955
22.9451
-49.6789
-150.817
-316.977
-639.866
921.894
602.571
443.695
353.891
297.229
258.013
228.484
204.112
181.502
157.057
125.405
76.2625
-13.5462
-202.786
823.47
640.398
563.074
533.049
527.666
537.429
558.15
588.027
626.498
673.79
730.779
799.051
881.184
975.992
1098.13
1252.33
1455.8
1741.62
2180.55
2941.06
19884.8
18801.6
17657.5
16456
15201.1
13897.6
12549.9
11163.2
9742.29
8292.05
6817.27
5322.64
3812.71
2291.94
764.697
93.9414
89.7538
84.5453
78.5189
71.8945
64.8848
57.6767
50.4203
43.2253
36.1621
29.2661
22.5434
15.9773
9.5341
3.16908
157.873
150.718
141.813
131.526
120.25
108.36
96.1804
83.9651
71.8957
60.0847
48.5846
37.3987
26.4923
15.8035
5.25216
223.835
213.422
200.454
185.512
169.211
152.12
134.715
117.36
100.306
83.6963
67.5895
51.9749
36.7901
21.9356
7.28829
292.801
278.665
261.051
240.845
218.951
196.181
173.188
150.448
128.266
106.802
86.101
66.1214
46.7575
27.8606
9.25398
365.943
347.365
324.221
297.848
269.552
240.451
211.396
182.966
155.498
129.138
103.888
79.6506
56.2578
33.4955
11.1214
444.748
420.613
390.607
356.758
320.945
284.663
248.968
214.509
181.61
150.352
120.656
92.3321
65.1264
38.7418
12.8578
531.179
499.723
460.825
417.623
372.795
328.281
285.297
244.485
206.069
169.995
136.042
103.891
73.1712
43.4865
14.4259
627.936
586.255
535.329
480.1
424.318
370.355
319.447
272.061
228.179
187.509
149.617
114.011
80.1781
47.6054
15.7851
738.917
681.988
614.096
543.094
473.993
409.344
350.056
296.121
247.069
202.235
160.899
122.352
85.9211
50.9698
16.8934
870.095
788.647
695.94
604.159
519.195
442.945
375.29
315.281
261.728
213.453
169.383
128.572
90.1801
53.4571
17.7117
1030.69
906.543
776.838
658.384
555.664
467.934
392.861
327.971
271.096
220.453
174.6
132.364
92.7663
54.9646
18.2073
1233.79
1029.94
846.434
696.845
577.11
480.237
400.232
332.633
274.218
222.65
176.191
133.512
93.5519
55.4256
18.3595
1487.09
1132.94
882.059
705.422
575.665
475.644
395.178
328.095
270.481
219.725
173.994
131.935
92.4993
54.8241
18.164
1709.56
1132.62
843.401
667.085
544.455
451.471
376.723
314.074
259.873
211.763
168.114
127.73
89.6823
53.2058
17.6363
16.561
49.7693
83.2359
117.131
151.623
186.878
223.073
260.414
299.202
339.988
383.955
433.832
496.14
586.82
745.575
16.8259
50.5496
84.4852
118.759
153.47
188.672
224.345
260.346
296.336
331.653
365.074
394.188
413.148
402.962
286.601
17.0403
51.1814
85.4971
120.078
154.969
190.131
225.381
260.278
293.928
324.622
349.165
361.577
350.388
292.816
144.869
17.2122
51.6906
86.3221
121.178
156.274
191.522
226.653
261.066
293.563
321.85
341.666
345.344
319.821
245.422
101.597
17.3463
52.0921
86.9887
122.107
157.466
192.986
228.414
263.177
296.112
324.947
345.361
349.38
323.179
246.232
99.5505
17.4432
52.3874
87.4983
122.866
158.541
194.507
230.628
266.548
301.495
333.879
360.431
374.388
361.767
295.458
133.902
17.4997
52.5655
87.8271
123.406
159.407
195.914
232.975
270.585
308.648
346.846
384.238
417.838
437.627
410.817
242.034
17.5098
52.6062
87.9332
123.648
159.917
196.929
234.931
274.301
315.696
360.357
410.669
470.863
545.831
624.755
569.104
17.4664
52.4856
87.7676
123.501
159.903
197.248
235.931
276.603
320.465
369.927
430.226
513.611
651.268
932.128
1647.93
17.3626
52.1814
87.2861
122.886
159.229
196.629
235.539
276.683
321.334
371.958
433.739
518.651
657.237
937.428
1650.2
17.1934
51.6774
86.4582
121.753
157.814
194.954
233.589
274.317
318.048
366.225
421.175
486.4
564.847
642.294
576.947
16.9564
50.966
85.2709
120.084
155.645
192.232
230.175
269.856
311.663
355.775
401.462
444.949
473.134
446.301
259.614
16.6516
50.0481
83.7283
117.893
152.759
188.563
225.546
263.911
303.668
344.219
383.263
414.109
419.612
361.302
173.203
16.2814
48.9317
81.8468
115.211
149.218
184.068
219.95
256.989
295.112
333.697
370.745
400.856
410.39
366.423
196.721
15.85
47.6299
79.651
112.079
145.087
178.851
213.542
249.308
286.224
324.232
363.033
401.878
438.307
458.849
375.608
15.3628
46.1593
77.1699
108.542
140.426
172.983
206.383
240.818
276.569
314.204
355.279
404.564
477.243
623.331
1018.36
14.8258
44.5385
74.4359
104.644
135.294
166.526
198.497
231.409
265.597
301.777
341.812
390.992
465.184
614.921
1015.41
14.2458
42.7883
71.4838
100.436
129.754
159.55
189.95
221.107
253.232
286.664
321.984
360.037
400.649
432.358
366.472
13.6303
40.9307
68.3511
95.9725
123.877
152.149
180.872
210.127
239.953
270.231
300.249
327.294
342.284
317.556
180.757
12.9866
38.9887
65.0771
91.3092
117.742
144.429
171.42
198.743
226.353
253.969
280.568
302.913
311.489
280.572
151.086
12.3227
36.9857
61.7017
86.5044
111.426
136.494
161.733
187.154
212.743
238.406
263.834
288.084
308.109
312.031
241.333
11.6461
34.9452
58.2644
81.615
105.004
128.437
151.913
175.443
199.074
222.999
247.91
276.181
315.903
395.298
617.662
10.9644
32.8898
54.8041
76.6965
98.5508
120.345
142.053
163.658
185.196
206.901
229.647
256.318
296.138
379.27
610.941
10.2847
30.8413
51.3577
71.8025
92.1366
112.31
132.261
151.914
171.196
190.073
208.652
227.315
246.286
260.078
218.298
9.61384
28.82
47.9601
66.9838
85.8314
104.427
122.672
140.425
157.474
173.448
187.593
198.092
200.025
179.47
99.8272
8.95771
26.8443
44.6422
62.286
79.699
96.7862
113.422
129.423
144.495
158.09
169.061
174.814
169.376
139.89
64.6949
8.32151
24.9295
41.4308
57.7475
73.7914
89.4567
104.609
119.064
132.539
144.55
154.148
159.303
155.423
132.05
67.1961
7.70949
23.0887
38.3468
53.3975
68.1455
82.482
96.279
109.382
121.598
132.683
142.318
150.065
155.004
153.015
117.986
7.12504
21.3317
35.4066
49.2573
62.7846
75.8808
88.4299
100.315
111.442
121.82
131.798
142.772
159.395
196.921
308.32
6.57073
19.666
32.6218
45.3412
57.7225
69.6588
81.0414
91.7728
101.804
111.234
120.584
131.556
149.27
189.523
305.513
6.04845
18.0973
30.0011
41.6598
52.9694
63.8212
74.1049
83.7172
92.583
100.703
108.244
115.658
123.491
129.527
108.855
5.55956
16.6295
27.5507
38.2211
48.5342
58.3782
67.6349
76.1803
83.8806
90.5745
95.9928
99.4688
98.9589
88.0801
49.0272
5.10494
15.265
25.2748
35.0309
44.4255
53.3434
61.6596
69.231
75.8783
81.3325
85.0915
86.0486
81.6285
66.1988
30.1728
4.68499
14.0053
23.1755
32.0926
40.6485
48.7277
56.2026
62.9249
68.7061
73.2697
76.1377
76.3649
71.9456
58.6222
28.2078
4.2997
12.8501
21.2527
29.406
37.2038
44.5331
51.2699
57.2744
62.3818
66.3869
69.0206
69.9109
68.4496
62.9177
44.3013
3.94859
11.7981
19.5039
26.9674
34.0862
40.7518
46.848
52.2496
56.826
60.4596
63.1182
65.0943
67.7853
76.3052
109.001
3.63078
10.8465
17.9242
24.7696
31.2851
37.3683
42.9112
47.8012
51.9284
55.2136
57.6943
59.7867
63.0796
72.9123
107.724
3.34501
9.99154
16.5071
22.8027
28.7864
34.3627
39.4311
43.8862
47.62
50.531
52.5456
53.6515
53.8394
52.1824
40.1633
3.08969
9.22829
15.2442
21.0542
26.5732
31.713
36.3807
40.4764
43.888
46.4764
48.0343
48.1602
45.8876
38.6555
20.0445
2.863
8.55118
14.1257
19.51
24.6263
29.3946
33.7316
37.5467
40.7332
43.1438
44.5241
44.3418
41.387
33.0369
14.8443
2.6629
7.95402
13.141
18.1544
22.9241
27.3798
31.4497
35.0589
38.1234
40.5335
42.1068
42.4568
40.6412
34.2603
17.6308
2.48726
7.43025
12.2789
16.9705
21.4435
25.6372
29.493
32.9555
35.975
38.5122
40.5474
42.0852
43.0755
42.6097
33.3612
2.33388
6.97323
11.5277
15.9415
20.1607
24.1341
27.8151
31.1663
34.169
36.8484
39.3427
42.1051
46.5331
57.0715
89.0156
2.20064
6.57646
10.8763
15.0508
19.0528
22.839
26.3723
29.6262
32.5958
35.3225
37.9625
40.9806
45.7622
56.6874
88.932
2.08553
6.2338
10.3143
14.2831
18.0992
21.7253
25.13
28.2912
31.1998
33.8671
36.331
38.6445
40.7401
41.5187
33.2028
1.98668
5.93969
9.83211
13.6251
17.2823
20.7711
24.064
27.1395
29.9805
32.5637
34.8163
36.4731
36.6474
32.6811
17.8261
1.90246
5.68914
9.42157
13.0651
16.5872
19.9591
23.1563
26.1591
28.95
31.501
33.7278
35.3446
35.4447
31.4184
16.8992
1.83142
5.47784
9.07547
12.5931
16.0016
19.275
22.3914
25.3348
28.0961
30.6751
33.0762
35.2836
37.1231
37.4566
29.3688
1.77229
5.30205
8.78769
12.2009
15.5151
18.7064
21.7547
24.6462
27.3797
29.9849
32.5727
35.4944
39.8649
49.362
77.028
1.72401
5.15857
8.55307
11.8816
15.1195
18.244
21.235
24.0766
26.7637
29.3198
31.8514
34.7161
39.0665
48.6765
76.7209
1.68562
5.04464
8.36721
11.6295
14.8083
17.8815
20.8272
23.6239
26.2499
28.685
30.9134
32.9231
34.6352
35.2161
28.2838
1.65628
4.95778
8.2262
11.4397
14.5765
17.6148
20.5315
23.2993
25.88
28.2071
30.142
31.3531
31.0076
26.9926
14.3314
1.63519
4.89564
8.12638
11.3075
14.419
17.4401
20.3481
23.1147
25.6973
28.0151
29.8879
30.8794
29.9447
24.7878
11.4995
1.62155
4.85591
8.06404
11.2282
14.3302
17.3515
20.2719
23.0683
25.7102
28.1455
30.2604
31.7589
31.8298
28.2437
15.4177
1.61457
4.83622
8.03532
11.1964
14.3036
17.3405
20.2908
23.1399
25.8786
28.5123
31.0759
33.6468
36.2719
38.1322
31.8515
1.61337
4.83399
8.03609
11.2066
14.3317
17.3971
20.389
23.2985
26.1322
28.942
31.9013
35.5157
41.2654
53.6961
88.1809
1.617
4.84643
8.06189
11.2529
14.4075
17.5123
20.5533
23.5198
26.4143
29.2823
32.2874
35.9209
41.6424
53.9761
88.288
1.62436
4.87038
8.10776
11.329
14.5239
17.6794
20.7785
23.801
26.7266
29.5416
32.2527
34.8947
37.4501
39.0252
32.2014
1.63418
4.90208
8.1679
11.4277
14.6739
17.8934
21.0657
24.1597
27.1272
29.8873
32.2818
33.9463
33.9583
29.9291
16.1193
1.64489
4.93699
8.23518
11.5403
14.8482
18.1476
21.4163
24.6164
27.6831
30.5
32.8329
34.1611
33.2902
27.6404
12.8437
1.65454
4.9694
8.30059
11.6552
15.0343
18.4304
21.8234
25.1756
28.4237
31.4617
34.0957
35.9179
35.956
31.7169
17.1377
1.66071
4.99218
8.35265
11.7572
15.2142
18.7225
22.2672
25.8169
29.3216
32.7168
35.936
38.9293
41.6075
42.988
35.117
1.66043
4.9965
8.37696
11.8268
15.3641
18.996
22.7156
26.4986
30.3065
34.1069
37.946
42.1757
48.1769
60.7015
96.4188
1.65009
4.9716
8.35584
11.8399
15.4536
19.2153
23.1275
27.1717
31.307
35.4827
39.6975
44.2078
50.2346
62.3334
97.0688
1.62542
4.90469
8.26804
11.767
15.4456
19.3367
23.4554
27.79
32.2892
36.8432
41.2564
45.2016
48.0934
48.2698
37.2877
1.58147
4.78088
8.08864
11.5729
15.2953
19.3067
23.6408
28.3021
33.2426
38.313
43.1528
46.9406
47.853
41.972
21.6831
1.51263
4.58325
7.78907
11.2171
14.9491
19.0588
23.6063
28.6283
34.1146
39.9533
45.7912
50.6885
52.3432
45.6912
22.111
1.41274
4.2931
7.33755
10.6535
14.3452
18.5126
23.2494
28.6398
34.7504
41.6041
49.0935
56.6991
62.6132
61.1758
36.878
1.27517
3.89034
6.69976
9.83212
13.4152
17.5764
22.4451
28.1588
34.8787
42.823
52.3251
63.8955
77.9993
92.5453
85.996
1.093
3.35396
5.83989
8.70091
12.0879
16.154
21.0599
26.9857
34.1649
42.9691
54.1294
69.3438
93.0896
138.576
250.014
0.859158
2.66259
4.72164
7.2075
10.2929
14.1534
18.9719
24.9485
32.3301
41.4878
53.1272
68.8783
93.0944
138.822
250.165
0.566579
1.79486
3.30896
5.30066
7.96339
11.4924
16.0851
21.9415
29.2684
38.2913
49.278
62.5441
78.1719
93.5183
86.5928
0.208292
0.729746
1.56648
2.93055
5.03597
8.09743
12.326
17.9189
25.0351
33.7388
43.854
54.5786
63.4546
63.6913
38.4877
-0.222488
-0.553278
-0.540448
0.0481668
1.44805
3.89622
7.62463
12.8439
19.7053
28.213
38.0141
47.9043
54.7447
51.5383
26.3394
-0.732241
-2.07393
-3.04556
-3.39521
-2.86465
-1.19004
1.89265
6.63362
13.2378
21.7952
32.1189
43.3547
53.0185
54.6634
33.2768
-1.32695
-3.85062
-5.98098
-7.44757
-7.96884
-7.25043
-4.98656
-0.865647
5.41943
14.1568
25.5964
39.9032
56.867
73.7878
71.5826
-2.0118
-5.8995
-9.37578
-12.1542
-13.9311
-14.3806
-13.1514
-9.86336
-4.09687
4.64749
17.088
34.6127
60.7512
106.2
207.782
-2.79072
-8.2332
-13.2537
-17.5542
-20.8124
-22.6732
-22.7424
-20.5782
-15.6765
-7.4233
5.05386
23.3463
51.2317
99.6374
205.389
-3.66586
-10.8591
-17.6302
-23.676
-28.6613
-32.2068
-33.8806
-33.1903
-29.5795
-22.4224
-11.0139
5.42319
27.4677
53.2584
63.9758
-4.63692
-13.7773
-22.509
-30.5324
-37.5073
-43.0372
-46.657
-47.8269
-45.9413
-40.3694
-30.5691
-16.3892
1.10678
17.352
18.8648
-5.70041
-16.9784
-27.8783
-38.1151
-47.3544
-55.191
-61.1312
-64.5816
-64.8591
-61.2484
-53.1615
-40.5002
-24.3815
-8.3204
1.00703
-6.84893
-20.4414
-33.7067
-46.3888
-58.1731
-68.6589
-77.3312
-83.5361
-86.4731
-85.2319
-78.9266
-67.0084
-49.8263
-29.3141
-8.9736
-8.07036
-24.1309
-39.9387
-55.2841
-69.8912
-83.3833
-95.2413
-104.756
-110.985
-112.728
-108.585
-97.1684
-77.5805
-50.1864
-17.2914
-9.34723
-27.995
-46.4906
-64.6904
-82.3814
-99.2398
-114.775
-128.255
-138.607
-144.307
-143.292
-132.999
-110.753
-74.8767
-26.7806
-10.6563
-31.964
-53.2465
-74.4481
-95.4473
-116.012
-135.733
-153.922
-169.456
-180.545
-184.438
-177.126
-153.387
-108.051
-40.0644
-11.9684
-35.9498
-60.0573
-84.3446
-108.813
-133.367
-157.752
-181.43
-203.386
-221.777
-233.361
-232.655
-211.016
-156.952
-61.7795
-13.2491
-39.8474
-66.7417
-94.1139
-122.115
-150.837
-180.256
-210.13
-239.788
-267.729
-290.815
-302.716
-291.157
-234.399
-103.206
-14.4601
-43.5386
-73.0931
-103.444
-134.915
-167.819
-202.442
-238.974
-277.376
-317.046
-356.03
-389.063
-402.682
-363.531
-196.869
-15.561
-46.8984
-78.8898
-111.996
-146.716
-183.605
-223.296
-266.514
-314.078
-366.835
-425.371
-488.886
-550.844
-581.202
-448.22
-16.5119
-49.8035
-83.9112
-119.425
-157.007
-197.442
-241.697
-291.031
-347.166
-412.604
-491.248
-589.778
-720.943
-912.294
-1229.74
1207.95
899.85
714.108
586.663
490.702
413.817
349.523
294.043
244.974
200.674
159.951
121.894
85.7685
50.9543
16.9015
441.283
574.767
547.267
488.058
426.704
369.701
317.913
270.843
227.725
187.819
150.467
115.095
81.1975
48.3197
16.0407
194.802
361.455
402.43
390.924
359.67
321.949
283.017
244.888
208.239
173.185
139.603
107.268
75.916
45.268
15.0424
103.143
235.407
294.024
307.489
297.115
275.027
247.554
217.897
187.637
157.523
127.868
98.7557
70.1432
41.9216
13.9459
62.8866
160.495
216.963
240.597
242.685
231.836
213.6
191.316
166.926
141.536
115.753
89.893
64.0969
38.4031
12.7909
42.1867
114.146
162.694
188.66
197.23
193.766
182.449
166.19
146.905
125.817
103.688
80.9829
57.9775
34.8269
11.6145
30.1065
84.0504
124.103
148.797
160.127
161.143
154.724
143.16
128.132
110.816
92.0186
72.2792
51.9573
31.2925
10.4492
22.3787
63.5986
96.1734
118.21
130.179
133.678
130.567
122.531
110.941
96.841
81.0006
63.9777
46.1736
27.8811
9.3219
17.1066
49.1482
75.5588
94.6097
106.108
110.799
109.823
104.367
95.4905
84.071
70.8013
56.2166
40.7277
24.654
8.25307
13.3421
38.6067
60.0525
76.2512
86.7606
91.8519
92.188
88.5735
81.8024
72.583
61.5129
49.0816
35.6866
21.6534
7.25706
10.5628
30.7157
48.1881
61.8408
71.1725
76.2037
77.2929
74.9693
69.8119
62.378
53.1677
42.6144
31.0876
18.9043
6.3426
8.45888
24.6851
38.9746
50.4289
58.5685
63.2902
64.765
63.3303
59.4001
53.4043
45.7535
36.8218
26.9435
16.4173
5.5137
6.83484
19.9985
31.7286
41.3169
48.3361
52.6291
54.2556
53.4222
50.4206
45.5784
39.2273
31.6852
23.2486
14.1917
4.7706
5.56191
16.3068
25.9688
33.9877
39.995
43.8182
45.4524
45.0181
42.7178
38.7987
33.5268
27.1688
19.9837
12.2187
4.11073
4.55191
13.3665
21.3492
28.0541
33.1693
36.5258
38.0841
37.9085
36.1376
32.9573
28.5794
23.226
17.1207
10.4835
3.52952
3.74257
11.0035
17.6161
23.2235
27.5639
30.481
31.9186
31.9054
30.5349
27.9465
24.3084
19.8046
14.6266
8.96777
3.02118
3.08881
9.09031
14.5805
19.2719
22.9459
25.4626
26.7597
26.8437
25.777
23.6639
20.6378
16.8508
12.4659
7.65163
2.57925
2.55724
7.53189
12.0992
16.0263
19.131
21.2904
22.4424
22.5803
21.745
20.0145
17.4949
14.3116
10.6029
6.51452
2.19704
2.12272
6.25609
10.0622
13.3514
15.9718
17.8172
18.8286
18.9922
18.3339
16.9125
14.8124
12.137
9.00309
5.53635
1.86796
1.76596
5.20737
8.38396
11.1405
13.3505
14.9226
15.803
15.9742
15.4523
14.2814
12.529
10.2804
7.6342
4.69804
1.58571
1.47199
4.34242
6.99721
9.30877
11.1717
12.508
13.2694
13.4373
13.0208
12.0537
10.5898
8.69976
6.46644
3.98195
1.34444
1.22909
3.62713
5.84864
7.78841
9.35848
10.4924
11.1476
11.3058
10.9716
10.1706
8.94641
7.35724
5.47295
3.37203
1.13883
1.02792
3.03437
4.89564
6.52466
7.84794
8.80908
9.37088
9.51596
9.24623
8.58127
7.55628
6.21954
4.62982
2.8539
0.964074
0.861053
2.54241
4.10386
5.47316
6.5888
7.40297
7.88341
8.01414
7.79526
7.24187
6.38257
5.25744
3.91595
2.41484
0.815923
0.722485
2.1337
3.44553
4.59782
5.53902
6.22863
6.6388
6.75511
6.57657
6.11492
5.39347
4.44559
3.31293
2.04369
0.690643
0.607367
1.79404
2.89804
3.86914
4.66404
5.24843
5.59834
5.70093
5.55458
5.16847
4.5617
3.7621
2.80482
1.73077
0.584983
0.511758
1.51186
2.44294
3.26294
3.93542
4.43124
4.72984
4.81983
4.69929
4.37544
3.86399
3.18825
2.3779
1.46771
0.49614
0.432438
1.27771
2.06515
2.7594
3.32971
3.75131
4.00649
4.08524
3.98549
3.71295
3.28062
2.70808
2.02046
1.24738
0.421708
0.36678
1.08386
1.75228
2.34223
2.82762
3.18733
3.40607
3.47503
3.39209
3.1618
2.79496
2.30809
1.72256
1.06369
0.359647
0.312627
0.923966
1.4942
1.99805
2.41327
2.72174
2.9102
2.97084
2.90156
2.70596
2.39309
1.97697
1.47588
0.911543
0.308234
0.268214
0.792844
1.28259
1.71588
2.07363
2.34013
2.50377
2.55756
2.4994
2.33216
2.06348
1.70532
1.27345
0.786669
0.266034
0.232091
0.68623
1.11063
1.48675
1.79805
2.03074
2.17445
2.22283
2.17378
2.02956
1.79665
1.48541