/*--------------------------------*- C++ -*----------------------------------*\
| =========                 |                                                 |
| \\      /  F ield         | OpenFOAM: The Open Source CFD Toolbox           |
|  \\    /   O peration     | Version:  5.x                                   |
|   \\  /    A nd           | Web:      www.OpenFOAM.org                      |
|    \\/     M anipulation  |                                                 |
\*---------------------------------------------------------------------------*/
FoamFile
{
    version     2.0;
    format      ascii;
    class       volScalarField;
    location    "17.6";
    object      gradTy;
}
// * * * * * * * * * * * * * * * * * * * * * * * * * * * * * * * * * * * * * //

dimensions      [0 -1 0 1 0 0 0];

internalField   nonuniform List<scalar> 
6300
(
1003.36
1010.06
1016.73
1023.35
1029.9
1036.35
1042.7
1048.91
1054.98
1060.88
1066.58
1072.09
1077.38
1082.44
1087.25
0.0150412
0.0451163
0.0751677
0.105162
0.135033
0.164674
0.193914
0.222507
0.250104
0.27625
0.300374
0.321802
0.339797
0.353618
0.362607
0.0250752
0.0752206
0.125343
0.175401
0.225304
0.27489
0.323899
0.371935
0.418436
0.462644
0.503594
0.540123
0.570934
0.594701
0.610221
0.0351117
0.105342
0.175579
0.245791
0.315885
0.385678
0.454848
0.52289
0.589053
0.652291
0.711228
0.764155
0.80911
0.844028
0.866994
0.045142
0.135453
0.225831
0.316285
0.406753
0.49707
0.586906
0.675701
0.76257
0.846216
0.924847
0.996138
1.0573
1.10528
1.13716
0.0551446
0.165491
0.276002
0.386754
0.49776
0.608926
0.71999
0.830419
0.93929
1.04514
1.14579
1.23823
1.31865
1.38263
1.42573
0.0650852
0.195355
0.325919
0.456951
0.588583
0.720862
0.85368
0.986663
1.119
1.24923
1.37489
1.49232
1.59641
1.68083
1.73877
0.0749236
0.224918
0.375356
0.526533
0.67874
0.832234
0.987177
1.14352
1.30081
1.45784
1.6122
1.7597
1.8938
2.00547
2.08408
0.0846127
0.254031
0.42404
0.595067
0.767588
0.942131
1.11924
1.2994
1.48283
1.66907
1.85633
2.04044
2.21355
2.36307
2.47216
0.0941057
0.282545
0.471689
0.662084
0.854389
1.04943
1.24822
1.45199
1.66199
1.87923
2.10355
2.33211
2.55679
2.76101
2.91785
0.103367
0.310342
0.518071
0.727166
0.938426
1.15293
1.3722
1.59828
1.83388
2.08224
2.34644
2.62754
2.92038
3.20616
3.44324
0.112384
0.337373
0.563065
0.790059
1.01918
1.25165
1.48931
1.73499
1.99294
2.26932
2.57232
2.9111
3.29089
3.69986
4.08179
0.121174
0.363688
0.606737
0.850794
1.09656
1.34513
1.59836
1.85938
2.13351
2.42966
2.76231
3.1535
3.63209
4.22045
4.87965
0.129792
0.389456
0.649378
0.909796
1.17108
1.43391
1.69957
1.9706
2.25198
2.5534
2.89363
3.30834
3.86339
4.67013
5.85765
0.138323
0.414949
0.691501
0.967897
1.24403
1.51981
1.79536
2.07141
2.3503
2.63822
2.95034
3.32272
3.84289
4.7389
6.68761
1091.45
1095.08
1098.55
1101.85
1104.98
1107.95
1110.76
1113.43
1115.96
1118.37
1120.66
1122.84
1124.94
1126.95
1128.88
1130.76
1132.6
1134.39
1136.16
1137.91
1139.66
1141.41
1143.17
1144.96
1146.77
1148.61
1150.49
1152.42
1154.39
1156.41
1158.47
1160.59
1162.74
1164.94
1167.18
1169.45
1171.75
1174.07
1176.41
1178.74
1181.08
1183.4
1185.69
1187.95
1190.15
1192.29
1194.36
1196.33
1198.2
1199.96
1201.59
1203.07
1204.39
1205.54
1206.5
1207.25
1207.76
1208.02
1208.01
1207.69
1207.05
1206.06
1204.68
1202.89
1200.65
1197.93
1194.68
1190.87
1186.45
1181.36
1175.56
1168.98
1161.56
1153.24
1143.94
1133.6
1122.13
1109.47
1095.53
1080.23
1063.48
1045.22
1025.37
1003.85
980.61
955.588
928.749
900.066
869.53
837.151
0.365968
0.36517
0.360512
0.352128
0.340274
0.32531
0.307657
0.28777
0.266104
0.243094
0.219137
0.19458
0.169725
0.144825
0.120092
0.0957102
0.0718405
0.0486342
0.0262419
0.00482299
-0.0154477
-0.0343758
-0.0517471
-0.0673318
-0.0808944
-0.0922087
-0.101078
-0.107357
-0.110971
-0.11193
-0.110324
-0.10631
-0.100078
-0.091804
-0.0816103
-0.0695399
-0.0555541
-0.0395596
-0.021459
-0.00121006
0.02112
0.0453254
0.0710676
0.097922
0.125455
0.153313
0.181305
0.209444
0.23796
0.267263
0.297876
0.330354
0.3652
0.402802
0.443388
0.487041
0.533728
0.583381
0.635979
0.691626
0.750598
0.813366
0.880573
0.952982
1.03141
1.11665
1.2094
1.3102
1.41939
1.53711
1.66329
1.79771
1.94003
2.08979
2.24639
2.40908
2.57686
2.74835
2.92172
3.09455
3.26378
3.42566
3.57583
3.70946
3.82145
3.90679
3.96093
3.9802
3.96215
3.90585
0.61606
0.614729
0.606748
0.592359
0.572035
0.54642
0.516272
0.482397
0.445592
0.406608
0.366119
0.324711
0.282879
0.241036
0.199522
0.158626
0.1186
0.0796813
0.0421053
0.00612721
-0.0279684
-0.0598579
-0.0891773
-0.115528
-0.138493
-0.157664
-0.172679
-0.183263
-0.189273
-0.190726
-0.187801
-0.180815
-0.17015
-0.156166
-0.13911
-0.119054
-0.0958912
-0.0693875
-0.0392851
-0.00542974
0.0321139
0.0729922
0.116568
0.162011
0.208456
0.25519
0.301816
0.348348
0.395223
0.443227
0.493365
0.546692
0.604153
0.666449
0.733962
0.806757
0.884671
0.967453
1.05495
1.14724
1.24478
1.34837
1.45916
1.57854
1.70798
1.84894
2.00267
2.17012
2.35189
2.54817
2.75882
2.98342
3.22136
3.47188
3.7341
4.00688
4.2887
4.57747
4.87029
5.16325
5.45128
5.72805
5.98607
6.2169
6.41155
6.56104
6.65715
6.69314
6.66451
6.56954
0.875745
0.873908
0.86226
0.841198
0.811479
0.77413
0.730333
0.681324
0.628304
0.572379
0.514518
0.455547
0.396148
0.336871
0.278163
0.220392
0.163873
0.108902
0.0557783
0.00483311
-0.0435509
-0.0889241
-0.130763
-0.168478
-0.201431
-0.228979
-0.250532
-0.265626
-0.274008
-0.275692
-0.270994
-0.260482
-0.244863
-0.224813
-0.200788
-0.172899
-0.140895
-0.104251
-0.062367
-0.0148099
0.038458
0.0969279
0.159534
0.224813
0.291198
0.357382
0.422624
0.486923
0.551026
0.616289
0.684431
0.757248
0.836316
0.922758
1.0171
1.11928
1.22878
1.34492
1.46718
1.59549
1.73042
1.87318
2.02557
2.18977
2.36817
2.56303
2.77635
3.00961
3.26366
3.53871
3.83444
4.15009
4.48473
4.83732
5.20678
5.59182
5.9907
6.40092
6.81882
7.23923
7.65514
8.05759
8.43561
8.77659
9.0668
9.29229
9.44005
9.49926
9.46254
9.32697
1.1495
1.14719
1.13131
1.10249
1.06191
1.01113
0.95191
0.886045
0.815226
0.740963
0.664546
0.587035
0.509273
0.431922
0.355494
0.280393
0.206959
0.135506
0.0663593
-0.000102564
-0.063421
-0.12303
-0.178238
-0.228233
-0.2721
-0.308874
-0.33763
-0.357601
-0.368328
-0.369794
-0.362502
-0.347443
-0.325901
-0.299128
-0.26797
-0.232614
-0.19252
-0.146599
-0.0935581
-0.0323525
0.0373727
0.114968
0.198714
0.286082
0.374289
0.460989
0.544849
0.62584
0.705221
0.785266
0.868833
0.958869
1.05793
1.16776
1.28903
1.42132
1.56339
1.71363
1.87076
2.03429
2.20485
2.38419
2.57502
2.78065
3.00469
3.25062
3.5214
3.81922
4.14524
4.49956
4.88142
5.28948
5.72229
6.17853
6.65708
7.15687
7.67642
8.21336
8.7638
9.32171
9.87845
10.4223
10.9385
11.4094
11.8153
12.1355
12.3505
12.4435
12.4029
12.2239
1.44277
1.44003
1.41902
1.38075
1.32706
1.26032
1.18311
1.09796
1.00718
0.912733
0.816239
0.718974
0.621905
0.525745
0.431017
0.338102
0.247303
0.158899
0.0731903
-0.00944594
-0.0885118
-0.163346
-0.233093
-0.296683
-0.352849
-0.40018
-0.437239
-0.462748
-0.475845
-0.476363
-0.46505
-0.443594
-0.414328
-0.379607
-0.341051
-0.299
-0.252388
-0.199049
-0.136353
-0.0620075
0.0251122
0.12431
0.232839
0.346301
0.459709
0.568847
0.671363
0.767233
0.858623
0.949338
1.04409
1.14767
1.26421
1.39645
1.54525
1.70948
1.88639
2.0726
2.26528
2.46314
2.66681
2.87885
3.10331
3.3452
3.60989
3.90258
4.22769
4.5884
4.98622
5.42094
5.89083
6.39341
6.92629
7.48775
8.07696
8.69361
9.33726
10.0065
10.6981
11.406
12.1204
12.827
13.5068
14.136
14.6871
15.1304
15.4367
15.5803
15.5428
15.3159
1.76225
1.75915
1.73156
1.68118
1.61096
1.52454
1.42571
1.31798
1.2044
1.08745
0.969055
0.85065
0.733248
0.617536
0.503959
0.392796
0.284239
0.178452
0.0756418
-0.0238825
-0.119644
-0.210935
-0.296755
-0.375763
-0.446257
-0.506214
-0.553413
-0.585699
-0.601404
-0.599897
-0.582133
-0.55092
-0.510538
-0.465538
-0.419096
-0.371887
-0.321873
-0.264909
-0.195859
-0.109991
-0.00447428
0.120283
0.259924
0.406663
0.551339
0.686301
0.807503
0.91513
1.01304
1.10765
1.20666
1.31787
1.44794
1.60135
1.77933
1.97943
2.19605
2.4223
2.65242
2.88365
3.11675
3.35566
3.60655
3.87694
4.17482
4.50789
4.88277
5.30417
5.77414
6.29169
6.85319
7.45375
8.08913
8.75702
9.45733
10.1915
10.9612
11.7675
12.609
13.481
14.3735
15.2703
16.148
16.9752
17.7141
18.3224
18.7569
18.9779
18.9553
18.6746
2.11687
2.11346
2.07687
2.01009
1.91808
1.80654
1.681
1.5463
1.40635
1.26413
1.12178
0.980787
0.842072
0.706175
0.573349
0.443671
0.31712
0.193659
0.0733062
-0.0437884
-0.157262
-0.266446
-0.370266
-0.467137
-0.554871
-0.630647
-0.691086
-0.73255
-0.751772
-0.746864
-0.718605
-0.671471
-0.613425
-0.553571
-0.498277
-0.448845
-0.401402
-0.348215
-0.279631
-0.186321
-0.0618208
0.0947692
0.276729
0.469931
0.656888
0.823492
0.963109
1.07693
1.17212
1.25952
1.35158
1.46077
1.59797
1.77077
1.98145
2.22545
2.49175
2.76631
3.03785
3.30131
3.55821
3.81507
4.08156
4.36893
4.68891
5.05284
5.4707
5.94983
6.49336
7.09898
7.75913
8.46377
9.20493
9.97942
10.7888
11.6378
12.5323
13.4774
14.4759
15.5261
16.62
17.741
18.8614
19.9411
20.9288
21.7646
22.3843
22.7259
22.739
22.3964
2.51921
2.51543
2.4655
2.3752
2.25318
2.10852
1.94929
1.78197
1.61135
1.44076
1.27235
1.10743
0.946636
0.790192
0.638018
0.489858
0.345373
0.204216
0.0661105
-0.0690722
-0.201214
-0.329834
-0.453933
-0.57181
-0.680847
-0.777303
-0.856215
-0.911563
-0.937015
-0.927585
-0.882392
-0.807867
-0.719058
-0.63518
-0.569161
-0.523087
-0.489352
-0.453848
-0.399174
-0.30774
-0.165563
0.0325285
0.277143
0.541977
0.791526
0.999312
1.15563
1.26531
1.34218
1.4044
1.47156
1.56303
1.69646
1.88537
2.13527
2.43908
2.77525
3.11436
3.43456
3.7281
3.99938
4.26027
4.52615
4.8136
5.13934
5.51976
5.97003
6.50236
7.12277
7.82735
8.60059
9.42076
10.2723
11.1512
12.0628
13.0181
14.0299
15.1101
16.2678
17.5077
18.8271
20.212
21.6326
23.0391
24.3618
25.5171
26.4113
26.9465
27.0342
26.6196
2.98843
2.98369
2.91208
2.78585
2.62076
2.43137
2.22916
2.02231
1.81622
1.61412
1.4178
1.22801
1.04484
0.867967
0.696817
0.530672
0.368757
0.21031
0.0546415
-0.0987924
-0.250292
-0.399779
-0.546602
-0.68925
-0.824969
-0.949251
-1.0553
-1.13365
-1.17251
-1.15983
-1.08844
-0.964865
-0.817621
-0.69111
-0.611367
-0.579602
-0.57988
-0.587109
-0.571686
-0.502268
-0.349875
-0.0967718
0.248363
0.635945
0.9862
1.24913
1.41521
1.50083
1.53325
1.54209
1.55645
1.60478
1.71493
1.912
2.21133
2.60596
3.05435
3.48947
3.86951
4.18678
4.45536
4.69814
4.93953
5.20294
5.51087
5.8859
6.35102
6.92785
7.6308
8.4566
9.37426
10.3323
11.3002
12.2754
13.2735
14.3169
15.4288
16.6307
17.941
19.3745
20.9393
22.6313
24.424
26.2572
28.0354
29.6453
30.9551
31.8111
32.0523
31.5573
3.5567
3.54814
3.43716
3.25238
3.02331
2.77271
2.5158
2.26173
2.01549
1.77937
1.55405
1.33926
1.13418
0.937724
0.748638
0.565627
0.387389
0.212652
0.0402079
-0.131038
-0.302
-0.473287
-0.645001
-0.816386
-0.985267
-1.14716
-1.29397
-1.41229
-1.48193
-1.47631
-1.36934
-1.15565
-0.886037
-0.679402
-0.584194
-0.589685
-0.660095
-0.752671
-0.821615
-0.815943
-0.678877
-0.358276
0.158767
0.783967
1.30691
1.63872
1.79094
1.81327
1.7586
1.67219
1.59281
1.55787
1.60864
1.79174
2.15055
2.69579
3.35291
3.94426
4.39518
4.71593
4.94884
5.13837
5.32161
5.5286
5.78621
6.12271
6.57156
7.17214
7.96229
8.95397
10.0901
11.2301
12.3177
13.3672
14.4193
15.5173
16.6986
17.9955
19.4373
21.0525
22.8688
24.906
27.1571
29.5549
31.9517
34.2057
36.1525
37.5613
38.1308
37.5671
4.28575
4.26003
4.06847
3.78266
3.45672
3.12298
2.79817
2.48972
2.20003
1.92892
1.67501
1.4364
1.21101
0.996759
0.791615
0.593623
0.400901
0.211617
0.0239843
-0.163751
-0.35329
-0.546226
-0.74391
-0.947156
-1.15565
-1.36681
-1.57366
-1.76106
-1.89971
-1.93874
-1.80394
-1.42696
-0.863781
-0.507251
-0.412021
-0.506305
-0.708427
-0.952307
-1.17903
-1.31887
-1.27221
-0.902707
-0.0866364
1.07916
1.90279
2.28685
2.35359
2.23649
2.0295
1.79202
1.56504
1.38745
1.31165
1.41833
1.82119
2.62436
3.74601
4.60115
5.10815
5.37139
5.50458
5.58747
5.66928
5.78115
5.94775
6.19756
6.5734
7.14325
8.00336
9.24306
10.8004
12.2028
13.39
14.4549
15.4989
16.5972
17.8016
19.1514
20.6834
22.4406
24.4798
26.8722
29.6786
32.8537
36.0729
39.2082
42.1239
44.5195
45.8408
45.3298
5.3187
5.21067
4.83537
4.37058
3.90125
3.46027
3.05684
2.69055
2.35766
2.05356
1.77382
1.51438
1.27169
1.04257
0.824194
0.613945
0.40938
0.208134
0.00784283
-0.193923
-0.399735
-0.612369
-0.834845
-1.07039
-1.32221
-1.59267
-1.88137
-2.18003
-2.46093
-2.65145
-2.58725
-1.9664
-0.54397
0.0411442
0.0330083
-0.267665
-0.696647
-1.17666
-1.66158
-2.09035
-2.33046
-2.09021
-0.835689
1.86698
3.13155
3.39174
3.18087
2.789
2.34422
1.8966
1.46602
1.07036
0.751781
0.618324
0.915285
2.09421
4.52272
5.75916
6.17191
6.21394
6.13256
6.03793
5.97346
5.9547
5.9893
6.09073
6.29567
6.69621
7.49761
9.0745
11.7336
13.4851
14.6382
15.5722
16.5
17.524
18.6949
20.0447
21.6048
23.4224
25.5819
28.2418
31.6687
36.0886
40.3143
44.5265
48.8439
53.024
56.1888
56.4184
7.0817
6.54582
5.73092
4.96481
4.3048
3.74342
3.26198
2.8433
2.47383
2.14318
1.84341
1.56831
1.31288
1.073
0.845141
0.626166
0.413178
0.203378
-0.00606283
-0.21815
-0.436229
-0.6642
-0.906809
-1.17005
-1.46173
-1.79212
-2.17452
-2.62439
-3.15207
-3.73073
-4.17192
-3.65991
0.981712
1.44393
0.899397
0.155866
-0.611225
-1.39378
-2.22479
-3.13326
-4.08019
-4.73799
-3.66988
4.72575
5.80663
5.17497
4.26883
3.41777
2.66313
1.97676
1.31689
0.642434
-0.0744522
-0.801266
-1.26042
-0.235193
7.01609
8.10333
7.76953
7.23425
6.77967
6.44505
6.21195
6.05152
5.93474
5.83502
5.73644
5.67209
5.87533
7.34771
13.9736
15.6293
16.2018
16.6987
17.3624
18.2392
19.3308
20.635
22.1556
23.9117
25.9632
28.507
32.2289
39.6028
44.5748
49.6933
55.7613
62.99
70.7632
75.4922
11.2184
8.28245
6.55601
5.40606
4.56611
3.91124
3.37653
2.92501
2.53389
2.18816
1.87734
1.59376
1.33155
1.086
0.85318
0.629659
0.412286
0.198019
-0.0162375
-0.233821
-0.458541
-0.695005
-0.949102
-1.2288
-1.54553
-1.91668
-2.37052
-2.95667
-3.76974
-5.0079
-7.12912
-11.3
8.52563
4.29631
2.05224
0.613245
-0.5036
-1.54114
-2.67644
-4.12075
-6.24616
-9.87101
-17.0556
18.1175
10.9475
7.35318
5.27726
3.90745
2.88356
2.01861
1.18863
0.275509
-0.886458
-2.60632
-5.57366
-11.5302
18.3854
12.4934
9.65695
8.13807
7.25377
6.70568
6.34557
6.08525
5.85539
5.57748
5.12777
4.26246
2.42537
-1.80036
23.3706
19.3326
17.874
17.5844
17.9177
18.6444
19.6604
20.9131
22.3668
23.9751
25.6353
27.0755
27.5295
46.5752
48.6237
53.492
61.0064
72.1712
89.72
120.441
799.534
755.95
709.928
661.607
611.148
558.732
504.549
448.794
391.666
333.36
274.069
213.981
153.278
92.1399
30.7421
3.80268
3.63981
3.43343
3.19216
2.92529
2.64175
2.34943
2.05462
1.76196
1.4744
1.19346
0.919441
0.651704
0.388917
0.129279
6.39352
6.11456
5.76109
5.34869
4.89397
4.4127
3.91848
3.42202
2.93094
2.44999
1.98142
1.52543
1.08068
0.6447
0.214268
9.07134
8.66386
8.1477
7.54755
6.88922
6.19662
5.48978
4.78401
4.08977
3.41318
2.75676
2.12015
1.50087
0.894926
0.297359
11.8778
11.3219
10.6183
9.80459
8.91874
7.99476
7.06002
6.13445
5.2309
4.35618
3.51227
2.69752
1.90769
1.13676
0.377594
14.8627
14.1275
13.1991
12.1338
10.9864
9.80369
8.62111
7.46287
6.34319
5.26834
4.23857
3.24993
2.29558
1.36683
0.453839
18.0882
17.1261
15.9166
14.5449
13.0894
11.6124
10.1579
8.75274
7.41069
6.13539
4.92371
3.76801
2.65785
1.58112
0.524762
21.6359
20.3719
18.7962
17.0396
15.2136
13.3987
11.6451
9.97956
8.41143
6.93883
5.55285
4.24051
2.98666
1.77502
0.588841
25.6175
23.929
21.856
19.6035
17.3266
15.1231
13.0442
11.1089
9.31664
7.65565
6.10832
4.65451
3.27323
1.94345
0.644413
30.1941
27.8704
25.095
22.1915
19.3658
16.7226
14.2992
12.0949
10.0905
8.25878
6.57027
4.99597
3.50827
2.08113
0.689765
35.6075
32.2637
28.4622
24.7018
21.2228
18.1023
15.3348
12.8809
10.6916
8.71862
6.91796
5.25078
3.68274
2.18301
0.723278
42.2264
37.1145
31.7878
26.9302
22.7213
19.129
16.0567
13.4022
11.0764
9.00602
7.13211
5.40644
3.78887
2.24486
0.743613
50.5709
42.1792
34.6441
28.5094
23.6028
19.6355
16.3606
13.5947
11.2055
9.09693
7.19797
5.45397
3.82139
2.26395
0.749914
60.9279
46.3871
36.0996
28.8605
23.5449
19.4491
16.1554
13.4105
11.0537
8.97822
7.10882
5.39005
3.77875
2.2396
0.742004
69.9366
46.3416
34.5059
27.2878
22.2671
18.4606
15.4013
12.8378
10.6207
8.65333
6.869
5.2186
3.66394
2.17365
0.720503
0.146153
0.438355
0.730199
1.02131
1.31108
1.59858
1.88247
2.16099
2.43213
2.69457
2.95018
3.21027
3.51103
3.95073
4.78085
0.153345
0.459884
0.765905
1.07083
1.37367
1.6728
1.96555
2.24763
2.5124
2.74965
2.94392
3.07077
3.08414
2.85919
1.91773
0.160636
0.481759
0.802354
1.12177
1.43882
1.75143
2.05597
2.34624
2.6117
2.83449
2.98441
3.01003
2.82262
2.26522
1.06426
0.168026
0.503989
0.839603
1.17432
1.50703
1.83563
2.15626
2.46202
2.74054
2.96987
3.11115
3.09712
2.8179
2.11817
0.854899
0.175471
0.526448
0.877453
1.22824
1.57806
1.92531
2.26683
2.59663
2.90347
3.16633
3.34569
3.36825
3.10516
2.36238
0.955604
0.182888
0.548872
0.915436
1.28279
1.65084
2.01894
2.38549
2.74708
3.09684
3.42072
3.6891
3.83754
3.72553
3.06762
1.40658
0.190153
0.570877
0.952845
1.33683
1.72355
2.11362
2.50753
2.90567
3.30807
3.71356
4.11577
4.48754
4.72492
4.4694
2.65761
0.197121
0.592003
0.988823
1.38895
1.7939
2.20557
2.6266
3.06122
3.51704
4.00855
4.56352
5.23069
6.06648
6.95182
6.3415
0.203639
0.611765
1.02248
1.43767
1.85955
2.29099
2.73617
3.20196
3.7011
4.25934
4.93327
5.85659
7.37347
10.4727
18.409
0.209562
0.629712
1.05299
1.4817
1.91852
2.36683
2.83136
3.31948
3.84399
4.42967
5.12971
6.07013
7.58141
10.6343
18.4728
0.214767
0.645465
1.07971
1.52007
1.96945
2.43134
2.91011
3.41166
3.94431
4.52045
5.15908
5.88709
6.7186
7.47208
6.55374
0.219158
0.658736
1.10215
1.55213
2.01166
2.48405
2.97298
3.48217
4.01432
4.5677
5.12625
5.63205
5.90979
5.4707
3.09916
0.222665
0.669323
1.12
1.57752
2.04488
2.52523
3.0217
3.53663
4.06949
4.61124
5.12993
5.5352
5.59863
4.81113
2.30197
0.225245
0.677098
1.13308
1.59604
2.06902
2.55516
3.05753
3.57856
4.11837
4.67069
5.21224
5.67556
5.87828
5.34704
2.95944
0.226873
0.681991
1.14126
1.60757
2.08398
2.57374
3.08033
3.60734
4.15846
4.73749
5.34878
5.99671
6.6675
7.17193
6.06912
0.227542
0.683982
1.14453
1.61205
2.08962
2.58059
3.08886
3.61928
4.17905
4.78176
5.45977
6.30179
7.57208
10.1128
16.8421
0.227262
0.683101
1.14293
1.60952
2.08589
2.57537
3.08194
3.61074
4.16967
4.77361
5.45672
6.3093
7.59423
10.1446
16.8613
0.226062
0.679434
1.13659
1.60016
2.073
2.55824
3.05951
3.5812
4.12893
4.71033
5.33585
6.01641
6.73739
7.28287
6.14457
0.223988
0.673123
1.12576
1.58434
2.05145
2.52991
3.02283
3.53348
4.06468
4.61629
5.17662
5.69529
6.00225
5.59024
3.1713
0.221105
0.664361
1.11078
1.56254
2.02196
2.49149
2.97377
3.4714
3.98616
4.51606
5.04619
5.52102
5.76624
5.29116
2.92271
0.217488
0.653385
1.09206
1.5354
1.9854
2.44416
2.91397
3.39735
3.89702
4.41556
4.95405
5.50604
6.03033
6.30679
5.08862
0.213227
0.640465
1.07006
1.50359
1.9427
2.3891
2.84469
3.31191
3.79466
4.30111
4.85243
5.51013
6.46638
8.36019
13.476
0.208417
0.625893
1.04529
1.46788
1.8949
2.32759
2.76725
3.21559
3.67571
4.15539
4.67683
5.30673
6.2512
8.17589
13.3952
0.203153
0.609967
1.01829
1.42906
1.84313
2.26119
2.68373
3.11099
3.54309
3.98056
4.42581
4.88474
5.35515
5.70344
4.8062
0.197532
0.592979
0.989553
1.38791
1.78854
2.19163
2.59687
3.00296
3.40663
3.8002
4.16518
4.45466
4.54375
4.0958
2.26924
0.191637
0.575192
0.959555
1.34515
1.73219
2.12053
2.50936
2.89653
3.27709
3.63958
3.95688
4.16362
4.10516
3.44542
1.61551
0.185544
0.556829
0.928677
1.30135
1.6749
2.04905
2.42294
2.79463
3.16003
3.51028
3.82525
4.05662
4.08406
3.60757
1.93473
0.179307
0.53806
0.897205
1.2569
1.61714
1.9777
2.33799
2.69704
3.0534
3.40538
3.75161
4.09112
4.41283
4.60044
3.77934
0.172968
0.519006
0.865327
1.21204
1.55914
1.90649
2.25386
2.60123
2.94972
3.3044
3.68255
4.13786
4.83461
6.29368
10.3027
0.166553
0.49974
0.833154
1.16688
1.50093
1.83521
2.16967
2.50458
2.84165
3.18702
3.55982
4.01683
4.72689
6.21594
10.2735
0.160076
0.480303
0.80074
1.12147
1.44251
1.76378
2.08511
2.40637
2.72775
3.05049
3.37853
3.71999
4.07808
4.35437
3.68464
0.153542
0.460707
0.768099
1.07582
1.38391
1.69226
2.00056
2.30803
2.61281
2.91022
3.18783
3.41151
3.48597
3.14966
1.74818
0.146949
0.440942
0.735208
1.02989
1.32509
1.62074
1.91654
2.21151
2.50293
2.78361
3.03451
3.20655
3.17902
2.68458
1.26644
0.140286
0.420974
0.702005
0.983589
1.26591
1.54908
1.83306
2.11738
2.40046
2.67761
2.93589
3.14009
3.19627
2.86087
1.55881
0.133539
0.400758
0.668398
0.936748
1.20611
1.47682
1.74929
2.02407
2.30203
2.58467
2.87475
3.17633
3.48537
3.70839
3.11194
0.126691
0.380237
0.634282
0.889181
1.14535
1.4033
1.66387
1.9285
2.20029
2.48649
2.80556
3.20731
3.83413
5.12488
8.57293
0.119725
0.35936
0.599555
0.840714
1.08331
1.32795
1.57558
1.82791
2.08846
2.3654
2.6789
3.0819
3.72173
5.04312
8.54197
0.112629
0.338085
0.564143
0.791229
1.01982
1.25049
1.48401
1.72156
1.96521
2.21885
2.49004
2.79194
3.13593
3.44911
3.01133
0.105391
0.316381
0.528001
0.74068
0.954865
1.17102
1.38959
1.61094
1.83496
2.06005
2.27979
2.47267
2.57145
2.3765
1.35899
0.0980055
0.294233
0.491108
0.689065
0.88852
1.08984
1.29323
1.49842
1.70391
1.90491
2.08812
2.21869
2.21089
1.87505
0.887517
0.0904671
0.271625
0.453453
0.636391
0.820857
1.0072
1.19557
1.38565
1.57594
1.7621
1.93294
2.06074
2.07809
1.82611
0.962894
0.0827709
0.248544
0.415013
0.582639
0.751872
0.923123
1.0967
1.2727
1.45079
1.62987
1.80763
1.97942
2.13227
2.2016
1.77614
0.0749114
0.224974
0.375759
0.527756
0.681467
0.837407
0.996123
1.15827
1.3249
1.49852
1.68642
1.91119
2.24439
2.92063
4.76075
0.066883
0.200895
0.335652
0.471669
0.609497
0.749745
0.893139
1.04068
1.19411
1.35721
1.53957
1.7676
2.11824
2.83132
4.72799
0.0586817
0.176293
0.294659
0.414311
0.535831
0.65988
0.787252
0.918982
1.05657
1.20248
1.36097
1.53882
1.74034
1.92
1.67163
0.050306
0.151163
0.252764
0.355644
0.460394
0.56769
0.67832
0.793187
0.913226
1.03897
1.16887
1.29358
1.37754
1.30588
0.764462
0.0417587
0.125509
0.209973
0.295667
0.383176
0.473171
0.566428
0.663778
0.765892
0.872539
0.980352
1.07658
1.12278
1.01795
0.543035
0.0330479
0.099357
0.16632
0.234422
0.304219
0.376373
0.451677
0.531041
0.615388
0.705273
0.799853
0.894272
0.972887
0.986973
0.746009
0.0241876
0.0727465
0.121871
0.171991
0.223614
0.277377
0.334091
0.394825
0.461014
0.534726
0.619447
0.722905
0.867775
1.13309
1.81774
0.0151987
0.0457398
0.0767269
0.108508
0.141517
0.17632
0.213703
0.254803
0.301393
0.356512
0.426013
0.522747
0.678995
0.987944
1.75971
0.00610916
0.018421
0.0310267
0.0441687
0.0581664
0.0734663
0.0907237
0.110954
0.135831
0.168291
0.213652
0.281239
0.384146
0.521361
0.551821
-0.003046
-0.00910393
-0.0150489
-0.020769
-0.0260925
-0.0307517
-0.0343252
-0.0361303
-0.035009
-0.0289066
-0.0141565
0.0151859
0.0654506
0.128891
0.131479
-0.0122253
-0.0367086
-0.0612828
-0.0859848
-0.110815
-0.135726
-0.160605
-0.185251
-0.209316
-0.232119
-0.252107
-0.265408
-0.262406
-0.221335
-0.104465
-0.0213821
-0.0642507
-0.107429
-0.151112
-0.195484
-0.240725
-0.287048
-0.334778
-0.384502
-0.437287
-0.494701
-0.557331
-0.616698
-0.624203
-0.404339
-0.0304663
-0.0915778
-0.153225
-0.215762
-0.279548
-0.344971
-0.412513
-0.482918
-0.557561
-0.639239
-0.733666
-0.851522
-1.007
-1.18496
-1.11311
-0.0394261
-0.118533
-0.198402
-0.279543
-0.362473
-0.447741
-0.535987
-0.628113
-0.725733
-0.832332
-0.956349
-1.11958
-1.38168
-1.91918
-3.31795
-0.048209
-0.144957
-0.242693
-0.342078
-0.443772
-0.548439
-0.656759
-0.769487
-0.887663
-1.01332
-1.15179
-1.31897
-1.56508
-2.05528
-3.37013
-0.0567626
-0.170692
-0.285837
-0.403005
-0.523
-0.646592
-0.774461
-0.907067
-1.04438
-1.18541
-1.32726
-1.46353
-1.57896
-1.61868
-1.28382
-0.0650343
-0.195582
-0.327571
-0.461964
-0.599723
-0.741766
-0.888863
-1.04136
-1.19852
-1.3569
-1.50659
-1.62255
-1.64537
-1.4422
-0.748015
-0.0729723
-0.219469
-0.367629
-0.518579
-0.673463
-0.833421
-0.9995
-1.1724
-1.35178
-1.5344
-1.70933
-1.84622
-1.8687
-1.60666
-0.769042
-0.0805255
-0.242198
-0.405745
-0.572455
-0.74367
-0.920812
-1.10538
-1.29893
-1.50278
-1.71721
-1.93846
-2.1493
-2.28958
-2.1708
-1.27649
-0.0876458
-0.26362
-0.441659
-0.623193
-0.809751
-1.00303
-1.20502
-1.41827
-1.64641
-1.89526
-2.17479
-2.50133
-2.89033
-3.27348
-2.93577
-0.0942905
-0.283605
-0.475137
-0.670432
-0.871153
-1.07918
-1.29681
-1.52724
-1.77563
-2.05196
-2.37843
-2.80994
-3.4951
-4.87668
-8.43793
-0.100424
-0.302044
-0.505994
-0.713893
-0.927468
-1.14864
-1.37971
-1.62371
-1.88541
-2.17382
-2.50908
-2.94234
-3.61618
-4.96613
-8.47213
-0.106021
-0.318859
-0.534101
-0.7534
-0.97849
-1.21122
-1.4536
-1.70786
-1.97661
-2.26309
-2.57165
-2.90763
-3.26768
-3.55821
-3.04748
-0.111063
-0.333999
-0.55938
-0.788873
-1.02419
-1.26707
-1.5192
-1.78192
-2.05547
-2.33698
-2.61512
-2.85615
-2.96739
-2.70667
-1.50069
-0.11554
-0.347436
-0.581794
-0.820287
-1.06462
-1.31649
-1.57744
-1.84843
-2.12876
-2.41315
-2.68432
-2.89474
-2.92536
-2.51151
-1.20068
-0.119447
-0.359157
-0.601325
-0.847631
-1.0998
-1.35958
-1.62866
-1.90842
-2.1992
-2.49847
-2.79567
-3.05812
-3.19194
-2.93922
-1.65796
-0.122786
-0.369164
-0.617973
-0.87089
-1.12967
-1.39618
-1.67245
-1.96072
-2.26371
-2.58518
-2.93111
-3.31076
-3.7269
-4.08113
-3.52819
-0.125564
-0.377475
-0.631757
-0.890062
-1.15416
-1.426
-1.70787
-2.00275
-2.31533
-2.65484
-3.0431
-3.53798
-4.30479
-5.85295
-9.91461
-0.127795
-0.384132
-0.642734
-0.905196
-1.17325
-1.44882
-1.73422
-2.03245
-2.34821
-2.6906
-3.08101
-3.5763
-4.33999
-5.87916
-9.92471
-0.129505
-0.389208
-0.651019
-0.916435
-1.18709
-1.4648
-1.75163
-2.04995
-2.36255
-2.69294
-3.04602
-3.42817
-3.83659
-4.16472
-3.56129
-0.130731
-0.392813
-0.656789
-0.924019
-1.19601
-1.47442
-1.76104
-2.0575
-2.36449
-2.67948
-2.99079
-3.26172
-3.38888
-3.09711
-1.72499
-0.131522
-0.395095
-0.660285
-0.928283
-1.20044
-1.47831
-1.76357
-2.0577
-2.36082
-2.66852
-2.96355
-3.19506
-3.23204
-2.77969
-1.3316
-0.131945
-0.396245
-0.661818
-0.929639
-1.20089
-1.47704
-1.75993
-2.05162
-2.35392
-2.66632
-2.98036
-3.26341
-3.41495
-3.15371
-1.78203
-0.132079
-0.396504
-0.661776
-0.928596
-1.19791
-1.47107
-1.75012
-2.03815
-2.33994
-2.66294
-3.01863
-3.42303
-3.88445
-4.29882
-3.7549
-0.132023
-0.396168
-0.660645
-0.925803
-1.19223
-1.46099
-1.73405
-2.01507
-2.31119
-2.6368
-3.02303
-3.54297
-4.38657
-6.10932
-10.5651
-0.131895
-0.395591
-0.659028
-0.922109
-1.18491
-1.44791
-1.7124
-1.98147
-2.2619
-2.56851
-2.93453
-3.43806
-4.27808
-6.02177
-10.5298
-0.131828
-0.395186
-0.657643
-0.918587
-1.17743
-1.43375
-1.68756
-1.93995
-2.19436
-2.45891
-2.75049
-3.09943
-3.54196
-4.01438
-3.63639
-0.131965
-0.395397
-0.657294
-0.916502
-1.17168
-1.4213
-1.66365
-1.89699
-2.11973
-2.3305
-2.52655
-2.69573
-2.78502
-2.5975
-1.5309
-0.132445
-0.396664
-0.658797
-0.917189
-1.16977
-1.41388
-1.64598
-1.86133
-2.05337
-2.21224
-2.32122
-2.34746
-2.22026
-1.79101
-0.810959
-0.133386
-0.39937
-0.662882
-0.921886
-1.17372
-1.41476
-1.63989
-1.84184
-2.01
-2.1286
-2.17331
-2.10567
-1.86523
-1.367
-0.536735
-0.13487
-0.403783
-0.670079
-0.931537
-1.18515
-1.42665
-1.64987
-1.84575
-2.00101
-2.09622
-2.10339
-1.98383
-1.68918
-1.17353
-0.431395
-0.136925
-0.410003
-0.680619
-0.946612
-1.20495
-1.45121
-1.67879
-1.87782
-2.03368
-2.12494
-2.12143
-1.98354
-1.66657
-1.13731
-0.409832
-0.13951
-0.41792
-0.69435
-0.966975
-1.23312
-1.48871
-1.72749
-1.93985
-2.11114
-2.21941
-2.23275
-2.10754
-1.79135
-1.2387
-0.452278
-0.142517
-0.427199
-0.710704
-0.991815
-1.26858
-1.53785
-1.7945
-2.03035
-2.23233
-2.37976
-2.44022
-2.36412
-2.08027
-1.50241
-0.57675
-0.145763
-0.437284
-0.728699
-1.01964
-1.30923
-1.59572
-1.87593
-2.14432
-2.39134
-2.60044
-2.74245
-2.7649
-2.57331
-2.0076
-0.859438
-0.14901
-0.447428
-0.747002
-1.04838
-1.352
-1.65791
-1.96552
-2.27309
-2.57663
-2.86765
-3.12763
-3.31423
-3.32607
-2.91722
-1.53846
-0.151977
-0.456755
-0.764029
-1.07554
-1.39313
-1.71888
-2.05511
-2.4046
-2.77055
-3.15633
-3.56367
-3.98481
-4.37088
-4.50029
-3.39679
-0.154365
-0.464334
-0.778094
-1.09843
-1.42858
-1.77252
-2.13547
-2.52464
-2.95063
-3.42993
-3.98997
-4.67964
-5.59394
-6.9393
-9.20642
49.3671
36.7973
29.2069
23.9937
20.0667
16.92
14.289
12.019
10.0119
8.20045
6.53574
4.98037
3.50419
2.08176
0.69051
18.0369
23.5013
22.3797
19.9582
17.4479
15.1152
12.9962
11.0705
9.30697
7.67523
6.14832
4.70266
3.3175
1.97416
0.655355
7.96323
14.7786
16.455
15.9844
14.7055
13.162
11.5691
10.0093
8.51043
7.07717
5.70442
4.38291
3.10175
1.8495
0.614575
4.21661
9.62453
12.0214
12.5716
12.1468
11.2429
10.1189
8.90576
7.66827
6.43706
5.22491
4.03511
2.86591
1.71279
0.569783
2.57087
6.56141
8.86998
9.83597
9.92082
9.47665
8.73053
7.81905
6.82171
5.78369
4.72983
3.67298
2.61888
1.56905
0.522597
1.72458
4.66627
6.65088
7.71213
8.06209
7.92
7.45692
6.79192
6.00337
5.14127
4.2368
3.30893
2.36887
1.42294
0.474536
1.23068
3.43576
5.07294
6.08218
6.545
6.58621
6.32349
5.85054
5.23607
4.52826
3.75998
2.95331
2.12291
1.27855
0.426932
0.914736
2.5996
3.93104
4.83164
5.32065
5.46344
5.33602
5.0074
4.53356
3.9572
3.30981
2.61416
1.88664
1.1392
0.380882
0.699211
2.00886
3.0883
3.86688
4.3367
4.52828
4.48824
4.26509
3.90221
3.43545
2.89313
2.29711
1.66418
1.00738
0.337225
0.54533
1.57796
2.45448
3.1165
3.54595
3.75395
3.76759
3.61977
3.34298
2.96615
2.51372
2.00569
1.45829
0.884834
0.296548
0.431743
1.25546
1.9696
2.5276
2.90897
3.11456
3.15902
3.06401
2.85319
2.54933
2.17289
1.74158
1.27049
0.772578
0.259208
0.345771
1.00904
1.59314
2.06134
2.39405
2.58703
2.64731
2.58865
2.42799
2.1829
1.87017
1.50508
1.10131
0.671049
0.22537
0.279428
0.8176
1.29716
1.68917
1.97614
2.15166
2.21816
2.1841
2.0614
1.86343
1.60378
1.29543
0.95051
0.580225
0.195045
0.227449
0.666853
1.06198
1.38992
1.6356
1.79198
1.85884
1.8411
1.74705
1.58679
1.3712
1.11118
0.817318
0.499739
0.168127
0.186226
0.546851
0.873447
1.14778
1.35709
1.49445
1.55824
1.55109
1.47867
1.34857
1.16945
0.950414
0.700592
0.428995
0.144433
0.153217
0.450477
0.721205
0.950792
1.12852
1.248
1.3069
1.3064
1.25033
1.14438
0.995429
0.811018
0.598984
0.36725
0.123725
0.126579
0.372524
0.597528
0.78981
0.940412
1.0436
1.09681
1.1003
1.05662
0.970039
0.846023
0.6908
0.511051
0.313692
0.105742
0.104949
0.309112
0.496571
0.657766
0.785221
0.873896
0.921227
0.926938
0.892692
0.821691
0.718281
0.587608