/*--------------------------------*- C++ -*----------------------------------*\
| =========                 |                                                 |
| \\      /  F ield         | OpenFOAM: The Open Source CFD Toolbox           |
|  \\    /   O peration     | Version:  5.x                                   |
|   \\  /    A nd           | Web:      www.OpenFOAM.org                      |
|    \\/     M anipulation  |                                                 |
\*---------------------------------------------------------------------------*/
FoamFile
{
    version     2.0;
    format      ascii;
    class       volScalarField;
    location    "0.1";
    object      gradTy;
}
// * * * * * * * * * * * * * * * * * * * * * * * * * * * * * * * * * * * * * //

dimensions      [0 -1 0 1 0 0 0];

internalField   nonuniform List<scalar> 
3200
(
66.4463
20.013
9.46471
19.8833
15.4086
19.4771
15.7458
18.6483
15.2332
17.4658
14.7554
16.1741
14.9338
15.776
14.6118
15.2858
14.3507
14.7742
14.4704
14.6285
14.519
14.579
14.5371
14.5601
14.551
14.5613
14.5555
14.5694
14.544
14.558
14.5511
14.5599
14.5527
14.5583
14.563
14.57
14.5568
14.5646
14.5607
14.5646
14.5648
14.5701
14.5646
14.571
14.5673
14.5725
14.5698
14.5732
14.5754
14.5801
14.5714
14.5769
14.5741
14.5764
14.5786
14.5791
14.5783
14.5757
14.5792
14.5685
14.5768
14.5416
14.6097
14.5433
14.635
14.5387
14.6864
14.5573
14.778
14.634
14.9493
14.8551
15.3174
15.6625
15.1087
16.1017
17.6928
18.3677
18.5679
18.617
59.5192
23.1852
12.8022
19.2278
16.3176
18.9043
16.3648
18.1507
15.7572
17.0928
15.1605
16.0024
15.1282
15.6214
14.7727
15.1593
14.487
14.7352
14.5199
14.6142
14.537
14.5732
14.5442
14.5586
14.5529
14.5599
14.5567
14.5655
14.5478
14.5566
14.5526
14.5585
14.5541
14.5583
14.5629
14.5677
14.5589
14.5639
14.5614
14.5642
14.565
14.5688
14.5657
14.5701
14.5681
14.5718
14.5704
14.5731
14.5754
14.5786
14.5727
14.5763
14.5747
14.5764
14.5785
14.579
14.5784
14.5766
14.5785
14.5711
14.5751
14.5528
14.5997
14.5584
14.6209
14.5617
14.6647
14.5882
14.7475
14.6703
14.9108
14.8863
15.2685
15.5292
15.2159
16.0778
17.7295
18.3867
18.574
18.619
54.0452
25.319
15.4671
18.9455
17.0065
18.5363
16.8106
17.8201
16.1317
16.8504
15.4543
15.8991
15.2677
15.5204
14.8842
15.075
14.5864
14.7146
14.5569
14.6068
14.5505
14.5701
14.5496
14.5578
14.5543
14.5588
14.5574
14.5627
14.5505
14.5557
14.5536
14.5575
14.5552
14.5583
14.5626
14.566
14.5604
14.5634
14.5619
14.5639
14.5651
14.5678
14.5664
14.5695
14.5687
14.5712
14.5709
14.5729
14.5753
14.5774
14.5736
14.5758
14.5751
14.5765
14.5784
14.5788
14.5785
14.5773
14.5782
14.5731
14.5744
14.5611
14.5932
14.5694
14.6116
14.5781
14.65
14.6096
14.7265
14.6939
14.8829
14.9011
15.2245
15.4189
15.2761
16.0223
17.8059
18.4246
18.5857
18.6228
49.7201
26.6977
17.5985
18.8797
17.5565
18.2984
17.1468
17.5973
16.4098
16.6924
15.6744
15.8388
15.3717
15.4549
14.9624
15.0178
14.6611
14.7054
14.5856
14.6036
14.5609
14.5684
14.5537
14.5575
14.5553
14.5579
14.5578
14.5605
14.5524
14.5551
14.5544
14.5567
14.556
14.5581
14.5624
14.5646
14.5615
14.5631
14.5622
14.5635
14.5651
14.5669
14.5669
14.5689
14.5691
14.5707
14.5712
14.5727
14.5751
14.5765
14.5742
14.5754
14.5755
14.5764
14.5783
14.5787
14.5785
14.5779
14.578
14.5749
14.5742
14.5675
14.5888
14.5776
14.6053
14.5902
14.6398
14.6247
14.7114
14.7085
14.8617
14.9037
15.1856
15.3221
15.3007
15.9252
17.929
18.4807
18.6025
18.6282
46.3157
27.5193
19.3146
18.9179
18.0237
18.1361
17.4188
17.4398
16.6289
16.5863
15.8471
15.8036
15.4537
15.4122
15.0187
14.977
14.7197
14.7028
14.6087
14.6027
14.5692
14.5677
14.5571
14.5573
14.5561
14.557
14.558
14.5587
14.5539
14.5545
14.555
14.5559
14.5566
14.5579
14.5622
14.5633
14.5624
14.5629
14.5624
14.563
14.565
14.5661
14.5674
14.5683
14.5694
14.5702
14.5714
14.5724
14.575
14.5757
14.5746
14.5751
14.5757
14.5763
14.5782
14.5785
14.5786
14.5783
14.5779
14.5765
14.5743
14.5728
14.5857
14.5843
14.6007
14.5996
14.6322
14.6356
14.6998
14.7168
14.845
14.8966
15.1525
15.2315
15.2994
15.773
18.1101
18.5541
18.6232
18.6345
43.6632
27.9171
20.7183
18.976
18.4507
18.0069
17.6612
17.3155
16.8173
16.5081
15.9919
15.7806
15.5232
15.3837
15.0608
14.9448
14.7686
14.7032
14.6283
14.603
14.5763
14.5673
14.5601
14.5573
14.5569
14.5562
14.5583
14.5571
14.5552
14.5539
14.5555
14.5552
14.5572
14.5575
14.5621
14.5622
14.5632
14.5627
14.5626
14.5625
14.565
14.5652
14.5678
14.5678
14.5697
14.5697
14.5717
14.572
14.5749
14.5749
14.575
14.5747
14.5759
14.5761
14.5781
14.5784
14.5787
14.5788
14.5778
14.5781
14.5743
14.5775
14.5831
14.5902
14.5967
14.6078
14.6257
14.6441
14.6901
14.7207
14.8313
14.8813
15.1264
15.1414
15.282
15.5463
18.367
18.6425
18.6461
18.6413
41.6404
27.9731
21.9038
18.9855
18.8744
17.8738
17.9036
17.1974
16.9981
16.4381
16.1246
15.7595
15.5881
15.3625
15.0948
14.9151
14.8132
14.704
14.6459
14.6033
14.5827
14.5668
14.5629
14.5571
14.5576
14.5553
14.5587
14.5556
14.5564
14.5533
14.5562
14.5544
14.5579
14.557
14.5622
14.561
14.5642
14.5625
14.5627
14.5619
14.5651
14.5642
14.5683
14.5671
14.5701
14.5692
14.572
14.5715
14.575
14.5741
14.5754
14.5742
14.5762
14.5759
14.5782
14.5782
14.5788
14.5794
14.5777
14.58
14.574
14.5821
14.5805
14.5962
14.5926
14.6156
14.6191
14.6515
14.681
14.7214
14.8201
14.8583
15.1096
15.0463
15.2596
15.2173
18.7257
18.7417
18.6694
18.648
40.1645
27.7253
22.9634
18.8828
19.3338
17.6997
18.1756
17.0592
17.1935
16.3584
16.2594
15.7307
15.6553
15.343
15.1252
14.8823
14.8581
14.7028
14.6629
14.6028
14.5889
14.5659
14.5658
14.5567
14.5585
14.5541
14.5593
14.5539
14.5578
14.5524
14.5571
14.5534
14.5588
14.5562
14.5626
14.5596
14.5653
14.5622
14.5629
14.5612
14.5654
14.563
14.5691
14.5664
14.5707
14.5685
14.5725
14.5708
14.5752
14.5733
14.5759
14.5737
14.5766
14.5755
14.5783
14.5781
14.5789
14.58
14.5775
14.5821
14.5732
14.5871
14.5773
14.603
14.5874
14.6243
14.6115
14.6591
14.6715
14.7198
14.8113
14.8267
15.1054
14.9401
15.2474
14.7463
19.224
18.8445
18.6906
18.6537
39.1863
27.1706
23.9959
18.599
19.8767
17.4413
18.5115
16.8711
17.4278
16.2495
16.4116
15.684
15.732
15.3199
15.1568
14.8408
14.9083
14.6971
14.6808
14.6004
14.5955
14.5641
14.569
14.5559
14.5597
14.5526
14.5605
14.5518
14.5597
14.5512
14.5583
14.5521
14.56
14.5552
14.5634
14.558
14.5668
14.5618
14.5633
14.5602
14.5659
14.5616
14.5703
14.5654
14.5716
14.5676
14.5732
14.57
14.5758
14.5723
14.5766
14.573
14.5772
14.5751
14.5787
14.578
14.579
14.5809
14.577
14.5849
14.5715
14.5931
14.5727
14.6114
14.5802
14.635
14.6015
14.6681
14.6607
14.7165
14.8056
14.7847
15.1189
14.8151
15.2676
14.0761
19.9167
18.9382
18.7071
18.658
38.6889
26.2626
25.1176
18.0485
20.5685
17.0429
18.956
16.5953
17.7317
16.0871
16.5996
15.6064
15.8273
15.287
15.1946
14.7841
14.9697
14.6836
14.7013
14.5951
14.6032
14.5608
14.5731
14.5544
14.5613
14.5506
14.5623
14.5492
14.5622
14.5493
14.5602
14.5502
14.5618
14.5536
14.5648
14.5558
14.5689
14.5612
14.5638
14.559
14.567
14.5597
14.572
14.564
14.5729
14.5663
14.5744
14.5689
14.5768
14.571
14.5777
14.572
14.5781
14.5745
14.5792
14.5778
14.5792
14.582
14.5761
14.5886
14.5684
14.6008
14.5658
14.6228
14.5697
14.6493
14.5875
14.6801
14.6473
14.712
14.8044
14.7285
15.1581
14.6598
15.3535
13.1247
20.8821
19.002
18.7164
18.6603
-23.079
-19.757
-23.9232
-18.4957
-20.7569
-17.2198
-18.8374
-16.4413
-17.381
-15.8127
-16.2235
-15.3172
-15.4829
-15.0094
-14.9129
-14.574
-14.706
-14.4816
-14.4788
-14.4049
-14.3985
-14.3761
-14.3745
-14.3677
-14.3693
-14.367
-14.3679
-14.3673
-14.3675
-14.3674
-14.3691
-14.3691
-14.3695
-14.3696
-14.3714
-14.3722
-14.3708
-14.3723
-14.3716
-14.3728
-14.3739
-14.375
-14.3739
-14.375
-14.3751
-14.376
-14.3759
-14.3765
-14.3776
-14.378
-14.378
-14.3787
-14.3786
-14.3791
-14.3801
-14.3815
-14.3796
-14.3827
-14.3827
-14.3943
-14.3697
-14.394
-14.3618
-14.4012
-14.3465
-14.4108
-14.3261
-14.4266
-14.3011
-14.4666
-14.3067
-14.8298
-13.4851
-14.5246
-12.1101
-12.7515
-12.8534
-12.8749
-12.8798
-12.881
-23.2118
-20.8395
-22.9249
-19.0599
-20.1171
-17.6134
-18.3984
-16.6953
-17.0943
-15.9568
-16.0533
-15.3836
-15.3995
-15.0356
-14.8815
-14.618
-14.6576
-14.49
-14.4645
-14.4069
-14.3945
-14.3768
-14.3733
-14.3681
-14.3687
-14.3672
-14.3677
-14.3673
-14.3675
-14.3676
-14.369
-14.3692
-14.3695
-14.3697
-14.3713
-14.3719
-14.371
-14.3721
-14.3719
-14.3728
-14.3739
-14.3747
-14.3741
-14.375
-14.3752
-14.3759
-14.376
-14.3765
-14.3775
-14.378
-14.3781
-14.3786
-14.3787
-14.3792
-14.3801
-14.3811
-14.38
-14.3822
-14.3829
-14.3903
-14.3732
-14.3884
-14.3668
-14.3917
-14.355
-14.3958
-14.3396
-14.4039
-14.3212
-14.4291
-14.3299
-14.6367
-13.6576
-14.2252
-12.4256
-12.7732
-12.8566
-12.8756
-12.88
-12.8811
-23.4395
-21.7435
-22.1645
-19.4272
-19.6198
-17.8755
-18.0591
-16.8653
-16.8692
-16.0516
-15.9139
-15.4226
-15.3314
-15.0535
-14.8546
-14.6499
-14.6175
-14.4927
-14.4515
-14.4071
-14.3907
-14.3768
-14.3721
-14.3682
-14.3683
-14.3673
-14.3675
-14.3673
-14.3675
-14.3677
-14.3689
-14.3692
-14.3695
-14.3698
-14.3712
-14.3717
-14.3712
-14.372
-14.3721
-14.3728
-14.3739
-14.3746
-14.3743
-14.3749
-14.3753
-14.3759
-14.3761
-14.3766
-14.3775
-14.3779
-14.3782
-14.3785
-14.3787
-14.3792
-14.3801
-14.3808
-14.3802
-14.3818
-14.3829
-14.3872
-14.3754
-14.3843
-14.37
-14.3847
-14.3603
-14.3847
-14.3483
-14.3871
-14.3338
-14.3999
-14.3369
-14.4952
-13.7683
-14.0206
-12.6552
-12.8055
-12.8625
-12.8769
-12.8804
-12.8812
-23.7349
-22.5629
-21.5304
-19.6773
-19.2001
-18.0606
-17.775
-16.9875
-16.677
-16.1193
-15.7887
-15.4458
-15.2709
-15.0683
-14.8279
-14.675
-14.5812
-14.492
-14.4387
-14.4063
-14.3868
-14.3766
-14.3709
-14.3681
-14.368
-14.3674
-14.3674
-14.3672
-14.3675
-14.3677
-14.3689
-14.3692
-14.3695
-14.3698
-14.3711
-14.3715
-14.3714
-14.3719
-14.3722
-14.3728
-14.3739
-14.3744
-14.3745
-14.3749
-14.3754
-14.3758
-14.3762
-14.3766
-14.3776
-14.3779
-14.3782
-14.3785
-14.3788
-14.3792
-14.38
-14.3805
-14.3803
-14.3813
-14.3827
-14.3849
-14.3769
-14.3811
-14.372
-14.3793
-14.3638
-14.3761
-14.354
-14.3739
-14.3416
-14.376
-14.3351
-14.389
-13.8399
-13.8807
-12.8243
-12.8415
-12.8702
-12.8787
-12.8809
-12.8814
-24.0772
-23.3766
-20.9291
-19.8724
-18.8069
-18.2116
-17.511
-17.0908
-16.4948
-16.1781
-15.6642
-15.4623
-15.2116
-15.0847
-14.7978
-14.6977
-14.5447
-14.49
-14.425
-14.4049
-14.3826
-14.3761
-14.3696
-14.368
-14.3677
-14.3674
-14.3672
-14.3672
-14.3675
-14.3677
-14.3689
-14.3692
-14.3695
-14.3698
-14.3711
-14.3714
-14.3715
-14.3718
-14.3724
-14.3728
-14.374
-14.3743
-14.3746
-14.3749
-14.3755
-14.3758
-14.3764
-14.3766
-14.3776
-14.3779
-14.3783
-14.3785
-14.3789
-14.3792
-14.38
-14.3803
-14.3804
-14.3809
-14.3825
-14.3829
-14.3778
-14.3784
-14.3734
-14.3748
-14.3661
-14.3689
-14.3581
-14.3629
-14.3467
-14.355
-14.3296
-14.3071
-13.8879
-13.7847
-12.9504
-12.8771
-12.8787
-12.8808
-12.8815
-12.8817
-24.4475
-24.2602
-20.2722
-20.0679
-18.3949
-18.3668
-17.2359
-17.2011
-16.3015
-16.2447
-15.5272
-15.4807
-15.1473
-15.1075
-14.7603
-14.7226
-14.5042
-14.4884
-14.4096
-14.4036
-14.3777
-14.3756
-14.3681
-14.3678
-14.3673
-14.3674
-14.3671
-14.3671
-14.3675
-14.3677
-14.369
-14.3692
-14.3696
-14.3698
-14.3711
-14.3713
-14.3717
-14.3717
-14.3726
-14.3727
-14.3741
-14.3742
-14.3748
-14.3749
-14.3756
-14.3757
-14.3765
-14.3766
-14.3777
-14.3778
-14.3784
-14.3785
-14.379
-14.3791
-14.3801
-14.3801
-14.3805
-14.3805
-14.3823
-14.3812
-14.3785
-14.3759
-14.3746
-14.3707
-14.368
-14.3622
-14.3615
-14.3527
-14.3508
-14.3354
-14.3239
-14.241
-13.9233
-13.718
-13.0461
-12.9098
-12.8871
-12.883
-12.8821
-12.882
-24.8253
-25.2958
-19.4639
-20.3221
-17.9171
-18.5661
-16.9169
-17.346
-16.0745
-16.3378
-15.3633
-15.5107
-15.0712
-15.1426
-14.7104
-14.7547
-14.4557
-14.4893
-14.3912
-14.4031
-14.3718
-14.3754
-14.3664
-14.3676
-14.367
-14.3675
-14.3669
-14.3671
-14.3676
-14.3677
-14.3691
-14.3692
-14.3696
-14.3697
-14.3712
-14.3711
-14.3718
-14.3716
-14.3728
-14.3726
-14.3743
-14.3741
-14.375
-14.3748
-14.3758
-14.3757
-14.3766
-14.3766
-14.3778
-14.3778
-14.3785
-14.3784
-14.3791
-14.3791
-14.3801
-14.3799
-14.3806
-14.3799
-14.3822
-14.3795
-14.3792
-14.3734
-14.3758
-14.3666
-14.37
-14.3553
-14.3653
-14.3422
-14.3555
-14.3157
-14.3211
-14.1842
-13.9542
-13.6699
-13.1204
-12.9379
-12.8948
-12.885
-12.8827
-12.8822
-25.1843
-26.5836
-18.3881
-20.7069
-17.3172
-18.8574
-16.5147
-17.5588
-15.786
-16.4803
-15.1545
-15.564
-14.9747
-15.1978
-14.6413
-14.8004
-14.3938
-14.4955
-14.3684
-14.4043
-14.3646
-14.3757
-14.3642
-14.3675
-14.3666
-14.3675
-14.3667
-14.367
-14.3676
-14.3676
-14.3693
-14.3692
-14.3697
-14.3695
-14.3713
-14.3709
-14.372
-14.3714
-14.373
-14.3725
-14.3745
-14.374
-14.3752
-14.3747
-14.376
-14.3756
-14.3768
-14.3765
-14.378
-14.3777
-14.3786
-14.3783
-14.3793
-14.379
-14.3802
-14.3796
-14.3807
-14.3793
-14.3824
-14.3778
-14.3801
-14.3706
-14.3775
-14.362
-14.3728
-14.3474
-14.3704
-14.3303
-14.3623
-14.2941
-14.3239
-14.1312
-13.9873
-13.6325
-13.18
-12.9604
-12.9012
-12.8867
-12.8833
-12.8824
-25.4873
-28.2552
-16.8917
-21.32
-16.52
-19.3038
-15.977
-17.8842
-15.3987
-16.7035
-14.8761
-15.6572
-14.8455
-15.2841
-14.5436
-14.8688
-14.3115
-14.5108
-14.3391
-14.4085
-14.3553
-14.3768
-14.3614
-14.3675
-14.3661
-14.3677
-14.3665
-14.3669
-14.3677
-14.3674
-14.3695
-14.3691
-14.3697
-14.3693
-14.3716
-14.3707
-14.3723
-14.3711
-14.3734
-14.3722
-14.3748
-14.3737
-14.3755
-14.3745
-14.3762
-14.3754
-14.377
-14.3763
-14.3782
-14.3776
-14.3788
-14.3782
-14.3794
-14.3788
-14.3804
-14.3793
-14.3809
-14.3784
-14.3828
-14.3758
-14.3814
-14.3671
-14.3801
-14.3563
-14.3769
-14.3375
-14.3779
-14.3155
-14.3731
-14.2686
-14.3356
-14.0762
-14.0287
-13.5988
-13.2303
-12.9764
-12.9057
-12.888
-12.8836
-12.8826
-25.6797
-30.4922
-14.7637
-22.3022
-15.4194
-19.9946
-15.2297
-18.3851
-14.8596
-17.0518
-14.4933
-15.8139
-14.6663
-15.4175
-14.4031
-14.9724
-14.199
-14.5409
-14.3001
-14.4176
-14.343
-14.3795
-14.3577
-14.3678
-14.3655
-14.368
-14.3662
-14.3667
-14.3678
-14.3671
-14.3698
-14.3691
-14.3698
-14.369
-14.3719
-14.3703
-14.3726
-14.3706
-14.3738
-14.3718
-14.3753
-14.3734
-14.3758
-14.3742
-14.3765
-14.3751
-14.3773
-14.376
-14.3785
-14.3774
-14.379
-14.3779
-14.3797
-14.3785
-14.3807
-14.3789
-14.3813
-14.3773
-14.3837
-14.3732
-14.3836
-14.3625
-14.3842
-14.3488
-14.3835
-14.3244
-14.3896
-14.2958
-14.3904
-14.2362
-14.3604
-14.0127
-14.0854
-13.5627
-13.2758
-12.985
-12.9081
-12.8886
-12.8838
-12.8826
25.8287
30.6228
14.7631
22.1657
15.3918
19.7014
14.8724
18.1191
14.5666
17.085
14.5238
15.9553
14.8024
15.5915
14.5442
15.1345
14.3084
14.6774
14.4297
14.5748
14.4948
14.5435
14.517
14.5341
14.5318
14.5404
14.5347
14.5452
14.5272
14.5373
14.5317
14.54
14.5322
14.5381
14.5427
14.5501
14.5363
14.5446
14.5402
14.5444
14.5444
14.5497
14.5443
14.5506
14.5471
14.5525
14.5491
14.5543
14.551
14.555
14.5569
14.5623
14.5524
14.5581
14.5584
14.5633
14.5546
14.5584
14.5578
14.5574
14.5547
14.5459
14.561
14.5401
14.5621
14.5258
14.5723
14.516
14.576
14.4827
14.5647
14.3178
14.3478
14.0323
13.7379
13.5994
13.5596
13.5492
13.5467
13.5461
25.637
28.3822
16.8994
21.2197
16.4614
19.0342
15.5818
17.5558
15.1587
16.7229
14.9291
15.7949
14.9881
15.4533
14.6901
15.0257
14.4259
14.6424
14.4735
14.564
14.5094
14.5398
14.522
14.5332
14.5329
14.5391
14.536
14.5426
14.5298
14.5361
14.5329
14.5385
14.5337
14.5381
14.5426
14.5478
14.5385
14.5438
14.541
14.5439
14.5447
14.5485
14.5454
14.5497
14.5479
14.5517
14.5499
14.5535
14.5517
14.5547
14.557
14.5607
14.554
14.5577
14.5586
14.5619
14.5559
14.5583
14.558
14.5575
14.5548
14.5488
14.5584
14.5446
14.5581
14.5343
14.5645
14.5277
14.5656
14.5035
14.5499
14.363
14.3051
14.0363
13.7266
13.5954
13.5584
13.5489
13.5466
13.546
25.3355
26.7108
18.4035
20.6368
17.2376
18.6079
16.0739
17.167
15.5922
16.4948
15.2278
15.7012
15.1229
15.364
14.792
14.9542
14.5106
14.6227
14.5069
14.5589
14.5205
14.5378
14.5258
14.5327
14.5337
14.538
14.5368
14.5407
14.5316
14.5352
14.5337
14.5373
14.5348
14.5381
14.5424
14.546
14.5401
14.5434
14.5415
14.5436
14.5448
14.5475
14.5461
14.5491
14.5484
14.551
14.5503
14.5528
14.5522
14.5545
14.5569
14.5594
14.555
14.5575
14.5587
14.5608
14.5568
14.5582
14.5581
14.5576
14.555
14.551
14.5568
14.548
14.5555
14.5406
14.5593
14.5364
14.5592
14.5198
14.5444
14.403
14.2708
14.0419
13.7081
13.5876
13.556
13.5483
13.5464
13.5459
24.979
25.4267
19.486
20.2791
17.823
18.3376
16.4209
16.8849
15.9264
16.3534
15.4567
15.6495
15.2248
15.3073
14.8643
14.9069
14.5731
14.6121
14.5335
14.5574
14.5294
14.5371
14.5288
14.5325
14.5343
14.5371
14.5373
14.5393
14.5328
14.5345
14.5342
14.5364
14.5357
14.5379
14.5422
14.5445
14.5413
14.543
14.5419
14.5432
14.5448
14.5466
14.5466
14.5485
14.5488
14.5504
14.5507
14.5522
14.5526
14.5542
14.5568
14.5583
14.5557
14.5572
14.5588
14.56
14.5574
14.5581
14.5582
14.5577
14.5553
14.5528
14.5557
14.5506
14.5537
14.5455
14.5558
14.5432
14.5551
14.5336
14.5455
14.4425
14.2403
14.0516
13.681
13.5762
13.5527
13.5474
13.5461
13.5458
24.6046
24.3982
20.2992
20.0514
18.2895
18.1644
16.6724
16.6595
16.205
16.2648
15.6419
15.6224
15.3062
15.2714
14.9172
14.8745
14.6205
14.6061
14.556
14.5579
14.5368
14.5369
14.5313
14.5323
14.5349
14.5364
14.5378
14.5382
14.5336
14.5339
14.5346
14.5356
14.5363
14.5377
14.542
14.5432
14.5423
14.5428
14.5422
14.5427
14.5447
14.5458
14.5471
14.548
14.5491
14.5499
14.5509
14.5517
14.5529
14.5539
14.5567
14.5574
14.5563
14.5569
14.5588
14.5593
14.5579
14.5581
14.5583
14.5579
14.5555
14.5544
14.5548
14.5529
14.5524
14.5496
14.553
14.549
14.5524
14.5459
14.5511
14.486
14.2092
14.0686
13.6433
13.5616
13.5486
13.5463
13.5458
13.5457
24.2386
23.5254
20.9583
19.8842
18.6905
18.0459
16.8648
16.4517
16.463
16.2035
15.8029
15.6071
15.3765
15.2483
14.9576
14.8506
14.6584
14.6016
14.5764
14.5594
14.5434
14.537
14.5335
14.532
14.5356
14.5356
14.5382
14.5373
14.5343
14.5333
14.535
14.5347
14.537
14.5373
14.5419
14.542
14.5432
14.5426
14.5423
14.5422
14.5447
14.5449
14.5475
14.5475
14.5493
14.5493
14.5511
14.5511
14.5532
14.5534
14.5567
14.5566
14.5567
14.5565
14.5588
14.5586
14.5583
14.558
14.5584
14.5582
14.5556
14.5558
14.5541
14.5552
14.5512
14.5535
14.5506
14.5546
14.5501
14.5578
14.5595
14.5379
14.1726
14.0969
13.5918
13.5441
13.5441
13.5451
13.5455
13.5456
23.901
22.7268
21.5576
19.7217
19.0695
17.9488
17.0265
16.227
16.7319
16.1479
15.9558
15.5932
15.4426
15.2317
14.9907
14.8301
14.6909
14.5958
14.5965
14.5608
14.5496
14.5369
14.5356
14.5316
14.5363
14.5347
14.5389
14.5365
14.5349
14.5325
14.5354
14.5338
14.5377
14.5368
14.5421
14.5407
14.5441
14.5424
14.5425
14.5417
14.5449
14.5439
14.548
14.5469
14.5497
14.5487
14.5514
14.5505
14.5535
14.5529
14.5568
14.5558
14.5572
14.5561
14.559
14.558
14.5587
14.5579
14.5585
14.5585
14.5556
14.5574
14.5532
14.5576
14.5497
14.5576
14.5479
14.5604
14.5472
14.5699
14.5689
14.6036
14.1245
14.1424
13.522
13.5248
13.5395
13.544
13.5452
13.5455
23.6104
21.9279
22.1837
19.512
19.4673
17.8439
17.1834
15.9501
17.0445
16.0767
16.1156
15.5709
15.5112
15.2165
15.0206
14.8089
14.7217
14.5862
14.6181
14.5612
14.5558
14.5364
14.5378
14.5308
14.5374
14.5336
14.5398
14.5357
14.5355
14.5316
14.5361
14.5327
14.5387
14.536
14.5425
14.5393
14.5454
14.5421
14.5428
14.5409
14.5451
14.5428
14.5488
14.5461
14.5502
14.5479
14.5519
14.5497
14.554
14.5522
14.5571
14.5549
14.5578
14.5555
14.5593
14.5573
14.5592
14.5578
14.5587
14.5591
14.5555
14.5592
14.552
14.5606
14.5477
14.5624
14.5444
14.5673
14.543
14.583
14.5769
14.6899
14.0565
14.2135
13.4273
13.505
13.5354
13.5431
13.5449
13.5454
23.387
21.0514
22.9268
19.1972
19.9283
17.7006
17.3633
15.5804
17.4397
15.9654
16.2989
15.5294
15.5894
15.1973
15.0513
14.7827
14.7544
14.5699
14.6433
14.5596
14.5627
14.5352
14.5405
14.5295
14.5389
14.5321
14.5411
14.5347
14.5363
14.5303
14.5371
14.5312
14.54
14.5349
14.5433
14.5376
14.547
14.5417
14.5432
14.54
14.5457
14.5414
14.55
14.5452
14.551
14.5469
14.5527
14.5487
14.5548
14.5513
14.5578
14.5538
14.5586
14.5547
14.5599
14.5565
14.5599
14.5576
14.559
14.5598
14.5551
14.5615
14.5503
14.5645
14.5445
14.5685
14.5393
14.5761
14.5363
14.598
14.5802
14.806
13.957
14.3224
13.2982
13.4872
13.5322
13.5424
13.5448
13.5453
23.257
20.0065
23.8941
18.7041
20.5078
17.4819
17.6012
15.0652
17.9685
15.782
16.5264
15.4548
15.6857
15.1684
15.087
14.747
14.7935
14.5434
14.6748
14.5547
14.5709
14.5326
14.5438
14.5274
14.5411
14.53
14.5432
14.5335
14.5374
14.5286
14.5387
14.5292
14.542
14.5333
14.5448
14.5353
14.5492
14.5411
14.5438
14.5387
14.5468
14.5395
14.5517
14.5438
14.5523
14.5456
14.5539
14.5474
14.5561
14.55
14.5589
14.5524
14.5599
14.5536
14.5609
14.5555
14.5609
14.5573
14.5593
14.5608
14.5543
14.5645
14.5476
14.5698
14.5397
14.5768
14.5316
14.5881
14.5255
14.6162
14.5738
14.9653
13.809
14.4869
13.1205
13.4752
13.5304
13.542
13.5447
13.5453
-23.9007
-23.7082
-19.8074
-18.7536
-19.0139
-17.5744
-17.8165
-15.7546
-18.2889
-15.9943
-16.7127
-15.5214
-15.7858
-15.1909
-15.0847
-14.6811
-14.7367
-14.4403
-14.5778
-14.4408
-14.4463
-14.4072
-14.4051
-14.3934
-14.3937
-14.3893
-14.3903
-14.3879
-14.3898
-14.3889
-14.3898
-14.3897
-14.3904
-14.3908
-14.3905
-14.3912
-14.3915
-14.3923
-14.3923
-14.3927
-14.3945
-14.3954
-14.3939
-14.3952
-14.3952
-14.3961
-14.3961
-14.3968
-14.3976
-14.3985
-14.3973
-14.3996
-14.3974
-14.4009
-14.3986
-14.4038
-14.3994
-14.4075
-14.4071
-14.4294
-14.3899
-14.4316
-14.3888
-14.4507
-14.3878
-14.4782
-14.3994
-14.5142
-14.4488
-14.555
-14.5924
-14.5757
-14.9718
-14.5404
-15.3754
-13.0765
-21.3141
-19.3264
-19.0248
-18.9655
-23.9085
-23.4912
-20.0593
-18.9753
-18.8081
-17.7165
-17.6997
-16.2673
-17.7859
-16.1929
-16.4705
-15.6073
-15.6765
-15.2244
-15.0439
-14.7241
-14.6896
-14.4696
-14.5422
-14.4452
-14.438
-14.4083
-14.4029
-14.3938
-14.393
-14.3897
-14.3899
-14.3882
-14.3895
-14.389
-14.3897
-14.3897
-14.3904
-14.3907
-14.3906
-14.3911
-14.3916
-14.3923
-14.3924
-14.3929
-14.3944
-14.3951
-14.3942
-14.3951
-14.3953
-14.396
-14.3962
-14.3968
-14.3975
-14.3983
-14.3976
-14.3991
-14.3979
-14.4003
-14.3991
-14.4027
-14.4003
-14.4063
-14.4078
-14.4225
-14.396
-14.4231
-14.3965
-14.4378
-14.3996
-14.4609
-14.4158
-14.4963
-14.467
-14.5495
-14.6028
-14.6223
-14.9418
-14.6994
-15.2912
-14.0865
-20.2916
-19.2589
-19.015
-18.9631
-23.9333
-23.395
-20.2176
-19.1606
-18.6395
-17.8159
-17.6397
-16.6621
-17.4077
-16.3168
-16.274
-15.656
-15.5881
-15.2472
-15.0086
-14.7558
-14.6499
-14.4873
-14.5134
-14.446
-14.4307
-14.4084
-14.4009
-14.3939
-14.3924
-14.39
-14.3895
-14.3884
-14.3893
-14.389
-14.3896
-14.3898
-14.3904
-14.3907
-14.3906
-14.3911
-14.3917
-14.3922
-14.3925
-14.3929
-14.3943
-14.3949
-14.3944
-14.3951
-14.3954
-14.396
-14.3964
-14.3968
-14.3975
-14.3981
-14.3977
-14.3988
-14.3982
-14.3998
-14.3995
-14.402
-14.401
-14.4052
-14.4079
-14.4173
-14.4
-14.4168
-14.4015
-14.4281
-14.4074
-14.4479
-14.4271
-14.4829
-14.4808
-14.5452
-14.6145
-14.6568
-14.9344
-14.8249
-15.2788
-14.8
-19.5585
-19.1597
-18.9974
-18.9585
-23.9798
-23.4046
-20.2913
-19.3246
-18.4833
-17.8896
-17.612
-16.9882
-17.1031
-16.399
-16.1007
-15.6828
-15.5107
-15.2659
-14.9741
-14.7817
-14.6126
-14.4975
-14.4884
-14.4447
-14.4237
-14.408
-14.3989
-14.3938
-14.3919
-14.3902
-14.3892
-14.3885
-14.3891
-14.389
-14.3896
-14.3898
-14.3905
-14.3907
-14.3907
-14.391
-14.3918
-14.3922
-14.3926
-14.393
-14.3943
-14.3947
-14.3946
-14.395
-14.3955
-14.396
-14.3965
-14.3969
-14.3975
-14.3979
-14.3978
-14.3985
-14.3984
-14.3995
-14.3998
-14.4013
-14.4014
-14.4043
-14.4078
-14.4131
-14.4026
-14.4118
-14.4048
-14.4203
-14.4128
-14.4374
-14.4354
-14.4718
-14.492
-14.5408
-14.6274
-14.6819
-14.9424
-14.9279
-15.3037
-15.3039
-19.0318
-19.0511
-18.9749
-18.9523
-24.0494
-23.5159
-20.2793
-19.4838
-18.3172
-17.9508
-17.5983
-17.2849
-16.8313
-16.465
-15.9323
-15.7
-15.4363
-15.2866
-14.9356
-14.8067
-14.5732
-14.5035
-14.4648
-14.4425
-14.4165
-14.4074
-14.3967
-14.3936
-14.3913
-14.3904
-14.3889
-14.3885
-14.389
-14.389
-14.3895
-14.3897
-14.3905
-14.3907
-14.3907
-14.391
-14.3919
-14.3922
-14.3927
-14.393
-14.3943
-14.3946
-14.3948
-14.395
-14.3957
-14.396
-14.3966
-14.3969
-14.3976
-14.3978
-14.3979
-14.3982
-14.3986
-14.3992
-14.4
-14.4007
-14.4017
-14.4033
-14.4077
-14.4096
-14.4045
-14.4075
-14.4073
-14.4134
-14.4169
-14.4279
-14.4422
-14.4613
-14.502
-14.5349
-14.6415
-14.6988
-14.9615
-15.0152
-15.3436
-15.6588
-18.6533
-18.9462
-18.9502
-18.9452
-24.1403
-23.7353
-20.1697
-19.6578
-18.1192
-18.0114
-17.583
-17.5873
-16.5561
-16.5377
-15.7519
-15.7183
-15.3574
-15.3154
-14.8882
-14.8359
-14.5272
-14.5082
-14.4405
-14.4405
-14.4087
-14.4068
-14.3942
-14.3934
-14.3908
-14.3906
-14.3885
-14.3885
-14.3889
-14.389
-14.3895
-14.3897
-14.3906
-14.3907
-14.3908
-14.3909
-14.3921
-14.3922
-14.3928
-14.393
-14.3944
-14.3945
-14.3949
-14.395
-14.3958
-14.3959
-14.3967
-14.3969
-14.3976
-14.3977
-14.398
-14.398
-14.3989
-14.3988
-14.4002
-14.4002
-14.4021
-14.4022
-14.4076
-14.4063
-14.4061
-14.4032
-14.4095
-14.4066
-14.4207
-14.4183
-14.4488
-14.45
-14.5123
-14.526
-14.6576
-14.7075
-14.9889
-15.0916
-15.3839
-15.9064
-18.3828
-18.8528
-18.9258
-18.9378
-24.2475
-24.0812
-19.9379
-19.8728
-17.8639
-18.0849
-17.5504
-17.931
-16.2404
-16.6411
-15.5413
-15.7498
-15.2657
-15.3596
-14.8258
-14.8753
-14.4696
-14.5149
-14.4135
-14.4398
-14.3996
-14.4066
-14.3912
-14.3932
-14.3901
-14.3909
-14.388
-14.3885
-14.3888
-14.389
-14.3895
-14.3896
-14.3907
-14.3907
-14.3908
-14.3907
-14.3923
-14.3922
-14.3929
-14.3929
-14.3945
-14.3944
-14.3951
-14.3949
-14.396
-14.3958
-14.3969
-14.3969
-14.3977
-14.3975
-14.3981
-14.3977
-14.3991
-14.3984
-14.4005
-14.3995
-14.4024
-14.4009
-14.4078
-14.4031
-14.4077
-14.3986
-14.4121
-14.3992
-14.4252
-14.4073
-14.4566
-14.4362
-14.5246
-14.5124
-14.677
-14.7069
-15.0235
-15.1604
-15.4151
-16.0759
-18.1927
-18.7754
-18.9039
-18.931
-24.3613
-24.586
-19.5428
-20.1655
-17.5192
-18.1885
-17.4811
-18.3575
-15.8409
-16.8044
-15.2784
-15.8089
-15.1509
-15.4287
-14.7401
-14.9329
-14.3939
-14.5274
-14.3814
-14.4417
-14.3887
-14.4073
-14.3876
-14.3933
-14.3892
-14.3913
-14.3874
-14.3885
-14.3886
-14.389
-14.3896
-14.3895
-14.3908
-14.3907
-14.3909
-14.3905
-14.3925
-14.3921
-14.3931
-14.3928
-14.3946
-14.3942
-14.3953
-14.3947
-14.3962
-14.3957
-14.3971
-14.3968
-14.3978
-14.3974
-14.3982
-14.3973
-14.3994
-14.3979
-14.4009
-14.3987
-14.403
-14.3993
-14.4085
-14.3994
-14.4099
-14.3931
-14.4157
-14.3901
-14.4314
-14.3937
-14.4672
-14.4181
-14.5409
-14.4917
-14.7018
-14.6949
-15.0652
-15.2245
-15.4301
-16.1872
-18.0639
-18.7161
-18.8861
-18.9253
-24.4659
-25.3013
-18.9209
-20.5888
-17.0418
-18.3469
-17.3482
-18.9195
-15.302
-17.0672
-14.933
-15.9154
-14.9985
-15.5365
-14.619
-15.0197
-14.2913
-14.551
-14.3411
-14.4481
-14.3748
-14.4095
-14.3829
-14.3937
-14.3881
-14.3919
-14.3866
-14.3885
-14.3885
-14.3889
-14.3896
-14.3894
-14.391
-14.3906
-14.3909
-14.3902
-14.3928
-14.392
-14.3933
-14.3926
-14.3949
-14.394
-14.3956
-14.3945
-14.3965
-14.3955
-14.3974
-14.3967
-14.398
-14.3971
-14.3984
-14.3968
-14.3999
-14.3973
-14.4015
-14.3976
-14.4038
-14.3971
-14.4099
-14.395
-14.4132
-14.386
-14.4212
-14.3784
-14.4408
-14.3756
-14.4826
-14.393
-14.564
-14.4606
-14.7352
-14.6677
-15.1153
-15.2867
-15.423
-16.2537
-17.9842
-18.6762
-18.8736
-18.9212
-24.5369
-26.305
-17.9769
-21.2204
-16.3701
-18.5973
-17.1124
-19.6889
-14.5477
-17.4857
-14.4628
-16.0977
-14.7877
-15.7024
-14.445
-15.1516
-14.1491
-14.5934
-14.288
-14.4617
-14.3566
-14.4142
-14.3766
-14.3947
-14.3866
-14.3929
-14.3855
-14.3886
-14.3884
-14.3889
-14.3896
-14.3891
-14.3913
-14.3905
-14.391
-14.3898
-14.3933
-14.3917
-14.3936
-14.3922
-14.3952
-14.3936
-14.3959
-14.3942
-14.3968
-14.3952
-14.3978
-14.3965
-14.3982
-14.3968
-14.3987
-14.396
-14.4006
-14.3963
-14.4024
-14.396
-14.4052
-14.3942
-14.4124
-14.3892
-14.4183
-14.3764
-14.4298
-14.3625
-14.4553
-14.3506
-14.5059
-14.3576
-14.5981
-14.4144
-14.7824
-14.62
-15.1766
-15.3504
-15.3882
-16.2842
-17.946
-18.6561
-18.8671
-18.919
)
;

boundaryField
{
    F1_1
    {
        type            calculated;
        value           nonuniform List<scalar> 
80
(
70.3166
18.1259
7.60891
20.3273
14.8869
19.8257
15.3836
18.9475
14.9261
17.6916
14.5196
16.2808
14.82
15.8693
14.5165
15.3618
14.2715
14.7994
14.4419
14.6377
14.5086
14.5826
14.533
14.5611
14.5498
14.5622
14.5547
14.5717
14.5418
14.5588
14.5502
14.5607
14.5519
14.5582
14.5631
14.5713
14.5556
14.565
14.5602
14.5649
14.5646
14.5708
14.5639
14.5716
14.5668
14.5729
14.5694
14.5733
14.5754
14.5809
14.5706
14.5772
14.5737
14.5763
14.5787
14.5791
14.5782
14.5752
14.5796
14.5671
14.578
14.5352
14.6158
14.5344
14.6436
14.5253
14.6995
14.539
14.7961
14.6121
14.9717
14.8349
15.343
15.7362
15.0417
16.1069
17.6839
18.363
18.5663
18.6165
)
;
    }
    F1_2
    {
        type            calculated;
        value           nonuniform List<scalar> 
80
(
-25.7401
-31.7785
-13.511
-22.9064
-14.7776
-20.4142
-14.7928
-18.6887
-14.5443
-17.2638
-14.2706
-15.9117
-14.5615
-15.4983
-14.3201
-15.0348
-14.1337
-14.5604
-14.2777
-14.4236
-14.3359
-14.3812
-14.3556
-14.3681
-14.3651
-14.3681
-14.366
-14.3667
-14.3678
-14.3669
-14.37
-14.369
-14.3699
-14.3688
-14.3721
-14.3701
-14.3728
-14.3704
-14.3741
-14.3715
-14.3755
-14.3732
-14.3761
-14.374
-14.3767
-14.3749
-14.3775
-14.3759
-14.3787
-14.3772
-14.3791
-14.3778
-14.3798
-14.3783
-14.3809
-14.3786
-14.3815
-14.3767
-14.3843
-14.3718
-14.3849
-14.3598
-14.3866
-14.3445
-14.3875
-14.3169
-14.3967
-14.2845
-14.401
-14.2178
-14.3766
-13.9779
-14.1184
-13.5432
-13.298
-12.9873
-12.9087
-12.8888
-12.8839
-12.8827
)
;
    }
    F1_3
    {
        type            calculated;
        value           nonuniform List<scalar> 
80
(
25.8889
31.9119
13.5062
22.75
14.7685
20.1078
14.4527
18.4544
14.2223
17.3066
14.2892
16.0559
14.694
15.6753
14.4581
15.2002
14.24
14.6996
14.4046
14.582
14.4864
14.546
14.5142
14.5346
14.5311
14.5412
14.534
14.5468
14.5257
14.538
14.531
14.5409
14.5313
14.5381
14.5428
14.5514
14.535
14.5451
14.5397
14.5446
14.5442
14.5504
14.5436
14.5511
14.5467
14.553
14.5486
14.5547
14.5505
14.5551
14.5568
14.5632
14.5515
14.5583
14.5582
14.564
14.5538
14.5585
14.5577
14.5574
14.5546
14.5442
14.5625
14.5375
14.5645
14.5209
14.5771
14.5092
14.5824
14.471
14.5748
14.2932
14.3718
14.0303
13.7418