/*--------------------------------*- C++ -*----------------------------------*\
| =========                 |                                                 |
| \\      /  F ield         | OpenFOAM: The Open Source CFD Toolbox           |
|  \\    /   O peration     | Version:  5.x                                   |
|   \\  /    A nd           | Web:      www.OpenFOAM.org                      |
|    \\/     M anipulation  |                                                 |
\*---------------------------------------------------------------------------*/
FoamFile
{
    version     2.0;
    format      ascii;
    class       volScalarField;
    location    "0.1";
    object      gradTx;
}
// * * * * * * * * * * * * * * * * * * * * * * * * * * * * * * * * * * * * * //

dimensions      [0 -1 0 1 0 0 0];

internalField   nonuniform List<scalar> 
3200
(
26.3828
29.2664
10.5511
3.49135
3.10237
2.23632
2.16758
1.85224
1.81231
1.40572
1.35551
0.709705
0.674109
0.571409
0.561211
0.464685
0.44881
0.178589
0.161984
0.0655445
0.0594587
0.0256437
0.0233459
0.00775421
0.0069652
0.00537744
0.00560935
0.0128631
0.0128666
0.00583906
0.00551532
0.00506464
0.00485541
0.000444143
0.000533385
0.00711932
0.00718544
0.00302764
0.00278589
0.00149785
0.00157594
0.0040584
0.00413078
0.00327243
0.00319315
0.00253583
0.00242846
0.00064642
0.000726112
0.00459565
0.00465004
0.00234717
0.00214565
-0.000113811
-0.000221171
0.000226768
5.74267e-05
-0.00289123
-0.00337052
-0.00855135
-0.0100638
-0.0364388
-0.0383678
-0.0525146
-0.0543586
-0.0791157
-0.0812253
-0.107567
-0.108745
-0.128127
-0.125766
-0.115089
-0.0885889
0.407772
0.44137
0.132108
0.112806
0.044124
0.0126762
-87.8099
34.8304
24.1408
10.3051
3.95232
3.07129
2.2541
2.08962
1.79547
1.70139
1.35081
1.23825
0.715337
0.635642
0.537361
0.513922
0.436964
0.402737
0.185487
0.14901
0.0685991
0.055065
0.0268251
0.0217238
0.00884464
0.00710161
0.00579298
0.00628059
0.0118632
0.0118649
0.0064076
0.0057096
0.00522378
0.00477379
0.00138828
0.00157616
0.00662383
0.00673036
0.0033381
0.00281135
0.0018814
0.00207413
0.00408457
0.00424253
0.00353065
0.0033471
0.0027716
0.00253846
0.0011709
0.00133285
0.00427492
0.00437978
0.00257338
0.00213518
0.000295956
3.77456e-05
0.000202159
-0.000219388
-0.00284642
-0.00399746
-0.0088603
-0.0122563
-0.033641
-0.0379614
-0.0502273
-0.0543506
-0.0744292
-0.0788828
-0.098916
-0.100715
-0.111435
-0.103816
-0.0785934
-0.0172551
0.396157
0.492157
0.384729
0.340394
0.130884
0.0371779
-91.5286
42.9237
19.923
9.75967
4.19443
3.03767
2.24577
2.01686
1.73071
1.60074
1.28638
1.13742
0.703245
0.597924
0.500325
0.468779
0.407539
0.363991
0.185159
0.137796
0.0689811
0.0512609
0.0270817
0.0204133
0.00948981
0.00722068
0.00613662
0.00674797
0.0110864
0.0110814
0.00678568
0.00589529
0.00538136
0.00480947
0.00218934
0.00242441
0.00632587
0.00641511
0.00353382
0.00285283
0.00221996
0.00249952
0.00418474
0.00438895
0.00376759
0.00351658
0.00299353
0.0026937
0.00163406
0.00182825
0.00406755
0.00418584
0.00274474
0.00218061
0.000642334
0.000279599
0.00020082
-0.000408164
-0.00286085
-0.00447614
-0.00922815
-0.0137296
-0.0315261
-0.0372375
-0.0482659
-0.0537047
-0.0703679
-0.0759173
-0.0909943
-0.0923283
-0.095477
-0.0825698
-0.0435411
0.0399985
0.397242
0.551086
0.634831
0.574594
0.213015
0.0591274
-95.2485
50.7033
16.4252
9.03036
4.26021
2.98946
2.21492
1.94638
1.65969
1.50745
1.21534
1.04799
0.678008
0.559906
0.460656
0.424833
0.377416
0.330664
0.179578
0.127446
0.0673228
0.0477176
0.0266393
0.0192737
0.00978908
0.00729238
0.00641238
0.00706615
0.0104831
0.0104695
0.0070274
0.00606576
0.00554106
0.00492686
0.00287598
0.00312579
0.00618019
0.00621848
0.00364133
0.00289222
0.00252186
0.00286853
0.00434397
0.00456819
0.0039895
0.00369672
0.00320629
0.00287909
0.00204682
0.00224161
0.00394479
0.00405406
0.00288079
0.00226477
0.000941444
0.000509832
0.000220413
-0.000523489
-0.0029091
-0.00482972
-0.00960644
-0.0146716
-0.0298951
-0.0363014
-0.0465287
-0.0526103
-0.0667516
-0.072571
-0.0836225
-0.0838687
-0.0801606
-0.062367
-0.0102666
0.0863085
0.40647
0.612827
0.890701
0.820855
0.286844
0.0768274
-98.9703
58.2072
13.4987
8.19607
4.18602
2.92141
2.16383
1.87663
1.5833
1.41977
1.13932
0.966681
0.642705
0.521145
0.418462
0.381362
0.347278
0.301521
0.170048
0.117422
0.0640484
0.0442361
0.02565
0.0182196
0.00980915
0.00729945
0.0066267
0.00727364
0.010017
0.00999444
0.00716971
0.00621853
0.00570409
0.00510144
0.00347031
0.00371472
0.00615488
0.00612619
0.00367547
0.00291624
0.0027949
0.00319219
0.00455302
0.00477927
0.00419968
0.00388445
0.00341221
0.00308437
0.0024182
0.00259435
0.00388551
0.00397331
0.00299427
0.00237693
0.00120456
0.000734039
0.000257824
-0.000573535
-0.00297638
-0.00506954
-0.00997372
-0.0152078
-0.0286173
-0.0352131
-0.0449579
-0.0511942
-0.0634687
-0.0690159
-0.0766831
-0.0755672
-0.0654069
-0.0435346
0.0212325
0.123681
0.42026
0.671719
1.16049
1.08569
0.347721
0.0886118
-102.695
65.4703
11.025
7.3101
4.00203
2.83309
2.09393
1.80712
1.50171
1.33676
1.05899
0.891435
0.599318
0.481642
0.373658
0.337785
0.317619
0.275818
0.157374
0.107436
0.0594365
0.0407087
0.0242163
0.0172057
0.00959353
0.00723309
0.00678811
0.00739709
0.00966122
0.00963131
0.00723687
0.00635358
0.00587035
0.00531685
0.00398931
0.00421552
0.00622802
0.00613048
0.00364168
0.00291451
0.00304697
0.00347708
0.00480718
0.00502227
0.00439895
0.00407813
0.00361202
0.00330283
0.00275554
0.00290215
0.00387405
0.00393492
0.00309297
0.00251095
0.00143925
0.000958091
0.000309035
-0.00056116
-0.00305653
-0.00519744
-0.0103284
-0.0154176
-0.0276129
-0.0339996
-0.0435282
-0.0495373
-0.0604556
-0.0653764
-0.0700953
-0.0676274
-0.0511208
-0.0264159
0.0512286
0.153295
0.435863
0.72113
1.45284
1.37707
0.38945
0.0929116
-106.422
72.5233
8.9097
6.40786
3.73249
2.72759
2.00594
1.73836
1.41451
1.25828
0.974254
0.821181
0.548965
0.441765
0.325983
0.293593
0.288839
0.253193
0.141968
0.0973786
0.0536587
0.037095
0.0224051
0.0162167
0.00916817
0.00709013
0.00690724
0.00745417
0.00939704
0.00936255
0.00724336
0.00647238
0.00603914
0.00556289
0.00444584
0.00464456
0.00638526
0.00623013
0.00353715
0.00287815
0.00328691
0.00372574
0.00510567
0.00529851
0.00458579
0.00427727
0.0038052
0.00353048
0.00306479
0.00317661
0.00389872
0.00393233
0.00318095
0.00266421
0.00164995
0.00118847
0.000368681
-0.00048422
-0.00315134
-0.00520629
-0.0106853
-0.0153438
-0.0268414
-0.0326612
-0.0422401
-0.0476846
-0.0576829
-0.0617455
-0.0637951
-0.0602488
-0.0371616
-0.0114125
0.0802521
0.175697
0.45137
0.752696
1.77749
1.70493
0.403543
0.0883865
-110.152
79.393
7.07765
5.51258
3.39615
2.61076
1.89978
1.67184
1.3206
1.1849
0.88429
0.755702
0.492023
0.402243
0.274984
0.248308
0.261306
0.233601
0.123906
0.087293
0.046799
0.0334092
0.0202555
0.0152629
0.00854426
0.00687137
0.00699707
0.00745524
0.00921177
0.00917699
0.00719573
0.00657744
0.00620937
0.00583428
0.00484946
0.00501164
0.00661805
0.00643102
0.003351
0.00279886
0.00352546
0.00393654
0.00545139
0.00561068
0.00475616
0.00448265
0.00399017
0.00376544
0.00335062
0.00342636
0.00395064
0.00396086
0.00325925
0.00283707
0.00183821
0.00143284
0.000429279
-0.000335115
-0.00327109
-0.00507867
-0.0110757
-0.0149971
-0.0262978
-0.031173
-0.0411179
-0.0456505
-0.0551483
-0.0581955
-0.0577189
-0.0536517
-0.0233081
0.000956414
0.109129
0.190896
0.465859
0.755335
2.14606
2.08196
0.378194
0.0741628
-113.885
86.1013
5.46948
4.63936
3.00657
2.49097
1.77431
1.61026
1.21808
1.11813
0.78745
0.695635
0.428134
0.364229
0.219973
0.201445
0.23541
0.217297
0.102927
0.0773676
0.0388585
0.0297159
0.0177805
0.0143787
0.00771872
0.00658067
0.00707351
0.00740424
0.00909801
0.00906914
0.00709341
0.0066723
0.00637967
0.00612983
0.00520697
0.00532074
0.00692237
0.00674741
0.00306355
0.00266825
0.00377648
0.00410302
0.00585114
0.00596317
0.00490305
0.00469654
0.00416419
0.00400775
0.00361658
0.00365794
0.00402289
0.00401764
0.00332614
0.00303275
0.00200247
0.00170085
0.000480013
-9.9469e-05
-0.00343633
-0.00478387
-0.0115494
-0.0143557
-0.0260116
-0.0294827
-0.0402129
-0.0434183
-0.0528721
-0.0547868
-0.0517865
-0.0481055
-0.00921062
0.00997078
0.139064
0.198373
0.479776
0.713932
2.57282
2.52457
0.29686
0.0502349
-117.621
92.6644
4.03957
3.79825
2.57231
2.37921
1.62673
1.5578
1.10386
1.06058
0.68106
0.6426
0.356106
0.329436
0.159938
0.152489
0.211603
0.204848
0.0784002
0.0679633
0.0297454
0.0261357
0.0149649
0.0136251
0.0066724
0.00622472
0.00715636
0.00729863
0.00905306
0.00903907
0.00692881
0.00676191
0.00654811
0.00645215
0.00552287
0.00557017
0.0072976
0.00720401
0.00264443
0.0024774
0.00405865
0.00421254
0.0063162
0.00636241
0.00501563
0.0049233
0.004323
0.0042593
0.00386507
0.00387641
0.00410981
0.00410172
0.00337695
0.00325774
0.00213741
0.00200544
0.000504899
0.000246262
-0.00368137
-0.00427261
-0.0121819
-0.0133606
-0.0260533
-0.0275023
-0.0396091
-0.0409365
-0.0508977
-0.0515748
-0.0458814
-0.0439676
0.00567593
0.0145899
0.171794
0.19697
0.495587
0.607546
3.07588
3.05438
0.136285
0.0181179
-121.358
93.7028
3.38231
3.50543
2.34812
2.23786
1.60085
1.53388
1.04529
0.996224
0.618819
0.58004
0.312166
0.286818
0.132917
0.125216
0.166706
0.16047
0.055287
0.0465795
0.0160278
0.0131232
0.00492322
0.00405553
0.00194229
0.00168827
0.000786303
0.000692527
6.57123e-05
3.59439e-05
0.000435495
0.000433471
2.6142e-05
2.05174e-05
0.000358265
0.000313573
-0.000922848
-0.00096901
-0.000783749
-0.000753925
-9.89024e-05
-9.83826e-05
-0.000816851
-0.000822739
-0.000359904
-0.000339222
-0.000342984
-0.000324884
9.3006e-05
9.88297e-05
-0.000238834
-0.000252298
-0.000300585
-0.000293618
1.42645e-05
-3.26578e-05
-0.00128594
-0.00138852
-0.00175452
-0.00227516
-0.0128851
-0.0136731
-0.0193141
-0.0202261
-0.0322191
-0.0337264
-0.0511439
-0.0533333
-0.0779755
-0.081837
-0.126328
-0.148953
-0.624053
-0.657594
-1.02145
-0.996192
-0.046265
-0.00651231
-0.00136428
-0.000313785
-108.843
89.3554
3.35919
3.65716
2.64381
2.37599
1.78138
1.62016
1.18214
1.06565
0.727803
0.634176
0.381373
0.320173
0.186993
0.16777
0.188352
0.171693
0.0760759
0.0546858
0.0235041
0.0161077
0.00718035
0.00492028
0.00243094
0.00176912
0.000904854
0.000677164
9.93804e-05
1.67809e-05
0.000273852
0.000267928
-1.43994e-05
-2.89414e-05
0.000174261
7.25561e-05
-0.000884799
-0.00098493
-0.000866673
-0.000808426
-0.000309049
-0.00030491
-0.000831015
-0.000838923
-0.000479313
-0.000433978
-0.000423091
-0.000383908
-6.19266e-05
-4.71984e-05
-0.000290104
-0.000316136
-0.000356765
-0.000345693
-0.000135419
-0.000242126
-0.00125614
-0.00150735
-0.00206478
-0.00322931
-0.0117775
-0.0135547
-0.0186139
-0.0207176
-0.0308998
-0.0343656
-0.0494081
-0.0544691
-0.0758927
-0.0850212
-0.127328
-0.176227
-0.550725
-0.62047
-0.891734
-0.837378
-0.102387
-0.0181521
-0.00392844
-0.000909014
-106.267
84.8925
3.4397
3.86134
2.90967
2.52717
1.94458
1.7175
1.30613
1.14393
0.82702
0.694682
0.44292
0.356411
0.236515
0.208736
0.211492
0.186078
0.0938994
0.0631867
0.0300311
0.0191549
0.00917164
0.00579469
0.00284677
0.00185821
0.000998016
0.000675842
0.000113259
-1.59604e-05
0.00012273
0.000113436
-6.56627e-05
-8.71243e-05
2.43742e-06
-0.000134247
-0.000881047
-0.00100959
-0.000947201
-0.000880577
-0.00049939
-0.000490233
-0.000865913
-0.000869818
-0.000586163
-0.000527367
-0.000504342
-0.000454256
-0.00020458
-0.000182932
-0.000350061
-0.000379404
-0.000415028
-0.000405753
-0.000272444
-0.000415327
-0.0012569
-0.00161396
-0.0023508
-0.00388816
-0.0109409
-0.0133051
-0.018032
-0.020886
-0.0298492
-0.0345419
-0.0480716
-0.0549507
-0.0743025
-0.0868797
-0.128067
-0.190481
-0.48959
-0.575289
-0.775043
-0.705788
-0.132478
-0.0269897
-0.00604297
-0.00141129
-103.691
80.3188
3.61419
4.12043
3.15274
2.68633
2.09353
1.82219
1.42014
1.22839
0.918857
0.759971
0.497864
0.393993
0.282361
0.24849
0.235766
0.203141
0.10927
0.0717898
0.0356702
0.0221684
0.0109
0.00665272
0.00318465
0.0019424
0.00106977
0.000684191
0.000109831
-5.94057e-05
-2.24716e-05
-3.42723e-05
-0.00012325
-0.000149772
-0.00016036
-0.000316666
-0.00090204
-0.0010419
-0.00102791
-0.000965318
-0.000674858
-0.000660173
-0.000915695
-0.000912231
-0.000684037
-0.000619347
-0.000586697
-0.000532607
-0.000338132
-0.000311134
-0.00041555
-0.000442444
-0.000475113
-0.000470802
-0.000398454
-0.000560623
-0.00127709
-0.00170546
-0.00260489
-0.0043265
-0.010292
-0.012961
-0.0175252
-0.0208101
-0.0289696
-0.0343649
-0.0470015
-0.054934
-0.0729847
-0.0875964
-0.127961
-0.195274
-0.436998
-0.52555
-0.669113
-0.594358
-0.143852
-0.0324428
-0.0075025
-0.00177073
-101.115
75.6329
3.88061
4.43845
3.37573
2.85052
2.2296
1.9321
1.52572
1.31757
1.00467
0.829396
0.546489
0.431896
0.325107
0.287408
0.260847
0.222663
0.122393
0.0803442
0.0404085
0.0250953
0.0123491
0.00748054
0.00343403
0.00201208
0.00112218
0.000700162
9.02322e-05
-0.000111083
-0.000165722
-0.000178906
-0.000183359
-0.000213089
-0.000317361
-0.000481949
-0.000940873
-0.00108038
-0.00111057
-0.00105918
-0.000839305
-0.000819316
-0.000975853
-0.000963653
-0.000775395
-0.00071007
-0.000669935
-0.0006166
-0.000465008
-0.000434102
-0.000484166
-0.000505282
-0.000536709
-0.00053861
-0.000515128
-0.000683803
-0.00130888
-0.0017782
-0.0028262
-0.00459522
-0.00977501
-0.0125414
-0.0170696
-0.0205393
-0.0282006
-0.0338984
-0.0461199
-0.0545134
-0.0718062
-0.0872866
-0.126783
-0.193097
-0.390541
-0.473616
-0.571917
-0.497957
-0.141659
-0.0344334
-0.00819062
-0.0019535
-98.5384
70.828
4.24382
4.82126
3.57718
3.0185
2.3527
2.04635
1.62338
1.41093
1.08499
0.903135
0.588391
0.469499
0.365101
0.325893
0.286405
0.244679
0.133195
0.0888204
0.0441664
0.0279224
0.013485
0.00827654
0.00357902
0.00206078
0.00115604
0.000723723
5.4326e-05
-0.000168611
-0.000310631
-0.000323903
-0.000242484
-0.000273458
-0.000471984
-0.000635486
-0.000992502
-0.00112324
-0.0011965
-0.0011598
-0.000995768
-0.000971413
-0.00104278
-0.00102214
-0.000861862
-0.000799816
-0.000753732
-0.000704551
-0.000587084
-0.000553859
-0.000553969
-0.00056774
-0.000599524
-0.000607475
-0.000624166
-0.000788792
-0.00134698
-0.00182789
-0.00301879
-0.00472765
-0.00935474
-0.0120514
-0.0166566
-0.020101
-0.0275103
-0.0331712
-0.0453919
-0.0537379
-0.0707024
-0.0860203
-0.124539
-0.185685
-0.348668
-0.421079
-0.481614
-0.412846
-0.129499
-0.0331806
-0.00807504
-0.00194429
-95.962
65.8914
4.71568
5.27691
3.75118
3.19074
2.4614
2.16525
1.7126
1.50884
1.15955
0.982198
0.62247
0.506533
0.4025
0.364401
0.312063
0.269494
0.141321
0.097314
0.0467923
0.0306802
0.0142534
0.00905312
0.00359739
0.00208524
0.00117114
0.000756842
5.97346e-07
-0.00022936
-0.00046069
-0.000472704
-0.000297143
-0.000327162
-0.000628043
-0.000781311
-0.0010532
-0.00116841
-0.00128684
-0.00126552
-0.00114666
-0.00111969
-0.0011134
-0.00108624
-0.000944428
-0.000888952
-0.000837682
-0.000795261
-0.000705816
-0.00067231
-0.000623256
-0.000629512
-0.000663329
-0.000676032
-0.000727337
-0.000878104
-0.00138825
-0.00184929
-0.00319079
-0.00474349
-0.00901186
-0.0114852
-0.0162901
-0.0195043
-0.0268901
-0.0321818
-0.0448193
-0.0526187
-0.0696667
-0.0838302
-0.121397
-0.174207
-0.310427
-0.369023
-0.396483
-0.336316
-0.109854
-0.0290753
-0.00719696
-0.00174664
-93.3856
60.8038
5.31609
5.81601
3.88653
3.3697
2.55274
2.29039
1.79186
1.61257
1.22723
1.06857
0.646808
0.543102
0.437272
0.403489
0.33734
0.297744
0.146088
0.106074
0.0480457
0.033453
0.0145744
0.00984082
0.00345852
0.00208604
0.00116638
0.000803702
-7.41513e-05
-0.000290041
-0.000619523
-0.000629022
-0.000343604
-0.000370063
-0.000790037
-0.000922416
-0.00112019
-0.00121347
-0.00138279
-0.00137515
-0.00129388
-0.00126716
-0.00118488
-0.00115494
-0.00102357
-0.000977948
-0.000921306
-0.000887879
-0.000822336
-0.000791407
-0.000690358
-0.000690212
-0.000728013
-0.000743084
-0.000826577
-0.000953102
-0.00143157
-0.00183557
-0.00335446
-0.00465084
-0.00874093
-0.0108259
-0.0159874
-0.0187408
-0.0263538
-0.0308989
-0.0444407
-0.0511305
-0.0687484
-0.080708
-0.117652
-0.159402
-0.275298
-0.318217
-0.314858
-0.266435
-0.0843765
-0.0226104
-0.00565857
-0.00138161
-90.809
55.5378
6.07491
6.45226
3.96535
3.56064
2.62189
2.42496
1.85835
1.72453
1.28585
1.16546
0.658431
0.579764
0.469172
0.443881
0.361564
0.330482
0.146396
0.115559
0.0475647
0.0363992
0.0143307
0.0106952
0.00311964
0.00206891
0.00113943
0.000871218
-0.000175355
-0.000346169
-0.000791157
-0.00079715
-0.000377612
-0.00039725
-0.00096356
-0.00106093
-0.00119137
-0.0012555
-0.00148582
-0.00148773
-0.00143893
-0.00141687
-0.00125428
-0.00122772
-0.00109929
-0.00106741
-0.00100402
-0.000981802
-0.00093749
-0.000913329
-0.000753446
-0.000749419
-0.000793633
-0.00080743
-0.000924134
-0.00101407
-0.00147792
-0.00177734
-0.00352712
-0.00444655
-0.00855031
-0.0100436
-0.0157811
-0.0177831
-0.0259403
-0.0292562
-0.0443366
-0.0492061
-0.0680583
-0.0765898
-0.11372
-0.141637
-0.243094
-0.269266
-0.235037
-0.201897
-0.0540846
-0.0143502
-0.00361063
-0.000885209
-88.2324
50.0553
7.03521
7.20306
3.96087
3.77293
2.66135
2.57432
1.90752
1.8487
1.33175
1.27783
0.652925
0.617709
0.497665
0.486559
0.383743
0.369346
0.140576
0.126532
0.0448124
0.0397828
0.0133504
0.0117075
0.00251999
0.00204706
0.0010861
0.000969897
-0.000311575
-0.000391325
-0.000980352
-0.000982307
-0.000394067
-0.000402586
-0.00115586
-0.00119812
-0.0012652
-0.00129089
-0.00159799
-0.00160235
-0.00158291
-0.0015722
-0.00131824
-0.00130459
-0.00117117
-0.00115814
-0.00108511
-0.00107662
-0.00105185
-0.00104069
-0.000810313
-0.000806712
-0.000860488
-0.00086768
-0.00102279
-0.00106011
-0.0015309
-0.00166113
-0.00373305
-0.00411496
-0.0084642
-0.00909165
-0.0157243
-0.0165792
-0.0257205
-0.0271431
-0.0446412
-0.0467229
-0.0677823
-0.0713299
-0.11016
-0.120935
-0.213906
-0.222734
-0.155171
-0.141944
-0.0194676
-0.0049283
-0.00124048
-0.000304858
-85.6558
50.3669
7.04774
7.20878
3.84568
3.65046
2.56573
2.49885
2.07632
2.03045
1.41618
1.35031
0.679307
0.640033
0.517022
0.505063
0.402471
0.38835
0.157249
0.143137
0.0535862
0.0476946
0.0182865
0.016329
0.00484876
0.00433298
0.00492601
0.00505921
0.00892147
0.00889579
0.00469757
0.00457729
0.00529182
0.00513848
0.00060686
0.000699585
0.00746696
0.00753628
0.00330336
0.00304768
0.00157579
0.00163868
0.00398607
0.00404929
0.00314058
0.00308559
0.002965
0.00295129
0.00282936
0.00275184
0.000923744
0.00101648
0.00521167
0.00522847
0.0015635
0.00151921
0.00439404
0.00433316
0.000778457
0.000530044
-0.000265596
-0.000767376
-0.00939839
-0.0101301
-0.0156087
-0.0165398
-0.0290684
-0.0302812
-0.0408988
-0.0430763
-0.0699873
-0.0784944
-0.151143
-0.154138
-0.0439196
-0.0339142
-0.00909728
-0.00255624
-0.000659416
-0.000163178
-87.0196
55.8771
6.07289
6.43355
3.84519
3.42182
2.49343
2.34773
2.03821
1.93841
1.40094
1.24944
0.694525
0.605322
0.488987
0.461178
0.377126
0.346979
0.165032
0.134393
0.0584238
0.0450357
0.0199655
0.0155716
0.00610101
0.00494783
0.00523363
0.00546564
0.00824739
0.00818173
0.00506396
0.00483285
0.00535777
0.00503814
0.0015691
0.00176526
0.00695999
0.0070721
0.00360628
0.00304697
0.00196692
0.0021256
0.00402143
0.00415858
0.00340935
0.00328116
0.00315967
0.00312712
0.00301672
0.00285594
0.00147695
0.0016679
0.00484939
0.00487992
0.00208398
0.00197916
0.0040762
0.00391588
0.00103399
0.00044289
-0.000585997
-0.00175441
-0.00892607
-0.0106154
-0.0155902
-0.0177377
-0.0282672
-0.0310769
-0.0407012
-0.0459069
-0.0714881
-0.0937078
-0.174227
-0.184953
-0.102908
-0.0774917
-0.026559
-0.00748154
-0.0019213
-0.000474401
-89.7289
61.1707
5.30022
5.77627
3.75808
3.21336
2.3898
2.20316
1.99171
1.86387
1.37025
1.16472
0.691119
0.571701
0.457417
0.419547
0.349629
0.311685
0.166767
0.127465
0.0607604
0.0428455
0.0208182
0.0150177
0.00702073
0.00550513
0.00554331
0.00576997
0.00768709
0.00758965
0.00531479
0.00505807
0.00545736
0.00506363
0.00238458
0.00263086
0.0066562
0.00675091
0.00379281
0.00306699
0.00230842
0.00254295
0.00412704
0.00430321
0.00365315
0.00347634
0.00335065
0.00330594
0.00320594
0.00300862
0.0019672
0.00219956
0.004613
0.0046443
0.00249668
0.0023509
0.00384852
0.00360733
0.00119775
0.000373109
-0.000900949
-0.00250143
-0.00867313
-0.0109693
-0.0156849
-0.0186004
-0.027775
-0.0316002
-0.0406809
-0.0479236
-0.0731254
-0.106592
-0.200105
-0.219478
-0.159628
-0.122085
-0.0427415
-0.011862
-0.003016
-0.000741435
-92.4381
66.2864
4.6865
5.21874
3.61201
3.01603
2.26068
2.05956
1.94186
1.80396
1.32805
1.09073
0.673554
0.537883
0.422798
0.379207
0.320861
0.280676
0.164284
0.121638
0.0611488
0.040822
0.0210233
0.0145523
0.00768144
0.00600026
0.00584531
0.00600649
0.00720719
0.0070845
0.00548474
0.00525686
0.00558846
0.00518029
0.00308281
0.00334507
0.00650941
0.00655162
0.00388987
0.00308815
0.00261005
0.00290616
0.00428879
0.0044807
0.00387781
0.00366926
0.00353818
0.00348675
0.00339884
0.00319482
0.00240627
0.00264373
0.00447167
0.00449562
0.00282909
0.0026567
0.00369018
0.00338529
0.00129789
0.000321078
-0.00120306
-0.00306579
-0.00857537
-0.0112265
-0.0158517
-0.0192129
-0.0274969
-0.0319139
-0.0407352
-0.0492241
-0.0744353
-0.117077
-0.228951
-0.257172
-0.215451
-0.168343
-0.0569771
-0.0153547
-0.0038437
-0.000938679
-95.1474
71.2519
4.20162
4.74675
3.42548
2.82505
2.10937
1.91262
1.89282
1.75758
1.27631
1.02394
0.64474
0.503252
0.38533
0.339468
0.291376
0.252725
0.158858
0.116531
0.0599349
0.0387803
0.0206969
0.0141038
0.00813485
0.0064343
0.00613447
0.00620118
0.00678
0.00663823
0.00559961
0.00543304
0.00574886
0.00536421
0.00368635
0.00394292
0.00648723
0.00646023
0.00391227
0.00309616
0.00288052
0.00322572
0.00449794
0.00468971
0.00408643
0.00385881
0.00372226
0.00366873
0.00359608
0.0034041
0.00280397
0.00302397
0.00440221
0.00441427
0.00310146
0.00291398
0.0035851
0.00323427
0.00135332
0.000290649
-0.00149189
-0.0034845
-0.00859213
-0.011405
-0.0160692
-0.0196286
-0.0273739
-0.032052
-0.0408042
-0.0498584
-0.0750523
-0.124799
-0.261147
-0.297662
-0.271482
-0.21716
-0.0684125
-0.0176349
-0.00432201
-0.00104644
-97.8565
76.087
3.8254
4.34937
3.21007
2.63864
1.93727
1.75858
1.84838
1.72504
1.21542
0.962232
0.60643
0.467691
0.344992
0.299829
0.261525
0.226993
0.151379
0.112001
0.0573082
0.0366189
0.0199126
0.0136312
0.00841782
0.00681227
0.00640874
0.00637512
0.00638136
0.0062276
0.00567937
0.00558964
0.00593696
0.00559951
0.00421217
0.00444893
0.0065676
0.00646938
0.00386513
0.00307991
0.00312835
0.00350798
0.00475005
0.00493024
0.00427971
0.00404442
0.00390271
0.00385117
0.00379775
0.00362935
0.00316852
0.00335754
0.00438706
0.0043856
0.0033285
0.00313662
0.00352058
0.00314414
0.00137568
0.000288689
-0.00177263
-0.00377888
-0.0087009
-0.0115096
-0.016331
-0.0198771
-0.0273739
-0.032028
-0.0408629
-0.0498503
-0.0746921
-0.129062
-0.297339
-0.340658
-0.328632
-0.269743
-0.0759173
-0.0184075
-0.00439318
-0.00105294
-100.566
80.8047
3.54557
4.01849
2.97191
2.45739
1.74424
1.59378
1.81246
1.70795
1.14428
0.904643
0.559449
0.431501
0.301564
0.259928
0.231534
0.202914
0.142459
0.108091
0.053326
0.0343011
0.0187132
0.0131167
0.00855676
0.00714209
0.006668
0.00654719
0.00598887
0.00583252
0.00574055
0.00572849
0.00615212
0.00587646
0.00467269
0.00487934
0.00673633
0.00657846
0.00374496
0.00303008
0.00336272
0.00375552
0.00504438
0.00520371
0.00445608
0.00422597
0.00407924
0.00403336
0.00400369
0.00386595
0.00350672
0.00365714
0.00441282
0.00439883
0.00352063
0.0033359
0.00348617
0.00310936
0.00137045
0.000325374
-0.00205588
-0.0039569
-0.00889441
-0.0115338
-0.016644
-0.0199679
-0.0274881
-0.0318376
-0.0409172
-0.0492113
-0.0731559
-0.128774
-0.338533
-0.385866
-0.387648
-0.327712
-0.0779579
-0.0174315
-0.00403185
-0.000955769
-103.275
85.4125
3.35674
3.74837
2.71244
2.28406
1.52868
1.4142
1.78947
1.70924
1.06019
0.851285
0.503789
0.395401
0.254615
0.219508
0.201562
0.180117
0.132503
0.105002
0.0479184
0.0318486
0.0171156
0.0125615
0.0085701
0.00743422
0.00691291
0.0067365
0.00558006
0.00543465
0.00579832
0.00584966
0.00639495
0.0061902
0.00507648
0.00524346
0.00698537
0.0067943
0.00353979
0.00293814
0.00359449
0.00396701
0.00538365
0.00551318
0.00461147
0.00440391
0.00425146
0.00421461
0.00421365
0.00411109
0.00382421
0.00393222
0.00446906
0.00444634
0.00368473
0.00352151
0.00347255
0.00312878
0.00133717
0.00041521
-0.00235861
-0.00401368
-0.00918004
-0.0114594
-0.0170287
-0.0198909
-0.0277294
-0.0314588
-0.0410046
-0.0479494
-0.0703573
-0.122325
-0.386227
-0.432894
-0.449125
-0.393263
-0.0724189
-0.0145627
-0.0032527
-0.000762753
-105.984
89.9123
3.26023
3.53532
2.42863
2.12378
1.28746
1.21502
1.78469
1.73327
0.958499
0.803479
0.438573
0.360607
0.203448
0.17841
0.171738
0.158375
0.121748
0.103101
0.0408734
0.0293446
0.0151121
0.0119844
0.00846939
0.0077017
0.00714385
0.00696482
0.00513063
0.00501625
0.00586841
0.00595086
0.00666754
0.00654006
0.00542881
0.00554434
0.00731151
0.00713247
0.00322832
0.00279572
0.00383747
0.00413657
0.00577422
0.00586369
0.00473888
0.00457943
0.00441883
0.00439419
0.00442742
0.00436335
0.00412565
0.0041899
0.00454745
0.00452318
0.00382467
0.00370233
0.0034705
0.00320587
0.00126886
0.000578884
-0.00270631
-0.0039302
-0.00958129
-0.0112535
-0.0175217
-0.0196151
-0.0281354
-0.030848
-0.0411975
-0.0460716
-0.0663802
-0.107403
-0.442612
-0.481137
-0.51348
-0.469404
-0.0563522
-0.00982601
-0.00211701
-0.000491855
-108.693
94.3002
3.2647
3.37752
2.11273
1.98475
1.01568
0.990152
1.80475
1.78624
0.832021
0.764074
0.361886
0.328986
0.147002
0.136582
0.142187
0.137567
0.110278
0.102946
0.0318025
0.02695
0.0126651
0.011423
0.00825887
0.00796073
0.00735953
0.00725922
0.00461229
0.00455909
0.00596917
0.00602656
0.00697374
0.0069291
0.0057319
0.00577901
0.00771536
0.00761949
0.00277786
0.00259421
0.00411005
0.00425248
0.00622659
0.00626264
0.00482752
0.00475485
0.00458062
0.00457131
0.00464493
0.00462239
0.00441485
0.00443568
0.00464095
0.00462684
0.00394142
0.00388737
0.00346961
0.0033497
0.00115052
0.000846217
-0.0031366
-0.00366975
-0.0101418
-0.0108638
-0.0181818
-0.0190824
-0.0287739
-0.0299321
-0.0416103
-0.0435781
-0.0615769
-0.0807162
-0.510866
-0.529626
-0.580886
-0.560298
-0.0256193
-0.00353297
-0.000735698
-0.000169943
-111.402
104.656
-0.701787
-0.653098
0.711372
0.74212
0.584848
0.624423
1.70646
1.72027
0.883651
0.817373
0.409834
0.37459
0.169252
0.157983
0.170417
0.16489
0.124817
0.115793
0.0324263
0.0266348
0.00867973
0.00711876
0.00284567
0.00243708
0.00166492
0.00155648
0.00110289
0.00102039
0.000397663
0.000346264
8.27235e-05
5.54434e-05
-0.000276941
-0.000296709
-0.000293599
-0.000299671
-0.000329375
-0.000306095
0.000269745
0.00024392
-0.000911497
-0.000938935
-0.000459739
-0.000437906
-0.000373643
-0.000353971
-2.33404e-05
-4.47101e-05
-0.000885987
-0.000965185
-0.00169098
-0.00176129
-0.0021699
-0.00227308
-0.00362972
-0.00378779
-0.00430143
-0.00517012
-0.0224053
-0.0235902
-0.029612
-0.030793
-0.0446043
-0.0462813
-0.0606774
-0.0620407
-0.0651589
-0.0644113
-0.0280119
-0.0200924
0.13726
0.162456
0.501568
0.622252
3.25511
3.23536
0.144127
0.0191326
-120.413
99.9089
-0.307518
-0.183958
0.817392
0.863807
0.700651
0.785552
1.68059
1.71331
1.02586
0.871489
0.495079
0.411044
0.23548
0.208488
0.205582
0.189664
0.140088
0.117231
0.0440278
0.0302427
0.0124683
0.00854949
0.00390744
0.00285071
0.00198918
0.00170421
0.00114926
0.000938228
0.000387596
0.000264736
1.25428e-05
-4.76446e-05
-0.000289057
-0.000336769
-0.000395431
-0.000413071
-0.000406052
-0.000356196
6.06385e-05
4.28107e-06
-0.000875582
-0.000933041
-0.00057743
-0.000531924
-0.000468782
-0.000423989
-0.000159141
-0.000204534
-0.000878705
-0.00105995
-0.0017111
-0.00188226
-0.00229104
-0.00253822
-0.00373801
-0.00415004
-0.00506592
-0.00703155
-0.0210011
-0.0237202
-0.0295989
-0.0324433
-0.0447475
-0.0487844
-0.0621033
-0.0656016
-0.0701714
-0.0692
-0.0418016
-0.0251593
0.101964
0.159707
0.465569
0.7184
2.71431
2.67181
0.313733
0.0530412
-116.615
95.1758
0.0680565
0.250073
0.961612
0.99388
0.806532
0.914275
1.68922
1.73515
1.14674
0.934491
0.568636
0.451165
0.295772
0.258035
0.241272
0.21579
0.154295
0.120688
0.0532554
0.034012
0.0157039
0.0100099
0.00482622
0.00325678
0.00229053
0.00186282
0.00118192
0.000869676
0.000360437
0.000188388
-6.53203e-05
-0.000143491
-0.000308928
-0.000376397
-0.000498907
-0.000527461
-0.00048445
-0.000420987
-0.000129552
-0.000202428
-0.000872573
-0.000943677
-0.000682723
-0.000626655
-0.000563196
-0.000502821
-0.000282546
-0.000339226
-0.000891161
-0.00113595
-0.00175043
-0.00199376
-0.00241867
-0.0027653
-0.00387786
-0.00449221
-0.00578853
-0.00841295
-0.0200471
-0.0237241
-0.0297075
-0.0337154
-0.0452218
-0.0509165
-0.0639223
-0.0691199
-0.0754056
-0.0750456
-0.0551606
-0.0346444
0.0694441
0.147037
0.431696
0.744829
2.25504
2.20089
0.399446
0.0782926
-112.818
90.4432
0.435615
0.662926
1.13301
1.13274
0.900611
1.01631
1.72701
1.78237
1.25259
1.00365
0.632267
0.492813
0.351366
0.306753
0.277321
0.243364
0.167394
0.125503
0.0605598
0.037747
0.0184369
0.0114511
0.00560112
0.00363911
0.00257055
0.00203169
0.00119992
0.000809055
0.000319818
0.000115316
-0.000150209
-0.000235858
-0.000332729
-0.00041383
-0.000606146
-0.000644721
-0.000563678
-0.000494914
-0.00030519
-0.000385265
-0.000893538
-0.000967605
-0.000779831
-0.000721695
-0.000657505
-0.00058807
-0.000394899
-0.000454136
-0.000915936
-0.00119719
-0.00180466
-0.00209803
-0.00254948
-0.00296181
-0.00403773
-0.00480723
-0.00645818
-0.00943418
-0.0194116
-0.0236361
-0.0298954
-0.0346881
-0.0459289
-0.0527566
-0.066054
-0.0725949
-0.0809058
-0.081672
-0.068544
-0.0474707
0.0379876
0.126089
0.396691
0.723383
1.85835
1.79986
0.425952
0.0932906
-109.024
85.6989
0.805741
1.06607
1.32323
1.28088
0.980778
1.09455
1.79101
1.85301
1.34722
1.07771
0.686634
0.534553
0.4031
0.354875
0.313562
0.27263
0.17914
0.131247
0.0661845
0.0413456
0.0206794
0.0128483
0.00622135
0.00398619
0.00282965
0.00221243
0.00120038
0.000752429
0.000267844
4.46962e-05
-0.0002423
-0.000327792
-0.000357176
-0.000446824
-0.000719541
-0.000766774
-0.000642431
-0.000573703
-0.000470063
-0.000550997
-0.000931889
-0.00100202
-0.000871766
-0.000816994
-0.000752046
-0.000678297
-0.000497188
-0.000552983
-0.000947978
-0.00124543
-0.00187149
-0.00219602
-0.00268192
-0.00313187
-0.00420998
-0.00508715
-0.00707504
-0.0101757
-0.0190066
-0.0234671
-0.0301426
-0.0354034
-0.0468131
-0.0543385