/*--------------------------------*- C++ -*----------------------------------*\
| =========                 |                                                 |
| \\      /  F ield         | OpenFOAM: The Open Source CFD Toolbox           |
|  \\    /   O peration     | Version:  5.x                                   |
|   \\  /    A nd           | Web:      www.OpenFOAM.org                      |
|    \\/     M anipulation  |                                                 |
\*---------------------------------------------------------------------------*/
FoamFile
{
    version     2.0;
    format      ascii;
    class       volScalarField;
    location    "0.1";
    object      T;
}
// * * * * * * * * * * * * * * * * * * * * * * * * * * * * * * * * * * * * * //

dimensions      [0 0 0 1 0 0 0];

internalField   nonuniform List<scalar> 
3200
(
0.351583
2.2867
3.27822
3.34181
3.62736
3.65205
3.85099
3.86881
4.03621
4.05004
4.17678
4.18559
4.24776
4.253
4.3049
4.30912
4.35136
4.354
4.36922
4.3702
4.37578
4.37615
4.37834
4.37848
4.37912
4.37918
4.37966
4.37974
4.38094
4.38103
4.38153
4.38158
4.38203
4.38206
4.38208
4.38212
4.38279
4.38284
4.38309
4.38311
4.38324
4.38327
4.38365
4.38369
4.38397
4.384
4.38423
4.38425
4.38429
4.38432
4.38475
4.38479
4.38499
4.385
4.38498
4.38498
4.385
4.38498
4.38471
4.38465
4.38385
4.38364
4.38021
4.3798
4.37496
4.37437
4.36705
4.36624
4.35629
4.35537
4.34348
4.34279
4.33197
4.33393
4.37275
4.37807
4.38596
4.38935
4.39037
4.39062
0.977343
2.5057
3.39143
3.53621
3.78666
3.84334
4.01207
4.0523
4.19162
4.22244
4.3267
4.34626
4.39823
4.40983
4.45197
4.46122
4.49566
4.50149
4.51421
4.5164
4.52107
4.5219
4.52375
4.52407
4.52464
4.52478
4.52522
4.52541
4.5264
4.5266
4.52705
4.52717
4.52757
4.52765
4.52771
4.5278
4.52837
4.52848
4.5287
4.52876
4.52889
4.52897
4.5293
4.52939
4.52965
4.52973
4.52993
4.52998
4.53005
4.53011
4.53047
4.53055
4.53073
4.53076
4.53076
4.53077
4.53078
4.53075
4.5305
4.53035
4.52961
4.52912
4.52625
4.52532
4.52122
4.51989
4.51378
4.512
4.50389
4.50193
4.49275
4.49155
4.48489
4.48982
4.5245
4.53904
4.56297
4.57308
4.57606
4.57679
1.54197
2.7504
3.53427
3.72637
3.95371
4.03014
4.17829
4.23182
4.35136
4.3919
4.47999
4.50564
4.55032
4.56543
4.60035
4.61231
4.6411
4.64871
4.65962
4.66249
4.66652
4.66761
4.66923
4.66965
4.67018
4.67038
4.67079
4.67105
4.6719
4.67216
4.67258
4.67275
4.67311
4.67323
4.67333
4.67347
4.67397
4.67411
4.67432
4.6744
4.67454
4.67465
4.67496
4.67509
4.67534
4.67544
4.67564
4.67571
4.6758
4.67589
4.67621
4.67631
4.67648
4.67653
4.67655
4.67656
4.67657
4.67652
4.67628
4.67607
4.67536
4.6747
4.6722
4.67097
4.66738
4.6656
4.66034
4.65801
4.65124
4.64878
4.64169
4.64052
4.63734
4.64452
4.67706
4.69963
4.74055
4.75709
4.76185
4.763
2.05825
3.01208
3.70077
3.91512
4.12679
4.21406
4.34828
4.4087
4.51425
4.55945
4.63578
4.66425
4.70358
4.72024
4.74965
4.76272
4.78739
4.79579
4.80535
4.80853
4.81208
4.8133
4.81475
4.81523
4.81572
4.81596
4.81637
4.81667
4.81741
4.81771
4.81812
4.81832
4.81867
4.81881
4.81896
4.81912
4.81958
4.81975
4.81994
4.82004
4.82019
4.82032
4.82063
4.82078
4.82103
4.82115
4.82135
4.82144
4.82155
4.82166
4.82195
4.82207
4.82223
4.82229
4.82233
4.82234
4.82235
4.82229
4.82206
4.82181
4.8211
4.82034
4.81811
4.81671
4.81346
4.81145
4.80678
4.80419
4.79842
4.79581
4.7904
4.78957
4.78938
4.7982
4.83002
4.85948
4.91909
4.94157
4.94778
4.94925
2.53637
3.28436
3.88624
4.10396
4.30484
4.39611
4.52122
4.58377
4.67955
4.72574
4.79348
4.82241
4.85775
4.87453
4.8996
4.91266
4.93433
4.94282
4.95133
4.95456
4.95774
4.95898
4.9603
4.9608
4.96128
4.96153
4.96195
4.96226
4.96295
4.96326
4.96366
4.96388
4.96423
4.96439
4.96458
4.96476
4.9652
4.96538
4.96556
4.96567
4.96584
4.96599
4.9663
4.96647
4.96672
4.96685
4.96706
4.96716
4.9673
4.96742
4.96769
4.96782
4.96799
4.96806
4.96811
4.96813
4.96814
4.96807
4.96784
4.96757
4.96684
4.96605
4.96398
4.96252
4.95948
4.9574
4.95314
4.9505
4.94547
4.94295
4.93893
4.93859
4.94105
4.95096
4.98308
5.01813
5.09913
5.1267
5.1339
5.13556
2.98456
3.56247
4.08706
4.29348
4.48726
4.57679
4.69666
4.7575
4.84683
4.89117
4.95273
4.98032
5.01266
5.02848
5.05002
5.06226
5.08179
5.08984
5.09752
5.10059
5.10347
5.10466
5.10589
5.10638
5.10685
5.1071
5.10753
5.10784
5.10849
5.1088
5.10922
5.10944
5.1098
5.10997
5.1102
5.11039
5.11083
5.111
5.11119
5.1113
5.11149
5.11164
5.11197
5.11215
5.11241
5.11255
5.11278
5.11288
5.11305
5.11317
5.11344
5.11357
5.11375
5.11382
5.11389
5.11391
5.11392
5.11386
5.11362
5.11334
5.11258
5.1118
5.10982
5.1084
5.10547
5.10344
5.09942
5.09691
5.09242
5.09014
5.0873
5.0875
5.09243
5.10283
5.13601
5.17494
5.2813
5.31265
5.32024
5.32194
3.40963
3.8427
4.3006
4.48348
4.67385
4.75624
4.87444
4.93008
5.0159
5.05591
5.11332
5.13802
5.16822
5.1822
5.20082
5.21156
5.2297
5.23688
5.2439
5.24662
5.24926
5.25033
5.2515
5.25195
5.25242
5.25266
5.25311
5.2534
5.25405
5.25434
5.25477
5.25499
5.25538
5.25554
5.25582
5.25601
5.25646
5.25663
5.25682
5.25692
5.25714
5.25729
5.25765
5.25782
5.25811
5.25825
5.25849
5.2586
5.2588
5.25892
5.25919
5.25931
5.25951
5.25958
5.25967
5.2597
5.25971
5.25965
5.2594
5.25913
5.25833
5.25759
5.25564
5.25433
5.25142
5.24956
5.24565
5.24339
5.23927
5.23736
5.23555
5.23622
5.24358
5.25379
5.28872
5.32906
5.46647
5.49955
5.50682
5.50839
3.81737
4.12193
4.52514
4.67319
4.86475
4.93426
5.05473
5.10145
5.18679
5.21994
5.27522
5.29551
5.32442
5.33573
5.35192
5.36056
5.37805
5.38392
5.39044
5.39265
5.39512
5.39599
5.39715
5.39752
5.398
5.39821
5.3987
5.39895
5.39962
5.39987
5.40034
5.40053
5.40096
5.40111
5.40145
5.40161
5.40211
5.40225
5.40244
5.40253
5.4028
5.40293
5.40334
5.40349
5.40382
5.40394
5.40422
5.40431
5.40455
5.40466
5.40495
5.40505
5.40527
5.40534
5.40546
5.40548
5.4055
5.40545
5.40517
5.40494
5.40406
5.40344
5.40143
5.40032
5.39732
5.39576
5.39181
5.38994
5.38604
5.38457
5.3837
5.38467
5.39462
5.40376
5.4412
5.47929
5.65581
5.68749
5.69363
5.6949
4.21292
4.3972
4.75987
4.86114
5.06053
5.11024
5.23796
5.27126
5.35976
5.38308
5.43851
5.45264
5.48132
5.48906
5.50332
5.50921
5.52686
5.53094
5.53715
5.53867
5.54104
5.54164
5.54282
5.54308
5.54359
5.54374
5.5443
5.54448
5.54521
5.54539
5.54592
5.54605
5.54655
5.54667
5.54708
5.5472
5.54777
5.54787
5.54807
5.54814
5.54845
5.54855
5.54904
5.54915
5.54953
5.54962
5.54994
5.55002
5.5503
5.55038
5.55071
5.55079
5.55104
5.55109
5.55124
5.55126
5.55129
5.55125
5.55094
5.55077
5.54979
5.54934
5.54719
5.54639
5.54317
5.54205
5.53788
5.53657
5.5327
5.53176
5.53178
5.53275
5.54569
5.55259
5.59366
5.62398
5.85095
5.87644
5.88063
5.88146
4.6011
4.66534
5.00505
5.04517
5.26229
5.28309
5.42496
5.43887
5.53534
5.54493
5.60345
5.60919
5.63906
5.64213
5.65505
5.65738
5.67622
5.67786
5.68406
5.68466
5.68703
5.68727
5.68853
5.68864
5.68919
5.68926
5.68991
5.68999
5.69081
5.69089
5.69151
5.69157
5.69216
5.69221
5.69271
5.69277
5.69344
5.69349
5.69371
5.69374
5.69411
5.69416
5.69475
5.6948
5.69525
5.69529
5.69568
5.69571
5.69607
5.6961
5.69648
5.69651
5.69682
5.69684
5.69703
5.69704
5.69708
5.69706
5.69671
5.69664
5.69549
5.6953
5.69289
5.69255
5.68893
5.68846
5.68384
5.6833
5.67925
5.6789
5.67982
5.68036
5.697
5.70006
5.74655
5.76081
6.05414
6.06625
6.06777
6.06806
4.67543
4.69484
5.01366
5.04539
5.24848
5.26917
5.40856
5.42256
5.51309
5.52218
5.57497
5.58019
5.60619
5.60887
5.61948
5.62139
5.63615
5.63744
5.64168
5.6421
5.64328
5.64341
5.64377
5.64381
5.64397
5.64398
5.64405
5.64405
5.64405
5.64405
5.6441
5.6441
5.6441
5.6441
5.64414
5.64413
5.64404
5.64403
5.64397
5.64396
5.64396
5.64395
5.64387
5.64387
5.64384
5.64383
5.6438
5.6438
5.64381
5.64381
5.64379
5.64379
5.64376
5.64376
5.64376
5.64375
5.64363
5.64361
5.64346
5.64339
5.64217
5.64202
5.64024
5.64
5.63701
5.63662
5.6319
5.63129
5.6241
5.62311
5.61147
5.60821
5.54906
5.54245
5.44692
5.44283
5.44229
5.44218
5.44216
5.44215
4.44426
4.49129
4.78017
4.857
5.04456
5.0946
5.22269
5.25662
5.34091
5.36318
5.41369
5.4266
5.45183
5.45862
5.47052
5.47539
5.48936
5.49256
5.49697
5.49803
5.49932
5.49964
5.50004
5.50013
5.50028
5.50031
5.50037
5.50038
5.50038
5.50038
5.50041
5.50041
5.50041
5.5004
5.50042
5.50041
5.50033
5.50031
5.50025
5.50023
5.50022
5.5002
5.50013
5.50012
5.50009
5.50007
5.50004
5.50004
5.50004
5.50003
5.50001
5.5
5.49997
5.49996
5.49996
5.49994
5.49983
5.49979
5.49963
5.49947
5.49845
5.49811
5.49659
5.49604
5.4935
5.4926
5.48856
5.48716
5.48097
5.47865
5.46824
5.46103
5.41316
5.39898
5.32399
5.31525
5.31375
5.31343
5.31336
5.31334
4.2112
4.27805
4.55517
4.66419
4.84613
4.91691
5.04059
5.08865
5.1712
5.20305
5.25391
5.27252
5.2982
5.30816
5.32185
5.32903
5.343
5.34764
5.35239
5.35396
5.35539
5.35587
5.35631
5.35645
5.35659
5.35664
5.35669
5.35671
5.35671
5.3567
5.35672
5.35672
5.35671
5.35671
5.35671
5.35669
5.35662
5.35659
5.35653
5.3565
5.35648
5.35645
5.35639
5.35637
5.35633
5.35632
5.35628
5.35627
5.35626
5.35625
5.35623
5.35621
5.35619
5.35617
5.35616
5.35613
5.35603
5.35597
5.3558
5.35558
5.3547
5.35425
5.3529
5.35216
5.34992
5.34871
5.34511
5.34321
5.33768
5.33452
5.32487
5.31548
5.27591
5.25795
5.19841
5.18737
5.18516
5.18467
5.18456
5.18453
3.97547
4.05641
4.33688
4.46846
4.65216
4.73709
4.86151
4.91931
5.00353
5.04215
5.09541
5.11815
5.1452
5.15755
5.17343
5.18239
5.19701
5.20271
5.20794
5.20989
5.2115
5.2121
5.21259
5.21277
5.21291
5.21296
5.21302
5.21303
5.21303
5.21303
5.21303
5.21302
5.21302
5.21301
5.213
5.21298
5.21291
5.21287
5.21281
5.21278
5.21274
5.21271
5.21265
5.21262
5.21258
5.21256
5.21252
5.2125
5.21249
5.21247
5.21245
5.21243
5.2124
5.21238
5.21236
5.21233
5.21223
5.21215
5.21197
5.21172
5.21094
5.21043
5.20919
5.20834
5.20629
5.20491
5.20159
5.19941
5.19429
5.19066
5.1815
5.17113
5.1378
5.11857
5.07089
5.05914
5.0565
5.05589
5.05575
5.05572
3.7365
3.8268
4.12456
4.27064
4.46213
4.55569
4.68509
4.7489
4.83766
4.88066
4.93813
4.9636
4.99278
5.00679
5.02529
5.03553
5.05138
5.0578
5.06362
5.06583
5.06766
5.06834
5.06889
5.06909
5.06923
5.06929
5.06935
5.06936
5.06936
5.06935
5.06934
5.06933
5.06932
5.06931
5.06929
5.06926
5.06919
5.06915
5.06908
5.06905
5.069
5.06897
5.0689
5.06887
5.06882
5.0688
5.06876
5.06874
5.06871
5.06869
5.06866
5.06864
5.06861
5.06859
5.06856
5.06852
5.06843
5.06834
5.06814
5.06788
5.06717
5.06663
5.06546
5.06458
5.06264
5.06119
5.05803
5.05573
5.05085
5.04701
5.03817
5.0277
4.99911
4.98033
4.94192
4.93054
4.92776
4.9271
4.92694
4.9269
3.49392
3.58888
3.9183
4.07101
4.27602
4.37286
4.51129
4.57749
4.67363
4.71859
4.78213
4.8089
4.84097
4.85585
4.87748
4.88844
4.90612
4.91291
4.91944
4.92179
4.92385
4.92458
4.9252
4.92541
4.92556
4.92562
4.92567
4.92569
4.92568
4.92567
4.92565
4.92564
4.92563
4.92561
4.92558
4.92555
4.92548
4.92544
4.92536
4.92532
4.92526
4.92522
4.92516
4.92512
4.92507
4.92504
4.92499
4.92497
4.92493
4.92492
4.92488
4.92486
4.92482
4.9248
4.92476
4.92472
4.92462
4.92454
4.92432
4.92406
4.92338
4.92286
4.92172
4.92085
4.91897
4.91753
4.91443
4.91216
4.90736
4.90356
4.8949
4.88499
4.86004
4.84288
4.81188
4.80159
4.79893
4.79828
4.79812
4.79808
3.24755
3.34159
3.71912
3.86928
4.09423
4.18836
4.34037
4.40488
4.51163
4.55577
4.62759
4.65399
4.68984
4.70464
4.73009
4.74108
4.76129
4.76803
4.77542
4.77776
4.7801
4.78083
4.78153
4.78173
4.78189
4.78194
4.782
4.78202
4.782
4.78199
4.78196
4.78195
4.78193
4.78191
4.78187
4.78184
4.78176
4.78172
4.78163
4.78159
4.78152
4.78148
4.78141
4.78137
4.78131
4.78128
4.78123
4.7812
4.78116
4.78114
4.7811
4.78107
4.78103
4.78101
4.78096
4.78092
4.78082
4.78073
4.7805
4.78026
4.7796
4.77911
4.77797
4.77716
4.77528
4.77394
4.7708
4.76868
4.76383
4.7603
4.75169
4.74288
4.72065
4.70597
4.681
4.67234
4.67001
4.66944
4.66929
4.66926
2.99742
3.08297
3.52902
3.66457
3.91768
4.00154
4.17295
4.23058
4.35214
4.39183
4.47486
4.49869
4.53954
4.553
4.58327
4.59335
4.617
4.62312
4.63161
4.63373
4.63642
4.63707
4.63787
4.63806
4.63822
4.63827
4.63834
4.63835
4.63833
4.63832
4.63827
4.63826
4.63823
4.63822
4.63815
4.63813
4.63804
4.63801
4.6379
4.63787
4.63777
4.63774
4.63766
4.63763
4.63755
4.63753
4.63746
4.63744
4.63738
4.63736
4.63731
4.63729
4.63724
4.63722
4.63715
4.63712
4.63701
4.63694
4.63668
4.63647
4.6358
4.63539
4.6342
4.63352
4.63157
4.63043
4.62712
4.62531
4.62025
4.61724
4.60848
4.6013
4.58095
4.56948
4.54947
4.54284
4.54103
4.54058
4.54046
4.54044
2.74386
2.80992
3.35135
3.45515
3.74789
3.81121
4.01008
4.05371
4.19591
4.22616
4.3245
4.34271
4.39034
4.40068
4.43726
4.44507
4.47342
4.47812
4.48805
4.48967
4.49281
4.49331
4.49424
4.49438
4.49456
4.49459
4.49467
4.49468
4.49465
4.49464
4.49457
4.49456
4.49454
4.49452
4.49444
4.49442
4.49432
4.49429
4.49417
4.49414
4.49403
4.494
4.4939
4.49388
4.49379
4.49377
4.49369
4.49367
4.4936
4.49358
4.49352
4.49351
4.49344
4.49343
4.49335
4.49333
4.4932
4.49315
4.49285
4.4927
4.492
4.4917
4.49042
4.48992
4.48782
4.487
4.48339
4.48207
4.47658
4.47442
4.46521
4.46025
4.4409
4.43333
4.4174
4.41314
4.41199
4.4117
4.41163
4.41161
2.48767
2.51786
3.19119
3.23817
3.58728
3.61546
3.85341
3.87289
4.04416
4.05776
4.17734
4.18554
4.24263
4.24732
4.2924
4.29597
4.33077
4.33291
4.34483
4.34556
4.34931
4.34954
4.35065
4.35071
4.3509
4.35091
4.35101
4.35101
4.35098
4.35097
4.35088
4.35087
4.35084
4.35083
4.35072
4.35071
4.3506
4.35058
4.35044
4.35042
4.35028
4.35027
4.35015
4.35014
4.35003
4.35002
4.34992
4.34991
4.34982
4.34981
4.34973
4.34973
4.34965
4.34964
4.34955
4.34953
4.34939
4.34937
4.34902
4.34896
4.34817
4.34805
4.3466
4.34639
4.34403
4.34368
4.33956
4.339
4.33279
4.33187
4.32177
4.31978
4.30038
4.2975
4.28486
4.28331
4.28292
4.28282
4.28279
4.28279
2.50329
2.5334
3.20806
3.25428
3.59263
3.61933
3.8492
3.86921
4.05683
4.07226
4.19845
4.20729
4.26638
4.27129
4.31809
4.3218
4.35833
4.36063
4.37406
4.37494
4.37942
4.37971
4.38124
4.38135
4.38173
4.38178
4.38222
4.38229
4.38311
4.38318
4.38358
4.38363
4.38411
4.38415
4.38417
4.38422
4.38492
4.38497
4.38525
4.38528
4.38541
4.38544
4.38581
4.38584
4.38612
4.38615
4.38642
4.38645
4.3867
4.38672
4.38679
4.38682
4.38731
4.38735
4.38747
4.3875
4.38791
4.38793
4.38799
4.38799
4.38796
4.38791
4.38702
4.3869
4.38546
4.38524
4.38255
4.38221
4.37846
4.37791
4.37146
4.37006
4.35635
4.35464
4.35196
4.35125
4.35105
4.351
4.35098
4.35098
2.76097
2.82674
3.36826
3.47009
3.75278
3.81228
4.00212
4.04705
4.20594
4.24089
4.34604
4.36583
4.41549
4.42637
4.46439
4.47248
4.5021
4.50718
4.5186
4.52062
4.52445
4.52512
4.52644
4.52668
4.52705
4.52718
4.52758
4.52772
4.5284
4.52854
4.52891
4.52902
4.52944
4.52953
4.5296
4.5297
4.5303
4.53041
4.53066
4.53072
4.53085
4.53093
4.53126
4.53135
4.5316
4.53167
4.53191
4.53199
4.53221
4.53227
4.53236
4.53244
4.53285
4.53293
4.53306
4.53312
4.53346
4.53352
4.53357
4.53356
4.53351
4.53338
4.53262
4.53232
4.53106
4.53055
4.52823
4.52744
4.52416
4.52285
4.51701
4.51348
4.49959
4.49499
4.4893
4.48724
4.48664
4.48649
4.48645
4.48644
3.01603
3.10105
3.54605
3.67867
3.92186
4.00001
4.16084
4.22033
4.36001
4.40671
4.49703
4.52318
4.56615
4.58035
4.61189
4.62231
4.64685
4.65348
4.66353
4.66622
4.6696
4.67051
4.67168
4.67201
4.67239
4.67256
4.67294
4.67314
4.67371
4.6739
4.67424
4.6744
4.67479
4.67491
4.67503
4.67517
4.67569
4.67585
4.67607
4.67615
4.6763
4.67641
4.67671
4.67684
4.67708
4.67719
4.67741
4.67752
4.67774
4.67782
4.67793
4.67804
4.67839
4.6785
4.67864
4.67874
4.67903
4.6791
4.67915
4.67914
4.67906
4.67889
4.67819
4.67779
4.67662
4.67593
4.67384
4.67277
4.66978
4.66798
4.66246
4.65732
4.64245
4.63537
4.62649
4.62316
4.62222
4.62197
4.62191
4.6219
3.26768
3.36096
3.73633
3.88283
4.09753
4.18443
4.3236
4.39039
4.51779
4.57079
4.65059
4.67986
4.71795
4.73365
4.76023
4.77157
4.79231
4.79964
4.80874
4.8118
4.81486
4.81588
4.81696
4.81734
4.81773
4.81794
4.81831
4.81854
4.81903
4.81925
4.81958
4.81977
4.82014
4.82029
4.82045
4.82062
4.8211
4.82128
4.82149
4.82159
4.82175
4.82188
4.82218
4.82233
4.82257
4.82269
4.82292
4.82304
4.82326
4.82336
4.8235
4.82363
4.82395
4.82408
4.82423
4.82434
4.8246
4.82468
4.82473
4.82471
4.82461
4.82441
4.82375
4.82328
4.82217
4.82136
4.81942
4.81817
4.81534
4.81325
4.8079
4.80154
4.785
4.77582
4.76346
4.75899
4.75776
4.75745
4.75738
4.75736
3.51561
3.60958
3.93577
4.08426
4.27832
4.36676
4.48925
4.55802
4.67854
4.73378
4.80617
4.83617
4.87064
4.8865
4.90917
4.92045
4.93831
4.94572
4.9542
4.95737
4.96019
4.96125
4.96226
4.96266
4.96307
4.9633
4.96369
4.96392
4.96437
4.96459
4.96493
4.96513
4.9655
4.96567
4.96587
4.96606
4.96652
4.96671
4.96691
4.96702
4.9672
4.96734
4.96765
4.96781
4.96806
4.9682
4.96843
4.96856
4.96879
4.9689
4.96907
4.9692
4.96951
4.96965
4.96982
4.96994
4.97018
4.97026
4.97031
4.97029
4.97016
4.96994
4.9693
4.9688
4.9677
4.96684
4.96496
4.96363
4.96088
4.95865
4.95337
4.94617
4.92726
4.9164
4.90011
4.89469
4.89327
4.89292
4.89284
4.89282
3.75978
3.84892
4.14232
4.28386
4.46332
4.54772
4.65705
4.72358
4.84189
4.89608
4.96343
4.99231
5.02407
5.03908
5.05857
5.06906
5.08472
5.09176
5.09986
5.10296
5.10559
5.10662
5.10758
5.10798
5.10843
5.10866
5.10907
5.1093
5.10971
5.10992
5.11027
5.11048
5.11087
5.11104
5.11129
5.11149
5.11194
5.11213
5.11233
5.11244
5.11264
5.11279
5.11312
5.11329
5.11355
5.11369
5.11394
5.11408
5.11432
5.11444
5.11463
5.11477
5.11507
5.11521
5.11541
5.11553
5.11576
5.11584
5.1159
5.11587
5.11572
5.11549
5.11485
5.11434
5.11321
5.11235
5.11048
5.10915
5.10639
5.10417
5.09892
5.09126
5.06919
5.05719
5.03632
5.03022
5.02873
5.02838
5.02829
5.02827
4.00038
4.08009
4.35494
4.48194
4.65213
4.72768
4.82655
4.88706
5.0078
5.05785
5.12223
5.14832
5.17817
5.19147
5.20833
5.21746
5.23148
5.23775
5.24573
5.24856
5.25106
5.25199
5.25293
5.2533
5.25379
5.25402
5.25445
5.25467
5.25505
5.25525
5.25563
5.25583
5.25624
5.25641
5.25671
5.2569
5.25738
5.25756
5.25776
5.25786
5.25809
5.25824
5.2586
5.25876
5.25904
5.25918
5.25945
5.25958
5.25985
5.25997
5.2602
5.26034
5.26064
5.26078
5.26099
5.26111
5.26134
5.26142
5.26148
5.26145
5.26127
5.26106
5.26038
5.2599
5.25872
5.25791
5.25597
5.25472
5.25188
5.2498
5.24456
5.23693
5.21071
5.19834
5.17195
5.16557
5.16415
5.16382
5.16375
5.16373
4.23779
4.30346
4.57347
4.67829
4.84471
4.9067
4.99758
5.04812
5.17653
5.21904
5.28255
5.30417
5.33292
5.34371
5.35839
5.36566
5.37854
5.38367
5.39179
5.39417
5.39658
5.39736
5.3983
5.39861
5.39915
5.39936
5.39984
5.40003
5.4004
5.40057
5.40098
5.40116
5.40162
5.40178
5.40213
5.4023
5.40283
5.40298
5.40318
5.40328
5.40354
5.40367
5.40408
5.40422
5.40454
5.40466
5.40497
5.40509
5.40539
5.4055
5.40577
5.40589
5.40622
5.40633
5.40659
5.40669
5.40693
5.407
5.40707
5.40704
5.40683
5.40664
5.40591
5.40549
5.40421
5.4035
5.40144
5.40036
5.39734
5.39556
5.3903
5.38333
5.35168
5.34004
5.30676
5.30072
5.29952
5.29926
5.2992
5.29918
4.47259
4.51865
4.79861
4.87218
5.04147
5.08456
5.17022
5.20606
5.34869
5.37939
5.44454
5.45973
5.48839
5.4958
5.50874
5.51364
5.52591
5.52947
5.53809
5.53978
5.54217
5.54272
5.54369
5.54392
5.54453
5.54469
5.54525
5.54538
5.54576
5.54588
5.54635
5.54648
5.54701
5.54713
5.54756
5.54769
5.54829
5.5484
5.54861
5.54868
5.54899
5.54909
5.54957
5.54968
5.55005
5.55014
5.55049
5.55058
5.55093
5.55101
5.55134
5.55143
5.5518
5.55189
5.55218
5.55226
5.55253
5.55258
5.55265
5.55263
5.55238
5.55224
5.55143
5.55112
5.54967
5.54915
5.54686
5.54607
5.54274
5.54146
5.5361
5.53072
5.49184
5.48261
5.44049
5.43567
5.43486
5.43469
5.43465
5.43464
4.70553
4.72448
5.032
5.06224
5.24328
5.26071
5.34485
5.35973
5.52532
5.53835
5.60852
5.61476
5.64471
5.64766
5.65941
5.66131
5.67363
5.67507
5.68466
5.68537
5.68784
5.68806
5.68911
5.6892
5.68993
5.69
5.69067
5.69072
5.69113
5.69118
5.69173
5.69178
5.69242
5.69248
5.693
5.69305
5.69377
5.69382
5.69405
5.69408
5.69446
5.6945
5.69508
5.69513
5.69556
5.6956
5.69602
5.69606
5.69648
5.69652
5.69693
5.69697
5.69739
5.69743
5.69778
5.69782
5.69813
5.69815
5.69825
5.69824
5.69793
5.69787
5.69692
5.69678
5.6951
5.69488
5.69222
5.69188
5.68806
5.68752
5.6819
5.67945
5.63082
5.62649
5.57273
5.57046
5.57017
5.57011
5.57009
5.57009
5.23266
5.23291
5.16248
5.1676
5.23362
5.24181
5.2921
5.30426
5.46275
5.47628
5.55111
5.55802
5.5921
5.59548
5.60902
5.61128
5.62606
5.62777
5.63855
5.63935
5.64179
5.64201
5.64266
5.64272
5.64294
5.64297
5.64311
5.64312
5.64322
5.64322
5.64326
5.64326
5.64327
5.64326
5.64324
5.64323
5.64321
5.6432
5.64318
5.64317
5.6432
5.6432
5.64311
5.6431
5.64307
5.64306
5.64303
5.64303
5.64303
5.64302
5.64294
5.64292
5.64277
5.64275
5.64255
5.64252
5.64219
5.64214
5.64176
5.64162
5.63952
5.63927
5.63656
5.63619
5.6321
5.63156
5.62603
5.62535
5.61951
5.61891
5.61671
5.6169
5.63044
5.63315
5.68059
5.69537
6.00611
6.01891
6.02052
6.02082
4.99365
4.99724
4.9629
4.97885
5.04463
5.06523
5.1147
5.14378
5.28276
5.31511
5.38534
5.40226
5.43485
5.44337
5.4584
5.46422
5.47896
5.48318
5.49297
5.49491
5.49737
5.49793
5.49862
5.49879
5.49901
5.49907
5.49921
5.49924
5.49932
5.49933
5.49936
5.49936
5.49936
5.49936
5.49933
5.49932
5.49929
5.49928
5.49925
5.49925
5.49926
5.49925
5.49917
5.49915
5.49911
5.4991
5.49907
5.49906
5.49905
5.49904
5.49896
5.49893
5.49879
5.49874
5.49856
5.49849
5.49819
5.49807
5.49768
5.49737
5.49558
5.495
5.49262
5.49175
5.48815
5.48688
5.48194
5.48032
5.47492
5.4734
5.47074
5.47088
5.48094
5.48685
5.52749
5.55869
5.79892
5.82587
5.8303
5.83118
4.75449
4.76309
4.76129
4.7881
4.85746
4.88748
4.93811
4.97891
5.10703
5.15243
5.2217
5.24588
5.27857
5.29099
5.30815
5.3168
5.33227
5.33837
5.3477
5.35044
5.35303
5.35384
5.3546
5.35485
5.35508
5.35517
5.35531
5.35536
5.35543
5.35544
5.35546
5.35546
5.35546
5.35545
5.35543
5.35541
5.35538
5.35536
5.35533
5.35532
5.35532
5.3553
5.35523
5.3552
5.35516
5.35514
5.3551
5.35509
5.35508
5.35506
5.35499
5.35494
5.35481
5.35474
5.35457
5.35447
5.35418
5.35402
5.3536
5.35318
5.3516
5.3508
5.34863
5.34743
5.34411
5.34234
5.33771
5.33543
5.33017
5.32792
5.32466
5.32446
5.3316
5.33916
5.37477
5.41365
5.60027
5.63373
5.64022
5.64156
4.51498
4.52934
4.55854
4.59564
4.67184
4.70891
4.7619
4.81054
4.93461
4.98878
5.05986
5.08914
5.12309
5.13842
5.15823
5.1691
5.18596
5.19344
5.2027
5.20599
5.20876
5.20976
5.2106
5.21091
5.21116
5.21127
5.21142
5.21147
5.21154
5.21155
5.21157
5.21157
5.21155
5.21154
5.21152
5.2115
5.21146
5.21144
5.2114
5.21139
5.21137
5.21135
5.21128
5.21125
5.21121
5.21118
5.21114
5.21112
5.2111
5.21108
5.21101
5.21096
5.21083
5.21075
5.21057
5.21045
5.21017
5.20997
5.20952
5.20903
5.20758
5.20666
5.20459
5.20319
5.2
5.19792
5.19339
5.19066
5.1853
5.18249
5.17845
5.17774
5.18225
5.19035
5.22192
5.26269
5.40775
5.44268
5.45035
5.45201
4.27489
4.295
4.35547
4.4016
4.48779
4.52969
4.58587
4.63915
4.76497
4.82445
4.89969
4.93222
4.96835
4.98567
5.00866
5.02116
5.04002
5.04842
5.05793
5.06155
5.06455
5.06568
5.06662
5.06697
5.06724
5.06737
5.06753
5.06759
5.06765
5.06766
5.06767
5.06767
5.06765
5.06764
5.06761
5.06759
5.06754
5.06751
5.06748
5.06746
5.06743
5.0674
5.06734
5.0673
5.06725
5.06722
5.06717
5.06715
5.06712
5.0671
5.06703
5.06697
5.06684
5.06675
5.06657
5.06644
5.06615
5.06593
5.06545
5.06491
5.06355
5.06257
5.06053
5.05903
5.05585
5.05359
5.049
5.04599
5.04033
5.03711
5.03211
5.03082
5.03275
5.0406
5.0687
5.10757
5.21964
5.25271
5.26072
5.26252
4.03399
4.05903
4.15296
4.20596
4.3055
4.34989
4.40994
4.46484
4.59798
4.65948
4.74122
4.77514
4.81436
4.83269
4.85952
4.87297
4.8945
4.90337
4.9134
4.91714
4.92042
4.92161
4.92267
4.92303
4.92333
4.92346
4.92364
4.9237
4.92376
4.92377
4.92378
4.92377
4.92374
4.92373
4.92371
4.92368
4.92362
4.92359
4.92355
4.92353
4.92349
4.92346
4.92339
4.92335
4.92329
4.92326
4.92321
4.92318
4.92315
4.92312
4.92305
4.92299
4.92286
4.92276
4.92257
4.92244
4.92213
4.9219
4.92137
4.92083
4.91949
4.91851
4.91645
4.91493
4.91166
4.90936
4.90455
4.90143
4.89526
4.89179
4.88562
4.88377
4.88302
4.89005
4.91505
4.94952
5.03469
5.06375
5.07134
5.0731
3.79209
3.82029
3.95207
4.00845
4.12541
4.16946
4.23421
4.2874
4.43385
4.49369
4.58465
4.61785
4.66121
4.67937
4.7109
4.72444
4.74948
4.75826
4.76912
4.77274
4.77638
4.77755
4.77874
4.7791
4.77943
4.77956
4.77976
4.77982
4.77987
4.77988
4.77988
4.77987
4.77984
4.77982
4.7798
4.77977
4.7797
4.77967
4.77962
4.7796
4.77954
4.77951
4.77944
4.7794
4.77933
4.7793
4.77924
4.77921
4.77917
4.77914
4.77907
4.77901
4.77887
4.77878
4.77857
4.77844
4.77811
4.77789
4.77729
4.77679
4.77542
4.7745
4.77234
4.77089
4.76744
4.76523
4.76003
4.75699
4.75009
4.74659
4.73896
4.73667
4.73297
4.73877
4.76102
4.78944
4.85198
4.87566
4.8822
4.88376
3.54904
3.5774
3.7542
3.8085
3.94822
3.9882
4.05893
4.10622
4.27317
4.32666
4.43039
4.46015
4.50905
4.5255
4.563
4.57546
4.60511
4.61307
4.62513
4.62834
4.63243
4.63348
4.63484
4.63517
4.63553
4.63565
4.63588
4.63593
4.63598
4.63599
4.63599
4.63598
4.63593
4.63592
4.63589
4.63587
4.63578
4.63575
4.63569
4.63567
4.6356
4.63557
4.63549
4.63545
4.63537
4.63534
4.63527
4.63525
4.63519
4.63517
4.63509
4.63504
4.63487
4.63479
4.63456
4.63445
4.63409
4.63388
4.63321
4.63277
4.63134
4.63054
4.62821
4.62694
4.62316
4.62121
4.61542
4.61271
4.60477
4.60155
4.59208
4.58963
4.58255
4.58684
4.60674
4.628
4.67083
4.68825
4.69327
4.69448
3.30486
3.32857
3.56122
3.60514
3.77502
3.80569
3.88459
3.92025
4.11703
4.1576
4.27909
4.30167
4.35819
4.37079
4.4161
4.42579
4.4616
4.46771
4.4815
4.4839
4.48861
4.4894
4.49099
4.49124
4.49164
4.49173
4.49201
4.49205
4.4921
4.4921
4.49209
4.49208
4.49202
4.49201
4.49198
4.49196
4.49185
4.49183
4.49176
4.49174
4.49165
4.49163
4.49153
4.49151
4.49141
4.49139
4.4913
4.49128
4.49122
4.4912
4.49111
4.49107
4.49088
4.49082
4.49055
4.49046
4.49005
4.4899
4.48912
4.4888
4.48723
4.48664
4.48403
4.48309
4.47881
4.47735
4.47068
4.46863
4.45927
4.45675
4.44492
4.44277
4.43167
4.43428
4.45242
4.4657
4.4907
4.50133
4.50448
4.50526
3.05973
3.07138
3.37578
3.39673
3.60739
3.62126
3.71197
3.72783
3.96713
3.98531
4.13173
4.14184
4.20908
4.21477
4.27062
4.27507
4.31928
4.32205
4.33831
4.33938
4.34494
4.34529
4.34718
4.3473
4.34777
4.34781
4.34815
4.34816
4.34821
4.34821
4.34819
4.34819
4.34811
4.3481
4.34807
4.34806
4.34792
4.34791
4.34782
4.34782
4.3477
4.34769
4.34757
4.34756
4.34744
4.34743
4.34732
4.34731
4.34723
4.34723
4.34712
4.3471
4.34688
4.34685
4.34653
4.34649
4.34601
4.34594
4.34501
4.34487
4.34307
4.34282
4.33978
4.33937
4.33434
4.3337
4.32576
4.32485
4.31349
4.31233
4.29737
4.29627
4.28024
4.28111
4.29828
4.30292
4.31115
4.31472
4.31579
4.31606
)
;

boundaryField
{
    F1_1
    {
        type            fixedValue;
        value           nonuniform List<scalar> 
80
(
0
2.19607
3.24018
3.24018
3.55292
3.55292
3.77407
3.77407
3.96158
3.96158
4.10419
4.10419
4.17366
4.17366
4.23231
4.23231
4.28001
4.28001
4.29701
4.29701
4.30324
4.30324
4.30568
4.30568
4.30637
4.30637
4.30688
4.30688
4.30823
4.30823
4.30877
4.30877
4.30927
4.30927
4.30926
4.30926
4.31001
4.31001
4.31029
4.31029
4.31042
4.31042
4.31083
4.31083
4.31114
4.31114
4.31138
4.31138
4.31142
4.31142
4.3119
4.3119
4.31212
4.31212
4.31208
4.31208
4.31211
4.31211
4.31181
4.31181
4.31096
4.31096
4.30713
4.30713
4.30174
4.30174
4.29355
4.29355
4.28231
4.28231
4.26862
4.26862
4.25525
4.25525
4.29754
4.29754
4.29754
4.29754
4.29754
4.29754
)
;
    }
    F1_2
    {
        type            fixedValue;
        value           nonuniform List<scalar> 
80
(
2.35897
2.35897
3.12364
3.12364
3.51339
3.51339
3.77945
3.77945
3.97144
3.97144
4.10599
4.10599
4.16982
4.16982
4.2208
4.2208
4.2601
4.2601
4.27344
4.27344
4.27763
4.27763
4.27887
4.27887
4.27907
4.27907
4.27918
4.27918
4.27914
4.27914
4.27903
4.27903
4.27899
4.27899
4.27886
4.27886
4.27873
4.27873
4.27857
4.27857
4.2784
4.2784
4.27827
4.27827
4.27815
4.27815
4.27803
4.27803
4.27792
4.27792
4.27784
4.27784
4.27775
4.27775
4.27764
4.27764
4.27749
4.27749
4.2771
4.2771
4.27625
4.27625
4.27467
4.27467
4.27209
4.27209
4.26758
4.26758
4.26078
4.26078
4.24989
4.24989
4.22979
4.22979
4.21837
4.21837
4.21837
4.21837
4.21837
4.21837
)
;
    }
    F1_3
    {
        type            fixedValue;
        value           nonuniform List<scalar> 
80
(
2.37384
2.37384
3.14053
3.14053
3.51879
3.51879
3.77694
3.77694
3.98572
3.98572
4.12701
4.12701
4.19291
4.19291
4.24579
4.24579
4.28713
4.28713
4.30203
4.30203
4.30698
4.30698
4.30867
4.30867
4.30907
4.30907
4.30955
4.30955
4.31049
4.31049
4.31093
4.31093
4.31146
4.31146
4.31146
4.31146
4.31225
4.31225
4.31255
4.31255
4.31269
4.31269
4.31309
4.31309
4.31339
4.31339
4.31367
4.31367
4.31395
4.31395
4.31401
4.31401
4.31456
4.31456
4.31468
4.31468
4.31514
4.31514
4.3152
4.3152
4.31519
4.31519
4.31421
4.31421
4.31264
4.31264
4.30967
4.30967
4.30555
4.30555
4.29859
4.29859
4.28449
4.28449
4.28325
4.28325
4.28325
4.28325
4.28325
4.28325
)
;
    }
    F1_4
    {
        type            fixedValue;
        value           nonuniform List<scalar> 
80
(
2.93692
2.93692
3.28873
3.28873
3.5275
3.5275
3.62715
3.62715
3.8966
3.8966
4.06078
4.06078
4.13576
4.13576
4.19891
4.19891
4.24895
4.24895
4.26702
4.26702
4.27321
4.27321
4.27532
4.27532
4.27584
4.27584
4.27622
4.27622
4.27627
4.27627
4.27625
4.27625
4.27615
4.27615
4.27612
4.27612
4.27595
4.27595
4.27586
4.27586
4.27572
4.27572
4.27559
4.27559
4.27546
4.27546
4.27533
4.27533
4.27524
4.27524
4.27513
4.27513
4.27487
4.27487
4.27452
4.27452
4.27398
4.27398
4.27294
4.27294
4.27097
4.27097
4.26761
4.26761
4.26202
4.26202
4.25316
4.25316
4.2404
4.2404
4.22332
4.22332
4.20419
4.20419
4.22147
4.22147
4.22147
4.22147
4.22147
4.22147
)
;
    }
    F2_1
    {
        type            fixedValue;
        value           nonuniform List<scalar> 
80
(
4.7939
4.7939
5.13364
5.13364
5.36709
5.36709
5.52102
5.52102
5.62487
5.62487
5.68698
5.68698
5.71847
5.71847
5.73113
5.73113
5.75124
5.75124
5.75762
5.75762
5.76007
5.76007
5.7614
5.7614
5.76201
5.76201
5.76273
5.76273
5.76363
5.76363
5.76431
5.76431
5.76498
5.76498
5.76554
5.76554
5.7663
5.7663
5.76653
5.76653
5.76695
5.76695
5.76761
5.76761
5.76812
5.76812
5.76856
5.76856
5.76895
5.76895
5.76937
5.76937
5.76971
5.76971
5.76993
5.76993
5.76998
5.76998
5.76959
5.76959
5.76833
5.76833
5.7657
5.7657
5.76174
5.76174
5.75673
5.75673
5.75245
5.75245
5.75384
5.75384
5.77292
5.77292
5.82364
5.82364
6.16137
6.16137
6.16137
6.16137
)
;
    }
    F2_2
    {
        type            fixedValue;
        value           nonuniform List<scalar> 
80
(
4.79063
4.79063
5.13615
5.13615
5.35408
5.35408