/*--------------------------------*- C++ -*----------------------------------*\
| =========                 |                                                 |
| \\      /  F ield         | OpenFOAM: The Open Source CFD Toolbox           |
|  \\    /   O peration     | Version:  5.x                                   |
|   \\  /    A nd           | Web:      www.OpenFOAM.org                      |
|    \\/     M anipulation  |                                                 |
\*---------------------------------------------------------------------------*/
FoamFile
{
    version     2.0;
    format      ascii;
    class       volScalarField;
    location    "3.2";
    object      gradTy;
}
// * * * * * * * * * * * * * * * * * * * * * * * * * * * * * * * * * * * * * //

dimensions      [0 -1 0 1 0 0 0];

internalField   nonuniform List<scalar> 
6300
(
2987.23
6956.08
10908.1
14831.9
18716.1
22549.1
26319.2
30014.7
33623.6
37134.5
40535.7
43816.6
46967.1
49978.5
52843.5
8.28289
24.8861
41.5972
58.4729
75.5448
92.8074
110.206
127.621
144.856
161.628
177.563
192.21
205.061
215.6
223.356
13.7627
41.356
69.145
97.2355
125.694
154.526
183.655
212.898
241.938
270.304
297.364
322.336
344.328
362.414
375.74
19.1742
57.6279
96.3881
135.627
175.464
215.941
256.984
298.371
339.684
380.275
419.241
455.429
487.485
513.97
533.528
24.4797
73.5912
123.149
173.414
224.588
276.78
329.96
383.905
438.137
491.855
543.879
592.632
636.189
672.425
699.276
29.632
89.1054
149.197
210.285
272.687
336.621
402.157
469.136
537.087
605.108
671.763
735.006
792.187
840.232
876.03
34.5735
103.997
174.244
245.835
319.241
394.848
472.893
553.377
635.942
719.698
803.029
883.403
957.277
1020.24
1067.56
39.2374
118.063
197.941
279.559
363.583
450.622
541.17
635.515
733.579
834.68
937.213
1038.26
1133.23
1215.86
1278.78
43.5484
131.074
219.888
310.867
404.897
502.867
605.627
713.906
828.143
948.191
1072.84
1199.13
1321.48
1431.11
1516.42
47.4293
142.789
239.664
339.112
442.255
550.3
664.539
786.307
916.856
1057.05
1206.79
1363.87
1522.38
1670.62
1790.13
50.8078
152.983
256.859
363.649
474.694
591.518
715.893
849.892
995.876
1156.33
1333.32
1527.13
1733.49
1938.78
2114.38
53.6255
161.471
271.129
383.919
501.336
625.159
757.593
901.452
1060.38
1239.03
1442.98
1677.79
1945.6
2236.54
2511.36
55.8472
168.14
282.26
399.548
521.551
650.163
787.834
937.904
1105.11
1296.36
1521.73
1795.36
2134.5
2550.3
3012.33
57.4695
172.975
290.213
410.448
535.138
666.08
805.642
957.178
1125.76
1319.53
1552.14
1847.35
2246.63
2817.71
3634.72
58.523
176.074
295.16
416.878
542.455
673.351
811.442
959.365
1121.18
1303.79
1519.9
1795.19
2186.83
2839.04
4179.05
55330.7
57484.4
59530
61467.6
63298.8
65025.9
66652.1
68181.4
69618.5
70968.5
72236.9
73429.4
74551.9
75610.1
76610
77557.3
78457.7
79316.5
80138.9
80929.8
81694
82435.8
83159.1
83867.7
84564.8
85253.1
85935.2
86612.7
87287.3
87959.8
88630.6
89299.9
89967.4
90632.5
91294.5
91952.2
92604.8
93250.9
93889.4
94519
95138.1
95745.3
96339.2
96918
97480.3
98024.6
98549.3
99053.1
99534.8
99993.2
100427
100835
101217
101571
101895
102189
102451
102679
102871
103026
103141
103215
103245
103228
103163
103046
102874
102644
102352
101994
101564
101060
100474
99802.3
99038.6
98177.1
97211.4
96135.5
94942.7
93626.8
92181.4
90600.2
88877.6
87008
84986.7
82810
80475
77979.9
75324.5
72510
227.584
229.117
228.315
225.244
220.058
212.977
204.266
194.215
183.117
171.253
158.881
146.228
133.487
120.822
108.365
96.2253
84.4923
73.2411
62.5376
52.4437
43.02
34.3288
26.4342
19.4016
13.2934
8.16438
4.05398
0.978167
-1.07809
-2.16581
-2.3723
-1.81528
-0.630816
1.04306
3.0832
5.39444
7.91525
10.615
13.4834
16.5165
19.7016
23.0068
26.3783
29.7447
33.0297
36.1668
39.1141
41.8634
44.4425
46.9104
49.3472
51.8409
54.4735
57.3103
60.3933
63.7399
67.3481
71.2057
75.3019
79.6378
84.234
89.133
94.398
100.106
106.342
113.185
120.706
128.955
137.957
147.715
158.209
169.4
181.233
193.646
206.566
219.91
233.578
247.444
261.35
275.099
288.444
301.093
312.704
322.901
331.289
337.473
341.095
341.858
339.567
334.143
382.986
385.577
384.129
378.767
369.773
357.546
342.566
325.346
306.402
286.219
265.236
243.836
222.343
201.021
180.085
159.71
140.035
121.177
103.239
86.319
70.5137
55.9258
42.6645
30.8436
20.5765
11.9658
5.09019
-0.0117408
-3.35719
-5.03081
-5.18748
-4.0426
-1.84883
1.13701
4.68908
8.63965
12.8907
17.4074
22.1956
27.2718
32.6311
38.226
43.9583
49.6904
55.2706
60.5656
65.4908
70.0288
74.2335
78.2195
82.1413
86.1667
90.4503
95.1115
100.222
105.802
111.834
118.28
125.105
132.298
139.891
147.955
156.607
165.987
176.251
187.547
200.001
213.706
228.706
245.003
262.556
281.291
301.114
321.918
343.586
365.988
388.968
412.33
435.826
459.133
481.845
503.469
523.422
541.051
555.657
566.538
573.041
574.628
570.931
561.802
544.131
547.845
545.567
537.51
524.131
506.071
484.079
458.95
431.459
402.325
372.183
341.575
310.947
280.66
250.999
222.188
194.403
167.791
142.48
118.594
96.2596
75.6186
56.8271
40.0556
25.4821
13.2768
3.58068
-3.52232
-8.03489
-10.0713
-9.86789
-7.77129
-4.19848
0.424469
5.72989
11.4608
17.4923
23.817
30.5016
37.6273
45.2297
53.2552
61.5465
69.8629
77.9302
85.5052
92.4334
98.6825
104.348
109.629
114.794
120.129
125.891
132.274
139.381
147.221
155.733
164.817
174.384
184.393
194.874
205.94
217.773
230.602
244.679
260.245
277.502
296.595
317.592
340.487
365.202
391.617
419.583
448.947
479.551
511.233
543.804
577.024
610.571
644.019
676.81
708.245
737.48
763.546
785.381
801.896
812.06
815
810.107
797.126
713.772
718.7
715.285
703.874
685.188
660.21
630.066
595.908
558.835
519.834
479.754
439.293
399.015
359.355
320.648
283.147
247.044
212.494
179.633
148.596
119.532
92.614
68.0469
46.0694
26.9447
10.9422
-1.69501
-10.795
-16.3101
-18.3687
-17.3063
-13.6576
-8.09238
-1.30309
6.12548
13.8165
21.6387
29.6751
38.1393
47.2631
57.1853
67.8678
79.065
90.3605
101.265
111.343
120.32
128.144
134.98
141.173
147.17
153.442
160.406
168.363
177.45
187.64
198.774
210.626
222.996
235.773
248.982
262.788
277.47
293.389
310.932
330.473
352.326
376.708
403.713
433.312
465.367
499.674
536.006
574.151
613.926
655.161
697.669
741.206
785.42
829.81
873.686
916.146
956.061
992.09
1022.72
1046.36
1061.44
1066.61
1060.89
1043.85
895.257
901.532
896.479
880.676
855.266
821.754
781.795
737.027
688.95
638.861
587.832
536.712
486.154
436.643
388.529
342.061
297.418
254.736
214.133
175.734
139.691
106.201
75.5158
47.9538
23.891
3.74175
-12.0839
-23.2489
-29.5817
-31.1791
-28.4882
-22.3228
-13.7683
-3.97075
6.12337
15.9634
25.4563
34.897
44.8067
55.7287
68.0252
81.7181
96.4206
111.4
125.769
138.743
149.847
159.005
166.519
172.978
179.127
185.735
193.472
202.801
213.908
226.68
240.757
255.67
270.999
286.509
302.209
318.35
335.366
353.812
374.283
397.349
423.486
453.018
486.074
522.574
562.264
604.787
649.789
696.981
746.168
797.222
850.021
904.38
959.982
1016.3
1072.57
1127.67
1180.2
1228.37
1270.09
1303.1
1325.05
1333.85
1327.93
1306.54
1092.83
1100.62
1093.1
1071.26
1036.96
992.534
940.408
882.875
821.929
759.211
696.009
633.29
571.756
511.89
454.011
398.323
344.946
293.962
245.438
199.46
156.158
115.731
78.473
44.7858
15.1888
-9.6969
-29.1958
-42.6726
-49.6837
-50.1757
-44.6846
-34.4398
-21.2457
-7.07748
6.47499
18.5976
29.3367
39.431
50.0038
62.2027
76.8423
94.1021
113.365
133.305
152.268
168.825
182.164
192.219
199.564
205.217
210.411
216.39
224.231
234.667
247.959
263.826
281.526
300.103
318.73
336.957
354.791
372.637
391.19
411.303
433.882
459.786
489.74
524.237
563.457
607.226
655.06
706.313
760.396
816.914
875.7
936.746
1000.1
1065.74
1133.48
1202.86
1273.07
1342.89
1410.58
1473.88
1530
1575.71
1607.56
1622.27
1617.23
1591.09
1312.19
1321.73
1310.29
1279.74
1233.21
1174.36
1106.78
1033.62
957.447
880.253
803.487
728.166
654.959
584.279
516.348
451.263
389.041
329.659
273.093
219.351
168.503
120.72
76.3096
35.7508
-0.273754
-30.8679
-54.9541
-71.3811
-79.1474
-77.762
-67.7006
-50.7783
-30.1006
-9.27255
8.91033
23.2487
34.17
43.3003
52.8836
65.1869
81.9113
103.627
129.362
156.641
182.259
203.564
219.236
229.358
235.073
238.143
240.586
244.391
251.276
262.446
278.326
298.358
321.056
344.489
367.062
387.997
407.376
425.931
444.789
465.265
488.711
516.412
549.471
588.671
634.306
686.043
742.945
803.779
867.508
933.594
1001.99
1072.96
1146.89
1224.08
1304.6
1388.2
1474.15
1561.16
1647.28
1729.73
1804.89
1868.27
1914.75
1939.11
1936.89
1905.55
1561.51
1572.96
1554.97
1511.19
1447.15
1368.71
1281.14
1188.65
1094.4
1000.65
908.862
819.978
734.512
652.699
574.581
500.078
429.043
361.301
296.686
235.078
176.441
120.862
68.6098
20.1977
-23.5434
-61.3968
-91.7274
-112.546
-121.774
-117.827
-100.581
-72.5103
-39.1578
-7.64506
16.8949
32.8334
41.5949
46.5294
51.8583
61.8163
79.8054
107.376
143.147
182.381
218.476
246.427
264.311
272.858
274.401
271.985
268.815
267.967
272.163
283.457
302.726
329.062
359.542
390.125
417.764
441.292
461.16
478.798
496.07
514.959
537.424
565.33
600.364
643.844
696.372
757.423
825.173
897.074
971.228
1046.95
1124.55
1204.9
1288.97
1377.6
1471.3
1570.15
1673.68
1780.71
1889.22
1996.06
2096.71
2185.13
2253.76
2294.18
2298.47
2261.47
1853.29
1866.53
1836.72
1771.74
1681.74
1576.17
1462.5
1346.11
1230.58
1118.11
1009.98
906.786
808.727
715.724
627.537
543.834
464.241
388.378
315.889
246.473
179.921
116.161
55.3299
-2.13021
-55.3386
-102.805
-142.243
-170.447
-183.419
-177.084
-149.096
-101.893
-45.6121
3.97584
37.2175
52.704
54.4817
49.1411
44.1169
46.8299
63.8503
99.2664
151.892
212.592
266.367
303.736
322.782
326.391
319.38
306.86
293.65
284.228
282.776
292.932
316.897
353.751
397.827
439.95
474.336
499.806
518.106
532.14
544.97
559.453
578.248
603.928
639.042
685.932
746.107
819.101
901.364
987.066
1072.63
1157.53
1243.11
1331.41
1424.42
1523.75
1630.51
1745.29
1868.07
1998.06
2133.49
2271.2
2406.08
2530.39
2633.31
2701.2
2719.42
2676.71
2208.59
2221.99
2169.03
2068.22
1938.67
1795.19
1647.72
1502.3
1362.29
1229.31
1103.94
986.172
875.635
771.792
674.017
581.655
494.054
410.585
330.659
253.74
179.378
107.242
37.1977
-30.5768
-95.3974
-155.767
-208.926
-250.276
-272.855
-267.513
-225.271
-144.342
-42.423
39.139
83.1092
92.3164
77.6193
51.2981
25.2359
11.2432
21.4079
66.378
149.012
252.781
337.884
387.436
403.486
395.22
372.293
342.731
313.033
289.014
276.674
282.526
312.508
368.044
438.929
500.923
543.751
568.653
581.2
587.221
591.488
597.738
609.156
628.937
660.755
708.882
777.375
867.422
972.597
1077.24
1174.99
1267.11
1357.74
1451.13
1550.76
1659.16
1778.14
1908.88
2052.03
2207.54
2374.45
2550.38
2730.62
2906.41
3063.27
3179.68
3228.04
3181.69
2667.82
2672.88
2570.14
2405.99
2215.55
2019.86
1829.9
1650.64
1483.82
1329.48
1186.92
1055.1
932.871
819.093
712.677
612.599
517.9
427.679
341.086
257.319
175.622
95.3071
15.7964
-63.2761
-141.862
-219.107
-292.61
-357.125
-402.491
-411.072
-357.148
-217.012
-9.9189
128.434
179.058
166.348
117.492
53.0786
-11.0289
-59.133
-71.1566
-20.748
115.698
319.847
460.595
519.378
519.206
485.159
434.759
378.796
324.234
276.982
244.37
237.367
271.321
360.234
492.833
589.5
638.983
655.292
653.693
644.827
635.148
628.579
628.015
636.601
658.975
702.492
777.593
893.946
1044.58
1177.35
1285.44
1378.82
1468.35
1561.87
1664.43
1779.31
1908.78
2054.58
2218.14
2400.55
2602.36
2823.31
3061.51
3309.62
3551.39
3756.12
3872.95
3834.93
3324.44
3278.91
3059.57
2781.51
2499.89
2236.19
1996.57
1781
1587.26
1412.61
1254.37
1110.15
977.873
855.732
742.155
635.746
535.249
439.503
347.405
257.878
169.842
82.1825
-6.26515
-96.7022
-190.285
-287.858
-389.255
-491.57
-585.115
-644.654
-613.192
-386.122
121.543
344.025
366.172
292.397
179.733
54.3846
-70.3726
-181.499
-253.657
-231.801
-15.1415
478.179
701.307
736.185
683.673
598.615
505.205
412.811
324.875
243.83
175.153
133.196
150.959
289.484
598.452
745.997
781.96
767.691
736.623
703.575
674.3
650.736
633.659
624.373
626.706
650.578
718.363
871.067
1142.24
1312.95
1417.03
1496.03
1573.17
1659.52
1760.31
1878.39
2015.82
2174.63
2357.04
2565.51
2802.64
3071.32
3378.05
3721.86
4092.76
4459.03
4740.72
4771.75
4455.07
4135.05
3633.4
3162.03
2758.31
2417.74
2128.53
1879.84
1663.17
1472.05
1301.58
1147.96
1008.24
880.015
761.288
650.363
545.746
446.064
350.014
256.289
163.522
70.1952
-25.4562
-125.591
-232.949
-351.088
-484.564
-638.624
-816.689
-1009.26
-1150.89
-959.277
663.671
848.098
691.411
474.442
260.236
54.8383
-149.345
-359.98
-571.536
-723.367
-544.369
1025.59
1213.11
1078.84
895.015
724.104
574.189
440.41
315.592
192.867
67.456
-56.9781
-143.304
-26.7032
936.531
1063.19
997.288
904.297
822.415
756.898
705.23
663.553
628.078
595.406
563.407
535.413
536.834
677.576
1384.57
1544.51
1584.73
1615.91
1664.73
1736.37
1831.27
1949.55
2092.05
2260.66
2458.35
2689.15
2957.43
3264.49
3641.12
4095.03
4640.72
5283.67
5969.36
6391.99
7120.21
5252.53
4163.43
3445
2925.68
2525.21
2202.01
1932.49
1702.2
1501.69
1324.43
1165.71
1022.01
890.565
769.137
655.858
549.096
447.364
349.243
253.296
157.982
61.5349
-38.2094
-144.091
-260.101
-392.242
-550.238
-751.113
-1027.37
-1447.21
-2168.44
-3593.55
3277.23
1843.34
1103.42
652.476
328.025
53.5138
-219.052
-537.161
-975.444
-1691.35
-3076.61
3563.72
2188.26
1492.83
1087.74
819.34
619.913
455.079
303.271
145.741
-41.6813
-302.065
-729.825
-1562.08
2479.28
1657.67
1251.62
1024.9
884.63
790.262
721.755
667.411
618.432
565.435
494.3
377.844
154.626
-331.365
2414.62
1948.48
1765.42
1710.35
1723.39
1779.67
1868.53
1985.75
2130.61
2304.72
2511.9
2758.72
3056.28
3357.42
3792.85
4335.93
5048.55
6046.6
7576.67
10225.1
69241.7
65457.2
61463.3
57272.1
52897.6
48355.5
43662
38833.9
33888.2
28841.6
23710.7
18511.5
13259.7
7970.66
2659.35
324.794
310.466
292.565
271.797
248.931
224.707
199.778
174.668
149.76
125.3
101.414
78.1225
55.3704
33.0421
10.9832
545.893
521.401
490.783
455.322
416.391
375.295
333.165
290.89
249.103
208.199
168.363
129.607
91.8143
54.7717
18.2032
774.114
738.443
693.829
642.303
586.002
526.908
466.689
406.617
347.562
290.032
234.233
180.13
127.509
76.0274
25.2612
1012.87
964.4
903.76
834.037
758.383
679.627
600.05
521.313
444.485
370.128
298.405
229.171
162.063
96.5683
32.076
1266.27
1202.49
1122.74
1031.67
933.841
833.145
732.55
634.08
538.919
447.58
360.081
276.083
195.005
116.107
38.5512
1539.5
1456.52
1353.02
1236.04
1112.14
986.539
862.907
743.519
629.508
521.175
418.245
320.07
225.765
134.303
44.5737
1839.39
1731.08
1596.75
1447.32
1292.13
1137.95
989.01
847.567
714.403
589.347
471.638
360.177
253.678
150.765
50.0141
2175.38
2031.62
1855.54
1664.34
1471.1
1284.08
1107.61
943.328
791.179
650.157
518.77
395.31
278.001
165.062
54.7315
2561.12
2364.42
2129.37
1883.34
1643.78
1419.6
1213.99
1026.94
856.812
701.318
557.961
424.283
297.947
176.746
58.5806
3017.43
2735.49
2414.14
2095.82
1801.07
1536.51
1301.78
1093.58
907.793
740.324
587.458
445.903
312.751
185.391
61.4245
3576.41
3145.94
2695.85
2284.69
1928.11
1623.58
1363.01
1137.8
940.429
764.706
605.626
459.109
321.755
190.639
63.1497
4283.73
3575.92
2938.53
2418.93
2003.06
1666.63
1388.84
1154.16
951.395
772.425
611.216
463.141
324.513
192.257
63.6839
5166.38
3935.39
3063.32
2449.4
1998.5
1651.01
1371.52
1138.57
938.545
762.363
603.654
457.716
320.893
190.189
63.0119
5942.88
3935.86
2929.9
2316.78
1890.48
1567.33
1307.63
1090.04
901.826
734.806
583.306
443.165
311.146
184.59
61.1862
59.0606
177.612
297.46
419.491
544.63
673.874
808.356
949.476
1099.2
1260.7
1439.91
1649.03
1915.25
2302.86
2970.29
59.2177
178.01
297.864
419.458
543.416
670.261
800.339
933.689
1069.82
1207.3
1342.86
1468.84
1563.85
1552.98
1126.43
59.1263
177.667
297.053
417.774
540.183
664.385
790.03
915.951
1039.49
1155.2
1252.41
1310.1
1285.94
1091.73
550.815
58.8341
176.736
295.311
414.909
535.693
657.49
779.512
899.854
1014.56
1115.92
1189.35
1208.19
1126.08
871.211
364.565
58.379
175.335
292.855
411.212
530.488
650.424
770.144
887.651
998.894
1096.01
1164.19
1176.36
1086.14
825.523
332.81
57.7863
173.54
289.814
406.869
524.815
643.497
762.298
879.783
993.01
1096.18
1177.91
1215.62
1164.53
940.991
421.122
57.0674
171.383
286.227
401.9
518.621
636.477
755.358
874.861
994.091
1111.22
1222.18
1316.5
1362.66
1262.23
733.299
56.2228
168.859
282.062
396.199
511.63
628.732
747.978
870.122
996.62
1130.5
1278.02
1450.81
1662.58
1881.03
1696.63
55.2459
165.94
277.246
389.594
503.469
619.489
738.577
862.356
994.014
1140.29
1316.29
1558.03
1957.85
2779.57
4888.31
54.1288
162.597
271.706
381.926
493.813
608.104
725.908
849.114
981.25
1129.41
1308.92
1555.46
1960.11
2784.32
4890.98
52.8658
158.808
265.394
373.098
482.483
594.271
709.48
829.667
957.352
1096.76
1254.99
1443.06
1671
1898.48
1706.89
51.4567
154.572
258.304
363.103
469.482
578.056
689.588
805.006
925.309
1051.03
1180.33
1302.99
1382.19
1303.64
760.432
49.9073
149.908
250.475
352.011
454.954
559.785
666.993
776.949
889.5
1002.81
1110.29
1193.08
1202.91
1031.48
492.894
48.2285
144.85
241.972
339.941
439.117
539.862
642.486
747.089
853.167
958.623
1057.4
1133.83
1149.52
1014.28
535.916
46.4349
139.446
232.882
327.032
422.19
518.636
616.605
716.205
817.266
919.082
1020.02
1116.76
1200.96
1235.37
991.073
44.5434
133.746
223.295
313.426
404.369
496.353
589.593
684.309
780.844
880.156
985.551
1108.42
1286.97
1650.01
2653.09
42.5717
127.805
213.306
299.255
385.828
473.201
561.558
651.152
742.499
837.013
938.961
1061.41
1244.89
1620.2
2642.38
40.5379
121.678
203.008
284.653
366.734
449.367
532.669
616.785
701.96
788.714
878.144
972.028
1069.61
1141.19
957.365
38.46
115.419
192.492
269.75
347.26
425.072
503.219
581.688
660.334
738.564
814.247
880.091
912.408
839.567
474.378
36.3557
109.081
181.848
254.676
327.578
400.549
473.552
546.475
619.004
690.194
757.194
811.451
828.246
740.977
396.657
34.2419
102.717
171.163
239.554
307.853
376.009
443.945
511.545
578.612
644.747
709.003
768.843
816.37
820.911
630.747
32.1347
96.3733
160.518
224.498
288.232
351.627
414.579
476.994
538.878
600.615
663.895
734.802
834.367
1036.08
1608.84
30.0492
90.0967
149.989
209.616
268.852
327.56
385.591
442.82
499.259
555.427
613.504
680.881
781.452
993.612
1591.14
27.9993
83.9289
139.648
195.008
249.844
303.969
357.169
409.205
459.838
508.927
556.671
603.929
651.07
683.561
570.285
25.9979
77.9083
129.559
180.768
231.334
281.026
329.564
376.574
421.5
463.375
500.191
527.079
530.883
474.763
262.849
24.0563
72.0692
119.78
166.978
213.435
258.891
303.027
345.4
385.294
421.35
450.624
466.276
452.329
374.172
173.33
22.1843
66.4409
110.359
153.707
196.237
237.681
277.723
315.956
351.764
384.049
410.531
426.045
418.383
358.794
185.083
20.3905
61.0486
101.337
141.006
179.798
217.45
253.684
288.206
320.694
350.79
378.072
401.929
420.517
422.687
333.274
18.6823
55.9141
92.7473
128.916
164.156
198.209
230.841
261.876
291.297
319.501
348.006
381.492
434.076
550.206
882.275
17.0667
51.0574
84.6209
117.474
149.341
179.961
209.114
236.677
262.757
288.017
314.497
347.813
403.531
527.803
873.753
15.5502
46.4981
76.9889
106.72
135.396
162.736
188.497
212.514
234.795
255.698
276.258
298.597
325.404
351.496
305.511
14.1399
42.2567
69.8852
96.7007
122.381
146.612
169.096
189.565
207.8
223.63
236.799
246.296
247.796
225.266
129.679
12.8426
38.3546
63.3466
87.4703
110.375
131.706
151.099
168.173
182.483
193.422
199.903
199.564
186.895
149.789
67.5882
11.6655
34.8133
57.4107
79.0866
99.4625
118.146
134.718
148.704
159.515
166.318
167.754
161.41
142.982
105.644
42.2939
10.6153
31.6536
52.1139
71.6049
89.7251
106.053
120.133
131.442
139.336
142.948
141.019
131.663
112.217
79.5803
31.7594
9.69807
28.8942
47.4884
65.0733
81.2302
95.5206
107.472
116.552
122.134
123.433
119.449
108.94
90.633
64.0868
32.1512
8.91918
26.5509
43.5612
59.5302
74.028
86.609
96.801
104.091
107.905
107.591
102.417
91.6438
74.7926
52.3734
27.671
8.28293
24.6368
40.3535
55.0039
68.1519
79.3511
88.1402
94.0377
96.5391
95.1228
89.2779
78.5782
62.8375
42.2816
17.1188
7.7928
23.162
37.8812
51.5144
63.6216
73.7588
81.4788
86.3342
87.8865
85.7261
79.5093
69.0175
54.2375
35.4088
12.8915
7.45155
22.1345
36.1567
49.0761
60.4492
69.8341
76.7947
80.9117
81.7998
79.1365
72.7029
62.4315
48.4522
31.1048
10.9389
7.26147
21.5611
35.1902
47.7008
58.6448
67.5781
74.0692
77.7141
78.1615
75.1488
68.5476
58.4097
44.9998
28.757
10.1762
7.2245
21.4473
34.9909
47.4004
58.2205
66.9993
73.2991
76.7143
76.9026
73.63
66.8263
56.643
43.5005
28.0248
10.641
7.34227
21.7984
35.5677
48.1884
59.1942
68.1189
74.5054
77.926
78.0169
74.5329
67.4204
56.9051
43.599
28.6024
13.8062
7.61599
22.6183
36.9292
50.0796
61.5904
70.9735
77.739
81.4134
81.575
77.9161
70.3365
59.0684
44.8394
29.0168
13.8138
8.04608
23.9093
39.0814
53.0884
65.4374
75.6134
83.0809
87.2961
87.7383
83.9726
75.762
63.2388
47.1426
28.9672
10.3876
8.63171
25.6697
42.0255
57.2245
70.7628
82.0968
90.6369
95.7476
96.7663
93.0552
84.118
69.8261
50.8301
29.1513
8.46506
9.37002
27.8924
45.7537
62.4868
77.5838
90.4775
100.523
106.981
109.012
105.694
96.1133
79.5973
56.2987
28.5776
3.90153
10.2553
30.5614
50.244
68.8552
85.8957
100.788
112.842
121.222
124.895
122.596
112.829
93.9724
64.7258
25.7837
-12.4416
11.2781
33.6495
55.455
76.2815
95.6562
113.013
127.649
138.656
144.837
144.585
135.743
115.432
79.7346
22.3246
-72.7612
12.4246
37.1156
61.3209
84.6799
106.77
127.07
144.904
159.358
169.15
172.428
166.492
147.424
109.635
44.775
-64.0961
13.6758
40.9031
67.7478
93.921
119.077
142.775
164.429
183.206
197.879
206.547
206.218
192.253
158.141
97.521
16.0122
15.0078
44.9397
74.6129
103.828
132.341
159.833
185.867
209.808
230.664
246.782
255.26
250.905
224.868
164.574
61.593
16.3922
49.1388
81.7667
114.18
146.256
177.829
208.672
238.449
266.619
292.183
313.052
324.443
315.203
261.109
121.116
17.7971
53.4024
89.039
124.722
160.46
196.257
232.125
268.098
304.256
340.698
377.259
412.126
436.498
417.125
251.557
19.1883
57.6262
96.248
135.181
174.562
214.559
255.409
297.503
341.56
388.975
442.466
506.883
587.947
674.45
616.278
20.5313
61.7041
103.21
145.281
188.173
232.189
277.734
325.43
376.393
432.867
499.9
589.841
735.343
1031.93
1796.26
21.792
65.5328
109.747
154.765
200.941
248.678
298.467
350.977
407.258
469.255
541.232
633.963
777.496
1064.12
1808.81
22.9383
69.0151
115.696
163.398
212.562
263.661
317.215
373.794
434.021
498.539
567.954
642.56
719.969
777.723
657.749
23.9404
72.0611
120.905
170.971
222.776
276.86
333.765
393.967
457.672
524.258
590.875
648.982
675.82
614.435
336.624
24.7708
74.5884
125.239
177.294
231.35
288.024
347.932
411.602
479.2
549.803
619.523
676.926
692.712
601.234
289.98
25.4046
76.5221
128.57
182.188
238.05
296.869
359.4
426.407
498.524
575.822
656.564
733.595
783.91
740.486
429.856
25.8199
77.7954
130.784
185.487
242.646
303.07
367.678
437.567
514.134
599.316
696.04
808.636
940.032
1065.14
950.951
25.998
78.3517
131.785
187.046
244.927
306.307
372.219
444.005
523.656
614.669
724.371
870.451
1100.34
1555.77
2713.35
25.9242
78.1464
131.497
186.752
244.734
306.341
372.62
444.914
525.198
616.927
727.327
873.906
1103.84
1558.54
2714.45
25.5877
77.1478
129.867
184.538
241.984
303.08
368.788
440.214
518.719
606.119
705.058
819.342
951.092
1074.1
954.616
24.9816
75.3361
126.867
180.373
236.664
296.573
360.936
430.548
506.005
587.216
672.045
752.544
804.285
757.908
437.517
24.1018
72.7004
122.485
174.254
228.806
286.936
349.395
416.78
489.25
565.738
641.972
705.648
725.531
631.921
305.534
22.946
69.2354
116.717
166.188
218.443
274.268
334.399
399.449
469.672
544.398
620.579
689.123
725.554
667.554
371.233
21.5132
64.9384
109.561
156.178
205.589
258.59
315.968
378.501
446.943
522.023
604.474
694.882
791.156
868.7
746.77
19.8023
59.8074
101.014
144.222
190.234
239.862
293.948
353.441
419.592
494.519
582.853
696.576
869.806
1208.43
2074.89
17.8129
53.8408
91.0737
130.314
172.364
218.033
268.173
323.761
386.148
457.707
543.629
656.98
833.664
1181.74
2064.69
15.5444
47.0371
79.7396
114.455
151.978
193.101
238.618
289.371
346.349
410.937
485.395
573.45
678.573
783.755
713.423
12.9959
39.3942
67.0098
96.6474
129.097
165.122
205.437
250.672
301.287
357.339
417.761
478.123
523.515
507.744
304.274
10.1659
30.9081
52.8798
76.893
103.74
134.173
168.851
208.255
252.476
300.737
350.215
393.244
410.995
362.145
176.468
7.05171
21.571
37.3376
55.1785
75.9056
100.289
129.002
162.517
200.891
243.326
287.196
325.974
344.79
311.624
164.844
3.64979
11.3713
20.3613
31.47
45.5459
63.4156
85.8391
113.43
146.523
184.96
227.762
272.632
314.75
340.07
280.277
-0.0439851
0.294909
1.92129
5.71266
12.568
23.4003
39.1116
60.5521
88.4822
123.61
166.944
221.272
296.458
427.715
743.547
-4.0329
-11.6711
-18.014
-22.1596
-23.1534
-19.9804
-11.5687
3.19735
25.4824
56.6116
98.545
155.503
239.322
387.319
728.552
-8.31733
-24.5318
-39.4666
-52.2068
-61.749
-66.9741
-66.6332
-59.3477
-43.6207
-17.8385
19.7679
71.1512
137.709
212.867
232.107
-12.892
-38.276
-62.4339
-84.4609
-103.323
-117.807
-126.49
-127.722
-119.668
-100.45
-68.5201
-23.6734
30.1997
77.3383
71.4756
-17.7426
-52.8662
-86.8713
-118.899
-147.916
-172.643
-191.49
-202.51
-203.431
-191.842
-165.726
-124.712
-72.5712
-21.328
6.07877
-22.8423
-68.2272
-112.672
-155.412
-195.467
-231.537
-261.894
-284.276
-295.844
-293.277
-273.229
-233.428
-174.673
-103.401
-31.8246
-28.1482
-84.2346
-139.646
-193.775
-245.765
-294.373
-337.803
-373.516
-398.03
-406.807
-394.408
-355.257
-285.427
-185.657
-64.2109
-33.5978
-100.704
-167.498
-233.607
-298.391
-360.778
-419.041
-470.496
-511.103
-534.998
-534.122
-498.346
-416.939
-282.94
-101.432
-39.1068
-117.385
-195.813
-274.341
-352.659
-430.018
-504.975
-574.975
-635.738
-680.342
-698.031
-673.079
-584.937
-413.192
-153.474
-44.5687
-133.954
-224.048
-315.205
-407.567
-500.898
-594.315
-685.83
-771.551
-844.326
-891.506
-891.647
-810.956
-604.511
-238.305
-49.8563
-150.022
-251.531
-355.214
-461.778
-571.685
-684.94
-800.666
-916.307
-1026.03
-1117.6
-1166.3
-1124.26
-906.739
-399.797
-54.8267
-165.151
-277.492
-393.205
-513.641
-640.116
-773.806
-915.513
-1065.12
-1220.29
-1373.4
-1503.91
-1559.37
-1409.9
-764.512
-59.3286
-178.872
-301.1
-427.896
-561.285
-703.5
-857.059
-1024.82
-1210.01
-1415.92
-1644.82
-1893.57
-2136.71
-2257.37
-1742.84
-63.2126
-190.721
-321.524
-457.992
-602.773
-758.971
-930.398
-1121.98
-1340.44
-1595.52
-1902.38
-2287.02
-2799.03
-3545.82
-4784.4
4200.22
3127.53
2481.08
2037.71
1704.01
1436.75
1213.33
1020.6
850.186
696.379
555.024
422.945
297.586
176.789
58.6403
1534.17
1997.54
1901.41
1695.26
1481.83
1283.64
1103.65
940.117
790.364
651.803
522.139
399.372
281.739
167.656
55.6562
677.111
1256.05
1398.11
1357.84
1249.04
1117.86
982.532
850.051
722.756
601.038
484.457
372.227
263.423
157.073
52.1941
358.434
817.918
1021.4
1067.98
1031.78
954.929
859.421
756.369
651.263
546.695
443.746
342.698
243.398
145.465
48.3909
218.492
557.555
753.62
835.593
842.724
804.943
741.535
664.1
579.384
491.217
401.708
311.948
222.422
133.259
44.384
146.546
396.485
565.06
655.166
684.846
672.738
633.377
576.876
509.89
436.662
359.839
281.031
201.189
120.851
40.3023
104.566
291.911
430.981
516.689
555.974
559.447
537.111
496.924
444.722
384.598
319.341
250.826
180.299
108.587
36.2589
77.7155
220.854
333.954
410.441
451.961
464.07
453.231
425.305
385.049
336.09
281.101
222.016
160.227
96.7483
32.347
59.3997
170.654
262.345
328.47
368.364
384.622
381.207
362.242
331.412
291.764
245.7
195.08
141.327
85.5491
28.6378
46.3227
134.037
208.485
264.709
301.175
318.829
319.975
307.411
283.895
251.887
213.461
170.316
123.831
75.1353
25.1811
36.6694
106.629
167.279
214.663
247.043
264.493
268.258
260.18
242.27
216.462
184.494
147.869
107.869
65.5938
22.0073
29.362
85.6845
135.281
175.033
203.276
219.654
224.762
219.773
206.125
185.312
158.758
127.762
93.4854
56.9618
19.1303
23.7219
69.409
110.118
143.391
167.745
182.637
188.273
185.374
174.952
158.144
136.104
109.933
80.6601
49.237
16.5511
19.3014
56.5888
90.1168
117.941
138.783
152.044
157.709
156.196
148.21
134.609
116.315
94.2549
69.3267
42.3882
14.2605
15.794
46.3782
74.0747
97.3365
115.081
126.723
132.125
131.512
125.364
114.329
99.1391
80.5672
59.3879
36.3644
12.2429
12.9833
38.172
61.1108
80.5615
95.6161
105.733
110.716
110.667
105.911
96.9309
84.3104
68.6884
50.7287
31.1022
10.4781
10.7127
31.5272
50.568
66.8376
79.578
88.3042
92.8004
93.0897
89.3886
82.0592
71.5643
58.4315
43.2259
26.5322
8.94356
8.86615
26.1135
41.9484
55.5631
66.3259
73.8114
77.8039
78.2809
75.3838
69.3838
60.6485
49.6127
36.7556
22.5829
7.61614
7.35613
21.68
34.8697
46.2677
55.3481
61.7425
65.2469
65.8134
63.5319
58.6062
51.3286
42.0576
31.1977
19.1847
6.47288
6.11564
18.0335
29.0344
38.5805
46.2341
51.6789
54.7282
55.3218
53.5146
49.4601
43.3916
35.6045
26.4399
16.2711
5.49191
5.09259
15.0234
24.2083
32.2063
38.6526
43.2773
45.913
46.4956
45.0563
41.7111
36.6467
30.1069
22.3787
13.7807
4.65288
4.24602
12.5305
20.2057
26.9084
32.3348
36.2552
38.5221
39.0716
37.9197
35.1542
30.9251
25.4334
18.9205
11.6578
3.93724
3.5434
10.4603
16.8776
22.4957
27.0612
30.3796
32.3219
32.8275
31.902
29.6122
26.0787
21.4678
15.9821
9.85227
3.3283
2.95859
8.73629
14.1035
18.8126
22.6523
25.4579
27.1176
27.5752
26.8298
24.932
21.9791
18.1084
13.4901
8.31987
2.81128
2.47043
7.29671
11.7854
15.7318
18.9597
21.33
22.7459
23.1564
22.5559
20.9827
18.5152
15.2668
11.3804
7.0218
2.37319
2.06161
6.09082
9.8428
13.1484
15.8609
17.8627
19.0703
19.4373
18.9551
17.6523
15.5916
12.8668
9.59759
5.92439
2.00274
1.7178
5.07664
8.20884
10.9752
13.2535
14.9445
15.9759
16.3053
15.9218
14.8458
13.1272
10.8432
8.094
4.99874
1.69026
1.42697
4.21893
6.82745
9.13875
11.0516
12.4817
13.3661
13.6654
13.3666
12.4828
11.0531
9.14062
6.82928
4.22028
1.42748
1.17884
3.48751
5.65073
7.57675
9.18202
10.3948
11.1591
11.4376
11.2143
10.4958
9.31161
7.71278
5.76961
3.56843
1.20751
0.964298
2.85585
4.6367
6.23479
7.58173
8.6158
9.2857
9.5543
9.40193
8.82861
7.8549
6.52145
4.88717
3.0263
1.02468
0.774982
2.29959
3.74721
5.06409
6.19491
7.0854
7.68641
7.95873
7.87746
7.43532
6.64434
5.53601
4.1598
2.58051
0.874529
0.602679
1.79505
2.94571
4.01886
4.97054
5.75103
6.3101
6.60336
6.59841
6.27943
5.64989
4.73305
3.57082
2.22106
0.753715
0.43869
1.31741
2.1947
3.05359
3.8598
4.56459
5.11218
5.44884
5.53138
5.33362
4.84997
4.09636
3.10898
1.94134
0.660061
0.272928
0.83831
1.45251
2.1197
2.81326
3.4804
4.05348
4.46349
4.65199