/*--------------------------------*- C++ -*----------------------------------*\
| =========                 |                                                 |
| \\      /  F ield         | OpenFOAM: The Open Source CFD Toolbox           |
|  \\    /   O peration     | Version:  5.x                                   |
|   \\  /    A nd           | Web:      www.OpenFOAM.org                      |
|    \\/     M anipulation  |                                                 |
\*---------------------------------------------------------------------------*/
FoamFile
{
    version     2.0;
    format      ascii;
    class       volScalarField;
    location    "16.2";
    object      gradTy;
}
// * * * * * * * * * * * * * * * * * * * * * * * * * * * * * * * * * * * * * //

dimensions      [0 -1 0 1 0 0 0];

internalField   nonuniform List<scalar> 
6300
(
1005.83
1017.46
1029.04
1040.53
1051.9
1063.11
1074.13
1084.92
1095.46
1105.7
1115.61
1125.17
1134.36
1143.15
1151.52
0.0260227
0.0780602
0.130062
0.18197
0.233678
0.285002
0.335649
0.385187
0.433017
0.478341
0.520166
0.55732
0.58852
0.612474
0.628025
0.0433798
0.130135
0.216864
0.303496
0.389882
0.475745
0.560634
0.643866
0.724464
0.801109
0.872115
0.935459
0.988883
1.03008
1.05695
0.0607399
0.182234
0.303755
0.425258
0.546592
0.667442
0.787256
0.905156
1.01984
1.12949
1.2317
1.32349
1.40145
1.46198
1.50174
0.0780814
0.234298
0.390655
0.547176
0.703769
0.860154
1.01577
1.16964
1.32022
1.46527
1.60165
1.72532
1.83142
1.91463
1.96985
0.0953672
0.286213
0.477374
0.668999
0.861126
1.05361
1.24599
1.43735
1.6261
1.80967
1.98427
2.14467
2.28421
2.39519
2.46987
0.11254
0.337804
0.563615
0.790298
1.0181
1.24712
1.47719
1.70765
1.93711
2.16298
2.38102
2.58482
2.76547
2.91196
3.01241
0.129521
0.388834
0.648961
0.910447
1.17382
1.43955
1.70793
1.97889
2.25162
2.52404
2.79194
3.04799
3.28079
3.47463
3.61101
0.146227
0.439036
0.732926
1.02868
1.32715
1.62928
1.93605
2.24829
2.56638
2.88953
3.21459
3.53428
3.83492
4.09459
4.28395
0.162574
0.488142
0.815005
1.14415
1.47677
1.81432
2.15861
2.51176
2.87598
3.25298
3.64247
4.03948
4.42985
4.78466
5.05713
0.178497
0.535939
0.894772
1.25612
1.62141
1.99257
2.37225
2.76406
3.1727
3.60379
4.06267
4.55114
5.06014
5.5569
5.96896
0.193968
0.582324
0.971999
1.3641
1.76012
2.16222
2.57367
2.99941
3.44684
3.92665
4.45312
5.04206
5.70249
6.41364
7.07761
0.209013
0.62737
1.04677
1.46811
1.89268
2.32245
2.76071
3.21294
3.68843
4.2027
4.78091
5.4613
6.29392
7.31732
8.46338
0.223722
0.671351
1.11956
1.56885
2.01995
2.47412
2.93367
3.40309
3.89109
4.41462
5.00632
5.72814
6.69436
8.09804
10.1627
0.238238
0.714729
1.19124
1.66773
2.1441
2.62031
3.09666
3.5745
4.05805
4.5582
5.10141
5.7504
6.65709
8.21737
11.6068
1158.81
1165.13
1171.16
1176.89
1182.33
1187.5
1192.4
1197.04
1201.46
1205.65
1209.64
1213.45
1217.1
1220.61
1224
1227.29
1230.5
1233.65
1236.75
1239.83
1242.9
1245.98
1249.09
1252.24
1255.44
1258.7
1262.03
1265.45
1268.95
1272.54
1276.22
1280
1283.86
1287.81
1291.83
1295.93
1300.09
1304.31
1308.56
1312.85
1317.16
1321.46
1325.75
1330.01
1334.21
1338.34
1342.38
1346.32
1350.12
1353.79
1357.29
1360.62
1363.74
1366.65
1369.31
1371.71
1373.81
1375.6
1377.05
1378.11
1378.77
1378.99
1378.73
1377.97
1376.65
1374.74
1372.19
1368.95
1364.97
1360.18
1354.52
1347.93
1340.32
1331.62
1321.75
1310.62
1298.14
1284.23
1268.78
1251.72
1232.93
1212.33
1189.83
1165.36
1138.82
1110.18
1079.37
1046.38
1011.18
973.8
0.633789
0.632324
0.624146
0.609486
0.588788
0.562668
0.531859
0.497147
0.459323
0.41914
0.377284
0.33436
0.290887
0.247303
0.203975
0.161218
0.119307
0.0785012
0.0390564
0.00124365
-0.0346403
-0.0682657
-0.0992689
-0.127261
-0.151843
-0.172635
-0.189308
-0.201626
-0.209474
-0.212887
-0.212044
-0.207239
-0.198824
-0.187133
-0.172409
-0.154759
-0.13415
-0.110458
-0.0835486
-0.0533877
-0.0201281
0.0158362
0.0538801
0.0932253
0.133072
0.172754
0.21187
0.250369
0.28856
0.327055
0.366655
0.408212
0.452488
0.500038
0.551149
0.605846
0.663954
0.725223
0.789468
0.856702
0.927215
1.00161
1.08077
1.16576
1.25776
1.35789
1.4671
1.58612
1.71535
1.85486
2.00446
2.16372
2.33207
2.50884
2.69328
2.88449
3.08131
3.28223
3.48518
3.68742
3.88541
4.07478
4.25041
4.40655
4.53718
4.63632
4.69858
4.71959
4.69648
4.6282
1.067
1.06459
1.05061
1.02547
0.989994
0.9453
0.892699
0.833588
0.769349
0.701283
0.630559
0.558191
0.485037
0.411808
0.339094
0.26739
0.197127
0.128707
0.062533
-0.000961877
-0.0612947
-0.117916
-0.170208
-0.217495
-0.25907
-0.294245
-0.322411
-0.343119
-0.356145
-0.361548
-0.359674
-0.351108
-0.336553
-0.316682
-0.291971
-0.262603
-0.228449
-0.189165
-0.144367
-0.0938497
-0.0377867
0.023149
0.0877916
0.154636
0.222106
0.288877
0.354152
0.417827
0.480509
0.543394
0.608041
0.676096
0.749004
0.827793
0.912938
1.00437
1.1016
1.204
1.31106
1.42264
1.5392
1.6618
1.79201
1.93182
2.08336
2.2487
2.42959
2.62731
2.84255
3.07538
3.32538
3.59172
3.87338
4.16922
4.47807
4.79858
5.12907
5.46725
5.8099
6.15263
6.48958
6.81341
7.11526
7.38514
7.61235
7.7862
7.89691
7.93651
7.89968
7.78442
1.51681
1.51348
1.49307
1.45629
1.40443
1.33928
1.26288
1.17738
1.08487
0.987241
0.886193
0.783152
0.679295
0.575577
0.472767
0.371495
0.272302
0.17569
0.0821671
-0.00770427
-0.0932749
-0.173781
-0.248334
-0.315931
-0.37549
-0.42592
-0.466229
-0.495647
-0.513767
-0.520661
-0.516917
-0.503573
-0.481915
-0.453175
-0.418217
-0.377315
-0.330112
-0.275792
-0.213401
-0.142278
-0.0624427
0.0251422
0.118551
0.21516
0.31216
0.407167
0.498749
0.586724
0.672172
0.757202
0.844532
0.936999
1.03706
1.14641
1.26569
1.39454
1.53183
1.67609
1.82612
1.98142
2.14251
2.311
2.48943
2.68097
2.88909
3.11711
3.36783
3.64327
3.94439
4.27119
4.62276
4.99767
5.39424
5.81086
6.24603
6.69827
7.16573
7.64578
8.13449
8.62611
9.11263
9.58361
10.0261
10.4251
10.7643
11.0269
11.1976
11.2634
11.2157
11.0512
1.99113
1.98694
1.95914
1.90882
1.83802
1.74945
1.64618
1.53131
1.40777
1.27817
1.14475
1.00935
0.873424
0.738115
0.604308
0.472695
0.343855
0.21832
0.0966441
-0.0205348
-0.132439
-0.238105
-0.336361
-0.425821
-0.504929
-0.572045
-0.6256
-0.66431
-0.687421
-0.694955
-0.687845
-0.667871
-0.637333
-0.598482
-0.552883
-0.500957
-0.441887
-0.373898
-0.294871
-0.203113
-0.0981175
0.0188906
0.144841
0.275261
0.405225
0.530529
0.648678
0.759394
0.864574
0.967831
1.07376
1.1871
1.3119
1.45085
1.60479
1.77271
1.95214
2.14002
2.33374
2.53199
2.73531
2.94603
3.16808
3.40639
3.6663
3.95295
4.27063
4.62234
5.0094
5.43144
5.88667
6.37252
6.88633
7.42586
7.98952
8.57612
9.18433
9.81192
10.455
11.107
11.7581
12.3949
12.9996
13.5514
14.0264
14.4002
14.6492
14.7537
14.7
14.4825
2.49928
2.4943
2.45754
2.39073
2.29708
2.1807
2.04609
1.89762
1.73928
1.5745
1.40608
1.23621
1.06659
0.898425
0.732626
0.569845
0.410597
0.255347
0.104604
-0.0409979
-0.180616
-0.313129
-0.437077
-0.55064
-0.651653
-0.73771
-0.806362
-0.855444
-0.883515
-0.890347
-0.877305
-0.847391
-0.804736
-0.753523
-0.696674
-0.634909
-0.566525
-0.487926
-0.394706
-0.283044
-0.15113
-0.000281789
0.16465
0.33597
0.504944
0.664132
0.809248
0.939966
1.05967
1.17453
1.29223
1.4206
1.56629
1.73361
1.92368
2.13421
2.36019
2.59545
2.83471
3.07518
3.31731
3.56464
3.8232
4.10056
4.40488
4.74395
5.1243
5.55038
6.0239
6.54372
7.10632
7.70696
8.3412
9.00594
9.6998
10.4227
11.1748
11.9556
12.7623
13.5888
14.4241
15.2519
16.0493
16.7878
17.4341
17.9527
18.3087
18.4716
18.4199
18.1441
3.05297
3.04733
2.9991
2.91119
2.78874
2.63809
2.46579
2.27797
2.07992
1.87592
1.66932
1.4626
1.2575
1.05521
0.856481
0.6618
0.471479
0.28579
0.105072
-0.0701598
-0.239103
-0.400555
-0.552814
-0.693589
-0.819969
-0.928491
-1.01535
-1.07688
-1.11024
-1.1144
-1.09111
-1.0453
-0.98451
-0.916727
-0.847597
-0.778447
-0.705931
-0.623069
-0.521165
-0.392217
-0.231493
-0.0398274
0.17516
0.399951
0.618643
0.817876
0.990427
1.13627
1.26161
1.37701
1.49519
1.62899
1.78935
1.98344
2.21293
2.4733
2.75468
3.04492
3.33374
3.61579
3.8916
4.16687
4.45104
4.7557
5.09317
5.47526
5.91189
6.40984
6.97147
7.59415
8.2709
8.99273
9.75184
10.5438
11.368
12.2267
13.1236
14.0616
15.0409
16.0574
17.1007
18.1521
19.1833
20.1564
21.0253
21.739
22.2455
22.4982
22.4618
22.1201
3.66773
3.66153
3.59761
3.4812
3.32085
3.12648
2.90771
2.67293
2.42894
2.18091
1.93258
1.68648
1.44421
1.2067
0.974368
0.74734
0.525564
0.308956
0.0975283
-0.108482
-0.308472
-0.501312
-0.685173
-0.857343
-1.01408
-1.15053
-1.26089
-1.33894
-1.37906
-1.37806
-1.33738
-1.26487
-1.17442
-1.08194
-0.998625
-0.92691
-0.860318
-0.785713
-0.686652
-0.547243
-0.35652
-0.113076
0.171419
0.472573
0.76021
1.00989
1.20991
1.36191
1.4777
1.57531
1.67548
1.79893
1.96367
2.18206
2.45751
2.78191
3.1362
3.49619
3.84226
4.16513
4.46641
4.75604
5.04911
5.3633
5.71696
6.12773
6.61088
7.17728
7.83082
8.56639
9.37022
10.2245
11.1148
12.0348
12.986
13.9755
15.013
16.1075
17.2653
18.4871
19.7653
21.0809
22.4004
23.6745
24.8397
25.8229
26.5475
26.9404
26.943
26.5246
4.36548
4.35865
4.27157
4.1143
3.90183
3.64992
3.37261
3.08111
2.78376
2.48634
2.19262
1.90483
1.62408
1.35074
1.08465
0.825355
0.572251
0.324716
0.0822467
-0.155403
-0.388056
-0.61491
-0.834269
-1.04322
-1.23728
-1.41001
-1.55286
-1.65548
-1.70696
-1.69874
-1.62938
-1.51013
-1.36714
-1.23386
-1.13283
-1.06789
-1.02613
-0.983462
-0.910123
-0.776041
-0.557359
-0.245341
0.14377
0.564733
0.956506
1.27345
1.49859
1.63974
1.72005
1.76998
1.82235
1.9095
2.0608
2.29858
2.63164
3.04753
3.50952
3.96756
4.38422
4.74559
5.05802
5.34026
5.61683
5.91409
6.25856
6.67598
7.19001
7.81925
8.57205
9.44031
10.3969
11.4043
12.4351
13.4808
14.5487
15.6552
16.82
18.0623
19.3975
20.8354
22.3758
24.0038
25.6827
27.3494
28.9158
30.279
31.3267
31.9444
32.03
31.5215
5.17963
5.1712
5.04647
4.82678
4.53949
4.20988
3.8579
3.49773
3.13873
2.78654
2.44425
2.11316
1.79342
1.48448
1.1853
0.894622
0.611094
0.333366
0.0602201
-0.209311
-0.475778
-0.739077
-0.998115
-1.25032
-1.49095
-1.71225
-1.90252
-2.0454
-2.12056
-2.10719
-1.99297
-1.78929
-1.54564
-1.33906
-1.21481
-1.17522
-1.19301
-1.22512
-1.2208
-1.1264
-0.892335
-0.48836
0.0705057
0.699167
1.26079
1.66945
1.90845
2.0054
2.00638
1.96138
1.91936
1.92796
2.03367
2.27818
2.68674
3.24703
3.88875
4.49876
5.00604
5.39674
5.69332
5.93289
6.15496
6.39715
6.69536
7.08538
7.6035
8.28352
9.14723
10.1873
11.3506
12.5504
13.7341
14.8951
16.0559
17.251
18.5158
19.8832
21.382
23.036
24.8604
26.8534
28.9826
31.1685
33.2847
35.1892
36.7252
37.7147
37.9727
37.3609
6.16609
6.15109
5.95798
5.63651
5.23793
4.80186
4.35472
3.91243
3.4836
3.07224
2.6795
2.30491
1.94703
1.60396
1.27351
0.953431
0.641426
0.335273
0.032854
-0.267757
-0.568172
-0.869483
-1.1719
-1.47415
-1.77251
-2.05927
-2.32044
-2.5329
-2.66169
-2.66091
-2.48544
-2.12605
-1.67083
-1.32577
-1.17494
-1.20001
-1.33932
-1.51931
-1.66132
-1.67797
-1.4721
-0.954549
-0.103404
0.929982
1.78514
2.30959
2.52268
2.50906
2.35867
2.14826
1.94324
1.80633
1.80643
2.02131
2.52308
3.329
4.31337
5.17758
5.79545
6.18313
6.41038
6.55039
6.66378
6.79918
6.99958
7.30995
7.78349
8.4829
9.46809
10.7563
12.2513
13.7194
15.0653
16.309
17.5135
18.7458
20.0633
21.5143
23.1425
24.9907
27.1013
29.5065
32.2001
35.0874
37.9578
40.6291
42.9098
44.5375
45.1671
44.4606
7.43202
7.38721
7.05406
6.55701
5.99014
5.40959
4.84443
4.30759
3.80321
3.33099
2.88852
2.47247
2.07923
1.70517
1.34675
1.00055
0.663293
0.331774
0.00286929
-0.326485
-0.659269
-0.998277
-1.34588
-1.70353
-2.07073
-2.44305
-2.80845
-3.14077
-3.38932
-3.46609
-3.24266
-2.60073
-1.63732
-1.03274
-0.881761
-1.06024
-1.42703
-1.86814
-2.28227
-2.54992
-2.50061
-1.90107
-0.539723
1.41741
2.78567
3.39796
3.46327
3.2096
2.7973
2.32734
1.86898
1.48735
1.26988
1.35127
1.92138
3.15394
4.91093
6.21096
6.91616
7.20038
7.25291
7.20606
7.14077
7.10745
7.14531
7.29942
7.63807
8.2706
9.35242
11.0274
13.1908
15.0637
16.5437
17.7788
18.9308
20.1175
21.4181
22.89
24.5858
26.5672
28.9176
31.7437
35.138
39.0301
42.9169
46.631
50.0341
52.7967
54.2848
53.6186
9.22611
9.03814
8.38578
7.57777
6.76178
5.99494
5.29321
4.65588
4.07642
3.54686
3.05945
2.60718
2.18383
1.78389
1.40241
1.03486
0.676958
0.324588
-0.026375
-0.380171
-0.741285
-1.11456
-1.50526
-1.91901
-2.3614
-2.83659
-3.34389
-3.86905
-4.36409
-4.70333
-4.60227
-3.53815
-1.08692
-0.0863992
-0.114029
-0.649176
-1.40757
-2.25563
-3.11397
-3.87806
-4.32124
-3.94438
-1.83382
2.7529
4.87478
5.274
4.8632
4.13856
3.319
2.48979
1.68433
0.932105
0.303114
-0.0223835
0.365883
2.22379
6.16655
8.10087
8.64308
8.55122
8.23852
7.88827
7.57173
7.31325
7.12372
7.02319
7.06955
7.41138
8.3827
10.5951
14.5483
16.9739
18.3747
19.3682
20.2978
21.3252
22.526
23.9432
25.6175
27.6124
30.0486
33.1622
37.3591
42.9799
48.1244
53.0803
58.0802
62.8907
66.504
66.6761
12.289
11.3575
9.9413
8.60973
7.46238
6.48629
5.64897
4.92058
4.27753
3.70181
3.1796
2.70007
2.25456
1.83588
1.43789
1.05514
0.68256
0.315288
-0.0516136
-0.42338
-0.805836
-1.20577
-1.63144
-2.09327
-2.6048
-3.18387
-3.85354
-4.64063
-5.56308
-6.5745
-7.34859
-6.47293
1.55247
2.34042
1.38446
0.0833374
-1.25902
-2.6283
-4.08134
-5.66823
-7.32262
-8.48415
-6.69361
7.63757
9.4443
8.31622
6.71481
5.20397
3.85441
2.61785
1.42288
0.199295
-1.10076
-2.42392
-3.30598
-1.70869
10.3141
11.9951
11.2827
10.2197
9.27788
8.52164
7.91879
7.4195
6.9737
6.53523
6.07533
5.64548
5.62561
7.65564
18.1053
20.3595
20.7916
21.049
21.5234
22.2829
23.3219
24.6255
26.1872
28.0214
30.2034
33.0205
37.5288
47.6151
53.6024
59.4651
66.3982
74.7075
83.6772
89.0914
19.476
14.3746
11.3746
9.37609
7.91612
6.77758
5.84771
5.06225
4.38159
3.77964
3.2382
2.74393
2.28662
1.85807
1.45145
1.06078
0.680563
0.305508
-0.0697789
-0.45111
-0.845118
-1.25981
-1.70543
-2.19581
-2.75078
-3.40046
-4.1939
-5.21702
-6.63369
-8.78708
-12.4702
-19.703
14.6138
7.27844
3.38002
0.875288
-1.07154
-2.88019
-4.85571
-7.36089
-11.0334
-17.2745
-29.6116
30.5573
18.2397
12.0398
8.43583
6.03709
4.22708
2.68607
1.20271
-0.42325
-2.47118
-5.4604
-10.5478
-20.6536
29.3535
19.3356
14.427
11.7137
10.0498
8.93405
8.11667
7.44873
6.81315
6.07817
5.0379
3.28934
-0.083221
-7.40795
33.4634
26.3686
23.4598
22.4172
22.338
22.8379
23.7363
24.9359
26.3644
27.9292
29.4434
30.443
29.666
58.152
59.2591
64.308
72.7336
85.5723
105.97
141.861
930.307
879.838
826.479
770.395
711.779
650.844
587.816
522.928
456.413
388.504
319.429
249.411
178.665
107.404
35.8353
4.5044
4.31
4.06437
3.7777
3.461
3.12485
2.77853
2.42947
2.08311
1.74293
1.41068
1.08671
0.770228
0.459634
0.152784
7.57317
7.2402
6.81949
6.32953
5.78997
5.21944
4.63397
4.04617
3.46503
2.89609
2.34198
1.80288
1.27717
0.761897
0.253215
10.7444
10.2581
9.64384
8.93093
8.14989
7.32896
6.49174
5.65623
4.83473
4.03444
3.25823
2.50564
1.77366
1.05755
0.351389
14.0672
13.4038
12.5667
11.6004
10.5497
9.45472
8.34778
7.25226
6.18324
5.14869
4.15086
3.18775
2.25427
1.34324
0.446172
17.6001
16.723
15.6187
14.354
12.9935
11.5923
10.1923
8.82173
7.49727
6.2262
5.00877
3.84022
2.7124
1.61496
0.536219
21.4164
20.2689
18.8308
17.2029
15.4777
13.7286
12.0071
10.3449
8.75782
7.25004
5.81778
4.45195
3.14014
1.86797
0.619956
25.6119
24.105
22.2324
20.1489
17.9855
15.8369
13.7623
11.7927
9.93889
8.19828
6.56033
5.00963
3.52822
2.09683
0.695586
30.3185
28.3066
25.8447
23.1745
20.4784
17.871
15.4123
13.1246
11.0065
9.04374
7.21553
5.49799
3.86628
2.29552
0.761144
35.7244
32.9583
29.6652
26.226
22.8824
19.7563
16.8914
14.2866
11.9184
9.75451
7.75997
5.90046
4.14334
2.45782
0.814609
42.1105
38.1361
33.6312
29.1815
25.0682
21.3803
18.1104
15.2117
12.6259
10.2958
8.16928
6.20047
4.34877
2.57779
0.854074
49.9067
43.8435
37.5413
31.8
26.8281
22.5857
18.9579
15.8237
13.0776
10.6333
8.42078
6.38331
4.47345
2.65047
0.877967
59.7163
49.7898
40.8902
33.6489
27.8583
23.1763
19.3116
16.0474
13.2274
10.7387
8.49716
6.43845
4.51121
2.67263
0.885289
71.859
54.7082
42.5802
34.0465
27.7794
22.9494
19.0645
15.8264
13.0459
10.5968
8.39062
6.36207
4.46026
2.64353
0.875836
82.3524
54.6027
40.6755
32.1771
26.263
21.777
18.1705
15.1477
12.5326
10.2117
8.1064
6.15887
4.32418
2.56537
0.850351
0.251521
0.754434
1.25689
1.75834
2.25785
2.7539
3.24429
3.72607
4.19593
4.6518
5.09713
5.55173
6.07842
6.84793
8.29751
0.263685
0.790851
1.31729
1.84211
2.36373
2.87941
3.38466
3.8722
4.33068
4.74265
5.08152
5.30511
5.33359
4.95045
3.32501
0.275984
0.827756
1.37879
1.92807
2.47367
3.0121
3.53721
4.0384
4.49761
4.88415
5.14587
5.19382
4.87442
3.91556
1.84167
0.288416
0.865156
1.44147
2.01653
2.58854
3.15397
3.70627
4.23362
4.71488
5.11222
5.35853
5.33748
4.85927
3.65481
1.47597
0.300904
0.902833
1.50499
2.10708
2.70792
3.30487
3.89255
4.46075
4.9903
5.44503
5.75668
5.79847
5.34833
4.07062
1.64709
0.313302
0.94033
1.56854
2.19843
2.82995
3.46211
4.09224
4.71462
5.31757
5.87706
6.34202
6.60097
6.41193
5.28205
2.42279
0.3254
0.976983
1.63089
2.2886
2.95146
3.62065
4.29719
4.98184
5.6749
6.37462
7.07016
7.71448
8.12869
7.6943
4.57782
0.336946
1.012
1.69057
2.37515
3.0685
3.77401
4.49637
5.24307
6.02748
6.87494
7.83363
8.98761
10.4345
11.9689
10.9266
0.347677
1.04455
1.74605
2.45556
3.17704
3.91556
4.67851
5.47796
6.33612
7.29787
8.46125
10.0571
12.6793
18.0326
31.727
0.357346
1.07385
1.79592
2.5276
3.27366
4.04007
4.83517
5.6719
6.57264
7.58063
8.78827
10.4136
13.0272
18.3033
31.8341
0.365743
1.09928
1.83906
2.58962
3.35607
4.14455
4.96281
5.82122
6.73449
7.72455
8.82501
10.0834
11.5258
12.8412
11.2829
0.372708
1.12033
1.87468
2.64053
3.4231
4.22825
5.06243
5.93229
6.84284
7.79161
8.75184
9.62522
10.1123
9.37441
5.32001
0.378128
1.13669
1.90227
2.67976
3.47439
4.29169
5.13714
6.01495
6.92445
7.8505
8.73876
9.43503
9.54912
8.21051
3.9303
0.381934
1.14816
1.92153
2.70702
3.50984
4.33547
5.18926
6.07544
6.99438
7.93543
8.85878
9.64889
9.99452
9.08916
5.02687
0.384092
1.15464
1.93234
2.72217
3.52938
4.35958
5.21874
6.11304
7.0488
8.03244
9.07105
10.1712
11.3084
12.1599
10.284
0.3846
1.15612
1.93468
2.72518
3.53286
4.36348
5.22367
6.12169
7.06979
8.09109
9.24033
10.6676
12.8203
17.1244
28.5216
0.383486
1.1527
1.92869
2.71619
3.52032
4.34674
5.20218
6.09539
7.03977
8.06069
9.21629
10.6599
12.8379
17.1625
28.5477
0.380808
1.14453
1.91465
2.69561
3.49221
4.30974
5.15433
6.03337
6.95642
7.93659
8.99197
10.1421
11.3644
12.2971
10.3903
0.376656
1.13191
1.89303
2.66411
3.44948
4.25385
5.08241
5.94063
6.83323
7.76005
8.70165
9.5738
10.0916
9.40319
5.33959
0.371148
1.11518
1.86446
2.62262
3.39347
4.18107
4.98977
5.82384
6.6861
7.57305
8.45934
9.25132
9.6564
8.85289
4.88285
0.364424
1.09478
1.82969
2.57226
3.32574
4.09355
4.8794
5.68733
6.52165
7.38632
8.2823
9.19729
10.0602
10.5014
8.45075
0.356642
1.07119
1.78955
2.51427
3.24798
3.9934
4.75356
5.53234
6.33597
7.17767
8.09184
9.17923
10.7566
13.88
22.3316
0.347974
1.04494
1.74495
2.44999
3.16201
3.8829
4.61468
5.35996
6.12371
6.91853
7.78088
8.82072
10.3791
13.558
22.1911
0.338589
1.01655
1.69681
2.38081
3.0698
3.76476
4.4663
5.17462
5.88972
6.61234
7.34644
8.10192
8.87584
9.44829
7.96009
0.328657
0.986531
1.64604
2.30811
2.97337
3.64195
4.3131
4.98444
5.65036
6.29804
6.89698
7.37011
7.51232
6.7693
3.75115
0.318327
0.955356
1.59346
2.23314
2.87457
3.51727
4.15965
4.79788
5.42352
6.01743
6.53473
6.86792
6.76337
5.6701
2.65609
0.307728
0.923415
1.53974
2.15692
2.77482
3.39275
4.00897
4.61996
5.21859
5.78986
6.30016
6.66957
6.70086
5.90462
3.15692
0.296962
0.891011
1.48539
2.08014
2.675
3.26932
3.86183
4.4505
5.03253
5.60451
6.16325
6.70587
7.21284
7.49418
6.13418
0.2861
0.85836
1.43075
2.00322
2.57551
3.14708
3.71725
4.28556
4.85334
5.42821
6.03739
6.76679
7.88135
10.2234
16.6865
0.275191
0.825596
1.37603
1.92639
2.47644
3.02575
3.57387
4.12088
4.6691
5.22797
5.8279
6.56008
7.69725
10.0905
16.6365
0.264261
0.792793
1.32132
1.84975
2.37783
2.90516
3.43116
3.95526
4.47736
4.99912
5.52642
6.07198
6.64071
7.0734
5.97218
0.253319
0.759974
1.26666
1.7733
2.2797
2.78544
3.2897
3.79092
4.28576
4.7663
5.21212
5.56764
5.6785
5.12139
2.83767
0.242359
0.727119
1.21199
1.69697
2.18198
2.66667
3.15028
3.63092
4.10397
4.55748
4.9604
5.23308
5.18003
4.3683
2.05839
0.231364
0.694172
1.15721
1.62061
2.08442
2.5486
3.01283
3.47612
3.93566
4.38368
4.79902
5.12459
5.2083
4.6555
2.53384
0.220308
0.661048
1.10216
1.54391
1.98656
2.43043
2.87597
3.32384
3.77525
4.23246
4.69985
5.18396
5.67847
6.03207
5.05508
0.20916
0.627649
1.04665
1.46655
1.8878
2.31106
2.73742
3.16903
3.61072
4.07409
4.58896
5.23599
6.24636
8.33253
13.9187
0.197891
0.593879
0.990499
1.38822
1.78761
2.18948
2.59514
3.00715
3.43105
3.87988
4.38618
5.03558
6.06703
8.20225
13.8694
0.186474
0.559658
0.933559
1.3087
1.68566
2.06521
2.44839
2.83694
3.234
3.64566
4.08392
4.56972
5.12105
5.61906
4.89497
0.174889
0.524925
0.875741
1.22788
1.58189
1.93836
2.29786
2.66076
3.02671
3.3929
3.74856
4.05826
4.21199
3.88443
2.21615
0.163121
0.489639
0.816989
1.14572
1.47637
1.80937
2.1449
2.48238
2.8192
3.14738
3.44501
3.65501
3.63705
3.08077
1.45675
0.151156
0.453764
0.757257
1.06222
1.36919
1.67859
1.99055
2.30441
2.61761
2.92299
3.20225
3.40997
3.43585
3.01852
1.5928
0.138983
0.417263
0.696491
0.977293
1.26028
1.546
1.83483
2.12683
2.42138
2.71669
3.00906
3.29116
3.54234
3.65648
2.95096
0.126587
0.380096
0.634615
0.89083
1.14945
1.4112
1.67687
1.94744
2.22457
2.51238
2.82293
3.19375
3.74392
4.86356
7.91765
0.113956
0.34222
0.571547
0.802678
1.03641
1.27365
1.51547
1.76343
2.0203
2.29221
2.59488
2.97173
3.54993
4.72717
7.868
0.10108
0.303599
0.507213
0.712701
0.920926
1.13288
1.34977
1.5732
1.80553
2.05064
2.31524
2.6098
2.93984
3.22707
2.7933
0.0879502
0.26421
0.441566
0.62081
0.80283
0.988654
1.17949
1.37674
1.58184
1.79549
2.01475
2.22316
2.35943
2.2276
1.29689
0.0745693
0.224054
0.374597
0.526976
0.682075
0.840926
1.00473
1.1748
1.35217
1.53639
1.72175
1.88656
1.96513
1.78284
0.955376
0.0609462
0.183157
0.306346
0.431242
0.558698
0.689737
0.825601
0.967748
1.1177
1.27647
1.44297
1.60981
1.75195
1.78606
1.36612
0.0471006
0.141577
0.236901
0.333721
0.43282
0.535181
0.642087
0.755255
0.877076
1.01116
1.16392
1.35019
1.61373
2.10456
3.38259
0.0330631
0.0994035
0.16641
0.23461
0.304665
0.377454
0.454206
0.536734
0.627921
0.732841
0.861561
1.03687
1.31762
1.87634
3.29111
0.0188759
0.056765
0.0950872
0.134205
0.174603
0.216964
0.2623
0.312181
0.369214
0.437983
0.52682
0.650312
0.828433
1.0536
1.05958
0.00459287
0.0138241
0.0232088
0.0329071
0.0431717
0.0544017
0.0672256
0.0826492
0.102344
0.129177
0.167996
0.225794
0.306558
0.383031
0.30383
-0.00972214
-0.0292243
-0.0488886
-0.0687857
-0.088932
-0.109271
-0.12966
-0.149857
-0.169492
-0.187957
-0.204017
-0.214682
-0.21235
-0.17944
-0.0849479
-0.023997
-0.0721601
-0.120824
-0.170305
-0.220901
-0.272909
-0.326679
-0.382755
-0.442143
-0.506761
-0.57978
-0.664186
-0.752494
-0.784678
-0.526089
-0.0381543
-0.114747
-0.192191
-0.271048
-0.351888
-0.435319
-0.522093
-0.613347
-0.711156
-0.819724
-0.947631
-1.11097
-1.33161
-1.59183
-1.51832
-0.0521137
-0.156742
-0.262573
-0.370411
-0.481068
-0.595401
-0.714389
-0.839377
-0.972686
-1.11924
-1.29086
-1.51794
-1.88321
-2.6307
-4.56828
-0.0657938
-0.197899
-0.331558
-0.467808
-0.607689
-0.752239
-0.902508
-1.05961
-1.225
-1.40133
-1.59557
-1.82891
-2.16933
-2.84308
-4.64971
-0.0791132
-0.237974
-0.398737
-0.562677
-0.731056
-0.905093
-1.08586
-1.27408
-1.46968
-1.67096
-1.87309
-2.06548
-2.22395
-2.2687
-1.78478
-0.0919912
-0.276722
-0.463705
-0.654453
-0.850482
-1.05325
-1.26402
-1.48341
-1.7104
-1.93996
-2.15736
-2.32555
-2.35749
-2.0614
-1.06263
-0.104348
-0.313903
-0.526049
-0.742549
-0.965209
-1.19585
-1.43617
-1.68742
-1.94931
-2.21735
-2.47576
-2.6802
-2.7188
-2.34202
-1.12276
-0.116105
-0.349278
-0.585359
-0.826355
-1.07438
-1.33168
-1.60071
-1.884
-2.18392
-2.50139
-2.83158
-3.14996
-3.36852
-3.20764
-1.89555
-0.127192
-0.382628
-0.641246
-0.905267
-1.17708
-1.45936
-1.7553
-2.06899
-2.4063
-2.77654
-3.19554
-3.68899
-4.28166
-4.87265
-4.38983
-0.137547
-0.413762
-0.69337
-0.978751
-1.27249
-1.57753
-1.89753
-2.23755
-2.60577
-3.01779
-3.50772
-4.15904
-5.19588
-7.28327
-12.6457
-0.147121
-0.442531
-0.741473
-1.04642
-1.36002
-1.68528
-2.02582
-2.38646
-2.77477
-3.20486
-3.70777
-4.36128
-5.38044
-7.41939
-12.6977
-0.155883
-0.468839
-0.785395
-1.10805
-1.43943
-1.78239
-2.1401
-2.51612
-2.91471
-3.34128
-3.80317
-4.3095
-4.85669
-5.30583
-4.55958
-0.163814
-0.492638
-0.825071
-1.16359
-1.51077
-1.86924
-2.24161
-2.63004
-3.03517
-3.45312
-3.86763
-4.22925
-4.40095
-4.02227
-2.2359
-0.170912
-0.513921
-0.860504
-1.21311
-1.57423
-1.9464
-2.33192
-2.73232
-3.14666
-3.56727
-3.96874
-4.28081
-4.32732
-3.71621
-1.77707
-0.177184
-0.532711
-0.891742
-1.25668
-1.63
-2.01424
-2.41186
-2.82486
-3.25372
-3.69464
-4.13185
-4.51671
-4.71029
-4.3323
-2.43973
-0.182646
-0.54906
-0.918864
-1.2944
-1.67815
-2.07275
-2.48107
-2.90631
-3.35236
-3.82452
-4.33122
-4.88535
-5.49008
-6.00008
-5.17658
-0.187326
-0.563043
-0.941984
-1.32641
-1.71874
-2.1217
-2.53847
-2.97327
-3.43279
-3.93034
-4.49757
-5.21875
-6.33555
-8.59379
-14.5312
-0.191264
-0.574777
-0.961279
-1.35289
-1.75192
-2.161
-2.5833
-3.023
-3.48676
-3.9877
-4.5569
-5.27732
-6.38823
-8.63237
-14.5459
-0.194515
-0.584425
-0.97701
-1.37419
-1.77809
-2.1911
-2.61598
-3.05594
-3.51483
-3.99758
-4.51112
-5.06461
-5.6538
-6.12263
-5.22456
-0.197153
-0.592203
-0.989532
-1.3908
-1.79789
-2.2129
-2.63813
-3.07568
-3.52627
-3.98599
-4.43753
-4.82699
-5.00285
-4.562
-2.53581
-0.199269
-0.598387
-0.999296
-1.40335
-1.81215
-2.22756
-2.65168
-3.08629
-3.53129
-3.97999
-4.40695
-4.73761
-4.78006
-4.10223
-1.96188
-0.200977
-0.603314
-1.00686
-1.41259
-1.82178
-2.23613
-2.65788
-3.08964
-3.53367
-3.98902
-4.44314
-4.84829
-5.05736
-4.65801
-2.6264
-0.202415
-0.607394
-1.01288
-1.41938
-1.82779
-2.23953
-2.65706
-3.08439
-3.52811
-3.99882
-4.51325
-5.09506
-5.75706
-6.34723
-5.52779
-0.203744
-0.611111
-1.01816
-1.42484
-1.83143
-2.23887
-2.64937
-3.06771
-3.50374
-3.97817
-4.53646
-5.28603
-6.50655
-9.0152
-15.5375
-0.205152
-0.615037
-1.02368
-1.43033
-1.83445
-2.23602
-2.63619
-3.03867
-3.45263
-3.89922
-4.42675
-5.14986
-6.36135
-8.89573
-15.4889
-0.206848
-0.619813
-1.03056
-1.43755
-1.83921
-2.23409
-2.62134
-3.00158
-3.3788
-3.76398
-4.18112
-4.67441
-5.29736
-5.95752
-5.36348
-0.209046
-0.626114
-1.04003
-1.44844
-1.84862
-2.23743
-2.61131
-2.9665
-3.29936
-3.60647
-3.88253
-4.10883
-4.20743
-3.89014
-2.27476
-0.211951
-0.63459
-1.0533
-1.46501
-1.86589
-2.25107
-2.6142
-2.94687
-3.23774
-3.47043
-3.61842
-3.63184
-3.40621
-2.72414
-1.22357
-0.215727
-0.645777
-1.07142
-1.48906
-1.89402
-2.27999
-2.63817
-2.95621
-3.21645
-3.39313
-3.44768
-3.32078
-2.92188
-2.1265
-0.829696
-0.220474
-0.66001
-1.09507
-1.52188
-1.93531
-2.32814
-2.68996
-3.00562
-3.25311
-3.40058
-3.40285
-3.19855
-2.71282
-1.877
-0.687603
-0.226197
-0.677332
-1.12444
-1.56395
-1.99085
-2.39778
-2.77374
-3.10231
-3.35916
-3.50879
-3.50136
-3.2717
-2.74681
-1.87301
-0.674528
-0.23279
-0.697437
-1.15904
-1.61474
-2.06023
-2.48887
-2.89036
-3.24874
-3.53958
-3.72599
-3.75412
-3.54978
-3.02301
-2.09446
-0.765998
-0.240025
-0.719637
-1.19773
-1.67258
-2.14125
-2.59876
-3.03684
-3.442
-3.79242
-4.05303
-4.1682
-4.05169
-3.57815
-2.59357
-0.99879
-0.247559
-0.742873
-1.23864
-1.73469
-2.22998
-2.72208
-3.20611
-3.6732
-4.10751
-4.48097
-4.74304
-4.80143
-4.4881
-3.51637
-1.51127
-0.254949
-0.765775
-1.27933
-1.79727
-2.32089
-2.85094
-3.38708
-3.92705
-4.46476
-4.98613
-5.4592
-5.80917
-5.85515
-5.1567
-2.73021
-0.26169
-0.786762
-1.31696
-1.85586
-2.40729
-2.9755
-3.56532
-4.18238
-4.83321
-5.5247
-6.26069
-7.02787
-7.73902
-7.99698
-6.05589
-0.267248
-0.804171
-1.34851
-1.9057
-2.482
-3.08501
-3.72456
-4.41413
-5.17327
-6.03218
-7.04038
-8.28534
-9.93727
-12.3642
-16.4444
58.0837
43.3343
34.4163
28.2846
23.6621
19.9558
16.8553
14.1794
11.8126
9.67604
7.71218
5.87705
4.1352
2.45666
0.81487
21.2276
27.6772
26.3692
23.5246
20.5714
17.8249
15.3285
13.0589
10.9797
9.05542
7.25434
5.54886
3.91457
2.32949
0.773322
9.37515
17.407
19.3888
18.8399
17.3369
15.5203
13.6441
11.8061
10.0392
8.34912
6.73005
5.17117
3.65971
2.18224
0.72515
4.96593
11.3382
14.1657
14.8177
14.32
13.2567
11.9331
10.5038
9.04514
7.59346
6.16392
4.76051
3.38123
2.02081
0.672256
3.0286
7.73098
10.4531
11.5937
11.6958
11.1739
10.2955
9.22168
8.04619
6.82236
5.57957
4.33305
3.08962
1.85112
0.616553
2.03207
5.49886
7.83865
9.09079
9.50469
9.33843
8.79347
8.0101
7.08073
6.06436
4.99778
3.90342
2.79456
1.67868
0.559828
1.45036
4.04933
5.97948
7.16991
7.71643
7.7659
7.45691
6.89982
6.17564
5.34117
4.43522
3.48383
2.50434
1.5083
0.503655
1.07817
3.06421
4.63396
5.69612
6.27325
6.44223
6.29256
5.90552
5.34708
4.66759
3.90418
3.08373
2.22559
1.34389
0.449325
0.824242
2.36816
3.64088
4.5591
5.11345
5.33979
5.29299
5.0302
4.60253
4.05224
3.41271
2.70976
1.96319
1.1884
0.397827
0.642923
1.8604
2.89395
3.67472
4.18139
4.42697
4.44337
4.26933
3.9431
3.49881
2.96526
2.36606
1.72036
1.04387
0.34985
0.509075
1.48036
2.32253
2.98066
3.43059
3.67327
3.72595
3.6141
3.36562
3.00734
2.56338
2.05463
1.4989
0.911489
0.305817
0.407765
1.18998
1.87888
2.43115
2.82369
3.05148
3.12275
3.05373
2.86435
2.57534
2.20647
1.77579
1.29943
0.791784
0.265921
0.329589
0.964382
1.53008
1.99255
2.33117
2.53836
2.61695
2.5769
2.43225
2.19877
1.89247
1.52867
1.12167
0.684721
0.230173
0.268342
0.786758
1.25296
1.63993
1.9299
2.11451
2.19351
2.1727
2.0618
1.87276
1.61837
1.31153
0.964708
0.589869
0.198451
0.219779
0.645385
1.03085
1.35467
1.60177
1.76398
1.83937
1.83102
1.74561
1.5921
1.38069
1.12213
0.827191
0.506524
0.170537
0.180902
0.531879
0.851548
1.12267
1.33258
1.47372
1.54336
1.54285
1.4767
1.35163
1.17575
0.95797
0.707536
0.433814
0.146151
0.149542
0.44011
0.705952
0.933155
1.11114
1.23311
1.29605
1.30024
1.24869
1.14643
0.999905
0.816478
0.604045
0.37078
0.124987
0.124095
0.365508
0.587181
0.777817
0.928575
1.03349
1.08952
1.09634
1.05589
0.971955
0.849672
0.695122
0.515015
0.316444
0.106724
0.103353
0.304612
0.48996
0.650165
0.77784
0.8678
0.917163
0.925238
0.893269
0.824102
0.721838
0.591507
0.4388
0.269847
0.0910479
0.0863943
0.254762
0.410193
0.545097
0.65329
0.730296
0.773467
0.781939
0.756474
0.699226
0.613487
0.503425
0.373864
0.230084
0.0776607
0.0725043
0.213895
0.344677
0.458573
0.550391
0.616282
0.65386
0.6622
0.641742
0.59413
0.52202
0.42888
0.318799
0.19632