/*--------------------------------*- C++ -*----------------------------------*\
| =========                 |                                                 |
| \\      /  F ield         | OpenFOAM: The Open Source CFD Toolbox           |
|  \\    /   O peration     | Version:  5.x                                   |
|   \\  /    A nd           | Web:      www.OpenFOAM.org                      |
|    \\/     M anipulation  |                                                 |
\*---------------------------------------------------------------------------*/
FoamFile
{
    version     2.0;
    format      ascii;
    class       volScalarField;
    location    "16.2";
    object      T;
}
// * * * * * * * * * * * * * * * * * * * * * * * * * * * * * * * * * * * * * //

dimensions      [0 0 0 1 0 0 0];

internalField   nonuniform List<scalar> 
6300
(
10.0582
10.1743
10.29
10.4047
10.5182
10.6302
10.7402
10.848
10.9531
11.0554
11.1544
11.2499
11.3417
11.4295
11.5131
10.0583
10.1748
10.2908
10.4059
10.5198
10.6321
10.7424
10.8505
10.956
11.0585
11.1578
11.2536
11.3456
11.4335
11.5173
10.0587
10.1759
10.2926
10.4084
10.5229
10.6359
10.7469
10.8557
10.9618
11.0649
11.1648
11.261
11.3534
11.4417
11.5257
10.0592
10.1774
10.2952
10.412
10.5276
10.6416
10.7537
10.8634
10.9705
11.0746
11.1753
11.2723
11.3653
11.4541
11.5384
10.0599
10.1795
10.2986
10.4169
10.5338
10.6492
10.7627
10.8738
10.9822
11.0875
11.1894
11.2875
11.3815
11.4709
11.5557
10.0608
10.1821
10.303
10.4229
10.5417
10.6588
10.774
10.8868
10.9969
11.1039
11.2073
11.3068
11.402
11.4924
11.5778
10.0618
10.1853
10.3082
10.4302
10.5511
10.6703
10.7876
10.9025
11.0147
11.1237
11.2291
11.3304
11.4271
11.5189
11.6051
10.063
10.1889
10.3142
10.4387
10.562
10.6837
10.8035
10.921
11.0356
11.1471
11.2549
11.3585
11.4573
11.5507
11.6381
10.0644
10.193
10.3212
10.4484
10.5745
10.6991
10.8217
10.9421
11.0597
11.1742
11.2849
11.3914
11.4928
11.5883
11.6774
10.0659
10.1977
10.3289
10.4593
10.5886
10.7163
10.8422
10.9659
11.087
11.2049
11.3192
11.4292
11.534
11.6325
11.7238
10.0677
10.2028
10.3375
10.4713
10.6041
10.7354
10.8649
10.9923
11.1173
11.2393
11.3578
11.4722
11.5814
11.684
11.7785
10.0695
10.2084
10.3468
10.4844
10.621
10.7562
10.8897
11.0212
11.1504
11.277
11.4005
11.5202
11.6352
11.7437
11.8431
10.0715
10.2144
10.3569
10.4986
10.6393
10.7786
10.9164
11.0523
11.1862
11.3178
11.4469
11.573
11.6954
11.8123
11.92
10.0737
10.2209
10.3677
10.5138
10.6589
10.8026
10.9449
11.0855
11.2242
11.3611
11.4961
11.6294
11.7611
11.89
12.0124
10.076
10.2279
10.3793
10.53
10.6797
10.8281
10.9751
11.1204
11.264
11.4061
11.547
11.6876
11.8293
11.9743
12.1233
11.586
11.6492
11.7095
11.7669
11.8214
11.8731
11.9222
11.9688
12.013
12.0551
12.0952
12.1334
12.1701
12.2053
12.2394
12.2724
12.3046
12.3362
12.3674
12.3983
12.4291
12.4601
12.4912
12.5228
12.5549
12.5875
12.6209
12.6551
12.6902
12.7261
12.7629
12.8007
12.8393
12.8787
12.9189
12.9598
13.0014
13.0434
13.0859
13.1287
13.1716
13.2146
13.2573
13.2998
13.3416
13.3828
13.4231
13.4623
13.5003
13.5368
13.5717
13.6048
13.6359
13.6648
13.6912
13.715
13.7359
13.7536
13.7678
13.7783
13.7846
13.7865
13.7837
13.7758
13.7623
13.7429
13.717
13.6842
13.6439
13.5956
13.5385
13.472
13.3954
13.3078
13.2085
13.0965
12.9711
12.8313
12.6762
12.5049
12.3164
12.1097
11.8842
11.6389
11.3732
11.0864
10.7781
10.4481
10.0962
9.72264
11.5902
11.6534
11.7136
11.7709
11.8253
11.8768
11.9257
11.9721
12.0161
12.0579
12.0977
12.1356
12.172
12.207
12.2407
12.2735
12.3054
12.3367
12.3677
12.3983
12.4289
12.4596
12.4906
12.522
12.5539
12.5864
12.6197
12.6538
12.6888
12.7247
12.7615
12.7993
12.8379
12.8774
12.9178
12.9588
13.0005
13.0427
13.0854
13.1284
13.1715
13.2147
13.2577
13.3004
13.3425
13.384
13.4245
13.464
13.5022
13.539
13.5742
13.6075
13.6389
13.6681
13.6949
13.7191
13.7404
13.7584
13.7731
13.784
13.7908
13.7932
13.7909
13.7836
13.7707
13.7519
13.7268
13.6948
13.6554
13.608
13.5519
13.4865
13.411
13.3246
13.2265
13.1158
12.9917
12.8532
12.6995
12.5294
12.3422
12.1369
11.9125
11.6682
11.4033
11.1172
10.8093
10.4794
10.1274
9.75336
11.5986
11.6619
11.722
11.7791
11.8331
11.8844
11.9328
11.9787
12.0222
12.0635
12.1027
12.1401
12.1759
12.2103
12.2434
12.2756
12.307
12.3378
12.3682
12.3983
12.4285
12.4587
12.4893
12.5202
12.5518
12.5841
12.6172
12.6511
12.686
12.7219
12.7587
12.7965
12.8353
12.8749
12.9154
12.9567
12.9987
13.0412
13.0842
13.1276
13.1712
13.2149
13.2584
13.3016
13.3443
13.3863
13.4274
13.4673
13.5061
13.5433
13.579
13.613
13.6449
13.6748
13.7023
13.7272
13.7492
13.7681
13.7836
13.7954
13.8032
13.8066
13.8053
13.7991
13.7874
13.77
13.7463
13.7159
13.6783
13.6327
13.5786
13.5153
13.442
13.358
13.2623
13.1542
13.0328
12.897
12.7459
12.5786
12.3941
12.1912
11.9692
11.727
11.4639
11.1791
10.8721
10.5425
10.1902
9.81521
11.6115
11.6747
11.7347
11.7914
11.8451
11.8958
11.9436
11.9888
12.0315
12.0719
12.1103
12.1468
12.1817
12.2152
12.2475
12.2788
12.3094
12.3393
12.3689
12.3983
12.4277
12.4573
12.4872
12.5176
12.5487
12.5805
12.6132
12.6469
12.6817
12.7175
12.7543
12.7923
12.8312
12.8711
12.9119
12.9535
12.9959
13.0389
13.0825
13.1265
13.1708
13.2151
13.2595
13.3035
13.347
13.3898
13.4316
13.4724
13.5118
13.5499
13.5863
13.621
13.6539
13.6847
13.7132
13.7392
13.7624
13.7825
13.7993
13.8124
13.8216
13.8265
13.8268
13.8222
13.8124
13.7969
13.7754
13.7474
13.7123
13.6695
13.6184
13.5583
13.4884
13.4079
13.316
13.2118
13.0943
12.9626
12.8157
12.6525
12.472
12.2731
12.0548
11.8159
11.5556
11.2729
10.9673
10.6382
10.2854
9.90905
11.629
11.6921
11.7518
11.8082
11.8612
11.9112
11.9581
12.0023
12.0439
12.0832
12.1204
12.1558
12.1895
12.2218
12.2529
12.2831
12.3124
12.3413
12.3698
12.3982
12.4266
12.4552
12.4843
12.5139
12.5443
12.5756
12.6078
12.6412
12.6757
12.7114
12.7484
12.7864
12.8256
12.8659
12.9071
12.9492
12.9921
13.0357
13.08
13.1248
13.17
13.2154
13.2608
13.3059
13.3506
13.3944
13.4373
13.4791
13.5195
13.5585
13.5959
13.6317
13.6657
13.6977
13.7276
13.755
13.7798
13.8016
13.8201
13.835
13.846
13.8528
13.8551
13.8527
13.8452
13.8324
13.8137
13.7888
13.7571
13.7181
13.6711
13.6153
13.5499
13.4742
13.3873
13.2882
13.1761
13.0499
12.9086
12.7512
12.5763
12.3829
12.1697
11.9355
11.6792
11.3997
11.0961
10.7678
10.4145
10.0362
11.6513
11.7144
11.7738
11.8296
11.8818
11.9307
11.9765
12.0194
12.0596
12.0975
12.1332
12.167
12.1992
12.23
12.2596
12.2883
12.3162
12.3437
12.3708
12.3979
12.425
12.4525
12.4805
12.5091
12.5386
12.5691
12.6007
12.6337
12.6679
12.7036
12.7406
12.7789
12.8185
12.8591
12.9009
12.9435
12.9871
13.0314
13.0766
13.1224
13.1688
13.2155
13.2624
13.309
13.3551
13.4004
13.4446
13.4875
13.5291
13.5692
13.6078
13.6448
13.6801
13.7137
13.7453
13.7746
13.8014
13.8253
13.846
13.8631
13.8763
13.8854
13.8901
13.8903
13.8857
13.876
13.8608
13.8398
13.8125
13.7781
13.7362
13.6858
13.6261
13.5565
13.4758
13.3833
13.278
13.1588
13.0248
12.8746
12.7072
12.521
12.3148
12.0869
11.8361
11.5609
11.2603
10.9332
10.5794
10.1987
11.679
11.742
11.801
11.856
11.9072
11.9548
11.999
12.0402
12.0787
12.1147
12.1485
12.1805
12.2108
12.2397
12.2676
12.2944
12.3207
12.3464
12.3719
12.3974
12.423
12.449
12.4755
12.5029
12.5313
12.5608
12.5917
12.6241
12.658
12.6936
12.7308
12.7695
12.8095
12.8508
12.8931
12.9365
12.9807
13.0259
13.0721
13.1191
13.167
13.2154
13.2641
13.3126
13.3607
13.4077
13.4535
13.4979
13.5407
13.582
13.6218
13.6601
13.697
13.7324
13.7661
13.7977
13.827
13.8535
13.8768
13.8965
13.9123
13.9241
13.9316
13.9347
13.9333
13.9272
13.9162
13.8998
13.8776
13.849
13.8132
13.7694
13.7167
13.6543
13.5813
13.4967
13.3996
13.289
13.1639
13.0229
12.8648
12.688
12.4907
12.2713
12.0279
11.7587
11.4622
11.1372
10.7829
10.3991
11.7124
11.7754
11.8338
11.8878
11.9376
11.9835
12.0258
12.065
12.1012
12.135
12.1666
12.1962
12.2243
12.2511
12.2767
12.3015
12.3257
12.3494
12.3729
12.3965
12.4203
12.4445
12.4694
12.4952
12.5222
12.5505
12.5804
12.6121
12.6457
12.6813
12.7188
12.758
12.7988
12.8408
12.8839
12.9279
12.9729
13.019
13.0662
13.1146
13.1642
13.2147
13.2659
13.317
13.3675
13.4167
13.4644
13.5103
13.5543
13.5968
13.6377
13.6774
13.7159
13.7534
13.7895
13.8241
13.8565
13.8862
13.9127
13.9354
13.9541
13.9687
13.9792
13.9854
13.9876
13.9855
13.9791
13.968
13.9519
13.93
13.9016
13.8656
13.8212
13.7673
13.7032
13.6278
13.5404
13.44
13.3256
13.1958
13.0492
12.8841
12.6984
12.4901
12.2566
11.9957
11.7052
11.3832
11.0286
10.6411
11.7523
11.8152
11.8729
11.9256
11.9736
12.0173
12.0572
12.0937
12.1273
12.1583
12.1872
12.2142
12.2397
12.2639
12.287
12.3094
12.3312
12.3526
12.3739
12.3952
12.4168
12.4389
12.4618
12.4858
12.511
12.5378
12.5665
12.5973
12.6305
12.6661
12.7041
12.7442
12.7861
12.8292
12.8732
12.9179
12.9635
13.0102
13.0584
13.1082
13.1598
13.2131
13.2675
13.3221
13.3759
13.4279
13.4777
13.5251
13.5702
13.6135
13.6553
13.6961
13.7363
13.776
13.8152
13.8534
13.8898
13.9235
13.9537
13.9798
14.0017
14.0192
14.0326
14.042
14.0477
14.0498
14.0484
14.0434
14.0342
14.0203
14.0006
13.9739
13.939
13.895
13.841
13.7762
13.6998
13.6112
13.5092
13.3927
13.2601
13.1096
12.9387
12.7448
12.5247
12.2752
11.9932
11.676
11.3217
10.9296
11.7997
11.8626
11.9192
11.9701
12.0156
12.0565
12.0933
12.1266
12.1569
12.1847
12.2104
12.2343
12.2568
12.2781
12.2984
12.318
12.3371
12.3559
12.3746
12.3934
12.4125
12.4322
12.4527
12.4744
12.4974
12.5223
12.5494
12.579
12.6116
12.6473
12.6862
12.7278
12.7714
12.8161
12.8612
12.9066
12.9524
12.9993
13.048
13.099
13.153
13.2098
13.2687
13.3283
13.3866
13.4422
13.4944
13.5431
13.5887
13.6322
13.6741
13.7156
13.7571
13.7993
13.8422
13.885
13.9267
13.9656
14.0003
14.0303
14.0553
14.0755
14.0915
14.1037
14.1127
14.119
14.1229
14.1244
14.1233
14.1188
14.1095
14.0937
14.0699
14.0369
13.9941
13.9409
13.8768
13.8013
13.7135
13.6125
13.4967
13.3641
13.2121
13.0371
12.8349
12.6013
12.3317
12.0221
11.6692
11.2715
11.8559
11.9187
11.9739
12.0222
12.0644
12.1015
12.1343
12.1636
12.1901
12.2141
12.2361
12.2565
12.2756
12.2936
12.3107
12.3273
12.3434
12.3593
12.3751
12.391
12.4073
12.4242
12.4419
12.4608
12.4812
12.5036
12.5284
12.5564
12.5881
12.6239
12.6642
12.7084
12.7551
12.8024
12.8489
12.8944
12.9397
12.9857
13.0339
13.0857
13.142
13.2034
13.2689
13.3361
13.4011
13.4613
13.5159
13.5652
13.6104
13.6527
13.6937
13.7347
13.777
13.8216
13.8689
13.9183
13.9675
14.0134
14.0538
14.0878
14.1155
14.1379
14.1557
14.1699
14.1816
14.1915
14.2005
14.209
14.2172
14.2241
14.2276
14.2249
14.2137
14.1929
14.1621
14.1212
14.0702
14.0088
13.9368
13.8534
13.7573
13.6466
13.5184
13.3682
13.1904
12.979
12.7277
12.4303
12.0812
11.6768
11.923
11.9856
12.0384
12.0828
12.1204
12.1525
12.1804
12.2048
12.2266
12.2462
12.264
12.2804
12.2958
12.3102
12.3239
12.3371
12.3499
12.3626
12.3752
12.388
12.4011
12.4148
12.4293
12.4449
12.462
12.4811
12.503
12.5284
12.5583
12.5941
12.6365
12.6853
12.738
12.7896
12.8377
12.8826
12.9256
12.9689
13.0147
13.0655
13.1236
13.1907
13.2667
13.3469
13.4223
13.4884
13.5448
13.5932
13.6359
13.6751
13.713
13.7517
13.7933
13.8398
13.8926
13.9516
14.013
14.0691
14.1163
14.154
14.1835
14.2065
14.2248
14.2397
14.2527
14.2652
14.2785
14.2941
14.3127
14.3339
14.3545
14.3681
14.3712
14.3631
14.3444
14.3158
14.2781
14.2316
14.1764
14.1123
14.0387
13.9543
13.8561
13.7388
13.5941
13.4139
13.1899
12.9128
12.5726
12.1607
12.0046
12.0664
12.115
12.1533
12.1842
12.2097
12.2312
12.2498
12.2661
12.2807
12.2939
12.3059
12.3171
12.3277
12.3377
12.3473
12.3567
12.3659
12.3751
12.3845
12.3941
12.4042
12.415
12.4267
12.4398
12.4547
12.4723
12.4936
12.5203
12.5546
12.5994
12.6564
12.7224
12.7817
12.8312
12.8732
12.9111
12.9484
12.9883
13.0347
13.092
13.1653
13.2581
13.3644
13.4568
13.5293
13.5852
13.6294
13.6663
13.6993
13.731
13.7644
13.8024
13.8486
13.9074
13.9814
14.0658
14.1377
14.1921
14.2318
14.2606
14.282
14.2985
14.3121
14.3245
14.3375
14.3532
14.3744
14.4042
14.4446
14.4914
14.5262
14.5446
14.5485
14.5407
14.5235
14.4985
14.4666
14.4285
14.3847
14.3357
14.2815
14.2211
14.1488
14.0487
13.9116
13.7284
13.4862
13.1669
12.7492
12.1075
12.1663
12.2061
12.2344
12.2556
12.2724
12.2862
12.2979
12.3081
12.3171
12.3252
12.3326
12.3394
12.3458
12.3519
12.3578
12.3635
12.3691
12.3747
12.3804
12.3863
12.3925
12.3992
12.4065
12.4148
12.4244
12.4361
12.451
12.4711
12.5
12.5444
12.6145
12.7163
12.7879
12.8355
12.8696
12.8975
12.9238
12.9525
12.9879
13.0371
13.1118
13.23
13.4019
13.5198
13.5939
13.6421
13.676
13.7023
13.7249
13.7467
13.7703
13.7993
13.8393
13.9
13.9961
14.1363
14.2311
14.2891
14.325
14.3483
14.3643
14.3762
14.386
14.3952
14.4057
14.4199
14.4423
14.4803
14.5458
14.6455
14.7076
14.7387
14.7505
14.7504
14.7423
14.7286
14.7104
14.6887
14.6646
14.6397
14.6175
14.6033
14.5984
14.5566
14.4755
14.3515
14.1707
13.9027
13.4943
12.2503
12.2936
12.3138
12.3255
12.3334
12.3394
12.3442
12.3482
12.3517
12.3547
12.3574
12.3599
12.3622
12.3644
12.3664
12.3684
12.3703
12.3722
12.3741
12.376
12.378
12.3801
12.3823
12.3848
12.3877
12.391
12.3952
12.4008
12.409
12.4231
12.4524
12.5269
12.7535
12.8285
12.8589
12.8749
12.886
12.8958
12.9067
12.9213
12.9455
12.9957
13.1242
13.5172
13.6457
13.6956
13.7194
13.7335
13.7434
13.7516
13.7595
13.7684
13.7803
13.8001
13.8413
13.9472
14.272
14.3776
14.4178
14.4362
14.4462
14.4524
14.4569
14.4605
14.464
14.4682
14.4747
14.4873
14.5167
14.5977
14.8535
14.9334
14.9604
14.9695
14.9712
14.9692
14.965
14.9591
14.9523
14.9452
14.9397
14.9419
14.9717
15.1011
15.1208
15.1009
15.0563
14.9804
14.8404
14.531
9.28812
8.78407
8.25129
7.69139
7.10627
6.49803
5.8689
5.22118
4.55718
3.87923
3.18958
2.49048
1.78407
1.0725
0.357843
9.31802
8.81269
8.27829
7.71651
7.1293
6.51884
5.88742
5.23738
4.57108
3.89086
3.199
2.49774
1.78922
1.07557
0.358864
9.37821
8.87027
8.33257
7.76694
7.17549
6.56053
5.92447
5.26977
4.59884
3.91408
3.2178
2.51221
1.79948
1.08169
0.360898
9.46948
8.95749
8.41468
7.8431
7.2451
6.62323
5.9801
5.3183
4.64038
3.94878
3.24584
2.53379
1.81476
1.09081
0.363928
9.5931
9.07543
8.52545
7.94556
7.33849
6.70711
6.05431
5.38289
4.69554
3.99477
3.28296
2.56232
1.83495
1.10285
0.367926
9.75083
9.22557
8.66602
8.0751
7.45609
6.81233
6.14705
5.46335
4.76405
4.05176
3.32886
2.59755
1.85985
1.11768
0.372852
9.9451
9.40989
8.83782
8.23264
7.59836
6.93896
6.25815
5.55932
4.84548
4.1193
3.38314
2.63913
1.8892
1.13514
0.37865
10.1792
9.63095
9.04263
8.41916
7.76565
7.0869
6.38719
5.67024
4.9392
4.19676
3.44522
2.68659
1.92265
1.15504
0.385251
10.4573
9.89199
9.28247
8.63562
7.95807
7.25569
6.5334
5.79518
5.04426
4.28326
3.51434
2.73932
1.95976
1.17708
0.392562
10.7855
10.1971
9.55953
8.88265
8.17522
7.44432
6.69544
5.93274
5.15933
4.37763
3.58953
2.79655
1.99998
1.20095
0.400474
11.1718
10.5512
9.87578
9.16014
8.41572
7.65082
6.87123
6.08091
5.28263
4.47835
3.66954
2.85733
2.04263
1.22624
0.408854
11.6277
10.9598
10.2321
9.46628
8.67658
7.87192
7.05765
6.23697
5.41185
4.58355
3.75291
2.92056
2.08695
1.2525
0.417555
12.17
11.428
10.6266
9.79614
8.95228
8.10254
7.25039
6.39739
5.54418
4.69102
3.83796
2.98499
2.1321
1.27925
0.426414
12.8221
11.9556
11.05
10.1393
9.23375
8.33545
7.44388
6.55792
5.6764
4.79832
3.92286
3.04933
2.17718
1.30595
0.435261
13.6071
12.5222
11.4782
10.4771
9.50787
8.56152
7.63168
6.71391
5.8051
4.90295
4.00577
3.11224
2.22131
1.33212
0.44393
10.0783
10.2346
10.3905
10.5457
10.6999
10.8528
11.0042
11.1539
11.3019
11.4484
11.5939
11.7397
11.8888
12.0477
12.2344
10.0804
10.2411
10.4013
10.5607
10.7191
10.8762
11.0318
11.1855
11.3374
11.4875
11.6362
11.7848
11.936
12.0951
12.2717
10.0827
10.2478
10.4125
10.5764
10.7393
10.9008
11.0606
11.2184
11.3741
11.5274
11.6786
11.8281
11.9777
12.1302
12.2899
10.085
10.2549
10.4242
10.5929
10.7604
10.9265
11.0907
11.2528
11.4124
11.5689
11.722
11.8714
12.0172
12.1603
12.3024
10.0875
10.2622
10.4365
10.61
10.7824
10.9533
11.1224
11.289
11.4527
11.6126
11.7679
11.9171
12.0587
12.1911
12.3145
10.09
10.2699
10.4493
10.628
10.8055
10.9815
11.1556
11.3272
11.4955
11.6596
11.8179
11.968
12.1064
12.2282
12.3298
10.0927
10.2779
10.4627
10.6467
10.8296
11.011
11.1906
11.3676
11.5413
11.7106
11.8736
12.0271
12.1655
12.2792
12.3548
10.0954
10.2862
10.4765
10.6661
10.8547
11.0419
11.2272
11.4102
11.5901
11.7659
11.9357
12.0966
12.2419
12.3564
12.4061
10.0983
10.2948
10.4908
10.6863
10.8807
11.0739
11.2655
11.455
11.6417
11.8252
12.0041
12.1769
12.3394
12.4786
12.537
10.1012
10.3036
10.5056
10.707
10.9076
11.1071
11.3052
11.5015
11.6957
11.8875
12.0768
12.2642
12.4532
12.657
12.9349
10.1043
10.3127
10.5208
10.7284
10.9353
11.1413
11.3461
11.5495
11.7513
11.9515
12.1506
12.3505
12.5566
12.7837
13.0675
10.1073
10.3219
10.5363
10.7502
10.9636
11.1762
11.3879
11.5985
11.8079
12.0162
12.2238
12.4323
12.6453
12.871
13.123
10.1105
10.3313
10.552
10.7724
10.9924
11.2118
11.4305
11.6484
11.8653
12.0814
12.2965
12.5109
12.7251
12.9399
13.1562
10.1136
10.3409
10.568
10.7949
11.0215
11.2477
11.4735
11.6988
11.9234
12.1471
12.3695
12.5895
12.8044
13.0078
13.1885
10.1168
10.3505
10.584
10.8175
11.0509
11.284
11.517
11.7496
11.9819
12.2136
12.4441
12.6717
12.8917
13.0914
13.24
10.12
10.3601
10.6002
10.8402
11.0803
11.3204
11.5605
11.8007
12.0408
12.2809
12.5207
12.7591
12.9929
13.2105
13.3599
10.1232
10.3697
10.6163
10.8629
11.1097
11.3567
11.604
11.8516
12.0997
12.3485
12.5981
12.8495
13.1054
13.3768
13.7153
10.1264
10.3793
10.6323
10.8855
11.139
11.3928
11.6472
11.9023
12.1582
12.4153
12.6743
12.9367
13.2069
13.4965
13.8357
10.1296
10.3888
10.6482
10.9079
11.1679
11.4286
11.6899
11.9522
12.2157
12.4807
12.748
13.0185
13.2948
13.5818
13.8885
10.1327
10.3982
10.6639
10.9299
11.1965
11.4637
11.7319
12.0013
12.2721
12.5446
12.8193
13.0963
13.3751
13.6533
13.9247
10.1358
10.4074
10.6793
10.9516
11.2245
11.4982
11.7731
12.0493
12.3271
12.607
12.889
13.1727
13.4557
13.7293
13.9699
10.1388
10.4164
10.6944
10.9728
11.2519
11.532
11.8132
12.0961
12.3807
12.6677
12.9573
13.2496
13.5427
13.8283
14.0655
10.1417
10.4252
10.7091
10.9935
11.2786
11.5648
11.8523
12.1415
12.4327
12.7266
13.0238
13.3257
13.635
13.9607
14.3421
10.1446
10.4338
10.7234
11.0136
11.3046
11.5967
11.8902
12.1854
12.4828
12.783
13.087
13.3966
13.7157
14.0542
14.4354
10.1474
10.4422
10.7374
11.0332
11.3298
11.6276
11.9267
12.2277
12.5309
12.8368
13.1463
13.4607
13.7829
14.1181
14.4747
10.1501
10.4503
10.7509
11.0521
11.3542
11.6574
11.962
12.2685
12.577
12.888
13.202
13.5194
13.8409
14.1671
14.4979
10.1527
10.4581
10.7639
11.0704
11.3777
11.6862
11.9961
12.3077
12.6213
12.9371
13.2552
13.5752
13.8956
14.2126
14.519
10.1552
10.4657
10.7765
11.088
11.4004
11.7139
12.0289
12.3455
12.664
12.9845
13.307
13.6306
13.9526
14.2655
14.5505
10.1576
10.473
10.7887
11.105
11.4223
11.7407
12.0604
12.3819
12.7051
13.0305
13.3579
13.687
14.0158
14.3375
14.6212
10.16
10.48
10.8004
11.1214
11.4433
11.7664
12.0908
12.4169
12.7448
13.075
13.4076
13.7434
14.084
14.4359
14.8286
10.1622
10.4867
10.8116
11.1372
11.4636
11.7911
12.12
12.4505
12.783
13.1176
13.455
13.7963
14.1441
14.5057
14.8985
10.1644
10.4932
10.8224
11.1522
11.483
11.8148
12.148
12.4828
12.8195
13.1583
13.4997
13.8446
14.1946
14.5538
14.9281
10.1664
10.4994
10.8327
11.1667
11.5016
11.8375
12.1748
12.5137
12.8544
13.1971
13.5419
13.8891
14.2388
14.5911
14.9458
10.1684
10.5053
10.8426
11.1805
11.5193
11.8592
12.2005
12.5433
12.8879
13.2342
13.5824
13.9318
14.281
14.6266
14.9624
10.1703
10.511
10.852
11.1937
11.5363
11.88
12.225
12.5717
12.92
13.2701
13.6219
13.9745
14.3256
14.6687
14.988
10.1721
10.5163
10.861
11.2063
11.5524
11.8998
12.2484
12.5987
12.9508
13.3048
13.6607
14.0182
14.3756
14.7271
15.0467
10.1738
10.5214
10.8695
11.2182
11.5678
11.9185
12.2707
12.6245
12.9802
13.338
13.6984
14.0618
14.4297
14.8075
15.22
10.1754
10.5262
10.8775
11.2294
11.5822
11.9362
12.2917
12.6488
13.008
13.3695
13.7338
14.1021
14.4767
14.8638
15.2779
10.1769
10.5307
10.885
11.24
11.5958
11.9529
12.3115
12.6718
13.0341
13.3988
13.7664
14.1379
14.515
14.9012
15.3016
10.1783
10.535
10.8921
11.2499
11.6086
11.9685
12.33
12.6932
13.0584
13.426
13.7963
14.1697
14.5469
14.9285
15.3148
10.1796
10.5389
10.8986
11.2591
11.6205
11.9831
12.3472
12.7131
13.0811
13.4512
13.8239
14.1988
14.5757
14.9525
15.3259
10.1808
10.5425
10.9047
11.2676
11.6314
11.9965
12.3632
12.7316
13.102
13.4747
13.8497
14.2266
14.6042
14.9788
15.3413
10.1819
10.5459
10.9102
11.2754
11.6415
12.0089
12.3778
12.7486
13.1214
13.4965
13.874
14.2537
14.6347
15.0135
15.3751
10.1829
10.5489
10.9153
11.2824
11.6506
12.02
12.3911
12.764
13.1391
13.5166
13.8967
14.2798
14.6666
15.0599
15.4733
10.1838
10.5516
10.9198
11.2887
11.6587
12.0301
12.4031
12.778
13.1551
13.5347
13.9173
14.3032
14.6939
15.0923
15.5062
10.1846
10.5539
10.9237
11.2943
11.6659
12.0389
12.4136
12.7903
13.1692
13.5508
13.9353
14.3233
14.7156
15.1137
15.5199
10.1853
10.556
10.9271
11.2991
11.6721
12.0466
12.4227
12.8009
13.1814
13.5647
13.9508
14.3403
14.7332
15.1294
15.5278
10.1858
10.5577
10.93
11.3031
11.6773
12.0529
12.4304
12.8098
13.1917
13.5764
13.964
14.3547
14.7483
15.1434
15.5358
10.1863
10.559
10.9322
11.3063
11.6814
12.0581
12.4365
12.817
13.2001
13.5859
13.9749
14.3671
14.7624
15.1592
15.5506
10.1866
10.56
10.9339
11.3086
11.6845
12.0619
12.4411
12.8224
13.2064
13.5932
13.9834
14.3772
14.7752
15.1785
15.5922
10.1868
10.5607
10.935
11.3102
11.6865
12.0643
12.444
12.826
13.2105
13.5981
13.9892
14.3844
14.7843
15.1904
15.6054
10.1869
10.561
10.9355
11.3109
11.6874
12.0655
12.4454
12.8276
13.2125
13.6005
13.9922
14.3881
14.789
15.196
15.6098
10.1869
10.5609
10.9354
11.3107
11.6872
12.0652
12.4452
12.8274
13.2122
13.6003
13.992
14.3882
14.7894
15.1968
15.6105
10.1868
10.5605
10.9347
11.3097
11.6859
12.0637
12.4433
12.8251
13.2097
13.5974
13.9888
14.3845
14.7855
15.1931
15.6084
10.1865
10.5597
10.9334
11.3079
11.6835
12.0607
12.4397
12.821
13.2049
13.5918
13.9824
14.3771
14.7769
15.1837
15.6017
10.1861
10.5586
10.9315
11.3052
11.6801
12.0564
12.4346
12.8149
13.1978
13.5837
13.973
14.366
14.7633
15.1665
15.5831
10.1856
10.5571
10.929
11.3017
11.6755
12.0508
12.4278
12.807
13.1887
13.5732
13.9609
14.3518
14.7455
15.1399
15.5256
10.185
10.5553
10.926
11.2974
11.6699
12.0439
12.4195
12.7973
13.1774
13.5604
13.9464
14.3355
14.7272
15.1191
15.5056
10.1843
10.5531
10.9224
11.2923
11.6633
12.0357
12.4097
12.7858
13.1642
13.5453
13.9296
14.3174
14.7085
15.1021
15.4958
10.1835
10.5507
10.9182
11.2865
11.6558
12.0263
12.3985
12.7725
13.1489
13.528
13.9104
14.2967
14.6879
15.0848
15.4879
10.1826
10.5479
10.9136
11.28
11.6473
12.0158
12.3858
12.7576
13.1317
13.5084
13.8884
14.2727
14.6631
15.063
15.4771
10.1816
10.5448
10.9085
11.2727
11.6379
12.0041
12.3718
12.7411
13.1125
13.4864
13.8632
14.2442
14.6317
15.0313
15.4563
10.1805
10.5415
10.9029
11.2649
11.6276
11.9914
12.3565
12.7232
13.0916
13.4621
13.8351
14.2112
14.5918
14.9818
15.404
10.1793
10.5379
10.8969
11.2564
11.6166
11.9778
12.3402
12.7038
13.0691
13.4361
13.8048
14.1749
14.5451
14.9099
15.2455
10.178
10.5341
10.8906
11.2474
11.605
11.9634
12.3228
12.6834
13.0453
13.4087
13.7733
14.1385
14.5021
14.8582
15.1923
10.1767
10.5301
10.8838
11.238
11.5927
11.9481
12.3045
12.6619
13.0205
13.3804
13.7414
14.1031
14.4642
14.8215
15.1695
10.1753
10.5259
10.8768
11.228
11.5798
11.9322
12.2854
12.6395
12.9947
13.3511
13.7089
14.068
14.4288
14.7911
15.1551
10.1738
10.5216
10.8695
11.2177
11.5664
11.9157
12.2656
12.6164
12.9681
13.3209
13.6752
14.0318
14.3921
14.7596
15.1399
10.1723
10.5171
10.8619
11.2071
11.5526
11.8986
12.2452
12.5925
12.9405
13.2896
13.64
13.9928
14.3503
14.7189
15.1144
10.1708
10.5124
10.8542
11.1962
11.5385
11.8811
12.2243
12.5679
12.9122
13.2572
13.6031
13.9503
14.3006
14.6596
15.0536
10.1692
10.5077
10.8462
11.185
11.524
11.8633
12.2029
12.5429
12.8833
13.2241
13.565
13.9058
14.2447
14.5757
14.8722
10.1676
10.5028
10.8382
11.1736
11.5093
11.8451
12.1812
12.5175
12.8541
13.1907
13.5271
13.8624
14.1941
14.5157
14.8112
10.166
10.4979
10.83
11.1621
11.4943
11.8267
12.1593
12.492
12.8247
13.1574
13.4899
13.8214
14.1504
14.4737
14.7852
10.1643
10.493
10.8217
11.1504
11.4793
11.8082
12.1372
12.4663
12.7953
13.1243
13.4532
13.7819
14.1107
14.4397
14.769
10.1626
10.488
10.8133
11.1387
11.4641
11.7896
12.1151
12.4405
12.7659
13.0911
13.4164
13.7424
14.0708
14.4053
14.7525
10.161
10.4829
10.8049
11.1269
11.4489
11.771
12.0929
12.4148
12.7364
13.0578
13.3791
13.7011
14.0264
14.362
14.7252
10.1593
10.4778
10.7964
11.115
11.4337
11.7523
12.0708
12.3891
12.7071
13.0245
13.3412
13.6575
13.9748
14.2995
14.6603
10.1576
10.4727
10.7879
11.1031
11.4184
11.7336
12.0488
12.3637
12.678
12.9915
13.3035
13.613
13.918
14.2118
14.4662
10.1559
10.4676
10.7794
11.0912
11.4031
11.715
12.0269
12.3385
12.6495
12.9595
13.2674
13.5717
13.8688
14.1512
14.4022
10.1541
10.4624
10.7707
11.0792
11.3877
11.6964
12.0051
12.3136
12.6217
12.9288
13.2338
13.5351
13.8297
14.1125
14.3768
10.1524
10.4571
10.762
11.0671
11.3723
11.6777
11.9834
12.289
12.5945
12.8994
13.2027
13.5032
13.7987
14.0864
14.3643
10.1506
10.4518
10.7532
11.0548
11.3567
11.6589
11.9615
12.2645
12.5677
12.8709
13.1735
13.4746
13.7729
14.0671
14.3564
10.1488
10.4464
10.7442
11.0422
11.3407
11.6397
11.9394
12.2398
12.5409
12.8428
13.1452
13.4478
13.75
14.051
14.3504
10.1469
10.4408
10.7349
11.0294
11.3244
11.6201
11.9167
12.2144
12.5135
12.8142
13.1168
13.4213
13.7277
14.0358
14.345
10.145
10.4351
10.7254
11.0162
11.3075
11.5998
11.8932
12.1881
12.4849
12.7843
13.0869
13.3933
13.7042
14.0197
14.3392
10.143
10.4292
10.7156
11.0025
11.2901
11.5786
11.8685
12.1603
12.4545
12.7521
13.0542
13.3621
13.6773
14.0009
14.3322
10.141
10.4231
10.7055
10.9883
11.2719
11.5565
11.8425
12.1307
12.4217
12.7168
13.0174
13.3258
13.6446
13.9765
14.3225
10.1389
10.4168
10.695
10.9736
11.2529
11.5332
11.8151
12.0991
12.3861
12.6775
12.9752
13.2821
13.6025
13.9423
14.307
10.1368
10.4103
10.6841
10.9583
11.2332
11.5089
11.7861
12.0653
12.3473
12.6337
12.9264
13.2289
13.547
13.8906
14.277
10.1345
10.4037
10.673
10.9426
11.2128
11.4837
11.7557
12.0294
12.3055
12.5854
12.8708
13.165
13.4735
13.809
14.2061
14.3973
13.0039
11.8314
10.7573
9.73808
8.75353
7.79266
6.84862
5.91689
4.99426
4.07838
3.16748
2.26013
1.35517
0.451573
14.647
13.2882
12.0839
10.974
9.92316
8.91158
7.92723
6.96248
6.01214
5.07252
4.14091
3.21521
2.29375
1.37516
0.458206
14.7511
13.4652
12.2708
11.1494
10.0809
9.05062
8.04813
7.06627
6.09988
5.14518
4.19929
3.25996
2.32537
1.39399
0.464462
14.8033
13.5783
12.4071
11.288
10.2121
9.17025
8.15464
7.15925
6.17946
5.21167
4.25308
3.3014
2.35475
1.41153
0.470292
14.8338
13.6541
12.5069
11.3964
10.3196
9.27156
8.24702
7.24134
6.25064
5.27174
4.30202
3.3393
2.38173
1.42767
0.475666
14.8538
13.7072
12.5813
11.4812
10.407
9.35648
8.32623
7.31295
6.31356
5.32538
4.34607
3.37361
2.40624
1.44238
0.480568
14.8677
13.7458
12.6376
11.5479
10.478
9.4272
8.39358
7.37484
6.36865
5.37281
4.38532
3.40436
2.4283
1.45565
0.484997
14.8779
13.7747
12.6809
11.6007
10.5356
9.48591
8.45051
7.42794
6.41649
5.4144
4.41999
3.43168
2.44798
1.46752
0.488962
14.8857
13.7968
12.7148
11.6428
10.5826
9.53457
8.49845
7.47326
6.45777
5.4506
4.45039
3.45576
2.4654
1.47805
0.492485
14.8917
13.8141
12.7416
11.6767
10.6209
9.57491
8.53873
7.51178
6.4932
5.48194
4.47687
3.47684
2.4807
1.48732
0.495593
14.8964
13.8278
12.763
11.7041
10.6523
9.60836
8.57251
7.54442
6.52349
5.50892
4.49981
3.49519
2.49407
1.49545
0.498316
14.9002
13.8388
12.7803
11.7263
10.678
9.63613
8.60082
7.57202
6.54929
5.53206
4.51959
3.51108
2.50568
1.50252
0.50069
14.9032
13.8477
12.7944
11.7446
10.6993
9.65921
8.62455
7.59531
6.57122
5.55184
4.53658
3.52479
2.51573
1.50864
0.502748
14.9056
13.8549
12.8058
11.7596
10.7169
9.67843
8.64444
7.61496
6.58983
5.5687
4.55113
3.53656
2.52438
1.51393
0.504526
14.9077
13.8608
12.8152
11.7719
10.7315
9.69445
8.66111
7.63153
6.60559
5.58305
4.56356
3.54665
2.53181
1.51847
0.506056
14.9093
13.8656
12.823
11.7821
10.7436
9.70783
8.6751
7.64548
6.61892
5.59524
4.57414
3.55526
2.53817
1.52237
0.507368
14.9107
13.8697
12.8294
11.7906
10.7537
9.71902
8.68683
7.65724
6.6302
5.60558
4.58315
3.56261
2.5436
1.5257
0.508491
14.9118
13.873
12.8348
11.7977
10.7621
9.72838
8.6967
7.66715
6.63973
5.61435
4.59081
3.56887
2.54823
1.52855
0.509451
14.9127
13.8757
12.8392
11.8036
10.7692
9.73624
8.70499
7.67551
6.6478
5.62178
4.59731
3.5742
2.55218
1.53098
0.51027
14.9135
13.8781
12.8429
11.8085
10.7751
9.74285
8.71198
7.68257
6.65462
5.62808
4.60284
3.57873
2.55555
1.53305
0.510969
14.9142
13.88
12.8461
11.8127
10.7801
9.74841
8.71788
7.68854
6.66041
5.63343
4.60754
3.58259
2.55841
1.53481
0.511565
14.9147
13.8816
12.8487
11.8162
10.7843
9.75312
8.72288
7.69361
6.66532
5.63798
4.61154
3.58588
2.56086
1.53632
0.512073
14.9152
13.883
12.8509
11.8191
10.7878
9.75711
8.72713
7.69792
6.6695
5.64187
4.61496
3.58869
2.56295
1.53761
0.512509
14.9156
13.8842
12.8528
11.8216
10.7908
9.76052
8.73075
7.7016
6.67309
5.64519
4.61789
3.5911
2.56475
1.53872
0.512883
14.9159
13.8852
12.8544
11.8238
10.7935
9.76345
8.73387
7.70478
6.67617
5.64806
4.62042
3.59319
2.5663
1.53967
0.513207
14.9162
13.886
12.8558
11.8257
10.7957
9.76599
8.73658
7.70753
6.67886
5.65056
4.62261
3.595
2.56765
1.54051
0.513488
14.9165
13.8868
12.8571
11.8273
10.7977
9.76823
8.73896
7.70996
6.68121
5.65275
4.62455
3.59659
2.56884
1.54124
0.513736
14.9167
13.8875
12.8582
11.8288
10.7995
9.77022
8.74109
7.71212
6.68332
5.6547
4.62627
3.59801
2.5699
1.54189
0.513957
14.9169
13.8881
12.8592
11.8302
10.8011
9.77204
8.74303
7.71409
6.68523
5.65648
4.62784
3.5993
2.57086
1.54249
0.514157
14.9171
13.8887
12.8601
11.8314
10.8026
9.77374
8.74484
7.71592
6.68701
5.65813
4.62929
3.6005
2.57175
1.54303
0.514342
14.9173
13.8893
12.861
11.8326
10.8041
9.77538
8.74657
7.71768
6.68871
5.65971
4.63067
3.60163
2.57259
1.54355
0.514517
14.9175
13.8899
12.862
11.8339
10.8055
9.777
8.74829
7.7194
6.69038
5.66124
4.63202
3.60274
2.57341
1.54406
0.514687
14.9177
13.8904
12.8629
11.8351
10.807
9.77867
8.75003
7.72116
6.69206
5.66279
4.63337
3.60384
2.57423
1.54456
0.514856
14.9179
13.8911
12.8639
11.8365
10.8086
9.78043
8.75187
7.72299
6.69381
5.66439
4.63476
3.60497
2.57506
1.54507
0.515028
14.9182
13.8918
12.8651
11.838
10.8104
9.78234
8.75385
7.72495
6.69567
5.66607
4.63621
3.60615
2.57592
1.5456
0.515206
14.9185
13.8926
12.8664
11.8396
10.8124
9.78447
8.75604
7.7271
6.69769
5.66789