/*--------------------------------*- C++ -*----------------------------------*\
| =========                 |                                                 |
| \\      /  F ield         | OpenFOAM: The Open Source CFD Toolbox           |
|  \\    /   O peration     | Version:  5.x                                   |
|   \\  /    A nd           | Web:      www.OpenFOAM.org                      |
|    \\/     M anipulation  |                                                 |
\*---------------------------------------------------------------------------*/
FoamFile
{
    version     2.0;
    format      ascii;
    class       volScalarField;
    location    "20";
    object      gradTy;
}
// * * * * * * * * * * * * * * * * * * * * * * * * * * * * * * * * * * * * * //

dimensions      [0 -1 0 1 0 0 0];

internalField   nonuniform List<scalar> 
6300
(
1001.32
1003.97
1006.6
1009.21
1011.79
1014.34
1016.84
1019.29
1021.69
1024.01
1026.26
1028.43
1030.51
1032.5
1034.4
0.00597047
0.0179101
0.0298421
0.0417539
0.0536227
0.0654073
0.0770425
0.0884311
0.0994375
0.109882
0.11954
0.128146
0.135411
0.141042
0.144777
0.00995179
0.029856
0.0497559
0.0696359
0.0894631
0.109177
0.128676
0.147806
0.166349
0.184004
0.200393
0.215057
0.227485
0.237154
0.243593
0.0139344
0.0418066
0.0696867
0.0975659
0.125411
0.153154
0.180669
0.207761
0.234136
0.259383
0.282959
0.304193
0.322308
0.33649
0.345983
0.017912
0.0537481
0.0896177
0.125528
0.161461
0.197354
0.233082
0.268428
0.303045
0.336426
0.367864
0.396443
0.421062
0.440516
0.453649
0.0218751
0.0656515
0.109502
0.153461
0.19754
0.241708
0.285866
0.329809
0.373178
0.415397
0.455612
0.492637
0.524964
0.550848
0.56853
0.0258123
0.0774799
0.129274
0.181269
0.233524
0.286064
0.338854
0.391753
0.444449
0.496363
0.546539
0.593525
0.635306
0.669379
0.693048
0.029706
0.0891797
0.14884
0.20881
0.269214
0.33016
0.391722
0.453889
0.516488
0.579055
0.640646
0.699605
0.753349
0.79831
0.830282
0.0335364
0.100689
0.168087
0.235908
0.304349
0.373627
0.443968
0.515575
0.588543
0.662707
0.73737
0.810889
0.880165
0.940218
0.984376
0.0372847
0.111948
0.186904
0.262375
0.338633
0.416014
0.494933
0.575884
0.659387
0.745846
0.835221
0.926401
1.01618
1.098
1.1612
0.040937
0.122911
0.205195
0.288043
0.37178
0.456845
0.54385
0.633624
0.727258
0.826052
0.93125
1.04329
1.16014
1.27435
1.36945
0.0444878
0.133556
0.222915
0.312811
0.403582
0.495723
0.589979
0.687488
0.789953
0.899836
1.02041
1.15533
1.30667
1.46976
1.62233
0.0479444
0.143903
0.240086
0.33669
0.434
0.532467
0.63284
0.736378
0.845213
0.962903
1.09521
1.25088
1.44138
1.67559
1.93812
0.0513285
0.154021
0.256827
0.359848
0.463243
0.567289
0.672517
0.779953
0.891597
1.01133
1.14659
1.31154
1.53229
1.85301
2.32498
0.0546744
0.164018
0.273341
0.382618
0.491815
0.600911
0.709968
0.819303
0.929876
1.04418
1.16823
1.31634
1.52317
1.87913
2.6526
1036.04
1037.47
1038.83
1040.12
1041.35
1042.51
1043.61
1044.64
1045.63
1046.56
1047.44
1048.29
1049.09
1049.85
1050.59
1051.3
1051.99
1052.66
1053.32
1053.96
1054.61
1055.24
1055.88
1056.52
1057.16
1057.81
1058.47
1059.14
1059.82
1060.51
1061.21
1061.91
1062.62
1063.34
1064.05
1064.77
1065.48
1066.18
1066.86
1067.53
1068.17
1068.78
1069.35
1069.88
1070.36
1070.77
1071.12
1071.38
1071.57
1071.65
1071.63
1071.49
1071.22
1070.82
1070.26
1069.53
1068.62
1067.5
1066.17
1064.6
1062.76
1060.65
1058.23
1055.47
1052.35
1048.85
1044.91
1040.51
1035.62
1030.18
1024.15
1017.48
1010.12
1002.02
993.118
983.349
972.652
960.961
948.208
934.325
919.245
902.899
885.224
866.161
845.656
823.666
800.156
775.104
748.502
720.357
0.146284
0.146143
0.144489
0.141378
0.136912
0.131234
0.124511
0.116926
0.10866
0.0998872
0.0907672
0.0814406
0.0720288
0.0626352
0.0533477
0.0442419
0.0353857
0.0268429
0.0186775
0.0109574
0.00375674
-0.00284198
-0.00874803
-0.0138639
-0.0180894
-0.021327
-0.0234904
-0.0245121
-0.0243519
-0.0230014
-0.0204834
-0.0168454
-0.0121457
-0.00643661
0.000252262
0.00792461
0.016618
0.0263935
0.0373161
0.0494317
0.0627457
0.0772122
0.0927364
0.109193
0.126458
0.144441
0.163121
0.182563
0.20292
0.224422
0.247349
0.272001
0.298662
0.327578
0.358942
0.392894
0.429539
0.468978
0.511338
0.556805
0.605643
0.658201
0.714904
0.77623
0.842685
0.914767
0.992932
1.07757
1.16897
1.26733
1.37272
1.48513
1.60439
1.73024
1.86225
1.99976
2.14189
2.28738
2.43459
2.58136
2.72505
2.86246
2.98992
3.10338
3.19862
3.27146
3.31812
3.33552
3.32161
3.27559
0.246205
0.245974
0.243134
0.237785
0.230115
0.220381
0.208886
0.195952
0.181897
0.167022
0.151598
0.135859
0.120008
0.104212
0.0886118
0.0733273
0.0584648
0.0441244
0.0304072
0.0174217
0.00528905
-0.00585361
-0.0158524
-0.0245387
-0.0317361
-0.0372699
-0.0409825
-0.0427494
-0.0424961
-0.0402091
-0.0359377
-0.029782
-0.0218669
-0.0123053
-0.00116335
0.0115642
0.0259565
0.042146
0.0602782
0.080462
0.102725
0.126985
0.153057
0.180682
0.209596
0.239601
0.270631
0.302788
0.336349
0.371739
0.409475
0.450107
0.494149
0.542035
0.594081
0.650495
0.711408
0.776933
0.847234
0.922588
1.00343
1.09035
1.18409
1.28549
1.39545
1.51486
1.64452
1.7851
1.93713
2.10093
2.27664
2.46422
2.66344
2.87389
3.09492
3.32556
3.56443
3.80958
4.05834
4.30722
4.5518
4.78668
5.00558
5.20144
5.36681
5.49425
5.57692
5.6092
5.58728
5.50965
0.349858
0.349537
0.345367
0.337508
0.326261
0.312037
0.295306
0.276564
0.256288
0.234921
0.212851
0.190412
0.16788
0.145478
0.123393
0.101777
0.0807642
0.0604808
0.0410556
0.0226305
0.00536862
-0.0105396
-0.0248735
-0.0373848
-0.0478052
-0.0558625
-0.0613035
-0.0639234
-0.0635966
-0.0603023
-0.0541335
-0.0452812
-0.0339879
-0.0204794
-0.00489228
0.0127759
0.0326758
0.055069
0.0802528
0.108464
0.139792
0.174115
0.211104
0.250277
0.291124
0.333247
0.376477
0.420949
0.467105
0.515635
0.567388
0.623255
0.684058
0.750453
0.822882
0.90157
0.986588
1.07796
1.1758
1.28042
1.39241
1.51262
1.64217
1.78237
1.93457
2.10014
2.28031
2.4761
2.68829
2.91733
3.16342
3.42648
3.70625
4.00223
4.31367
4.63945
4.97788
5.3265
5.68184
6.0392
6.39244
6.73387
7.05433
7.34333
7.58954
7.78144
7.90822
7.96086
7.93311
7.8224
0.459059
0.458661
0.452935
0.442132
0.426721
0.407328
0.384654
0.359413
0.332281
0.303861
0.274669
0.245133
0.215595
0.186325
0.157534
0.129395
0.102052
0.0756409
0.0503047
0.0262063
0.00354195
-0.0174482
-0.0364741
-0.0531953
-0.0672298
-0.0781742
-0.0856378
-0.0892904
-0.0889193
-0.0844827
-0.076141
-0.0642419
-0.0492448
-0.0315916
-0.011562
0.0108306
0.0358621
0.064032
0.0959258
0.132039
0.172604
0.217467
0.266063
0.317521
0.370878
0.425359
0.480596
0.536751
0.594505
0.654954
0.719441
0.789362
0.865976
0.950245
1.04273
1.14359
1.25268
1.36974
1.49467
1.62772
1.7696
1.9215
2.08501
2.26202
2.45451
2.66446
2.89366
3.14356
3.41523
3.70925
4.02581
4.36476
4.72577
5.10836
5.51184
5.93517
6.3767
6.83379
7.3025
7.77718
8.25011
8.71131
9.14841
9.54688
9.89051
10.1624
10.3463
10.4283
10.3984
10.2523
0.575908
0.57545
0.567811
0.553391
0.532924
0.507355
0.477711
0.445002
0.410145
0.373928
0.337001
0.299875
0.262943
0.226498
0.190758
0.155887
0.122018
0.0892756
0.0577947
0.027741
-0.000670603
-0.0271597
-0.0513668
-0.0728474
-0.0910765
-0.10547
-0.115431
-0.120422
-0.120067
-0.114257
-0.103241
-0.0876331
-0.0682955
-0.0460947
-0.0216028
0.00511736
0.0345619
0.0676657
0.105557
0.149237
0.199261
0.255476
0.316936
0.38206
0.449047
0.516415
0.583429
0.650285
0.71806
0.788495
0.863706
0.945867
1.03691
1.13824
1.25056
1.37381
1.50732
1.65023
1.80189
1.96234
2.1324
2.31369
2.50847
2.7194
2.94934
3.20111
3.47722
3.77972
4.11001
4.46875
4.85597
5.2713
5.71426
6.18444
6.68145
7.20474
7.75312
8.32437
8.91459
9.51768
10.1247
10.7235
11.2982
11.8294
12.2948
12.6701
12.9313
13.0568
13.0309
12.8463
0.703088
0.702598
0.692475
0.673388
0.646513
0.613295
0.575238
0.533744
0.490029
0.445085
0.399686
0.354406
0.309659
0.265729
0.222804
0.18101
0.140438
0.101171
0.0633085
0.0269917
-0.00756981
-0.0400738
-0.070101
-0.097096
-0.120359
-0.139061
-0.152291
-0.159163
-0.158976
-0.151435
-0.136861
-0.116301
-0.0913741
-0.0638008
-0.0347551
-0.00442039
0.0280924
0.0645088
0.106955
0.157407
0.217109
0.28604
0.362642
0.444026
0.526778
0.608092
0.686599
0.762611
0.837903
0.915281
0.998085
1.08971
1.19315
1.31053
1.44278
1.58936
1.74857
1.91821
2.09659
2.28325
2.47916
2.6866
2.90879
3.14954
3.4129
3.70282
4.02291
4.376
4.76395
5.18736
5.64578
6.13819
6.66369
7.222
7.81337
8.43827
9.09676
9.78776
10.5083
11.2526
12.0113
12.7704
13.5106
14.2068
14.8288
15.3423
15.7117
15.9035
15.8921
15.6645
0.844126
0.843629
0.830064
0.804621
0.76926
0.72624
0.677759
0.62574
0.571745
0.516967
0.462269
0.408244
0.355276
0.303589
0.2533
0.204455
0.157063
0.11113
0.0666826
0.0238029
-0.0173421
-0.0564632
-0.0931089
-0.126624
-0.156114
-0.180433
-0.198209
-0.207968
-0.208377
-0.198637
-0.178998
-0.151152
-0.11816
-0.0835227
-0.0496591
-0.0169894
0.0161077
0.0527781
0.096934
0.152374
0.221782
0.305673
0.401579
0.50414
0.606695
0.703927
0.79348
0.876089
0.954864
1.03438
1.11989
1.21667
1.32943
1.46157
1.61448
1.78687
1.97494
2.17376
2.37952
2.59096
2.80944
3.03839
3.28254
3.54729
3.83833
4.16126
4.5212
4.92226
5.36697
5.85571
6.3868
6.95755
7.56604
8.21207
8.89713
9.62358
10.3937
11.2088
12.0679
12.967
13.8975
14.8448
15.7864
16.6913
17.5192
18.2223
18.7477
19.043
19.0647
18.7883
1.00399
1.00347
0.984744
0.950117
0.903009
0.84702
0.785351
0.72057
0.654587
0.588735
0.523889
0.460572
0.39906
0.339452
0.281735
0.225826
0.17161
0.118972
0.0678251
0.0181437
-0.0299995
-0.0763861
-0.120592
-0.161913
-0.199281
-0.231187
-0.255631
-0.270199
-0.272346
-0.260054
-0.23291
-0.193371
-0.147274
-0.102089
-0.062803
-0.0301357
-0.000986803
0.0303041
0.0707026
0.127265
0.205644
0.308046
0.430973
0.564302
0.694313
0.810854
0.910388
0.99511
1.07078
1.14488
1.2255
1.32068
1.43782
1.58275
1.75817
1.96184
2.18587
2.41932
2.6543
2.88854
3.12468
3.36833
3.62662
3.90719
4.21788
4.56645
4.96029
5.40569
5.9066
6.46309
7.07072
7.7226
8.41432
9.14596
9.92128
10.746
11.626
12.5663
13.5698
14.6361
15.7595
16.9271
18.1152
19.2866
20.3894
21.3579
22.1149
22.5767
22.6663
22.3347
1.19026
1.18947
1.16226
1.1135
1.04944
0.975847
0.897281
0.816984
0.737096
0.658921
0.583176
0.510177
0.43998
0.372474
0.30745
0.244644
0.183773
0.124557
0.0667503
0.0101647
-0.0452893
-0.09955
-0.152327
-0.202988
-0.25041
-0.292776
-0.327365
-0.350403
-0.357197
-0.342944
-0.304758
-0.245124
-0.17517
-0.112255
-0.0665144
-0.0383162
-0.0212746
-0.00540082
0.021076
0.0706221
0.154792
0.280741
0.445264
0.62911
0.801188
0.942127
1.04848
1.127
1.18877
1.2458
1.30995
1.39287
1.50603
1.65986
1.861
2.1073
2.38305
2.66249
2.92993
3.18321
3.42885
3.67698
3.93836
4.2235
4.54266
4.90622
5.32489
5.80896
6.36597
6.9966
7.69068
8.43001
9.20485
10.0167
10.8741
11.7884
12.7711
13.8326
14.9811
16.2225
17.5577
18.9796
20.4676
21.9805
23.4526
24.7979
25.9067
26.6459
26.874
26.4835
1.41561
1.41342
1.3707
1.29883
1.20948
1.1117
1.01154
0.912631
0.816949
0.725419
0.638321
0.555564
0.476844
0.401745
0.329796
0.260506
0.193382
0.127948
0.0637538
0.000395567
-0.0624556
-0.125006
-0.18726
-0.248879
-0.308966
-0.36571
-0.415876
-0.45414
-0.472497
-0.460439
-0.407635
-0.311888
-0.193081
-0.0978464
-0.0451236
-0.0305844
-0.040037
-0.0565387
-0.0619433
-0.0360594
0.0435951
0.197696
0.431528
0.710651
0.952682
1.12299
1.22641
1.28281
1.31334
1.33622
1.36711
1.42124
1.51541
1.66858
1.8985
2.21008
2.5746
2.92267
3.22565
3.48856
3.72917
3.9662
4.21557
4.4905
4.80313
5.16628
5.595
6.10684
6.71895
7.4384
8.24508
9.08593
9.94174
10.8214
11.7445
12.7319
13.8025
14.9729
16.2584
17.6734
19.2304
20.9366
22.7838
24.7324
26.6979
28.5779
30.2304
31.4504
31.9722
31.5382
1.70446
1.69557
1.62106
1.50928
1.38169
1.2511
1.12413
1.00377
0.890965
0.785674
0.687359
0.595282
0.508641
0.42663
0.348468
0.273405
0.200721
0.129718
0.0597198
-0.0099343
-0.079882
-0.150715
-0.222927
-0.296795
-0.372151
-0.44793
-0.521334
-0.586353
-0.631402
-0.636419
-0.572161
-0.411676
-0.176871
-0.0220474
0.0314252
0.0118858
-0.0484389
-0.123435
-0.189793
-0.219947
-0.174587
4.82064e-05
0.352771
0.845793
1.20764
1.40034
1.47224
1.4761
1.44921
1.41534
1.39107
1.39224
1.44007
1.56703
1.81868
2.23688
2.79008
3.24799
3.57929
3.82626
4.03491
4.23797
4.45625
4.70352
4.99116
5.33223
5.74568
6.26063
6.91765
7.75484
8.75055
9.72056
10.6446
11.5637
12.5225
13.556
14.6905
15.9478
17.3495
18.9199
20.6887
22.6908
24.9543
27.46
30.0668
32.6855
35.1771
37.2604
38.4469
38.081
2.11355
2.07221
1.92505
1.74248
1.55818
1.3852
1.22719
1.084
0.954162
0.835886
0.72742
0.627185
0.533786
0.445992
0.3627
0.282904
0.205664
0.130072
0.0552247
-0.019804
-0.0959922
-0.174396
-0.256162
-0.342519
-0.434672
-0.533511
-0.638808
-0.747258
-0.84789
-0.912092
-0.875191
-0.618424
-0.0454281
0.199757
0.213168
0.113133
-0.0356677
-0.202714
-0.369715
-0.51251
-0.578863
-0.453989
0.0720352
1.16988
1.70621
1.85167
1.81607
1.71367
1.59517
1.48067
1.37846
1.2961
1.25084
1.28596
1.49908
2.06934
3.1428
3.75565
4.05442
4.21915
4.34869
4.48785
4.6552
4.85843
5.10228
5.394
5.75024
6.20987
6.85695
7.84302
9.29305
10.4214
11.3548
12.2486
13.1929
14.2347
15.4016
16.7149
18.1977
19.8805
21.8111
24.0685
26.776
30.0417
33.4186
36.9762
40.7114
44.362
47.1568
47.4541
2.8119
2.60122
2.28
1.97811
1.7183
1.49765
1.30877
1.14487
1.0006
0.871855
0.755515
0.649134
0.550755
0.458768
0.371798
0.28863
0.208145
0.129266
0.0509064
-0.0280848
-0.10899
-0.193306
-0.282859
-0.379961
-0.487629
-0.609851
-0.751795
-0.919472
-1.11688
-1.3334
-1.49487
-1.28059
0.558005
0.755236
0.558208
0.284529
0.00330186
-0.282131
-0.584565
-0.915216
-1.25857
-1.48575
-1.03219
2.30244
2.7675
2.56362
2.25595
1.97427
1.73523
1.52816
1.33712
1.14643
0.945712
0.748469
0.665082
1.17705
4.15862
4.71542
4.72241
4.66251
4.64841
4.69695
4.8023
4.95464
5.14428
5.36268
5.60572
5.88902
6.30792
7.26292
10.2986
11.4026
12.1216
12.8608
13.7226
14.7329
15.9014
17.2379
18.7574
20.484
22.4627
24.7979
27.7935
32.463
36.51
41.0106
46.3673
52.6954
59.4627
63.6251
4.45085
3.28932
2.60697
2.15306
1.82201
1.56436
1.35441
1.17752
1.0247
0.890009
0.769319
0.659611
0.558578
0.46438
0.375485
0.290559
0.208383
0.127786
0.0475762
-0.0335277
-0.116991
-0.204587
-0.298591
-0.402091
-0.519528
-0.657683
-0.827615
-1.04875
-1.35822
-1.83383
-2.65548
-4.28162
3.52506
1.8785
1.01369
0.466882
0.0484314
-0.336947
-0.758648
-1.29948
-2.10539
-3.49757
-6.28502
7.56722
4.79207
3.42505
2.65844
2.17357
1.82934
1.5527
1.29537
1.01132
0.635738
0.0471882
-1.02604
-3.27132
8.66616
6.46696
5.48674
5.03998
4.85803
4.82434
4.88183
4.99726
5.14501
5.29599
5.40339
5.37303
4.9871
3.68673
14.086
12.938
12.8594
13.2963
14.0386
15.0035
16.1594
17.4974
19.0188
20.7247
22.6009
24.5762
26.4007
35.7807
38.9481
43.812
50.6244
60.3964
75.5193
101.796
687.722
649.987
610.208
568.501
525.003
479.861
433.237
385.294
336.198
286.113
235.201
183.619
131.522
79.0585
26.377
3.19029
3.05487
2.88273
2.68108
2.45769
2.2201
1.97491
1.72746
1.48165
1.24002
1.00386
0.773441
0.548256
0.327198
0.108766
5.36412
5.13215
4.83731
4.4926
4.11195
3.70862
3.29406
2.8773
2.46482
2.06066
1.66673
1.28328
0.909187
0.542417
0.180278
7.61111
7.27229
6.84172
6.34003
5.78887
5.20836
4.61538
4.02285
3.43966
2.87103
2.31913
1.78373
1.26279
0.753
0.250206
9.96642
9.50418
8.91723
8.23691
7.49513
6.72053
5.93621
5.15903
4.3999
3.66464
2.95502
2.26972
1.60524
0.956578
0.317748
12.472
11.8608
11.0861
10.1952
9.2342
8.24241
7.24989
6.27713
5.33624
4.4326
3.56655
2.73487
1.93188
1.15031
0.381954
15.1807
14.3808
13.3713
12.2237
11.0041
9.76502
8.54379
7.36335
6.2353
5.16292
4.14369
3.1713
2.23706
1.33084
0.441703
18.1615
17.1105
15.7946
14.3243
12.7933
11.2699
9.79694
8.39716
7.07868
5.84006
4.67395
3.56956
2.51421
1.49428
0.495715
21.5095
20.1048
18.3724
16.4855
14.5751
12.7243
10.977
9.34969
7.84219
6.44467
5.14247
3.91875
2.75592
1.63634
0.542586
25.3616
23.4266
21.1046
18.6698
16.297
14.0752
12.037
10.1825
8.49571
6.95395
5.5325
4.20703
2.95434
1.75256
0.580872
29.9244
27.1349
23.9494
20.7919
17.8675
15.2425
12.9133
10.8475
9.00424
7.34289
5.82654
4.42249
3.10185
1.83869
0.609202
35.5164
31.2393
26.7665
22.6809
19.1384
16.1136
13.526
11.2901
9.33083
7.58682
6.00824
4.55453
3.19185
1.89114
0.626443
42.5878
35.5395
29.196
24.0271
19.8916
16.5475
13.7871
11.4558
9.44218
7.66528
6.06507
4.59551
3.21987
1.90757
0.631866
51.3983
39.1344
30.4505
24.3397
19.8535
16.3975
13.619
11.3039
9.31676
7.56702
5.99123
4.54254
3.18453
1.88739
0.62531
59.1343
39.1491
29.1319
23.0276
18.7848
15.5699
12.9873
10.8242
8.95391
7.29478
5.79026
4.39886
3.08832
1.83212
0.60729
0.0577416
0.173185
0.288494
0.403523
0.518041
0.631692
0.743961
0.854172
0.961572
1.06567
1.16724
1.27077
1.39058
1.56563
1.89544
0.0605565
0.181611
0.302465
0.422891
0.542506
0.660672
0.776346
0.887865
0.992626
1.08662
1.16375
1.21437
1.22029
1.13205
0.759819
0.0634095
0.19017
0.316722
0.442808
0.567963
0.691369
0.811603
0.926238
1.03113
1.11925
1.17864
1.18901
1.11539
0.895572
0.421041
0.0663006
0.198866
0.331291
0.463356
0.59462
0.724252
0.850737
0.971358
1.08126
1.17178
1.22753
1.22199
1.11197
0.835956
0.337482
0.0692139
0.207654
0.346099
0.484445
0.622394
0.759306
0.893929
1.02391
1.14483
1.24838
1.31893
1.32756
1.22374
0.930833
0.376472
0.0721166
0.21643
0.360963
0.505793
0.650871
0.795933
0.940335
1.08273
1.22042
1.34785
1.45328
1.51127
1.46672
1.20727
0.553356
0.0749612
0.225046
0.375609
0.526951
0.679338
0.832998
0.988115
1.14482
1.30312
1.46254
1.62049
1.76618
1.85887
1.75759
1.04467
0.0776906
0.23332
0.389702
0.547365
0.706899
0.869028
1.03477
1.20578
1.38503
1.5782
1.79613
2.05788
2.38565
2.73262
2.49182
0.0802448
0.241064
0.402892
0.566462
0.732635
0.902523
1.07775
1.261
1.45726
1.67663
1.94129
2.30368
2.89902
4.11576
7.23255
0.0825669
0.248101
0.414858
0.583733
0.755769
0.932285
1.11512
1.30716
1.51341
1.74357
2.01851
2.38766
2.98081
4.17932
7.25766
0.0846083
0.25428
0.42534
0.598792
0.775769
0.957628
1.14608
1.34343
1.55291
1.77938
2.03024
2.316
2.64214
2.9373
2.57534
0.0863308
0.259487
0.434149
0.611383
0.792356
0.978365
1.17084
1.37123
1.58059
1.7982
2.01769
2.21624
2.32493
2.15153
1.21843
0.0877067
0.263642
0.441158
0.62136
0.805424
0.994586
1.19007
1.39278
1.6025
1.81566
2.01963
2.17885
2.20352
1.8933
0.905776
0.0887175
0.266689
0.446287
0.628638
0.814929
1.00639
1.20424
1.40942
1.62198
1.83944
2.05259
2.23487
2.31459
2.10538
1.16534
0.0893525
0.2686
0.44949
0.633161
0.820819
1.01374
1.2133
1.42091
1.63803
1.86613
2.10691
2.36206
2.62624
2.82491
2.39058
0.0896078
0.269362
0.450746
0.634897
0.823026
1.01646
1.21674
1.42578
1.6464
1.88397
2.15119
2.48293
2.98329
3.98395
6.63441
0.0894862
0.268983
0.450068
0.633851
0.821521
1.01441
1.21408
1.42256
1.64298
1.88118
2.15057
2.48664
2.99283
3.99719
6.64227
0.0889974
0.267493
0.447503
0.630085
0.816371
1.00761
1.20525
1.41103
1.62717
1.85667
2.10359
2.37213
2.65637
2.87092
2.42135
0.0881582
0.264942
0.443138
0.623728
0.807754
0.996349
1.19075
1.39228
1.60205
1.82002
2.04154
2.24666
2.36821
2.20578
1.25114
0.0869918
0.261401
0.437097
0.614966
0.795942
0.981023
1.17128
1.36776
1.5712
1.78085
1.99082
2.17919
2.27719
2.09072
1.15566
0.0855269
0.256959
0.429532
0.604027
0.781255
0.962081
1.14744
1.33838
1.536
1.7414
1.95503
2.17446
2.38362
2.49547
2.0159
0.0837964
0.251716
0.42062
0.591171
0.764048
0.939964
1.11972
1.30432
1.49536
1.69616
1.91515
2.17681
2.55754
3.31088
5.34288
0.0818359
0.245782
0.410551
0.576681
0.744707
0.915158
1.0886
1.26575
1.44792
1.63824
1.84557
2.09642
2.47263
3.23824
5.31108
0.079682
0.23927
0.399522
0.560858
0.72366
0.888251
1.05487
1.22368
1.39479
1.56846
1.7457
1.9289
2.11724
2.25772
1.90467
0.07737
0.232287
0.387727
0.543999
0.701349
0.859909
1.01961
1.17999
1.33984
1.49615
1.64165
1.75777
1.79503
1.61985
0.898396
0.0749323
0.224935
0.375341
0.526374
0.678177
0.830751
0.983836
1.13665
1.28731
1.43132
1.55796
1.64137
1.62028
1.36131
0.638861
0.0723958
0.217296
0.362509
0.508197
0.654448
0.801216
0.948227
1.09479
1.23935
1.37849
1.50426
1.59753
1.61065
1.42461
0.764912
0.0697815
0.209432
0.349333
0.489614
0.630341
0.771489
0.912906
1.05428
1.19514
1.3349
1.47307
1.60931
1.73928
1.81679
1.4952
0.0671041
0.201387
0.335883
0.470706
0.605923
0.741554
0.87759
1.01411
1.15166
1.29237
1.44316
1.6254
1.90427
2.48608
4.07877
0.0643729
0.193186
0.322196
0.451508
0.581199
0.711315
0.841915
0.973207
1.10598
1.24279
1.39136
1.57436
1.85885
2.4533
4.06644
0.0615923
0.184843
0.308287
0.432032
0.55616
0.68072
0.805736
0.931253
1.05746
1.185
1.31561
1.45278
1.59812
1.71304
1.45526
0.0587636
0.17636
0.294158
0.412276
0.530805
0.649787
0.769187
0.888795
1.00799
1.12506
1.23528
1.32547
1.35848
1.23153
0.686232
0.055885
0.16773
0.279797
0.392222
0.505116
0.618546
0.732473
0.846602
0.959967
1.06983
1.16883
1.23785
1.22986
1.04051
0.491605
0.0529522
0.15894
0.265179
0.371828
0.47904
0.586941
0.695598
0.804916
0.914346
1.02211
1.12316
1.20369
1.22715
1.09916
0.598564
0.0499594
0.149972
0.250265
0.351032
0.45247
0.554794
0.658247
0.763131
0.869853
0.979031
1.09168
1.20915
1.32955
1.41652
1.18921
0.0468997
0.140802
0.235015
0.329757
0.42527
0.521845
0.619886
0.720053
0.823634
0.933505
1.05679
1.21255
1.45514
1.95208
3.27366
0.0437669
0.131411
0.219388
0.307936
0.397318
0.487863
0.580031
0.674588
0.773026
0.878632
0.999329
1.1556
1.40406
1.91491
3.25958
0.0405561
0.121783
0.203357
0.285523
0.368546
0.452738
0.5385
0.626411
0.717423
0.813254
0.917125
1.03458
1.17074
1.29863
1.14346
0.037264
0.111909
0.186908
0.262504
0.338948
0.416508
0.49546
0.576064
0.658454
0.742268
0.825457
0.900542
0.943123
0.878874
0.507679
0.0338891
0.101786
0.170038
0.238885
0.308564
0.379297
0.451258
0.524459
0.598475
0.671691
0.739394
0.789058
0.789654
0.672259
0.319219
0.0304306
0.0914107
0.152748
0.214679
0.277435
0.341222
0.40618
0.472273
0.539031
0.604915
0.665832
0.71164
0.718084
0.629268
0.32894
0.0268881
0.0807838
0.135039
0.189892
0.245579
0.302321
0.3603
0.419613
0.480174
0.541557
0.602728
0.661544
0.712632
0.733135
0.586952
0.0232613
0.0699039
0.116908
0.164518
0.212981
0.26255
0.313484
0.366074
0.420733
0.478322
0.541228
0.616794
0.728389
0.95273
1.55863
0.0195499
0.0587694
0.098351
0.138543
0.179606
0.22182
0.265508
0.311089
0.359246
0.411377
0.470905
0.547001
0.665825
0.907317
1.5415
0.0157541
0.0473805
0.0793648
0.111956
0.145422
0.180057
0.216206
0.254306
0.294986
0.339281
0.389053
0.44751
0.518052
0.58916
0.531394
0.0118753
0.0357402
0.0599522
0.0847562
0.110418
0.137233
0.165538
0.195721
0.228205
0.263368
0.301152
0.339606
0.369864
0.360472
0.219198
0.00791619
0.0238563
0.0401244
0.0569548
0.0746054
0.0933656
0.113559
0.135527
0.159552
0.185621
0.212769
0.237383
0.249187
0.223357
0.113327
0.0038815
0.0117424
0.0199023
0.0285788
0.0380162
0.048496
0.0603403
0.0738967
0.0894681
0.107109
0.126132
0.14405
0.154619
0.144701
0.0884361
-0.000221857
-0.000581252
-0.000681609
-0.000330025
0.000697969
0.002673
0.00592649
0.0108603
0.0179367
0.0276212
0.0402432
0.0558137
0.0742574
0.0982138
0.147288
-0.00438437
-0.0130864
-0.0215822
-0.0297123
-0.0372824
-0.0440427
-0.0496588
-0.0536684
-0.055412
-0.0539191
-0.0477116
-0.0344279
-0.00994815
0.0342665
0.122037
-0.00859365
-0.0257363
-0.0427389
-0.0594865
-0.075829
-0.0915569
-0.106363
-0.119774
-0.131012
-0.138741
-0.140594
-0.132455
-0.10787
-0.059948
0.00448595
-0.0128343
-0.0384846
-0.0640743
-0.0895445
-0.114805
-0.139714
-0.16404
-0.187391
-0.209052
-0.227648
-0.240425
-0.241909
-0.222009
-0.165641
-0.0620989
-0.017088
-0.0512756
-0.085494
-0.11975
-0.154028
-0.188278
-0.222397
-0.256183
-0.289222
-0.320599
-0.348102
-0.366214
-0.361479
-0.304096
-0.143032
-0.0213338
-0.0640458
-0.106888
-0.14994
-0.19327
-0.236935
-0.280987
-0.325493
-0.370548
-0.416243
-0.462303
-0.506382
-0.537515
-0.514551
-0.31077
-0.0255487
-0.0767252
-0.128138
-0.179939
-0.23228
-0.285321
-0.339262
-0.394422
-0.451431
-0.511636
-0.577882
-0.655534
-0.75112
-0.850572
-0.768619
-0.0297087
-0.0892408
-0.149116
-0.209561
-0.270804
-0.333082
-0.396688
-0.462064
-0.530091
-0.602832
-0.685542
-0.792227
-0.962036
-1.31256
-2.23707
-0.0337888
-0.101517
-0.169698
-0.238629
-0.308605
-0.379921
-0.452882
-0.527862
-0.605474
-0.687102
-0.776547
-0.885078
-1.04745
-1.37595
-2.26137
-0.0377638
-0.113479
-0.189758
-0.26697
-0.345475
-0.425613
-0.50767
-0.591829
-0.678061
-0.765936
-0.854292
-0.940532
-1.01748
-1.05256
-0.848122
-0.0416078
-0.125049
-0.209167
-0.294409
-0.381209
-0.469968
-0.560993
-0.65435
-0.749501
-0.844427
-0.933499
-1.00243
-1.01657
-0.895508
-0.470837
-0.0452945
-0.136148
-0.227794
-0.320762
-0.415578
-0.512746
-0.612693
-0.715618
-0.821091
-0.926975
-1.02668
-1.10237
-1.10953
-0.949284
-0.452577
-0.0487973
-0.146694
-0.245499
-0.345828
-0.44831
-0.553589
-0.662317
-0.775111
-0.892384
-1.0138
-1.13654
-1.24988
-1.31874
-1.2367
-0.717956
-0.0520898
-0.156607
-0.262143
-0.369395
-0.479093
-0.592029
-0.709111
-0.831486
-0.960791
-1.09969
-1.2529
-1.42825
-1.63273
-1.82736
-1.62025
-0.0551469
-0.165811
-0.277592
-0.391258
-0.507622
-0.627582
-0.752223
-0.883039
-1.02252
-1.17564
-1.35387
-1.58638
-1.95353
-2.69698
-4.62904
-0.057946
-0.174236
-0.291727
-0.411243
-0.533646
-0.659878
-0.791036
-0.928566
-1.07477
-1.23414
-1.41712
-1.65098
-2.013
-2.74113
-4.64597
-0.0604677
-0.181825
-0.304453
-0.429216
-0.557004
-0.688744
-0.825414
-0.968061
-1.11786
-1.27621
-1.44502
-1.62655
-1.81819
-1.96808
-1.67565
-0.0626954
-0.188528
-0.31569
-0.445081
-0.577609
-0.714178
-0.85563
-1.00258
-1.15499
-1.31101
-1.46407
-1.59506
-1.65237
-1.50215
-0.829532
-0.0646152
-0.194305
-0.325376
-0.458761
-0.595399
-0.736211
-0.882016
-1.0333
-1.18959
-1.34786
-1.49841
-1.61473
-1.63063
-1.39899
-0.668429
-0.0662151
-0.199119
-0.333449
-0.470174
-0.610281
-0.754767
-0.904587
-1.06052
-1.2228
-1.39005
-1.55651
-1.70411
-1.78075
-1.64229
-0.928355
-0.0674849
-0.202939
-0.339853
-0.479231
-0.622114
-0.769607
-0.922901
-1.08333
-1.25254
-1.43277
-1.62766
-1.84276
-2.08023
-2.28518
-1.98187
-0.0684173
-0.205741
-0.344542
-0.485844
-0.630735
-0.780407
-0.936245
-1.10004
-1.27459
-1.4653
-1.68473
-1.96586
-2.40224
-3.28102
-5.5773
-0.069009
-0.207513
-0.347487
-0.489958
-0.636027
-0.786914
-0.944048
-1.10927
-1.28542
-1.47785
-1.69894
-1.98113
-2.41699
-3.29243
-5.5818
-0.0692622
-0.20826
-0.348691
-0.491565
-0.637961
-0.78907
-0.946217
-1.11091
-1.28492
-1.47048
-1.67068
-1.88963
-2.12646
-2.3219
-1.99679
-0.0691855
-0.208006
-0.348194
-0.490716
-0.636613
-0.787021
-0.943133
-1.10606
-1.27638
-1.45291
-1.62938
-1.7857
-1.86464
-1.71281
-0.959289
-0.0687949
-0.2068
-0.346071
-0.487513
-0.632122
-0.780997
-0.935302
-1.09606
-1.26352
-1.43536
-1.60206
-1.73547
-1.76304
-1.52156
-0.730843
-0.0681144
-0.204711
-0.342432
-0.482102
-0.624657
-0.77119
-0.922975
-1.08139
-1.24759
-1.42134
-1.59783
-1.75873
-1.84825
-1.7117
-0.968335
-0.067177
-0.201836
-0.337434
-0.474679
-0.614417
-0.757723
-0.906029
-1.06131
-1.2264
-1.4054
-1.60439
-1.83153
-2.09041
-2.32321
-2.0345
-0.0660264
-0.198306
-0.331286
-0.465515
-0.601689
-0.740773
-0.884222
-1.03441
-1.19552
-1.37556
-1.59137
-1.88226
-2.35063
-3.29686
-5.72582
-0.0647172
-0.194284
-0.324263
-0.454991
-0.586928
-0.720777
-0.857722
-0.999912
-1.15148
-1.32084
-1.52617
-1.80972
-2.27897
-3.24079
-5.70362
-0.0633149
-0.189971
-0.316712
-0.443618
-0.570828
-0.698617
-0.827565
-0.958885
-1.09507
-1.24112
-1.40663
-1.60819
-1.86521
-2.14231
-1.96061
-0.0618926
-0.185595
-0.30904
-0.432025
-0.554313
-0.675639
-0.795745
-0.914462
-1.03179
-1.14787
-1.26201
-1.36812
-1.43747
-1.36239
-0.814445
-0.0605263
-0.181394
-0.301679
-0.420905
-0.538454
-0.653492
-0.764875
-0.870981
-0.969367
-1.05595
-1.12294
-1.15357
-1.10999
-0.910833
-0.41893
-0.0592869
-0.177591
-0.295046
-0.41094
-0.524324
-0.633868
-0.737654
-0.832845
-0.915113
-0.977615
-1.0091
-0.990562
-0.89052
-0.662563
-0.263653
-0.0582328
-0.174374
-0.289489
-0.402707
-0.512847
-0.618227
-0.716387
-0.803664
-0.874563
-0.920792
-0.929952
-0.884146
-0.759855
-0.532996
-0.197535
-0.0574022
-0.171864
-0.28524
-0.396598
-0.50466
-0.607585
-0.702659
-0.785843
-0.851128
-0.889687
-0.88895
-0.832221
-0.700398
-0.478835
-0.172807
-0.0568074
-0.170103
-0.282383
-0.392765
-0.500025
-0.602377
-0.69717
-0.780434
-0.846239
-0.885852
-0.886808
-0.832427
-0.703244
-0.483317
-0.175564
-0.0564321
-0.169041
-0.280834
-0.391088
-0.49878
-0.6024
-0.699669
-0.787131
-0.859523
-0.908847
-0.923073
-0.88456
-0.769088
-0.548773
-0.208437
-0.0562319
-0.16854
-0.280343
-0.391175
-0.500347
-0.606813
-0.70896
-0.804277
-0.888809
-0.9562
-0.995941
-0.990114
-0.907712
-0.697558
-0.29445
-0.0561375
-0.168382
-0.280517
-0.392399
-0.503775
-0.614207
-0.722974
-0.828893
-0.929981
-1.02273
-1.10043
-1.14881
-1.13501
-0.980314
-0.509466
-0.0560618
-0.168294
-0.280854
-0.39396
-0.507839
-0.622737
-0.738947
-0.856846
-0.976923
-1.09971
-1.22523
-1.35064
-1.46012
-1.48259
-1.10504
-0.0559078
-0.167971
-0.280799
-0.394968
-0.511175
-0.630334
-0.753727
-0.883272
-1.02198
-1.17476
-1.35009
-1.56344
-1.84553
-2.26274
-2.97314
41.7919
31.1097
24.6714
20.2561
16.9342
14.2746
12.0523
10.136
8.44233
6.91422
5.51024
4.1987
2.9541
1.75491
0.582091
15.2631
19.8679
18.9067
16.8523
14.7269
12.7542
10.9637
9.33756
7.84904
6.47225
5.18426
3.96505
2.79704
1.6644
0.552518
6.73527
12.4913
13.9011
13.4976
12.4134
11.1074
9.76099
8.44351
7.17813
5.96862
4.81049
3.69584
2.6154
1.55946
0.518189
3.56466
8.13301
10.1546
10.6157
10.254
9.48854
8.53815
7.51327
6.46841
5.42927
4.40652
3.40287
2.41675
1.44431
0.480462
2.17251
5.54329
7.4916
8.30523
8.3748
7.99811
7.36703
6.59688
5.75469
4.87852
3.98927
3.0977
2.20859
1.32319
0.440704
1.4569
3.94139
5.61658
6.51143
6.80551
6.68433
6.29246
5.73049
5.06457
4.33685
3.57361
2.7908
1.99785
1.20004
0.400194
1.0394
2.90148
4.28346
5.13478
5.52459
5.55849
5.336
4.93627
4.41734
3.81984
3.17152
2.49094
1.79047
1.0783
0.360059
0.772409
2.19497
3.31881
4.07862
4.49081
4.6107
4.5026
4.22482
3.82464
3.33812
2.7918
2.2049
1.5912
0.960779
0.321225
0.59031
1.6959
2.60696
3.26385
3.65999
3.82124
3.78702
3.59836
3.2919
2.8979
2.44027
1.93744
1.40355
0.84959
0.2844
0.460313
1.33191
2.07161
2.63014
2.99229
3.16749
3.17868
3.05369
2.81993
2.50187
2.12012
1.69154
1.22984
0.746195
0.25008
0.364364
1.0595
1.66208
2.13281
2.45441
2.62763
2.66491
2.58453
2.40651