/*--------------------------------*- C++ -*----------------------------------*\
| =========                 |                                                 |
| \\      /  F ield         | OpenFOAM: The Open Source CFD Toolbox           |
|  \\    /   O peration     | Version:  5.x                                   |
|   \\  /    A nd           | Web:      www.OpenFOAM.org                      |
|    \\/     M anipulation  |                                                 |
\*---------------------------------------------------------------------------*/
FoamFile
{
    version     2.0;
    format      ascii;
    class       volScalarField;
    location    "20";
    object      gradTx;
}
// * * * * * * * * * * * * * * * * * * * * * * * * * * * * * * * * * * * * * //

dimensions      [0 -1 0 1 0 0 0];

internalField   nonuniform List<scalar> 
6300
(
2.64176
2.6337
2.61759
2.59343
2.56124
2.52109
2.47305
2.41727
2.35396
2.28345
2.2062
2.12284
2.03416
1.94116
1.84501
2.64972
2.64166
2.62553
2.60134
2.56912
2.52888
2.4807
2.4247
2.36106
2.2901
2.21223
2.12806
2.0384
1.94423
1.84676
2.66564
2.65758
2.64143
2.61721
2.5849
2.54451
2.49608
2.43966
2.37541
2.30355
2.22446
2.13871
2.04705
1.95053
1.85039
2.68953
2.68146
2.66531
2.64105
2.60866
2.56809
2.51933
2.46237
2.39726
2.32414
2.24328
2.15516
2.06049
1.96034
1.85605
2.72139
2.71333
2.69719
2.67293
2.64049
2.59977
2.55068
2.49313
2.42703
2.35237
2.26928
2.17806
2.07935
1.9742
1.86411
2.76119
2.75317
2.73709
2.71289
2.68048
2.63971
2.5904
2.53233
2.46526
2.38896
2.3033
2.20835
2.10457
1.99293
1.87509
2.80891
2.80095
2.785
2.76097
2.72873
2.68809
2.63878
2.58044
2.51262
2.43481
2.34652
2.24741
2.13756
2.01777
1.88984
2.86448
2.85663
2.84088
2.81715
2.78528
2.74504
2.69609
2.63793
2.56987
2.49105
2.40046
2.29712
2.18042
2.05067
1.90971
2.9278
2.92009
2.90463
2.88134
2.85008
2.8106
2.76251
2.70521
2.63778
2.55897
2.46707
2.36011
2.23627
2.0947
1.93691
2.99871
2.99118
2.9761
2.95341
2.923
2.88466
2.83804
2.7825
2.717
2.63987
2.54864
2.43992
2.30975
2.15488
1.97527
3.07703
3.06971
3.05506
3.03307
3.00372
2.9669
2.92238
2.86966
2.80775
2.7348
2.64762
2.54108
2.40786
2.23971
2.03182
3.16256
3.15544
3.14123
3.11999
3.0918
3.05673
3.01482
2.96591
2.90943
2.84387
2.76588
2.6688
2.54082
2.36419
2.12073
3.25507
3.24813
3.23431
3.21374
3.18663
3.1533
3.11415
3.06963
3.02009
2.96526
2.90311
2.82733
2.7223
2.55537
2.27398
3.3544
3.34758
3.33402
3.3139
3.28758
3.25557
3.21873
3.17828
3.13595
3.09386
3.05386
3.01498
2.96553
2.86092
2.57463
3.46042
3.45363
3.44014
3.42016
3.39407
3.36257
3.32681
3.28871
3.25147
3.22025
3.20333
3.21304
3.26377
3.34806
3.27713
1.75527
1.67321
1.5916
1.51124
1.4329
1.35731
1.28507
1.21672
1.15268
1.09331
1.03883
0.98941
0.945136
0.906032
0.872069
0.84317
0.819217
0.800055
0.785491
0.775297
0.769202
0.766893
0.768008
0.772135
0.778805
0.787498
0.797646
0.808637
0.819834
0.830583
0.840235
0.84816
0.853749
0.856424
0.855624
0.850796
0.841376
0.826774
0.806374
0.779533
0.745596
0.703921
0.653903
0.594993
0.526701
0.448591
0.360251
0.261254
0.151114
0.0292441
-0.105079
-0.25273
-0.414739
-0.592281
-0.786647
-0.999226
-1.23148
-1.48493
-1.76119
-2.06193
-2.38897
-2.74431
-3.13014
-3.54891
-4.00333
-4.49637
-5.03128
-5.61151
-6.24071
-6.92268
-7.66125
-8.46031
-9.32366
-10.255
-11.2578
-12.3353
-13.4901
-14.7244
-16.0395
-17.4355
-18.9115
-20.4646
-22.0902
-23.7816
-25.5298
-27.3236
-29.1497
-30.9928
-32.8364
-34.6633
1.75574
1.6725
1.58972
1.50825
1.4289
1.35241
1.27941
1.21044
1.14593
1.08621
1.0315
0.981957
0.93765
0.898591
0.86474
0.83601
0.812282
0.793397
0.779164
0.769358
0.763715
0.761926
0.763636
0.768434
0.775853
0.785365
0.796391
0.808301
0.820435
0.832118
0.842679
0.851476
0.857898
0.861378
0.861375
0.857358
0.848783
0.83507
0.815596
0.789696
0.756682
0.715878
0.666652
0.608445
0.540782
0.463266
0.37554
0.277243
0.16795
0.0471211
-0.0859403
-0.232106
-0.392426
-0.568104
-0.76047
-0.970943
-1.201
-1.45215
-1.72597
-2.02409
-2.34827
-2.70044
-3.08275
-3.49761
-3.94774
-4.43612
-4.96603
-5.541
-6.16476
-6.84117
-7.57417
-8.36773
-9.22576
-10.1521
-11.1503
-12.2238
-13.3756
-14.6081
-15.9228
-17.3205
-18.8003
-20.3601
-21.9953
-23.6996
-25.464
-27.2771
-29.125
-30.9919
-32.8604
-34.7123
1.75674
1.67106
1.58588
1.50214
1.42073
1.34242
1.2679
1.19769
1.13224
1.07184
1.01669
0.966924
0.92257
0.883615
0.849997
0.821616
0.798338
0.780005
0.766429
0.757392
0.752643
0.751888
0.754782
0.760925
0.769849
0.781017
0.793824
0.807604
0.821646
0.835225
0.847623
0.858165
0.86624
0.871302
0.872858
0.870435
0.863538
0.851612
0.83402
0.810048
0.778932
0.73991
0.69228
0.635458
0.568998
0.492587
0.405997
0.309012
0.201345
0.0825596
-0.0479834
-0.191154
-0.348046
-0.519945
-0.708269
-0.91451
-1.14018
-1.38678
-1.65579
-1.94876
-2.2673
-2.6132
-2.98851
-3.39557
-3.83708
-4.31608
-4.83592
-5.40026
-6.013
-6.67817
-7.39989
-8.18231
-9.02952
-9.94558
-10.9344
-11.9997
-13.1449
-14.3732
-15.6867
-17.087
-18.5742
-20.1467
-21.8011
-23.5311
-25.3281
-27.1802
-29.0728
-30.9886
-32.9084
-34.8116
1.75831
1.66881
1.57989
1.49262
1.40802
1.32694
1.2501
1.17806
1.11122
1.04985
0.994105
0.944049
0.899673
0.860916
0.827678
0.799834
0.777238
0.759727
0.747121
0.739217
0.735785
0.736557
0.741214
0.749374
0.760575
0.77427
0.789815
0.806485
0.823484
0.839988
0.855192
0.868361
0.87887
0.886223
0.890019
0.889902
0.885481
0.876256
0.861575
0.840632
0.81251
0.776277
0.731088
0.676292
0.611485
0.536507
0.451364
0.356105
0.250692
0.134872
0.00810098
-0.130497
-0.282112
-0.448186
-0.630318
-0.83015
-1.04927
-1.28916
-1.55118
-1.83665
-2.14696
-2.48365
-2.84858
-3.24397
-3.67249
-4.13724
-4.64174
-5.18986
-5.78576
-6.43375
-7.13822
-7.90357
-8.73416
-9.6343
-10.6083
-11.6604
-12.7948
-14.0154
-15.3256
-16.7283
-18.225
-19.8155
-21.4976
-23.2662
-25.1126
-27.0249
-28.987
-30.9795
-32.9799
-34.9642
1.76058
1.66567
1.57144
1.47922
1.39016
1.30528
1.22533
1.15087
1.08227
1.01971
0.963284
0.912957
0.868649
0.830231
0.797556
0.770461
0.748783
0.732355
0.721008
0.714568
0.712839
0.715597
0.722568
0.733407
0.747676
0.764819
0.784151
0.804852
0.825992
0.846581
0.865648
0.88234
0.896002
0.906216
0.912764
0.915517
0.91429
0.908704
0.898095
0.881495
0.857713
0.825484
0.783674
0.731483
0.668562
0.59501
0.51124
0.417766
0.314967
0.202899
0.0811611
-0.0511506
-0.19541
-0.353356
-0.526928
-0.718062
-0.928508
-1.15972
-1.41284
-1.68884
-1.98866
-2.31347
-2.66481
-3.0447
-3.45576
-3.90119
-4.38476
-4.91069
-5.48353
-6.10801
-6.78891
-7.53091
-8.33863
-9.21667
-10.1697
-11.2026
-12.3205
-13.5284
-14.8315
-16.2343
-17.7406
-19.3525
-21.0697
-22.8889
-24.8023
-26.7978
-28.8575
-30.9587
-33.0745
-35.1749
1.76374
1.66146
1.56005
1.46117
1.36625
1.27645
1.1926
1.11521
1.04455
0.980714
0.923632
0.87316
0.829103
0.791243
0.759362
0.733255
0.712733
0.697631
0.687799
0.683101
0.683399
0.688537
0.698317
0.712467
0.730601
0.75218
0.776476
0.802547
0.829253
0.855322
0.879481
0.900636
0.918051
0.931442
0.940925
0.946811
0.949323
0.948333
0.943184
0.932646
0.915024
0.888428
0.851152
0.80207
0.740891
0.668169
0.585034
0.492796
0.392535
0.284795
0.16939
0.045345
-0.089052
-0.236078
-0.398299
-0.578212
-0.777893
-0.998767
-1.24161
-1.50674
-1.79442
-2.10515
-2.43995
-2.80058
-3.18956
-3.61026
-4.06682
-4.56398
-5.10694
-5.70106
-6.35161
-7.06361
-7.84184
-8.69102
-9.61613
-10.6226
-11.7165
-12.9044
-14.1936
-15.5912
-17.104
-18.7376
-20.495
-22.3756
-24.374
-26.4779
-28.668
-30.917
-33.191
-35.4514
1.76808
1.65595
1.54497
1.43735
1.33492
1.23902
1.15051
1.06979
0.996978
0.93194
0.87442
0.824088
0.780597
0.74361
0.712822
0.687973
0.668849
0.655287
0.647167
0.644409
0.646958
0.654762
0.667743
0.685755
0.708529
0.735594
0.766208
0.799289
0.83339
0.866771
0.897596
0.924274
0.945848
0.962248
0.974219
0.982914
0.989348
0.993898
0.995981
0.99394
0.9852
0.966694
0.935576
0.890017
0.829788
0.756267
0.671884
0.579324
0.48082
0.377674
0.270007
0.156692
0.0354375
-0.0969731
-0.244245
-0.409946
-0.596807
-0.806234
-1.0383
-1.29223
-1.56704
-1.86219
-2.17796
-2.51565
-2.87771
-3.26775
-3.69042
-4.15134
-4.65669
-5.21286
-5.82584
-6.50095
-7.24286
-8.05604
-8.94537
-9.91664
-10.9769
-12.1346
-13.3995
-14.7821
-16.2936
-17.9443
-19.7426
-21.6929
-23.7935
-26.034
-28.3934
-30.8392
-33.3271
-35.8048
1.7741
1.64873
1.525
1.40601
1.29414
1.19092
1.09714
1.01296
0.938163
0.872302
0.814817
0.765129
0.72269
0.687016
0.6577
0.634417
0.616927
0.605075
0.598784
0.598047
0.602921
0.6135
0.629891
0.652157
0.680243
0.713862
0.752353
0.794525
0.838527
0.88186
0.921642
0.95522
0.98105
0.999385
1.01218
1.02223
1.03204
1.04297
1.05466
1.06483
1.06938
1.06307
1.04074
0.999032
0.93777
0.859955
0.770457
0.674361
0.57574
0.477013
0.378703
0.279418
0.175939
0.0634807
-0.0637053
-0.211258
-0.383271
-0.581143
-0.803567
-1.04767
-1.3104
-1.58959
-1.88442
-2.19565
-2.52562
-2.87826
-3.259
-3.67472
-4.13331
-4.64286
-5.21062
-5.84212
-6.54127
-7.31141
-8.1566
-9.08251
-10.0971
-11.2106
-12.4357
-13.7876
-15.2827
-16.9384
-18.7713
-20.7938
-23.0114
-25.4185
-27.9945
-30.7005
-33.4779
-36.2523
1.78259
1.63908
1.49816
1.36439
1.24086
1.12922
1.02991
0.942576
0.86645
0.800569
0.743953
0.695696
0.65501
0.621239
0.593861
0.572489
0.556859
0.54683
0.542375
0.54358
0.550639
0.563841
0.58355
0.610149
0.643958
0.68508
0.733165
0.787088
0.844588
0.902025
0.954579
0.99728
1.027
1.04445
1.05406
1.06183
1.07307
1.09089
1.1155
1.14376
1.16916
1.18245
1.17374
1.13616
1.06953
0.980409
0.878478
0.772985
0.670771
0.575707
0.488758
0.408136
0.329317
0.245092
0.146112
0.0226044
-0.132547
-0.320742
-0.537661
-0.776318
-1.03012
-1.29448
-1.56728
-1.84869
-2.14094
-2.44831
-2.77723
-3.13641
-3.53656
-3.98906
-4.50363
-5.08587
-5.73744
-6.45873
-7.25156
-8.12074
-9.0747
-10.1257
-11.2896
-12.5866
-14.0403
-15.6776
-17.5267
-19.6136
-21.9563
-24.5598
-27.4085
-30.4588
-33.6328
-36.8202
1.79488
1.62563
1.46098
1.30793
1.17042
1.04974
0.945397
0.85604
0.779961
0.715465
0.661021
0.615334
0.577346
0.546226
0.521348
0.502266
0.488703
0.480534
0.47779
0.480658
0.489485
0.504789
0.527259
0.557729
0.597114
0.646242
0.705539
0.774466
0.850701
0.929184
1.00166
1.05798
1.09059
1.10075
1.09853
1.09641
1.10457
1.12899
1.17102
1.22676
1.28632
1.33346
1.34824
1.31504
1.23363
1.11925
0.991564
0.866828
0.75546
0.662675
0.589663
0.534211
0.490432
0.447898
0.391196
0.301982
0.165707
-0.0190307
-0.240501
-0.483215
-0.734656
-0.987257
-1.23778
-1.48613
-1.73452
-1.98737
-2.25191
-2.53915
-2.86443
-3.24592
-3.69921
-4.2298
-4.83323
-5.50305
-6.23657
-7.03686
-7.91265
-8.87797
-9.95204
-11.1599
-12.5334
-14.1116
-15.9398
-18.0647
-20.5258
-23.348
-26.532
-30.0388
-33.7682
-37.5504
1.81335
1.60548
1.407
1.229
1.07568
0.946632
0.839272
0.750354
0.676774
0.615865
0.56546
0.523861
0.489766
0.462202
0.440465
0.424076
0.412755
0.406403
0.405104
0.409132
0.418981
0.435397
0.459424
0.492449
0.536212
0.592734
0.664013
0.75129
0.853539
0.964952
1.07196
1.15279
1.18645
1.17484
1.14278
1.11612
1.11257
1.14171
1.20672
1.30422
1.4213
1.53102
1.59178
1.56327
1.44515
1.27715
1.10033
0.941339
0.813326
0.721121
0.66524
0.643433
0.649708
0.671051
0.68304
0.649065
0.533686
0.335518
0.0871932
-0.177608
-0.437591
-0.683072
-0.911449
-1.12354
-1.32168
-1.50963
-1.69394
-1.88713
-2.11138
-2.39941
-2.78353
-3.26886
-3.83346
-4.45567
-5.12547
-5.84425
-6.62169
-7.47365
-8.42173
-9.49474
-10.7317
-12.1856
-13.9257
-16.0316
-18.5754
-21.6149
-25.1909
-29.298
-33.8276
-38.5127
1.8426
1.57174
1.32348
1.11446
0.945873
0.812211
0.70651
0.622528
0.555306
0.501111
0.457196
0.421561
0.392763
0.369769
0.351861
0.33857
0.329633
0.324979
0.324727
0.329206
0.339003
0.355024
0.378612
0.411682
0.456917
0.517951
0.599423
0.706521
0.843142
1.00702
1.17992
1.31545
1.34744
1.2783
1.17924
1.10251
1.07342
1.10271
1.19559
1.35341
1.56683
1.79898
1.96379
1.94042
1.72844
1.44771
1.18335
0.971156
0.819549
0.727194
0.691697
0.712165
0.787233
0.907616
1.041
1.1133
1.02081
0.762227
0.438566
0.121009
-0.161479
-0.403578
-0.608624
-0.78105
-0.923579
-1.03713
-1.12324
-1.1904
-1.26656
-1.41456
-1.72217
-2.1938
-2.75073
-3.33979
-3.94389
-4.56718
-5.22345
-5.93091
-6.71151
-7.59348
-8.61749
-9.84757
-11.385
-13.3678
-15.9112
-19.1091
-23.0851
-27.9486
-33.6627
-39.8317
1.89228
1.5054
1.18345
0.941767
0.765849
0.637556
0.542477
0.470554
0.415063
0.371537
0.33699
0.3094
0.287384
0.269995
0.256595
0.246779
0.24033
0.237202
0.237521
0.24161
0.250044
0.263742
0.284128
0.31338
0.354851
0.413714
0.497906
0.619208
0.793459
1.03604
1.34165
1.62713
1.654
1.42479
1.1835
1.02029
0.950183
0.972086
1.09091
1.32247
1.6853
2.16385
2.60667
2.58911
2.11061
1.59467
1.19124
0.913709
0.740419
0.651354
0.637522
0.702227
0.85945
1.12539
1.48687
1.81474
1.74701
1.28258
0.781118
0.369125
0.0564633
-0.177463
-0.352795
-0.481641
-0.567225
-0.6042
-0.579863
-0.480758
-0.318335
-0.199933
-0.424671
-0.995973
-1.62175
-2.20225
-2.73465
-3.24262
-3.75148
-4.28284
-4.85531
-5.48768
-6.20656
-7.06695
-8.20278
-9.89656
-12.3047
-15.4826
-19.701
-25.3742
-32.8429
-41.7495
1.98438
1.34554
0.927798
0.674218
0.517141
0.415013
0.345063
0.294899
0.257574
0.22902
0.206754
0.1892
0.175331
0.164465
0.156157
0.150128
0.146235
0.144452
0.144876
0.147746
0.153493
0.16282
0.176864
0.19747
0.227726
0.272988
0.342926
0.455623
0.645341
0.974257
1.53232
2.31116
2.32926
1.58862
1.07529
0.803908
0.694405
0.70185
0.823835
1.10243
1.63705
2.58006
3.91243
3.90144
2.54659
1.57954
1.01775
0.706081
0.539954
0.46714
0.470216
0.559018
0.775064
1.20551
1.98105
3.08575
3.04439
1.85618
0.994756
0.474124
0.160968
-0.0357607
-0.163934
-0.244556
-0.280891
-0.259584
-0.144192
0.137659
0.69322
1.50876
1.37183
0.280244
-0.558008
-1.13403
-1.56062
-1.91678
-2.24714
-2.57559
-2.91284
-3.25732
-3.59185
-3.88973
-4.21715
-5.3966
-7.58988
-10.3577
-14.2221
-20.2141
-29.9522
-44.7836
2.17064
0.867118
0.435717
0.267731
0.189302
0.146118
0.119141
0.100746
0.0874427
0.0774393
0.0697246
0.0636884
0.0589454
0.055246
0.0524289
0.050395
0.0490934
0.0485165
0.0487005
0.0497343
0.0517782
0.0550999
0.0601418
0.0676553
0.0789836
0.0967155
0.12636
0.181107
0.296748
0.582454
1.40503
4.09058
4.09699
1.42503
0.618656
0.354398
0.270191
0.266645
0.331206
0.513662
1.00066
2.43549
7.1525
7.14874
2.42402
0.980811
0.484026
0.288847
0.205087
0.173617
0.179438
0.232544
0.3819
0.78863
2.00116
6.00699
5.99306
1.95912
0.71762
0.280329
0.0977927
0.00719931
-0.043567
-0.071259
-0.0775811
-0.0504728
0.0517439
0.361886
1.33034
4.5889
4.5429
1.19159
0.128105
-0.281009
-0.488046
-0.628085
-0.745541
-0.855696
-0.959946
-1.04128
-1.02994
-0.669978
0.995372
0.563221
-2.04767
-3.65381
-5.6792
-9.65978
-19.7272
-50.0929
-36.6307
-38.7066
-40.6812
-42.5327
-44.2439
-45.8028
-47.2019
-48.4376
-49.5094
-50.419
-51.1692
-51.7637
-52.206
-52.499
-52.6449
-36.7059
-38.8077
-40.8042
-42.6727
-44.396
-45.9625
-47.3651
-48.6013
-49.6715
-50.5781
-51.3248
-51.9158
-52.355
-52.6458
-52.7906
-36.8591
-39.0142
-41.055
-42.9577
-44.7049
-46.2856
-47.6946
-48.9309
-49.9969
-50.8968
-51.6358
-52.2193
-52.6522
-52.9384
-53.0808
-37.0966
-39.3346
-41.4438
-43.3981
-45.18
-46.7804
-48.1965
-49.4306
-50.4881
-51.3761
-52.1021
-52.6733
-53.0958
-53.3747
-53.5133
-37.4285
-39.7835
-41.9873
-44.0106
-45.8366
-47.4591
-48.8801
-50.1066
-51.1487
-52.0173
-52.7231
-53.2757
-53.6829
-53.951
-54.084
-37.8707
-40.3837
-42.711
-44.8202
-46.6964
-48.3393
-49.7579
-50.9669
-51.9825
-52.821
-53.4971
-54.0231
-54.409
-54.6622
-54.7876
-38.448
-41.1695
-43.6528
-45.8625
-47.7894
-49.4434
-50.8454
-52.0203
-52.9932
-53.787
-54.4208
-54.9103
-55.2675
-55.501
-55.6163
-39.1984
-42.1931
-44.8681
-47.1874
-49.1551
-50.7995
-52.1596
-53.2754
-54.1829
-54.9126
-55.4887
-55.9297
-56.2494
-56.4576
-56.5601
-40.1829
-43.5363
-46.439
-48.8638
-50.8438
-52.4398
-53.7181
-54.7385
-55.5503
-56.1917
-56.6913
-57.0701
-57.3428
-57.5194
-57.6063
-41.5034
-45.3302
-48.4875
-50.9848
-52.9162
-54.3976
-55.5342
-56.4102
-57.088
-57.6124
-58.0146
-58.3163
-58.5319
-58.6709
-58.7391
-43.3418
-47.7933
-51.1958
-53.6715
-55.4384
-56.6998
-57.6108
-58.2798
-58.7789
-59.1549
-59.4383
-59.6482
-59.7972
-59.8929
-59.9397
-46.0534
-51.3052
-54.8305
-57.0668
-58.4656
-59.3518
-59.9292
-60.3192
-60.5926
-60.7901
-60.935
-61.0409
-61.1157
-61.1635
-61.187
-50.4166
-56.5433
-59.7542
-61.2995
-62.0056
-62.3121
-62.4344
-62.475
-62.4821
-62.4775
-62.4705
-62.4646
-62.4606
-62.4583
-62.4573
-58.4104
-64.697
-66.3429
-66.3711
-65.9453
-65.4563
-65.0208
-64.6641
-64.3832
-64.1672
-64.0048
-63.8861
-63.8036
-63.7515
-63.7264
-76.0189
-77.4911
-74.5489
-71.8966
-69.9479
-68.5466
-67.5279
-66.7772
-66.219
-65.8031
-65.495
-65.2713
-65.1158
-65.0176
-64.97
3.56371
3.55686
3.54324
3.52303
3.49655
3.46446
3.42793
3.38907
3.35171
3.32289
3.31579
3.35684
3.50628
3.93683
5.30283
3.66225
3.65531
3.64146
3.6208
3.59353
3.5601
3.5214
3.47918
3.43683
3.40097
3.38447
3.41223
3.53154
3.82231
4.33566
3.76551
3.75845
3.74431
3.72306
3.6947
3.65933
3.61726
3.5693
3.51734
3.46549
3.42225
3.40396
3.43768
3.55311
3.72627
3.87357
3.8664
3.85199
3.83017
3.80066
3.76314
3.71713
3.66212
3.59767
3.52389
3.4426
3.35952
3.28701
3.24368
3.23848
3.98649
3.97928
3.96472
3.9425
3.91212
3.87276
3.82318
3.76141
3.68436
3.58738
3.4641
3.30767
3.11599
2.9077
2.74841
4.10429
4.09714
4.08265
4.06041
4.02972
3.98942
3.93763
3.8712
3.78474
3.66898
3.50858
3.28019
2.9564
2.53763
2.14906
4.22694
4.21998
4.20585
4.18409
4.1539
4.11398
4.06218
3.99481
3.90529
3.78142
3.60028
3.31887
2.86265
2.14656
1.28122
4.3543
4.34768
4.33424
4.31352
4.28476
4.24673
4.19748
4.13371
4.0495
3.93345
3.76162
3.47884
2.94924
1.85914
-0.186164
4.48612
4.47999
4.46756
4.44842
4.42195
4.38721
4.34281
4.2867
4.21564
4.12401
4.00001
3.81013
3.42494
2.23504
-3.07248
4.62205
4.61655
4.6054
4.58831
4.56481
4.53432
4.49621
4.44997
4.39586
4.33681
4.28416
4.27695
4.45931
5.47041
10.667
4.76167
4.7569
4.74725
4.73251
4.71241
4.68667
4.65521
4.6186
4.57931
4.54492
4.53675
4.61204
4.91799
5.79909
7.70679
4.90446
4.9005
4.8925
4.88033
4.86384
4.84292
4.81771
4.78899
4.75915
4.73458
4.73135
4.78687
4.97706
5.41474
6.07313
5.04985
5.04675
5.0405
5.03102
5.01823
5.00207
4.9826
4.96006
4.93511
4.90917
4.88512
4.86808
4.86406
4.87701
4.89848
5.19725
5.19504
5.1906
5.18388
5.17486
5.16345
5.14954
5.13269
5.11155
5.08219
5.03401
4.94011
4.7391
4.33328
3.74056
5.34603
5.34472
5.34212
5.33822
5.33303
5.3265
5.31846
5.30818
5.29346
5.26801
5.21464
5.08641
4.75616
3.9193
2.17289
5.49555
5.49515
5.4944
5.49333
5.49201
5.49052
5.48885
5.48663
5.48256
5.47293
5.44728
5.37288
5.12481
4.13691
-0.605679
5.64517
5.64567
5.64674
5.64846
5.651
5.6546
5.65955
5.66623
5.67529
5.68866
5.71378
5.77983
6.007
6.9619
11.6733
5.79427
5.79564
5.79845
5.80287
5.80914
5.81765
5.82898
5.84405
5.86474
5.89592
5.95183
6.07477
6.3836
7.1781
8.8771
5.94224
5.94443
5.9489
5.95585
5.96561
5.97867
5.99573
6.01783
6.04665
6.08568
6.14333
6.24048
6.42266
6.76605
7.26303
6.08852
6.09146
6.09744
6.10672
6.11966
6.13682
6.15892
6.1868
6.22119
6.26216
6.30737
6.347
6.34953
6.24721
5.99634
6.23257
6.23618
6.24353
6.25488
6.27066
6.29145
6.31801
6.3511
6.39089
6.43536
6.47528
6.47912
6.34894
5.83145
4.55771
6.37392
6.37813
6.38667
6.39982
6.41804
6.44198
6.4725
6.51059
6.55704
6.61135
6.66825
6.70415
6.61704
5.94078
2.23686
6.51216
6.51687
6.52641
6.54107
6.56132
6.58784
6.62164
6.66414
6.71743
6.78518
6.87582
7.01444
7.294
8.15257
11.9748
6.64694
6.65206
6.66242
6.67828
6.7001
6.72855
6.76466
6.81003
6.86745
6.94273
7.05007
7.2267
7.56857
8.30615
9.74094
6.77796
6.7834
6.7944
6.81119
6.83414
6.86385
6.90116
6.94739
7.00474
7.07761
7.17619
7.32405
7.56801
7.97542
8.5061
6.90499
6.91069
6.92217
6.93963
6.96336
6.99377
7.0314
7.07689
7.13091
7.19424
7.26809
7.35451
7.45363
7.55896
7.6424
7.02785
7.03374
7.0456
7.06355
7.08779
7.11857
7.15608
7.20029
7.25029
7.30316
7.35124
7.37598
7.33463
7.15758
6.83929
7.1464
7.15245
7.16459
7.18292
7.20754
7.23858
7.27604
7.31949
7.36733
7.415
7.45062
7.44317
7.30953
6.85418
5.8178
7.26053
7.2667
7.27909
7.29772
7.32269
7.35404
7.39174
7.43548
7.48414
7.53477
7.57992
7.59782
7.50753
6.95418
4.0793
7.37014
7.37643
7.38903
7.40795
7.43325
7.46497
7.50317
7.54789
7.59921
7.65791
7.72815
7.82743
8.02676
8.66626
11.5872
7.47516
7.48155
7.49435
7.51356
7.53919
7.5713
7.60999
7.65554
7.70879
7.77259
7.85622
7.98739
8.23998
8.79383
9.88632
7.5755
7.58201
7.59502
7.61451
7.64049
7.67295
7.71195
7.75766
7.81067
7.87304
7.95129
8.06285
8.24365
8.54721
8.94698
7.67109
7.67772
7.69095
7.71077
7.73712
7.76995
7.80916
7.85454
7.90567
7.962
8.02324
8.09005
8.1617
8.23363
8.28819
7.76185
7.7686
7.78209
7.80228
7.82909
7.86241
7.902
7.94724
7.99669
8.04709
8.09131
8.11372
8.07919
7.93199
7.67022
7.84767
7.85457
7.86836
7.88898
7.91638
7.95042
7.99081
8.03683
8.08667
8.13601
8.17455
8.17671
8.07458
7.70981
6.87342
7.92846
7.93552
7.94964
7.97078
7.99889
8.0339
8.07561
8.12358
8.17661
8.23194
8.28308
8.31195
8.252
7.81504
5.49878
8.00409
8.01133
8.02582
8.04753
8.07645
8.1126
8.15598
8.20662
8.26455
8.33031
8.40709
8.50867
8.69086
9.22524
11.5942
8.07444
8.08187
8.09675
8.11906
8.14883
8.18616
8.23121
8.2844
8.34664
8.42053
8.51388
8.64923
8.88476
9.36131
10.2622
8.13937
8.147
8.16227
8.18519
8.2158
8.25423
8.30071
8.35572
8.42025
8.49673
8.59152
8.72001
8.9109
9.20251
9.5591
8.19875
8.20658
8.22224
8.24576
8.27717
8.31658
8.36418
8.42023
8.48515
8.5597
8.64578
8.74728
8.8667
8.99844
9.10677
8.25243
8.26046
8.27652
8.30062
8.33281
8.37314
8.42168
8.4784
8.54294
8.61416
8.68933
8.7619
8.81357
8.81048
8.73287
8.30028
8.30851
8.32497
8.34966
8.38262
8.42387
8.47339
8.53094
8.59568
8.66536
8.73471
8.79082
8.79806
8.67415
8.30827
8.34216
8.35059
8.36744
8.39274
8.4265
8.46874
8.51942
8.5783
8.64456
8.71629
8.78932
8.85348
8.87322
8.70575
7.6328
8.37792
8.38655
8.40381
8.42972
8.46432
8.50762
8.55966
8.62032
8.68922
8.76578
8.85011
8.94679
9.078
9.36602
10.5046
8.40743
8.41625
8.43392
8.46045
8.4959
8.54032
8.59381
8.65641
8.72813
8.80934
8.90234
9.01592
9.17349
9.43547
9.88126
8.43053
8.43956
8.45762
8.48477
8.52107
8.56661
8.62153
8.68597
8.76003
8.84417
8.9403
9.05429
9.19605
9.37714
9.57082
8.44711
8.45632
8.47477
8.50251
8.53963
8.58626
8.64255
8.70863
8.78451
8.87012
8.96587
9.07318
9.19088
9.30992
9.3982
8.45701
8.4664
8.48521
8.51351
8.55141
8.59907
8.65667
8.72429
8.80178
8.88851
8.98343
9.08464
9.18436
9.26392
9.29025
8.46013
8.46967
8.4888
8.5176
8.55623
8.60486
8.66372
8.73291
8.81218
8.90068
8.99665
9.09692
9.19142
9.25477
9.20392
8.45634
8.46601
8.48542
8.51465
8.55391
8.60343
8.66349
8.7343
8.81575
8.9071
9.00693
9.11298
9.21969
9.32478
9.47292
8.44557
8.45534
8.47494
8.50452
8.54428
8.59455
8.6557
8.72811
8.81197
8.90709
9.0129
9.12839
9.24866
9.36475
9.46093
8.42773
8.43756
8.45729
8.48708
8.52719
8.57798
8.63998
8.71376
8.79994
8.89912
9.01216
9.14025
9.28011
9.41841
9.51914
8.4028
8.41264
8.43239
8.46224
8.50248
8.55352
8.61597
8.6906
8.77843
8.88095
9.00101
9.14373
9.31222
9.49801
9.65071
8.37076
8.38055
8.40023
8.42997
8.47008
8.52101
8.58339
8.65808
8.74626
8.85005
8.97415
9.12911
9.33188
9.60045
9.89175
8.33165
8.34134
8.36081
8.39026
8.42998
8.48042
8.54217
8.61597
8.7028
8.80449
8.9259
9.08106
9.30541
9.68697
10.3385
8.28554
8.29506
8.31422
8.34318
8.38226
8.43186
8.49247
8.5646
8.64858
8.74467
8.85424
8.98474
9.16935
9.58587
11.2411
8.23253
8.24183
8.26055
8.28885
8.32705
8.37552
8.43468
8.5048
8.5855
8.67495
8.76807
8.85065
8.8718
8.62444
7.06467
8.17278
8.18181
8.19996
8.22743
8.26452
8.31163
8.36919
8.43744
8.51588
8.60211
8.68926
8.75899
8.76029
8.57426
8.04033
8.10649
8.11517
8.13264
8.15909
8.19484
8.24035
8.29617
8.36281
8.44041
8.52809
8.62257
8.71466
8.77844
8.76556
8.64858
8.0339
8.04217
8.05882
8.08406
8.11822
8.16181
8.21554
8.28035
8.35748
8.44878
8.55759
8.68977
8.84939
9.02904
9.17895
7.95529
7.96309
7.97879
8.0026
8.03486
8.07609
8.12711
8.18914
8.26428
8.35676
8.47641
8.64561
8.90601
9.31303
9.81679
7.87099
7.87826
7.89288
7.91505
7.94508
7.98347
8.03093
8.08863
8.15858
8.24532
8.36086
8.53793
8.86037
9.52969
10.8078
7.78138
7.78805
7.80147
7.82181
7.84933
7.88441
7.92756
7.97941
8.04077
8.11333
8.20261
8.32909
8.57342
9.32343
12.6898
7.68686
7.69288
7.70501
7.72336
7.74815
7.77963
7.81805
7.86338
7.91474
7.9692
8.01858
8.03821
7.93487
7.3001
3.99757
7.58789
7.59323
7.60396
7.62021
7.64213
7.66992
7.70365
7.74296
7.78613
7.82804
7.85525
7.83253
7.66495
7.12928
5.93045
7.48495
7.48956
7.49885
7.5129
7.53187
7.55596
7.58529
7.61968
7.65795
7.69656
7.72664
7.72723
7.65026
7.41889
7.03402
7.37854
7.3824
7.39017
7.40195
7.41789
7.43824
7.46332
7.4935
7.5291
7.57048
7.61854
7.67561
7.74238
7.81498
7.87352
7.26918
7.27226
7.27847
7.28788
7.30066
7.31711
7.33772
7.36336
7.39581
7.43921
7.50425
7.61705
7.83004
8.22072
8.75687
7.15743
7.1597
7.16429
7.17125
7.18073
7.19298
7.20852
7.22832
7.25449
7.29239
7.35683
7.48873
7.7939
8.52531
10.0157
7.04383
7.04529
7.04822
7.05266
7.05868
7.06645
7.07628
7.08867
7.10461
7.12661
7.16259
7.23991
7.46135
8.30268
12.3127
6.92896
6.9296
6.93087
6.93276
6.93526
6.93839
6.94216
6.94636
6.95011
6.9506
6.93969
6.89081
6.69794
5.87942
1.87955
6.81339
6.81322
6.81285
6.81221
6.81122
6.80977
6.80764
6.80419
6.79747
6.78201
6.74319
6.64153
6.3686
5.66535
4.18983
6.69769
6.69674
6.69478
6.6917
6.68734
6.68151
6.67396
6.66411
6.65047
6.62914
6.59039
6.511
6.33772
5.98749
5.47846
6.5824
6.58072
6.57726
6.57186
6.5643
6.55434
6.54177
6.52648
6.50843
6.48784
6.46587
6.44548
6.42933
6.41981
6.41658
6.46803
6.46568
6.46086
6.45332
6.44277
6.42886
6.4114
6.3906
6.36773
6.34702
6.3403
6.37684
6.51597
6.84765
7.35546
6.35505
6.35212
6.3461
6.33668
6.32339
6.30574
6.28327
6.25597
6.22514
6.19598
6.18472
6.2368
6.46852
7.15307
8.64995
6.24385
6.24046
6.23349
6.2225
6.2069
6.18585
6.15841
6.12362
6.08099
6.03202
5.98519
5.97183
6.10624
6.89425
10.9869
6.13477
6.13107
6.12343
6.11134
6.09401
6.07029
6.03857
5.99656
5.94085
5.8661
5.76246
5.60408
5.28969
4.34042
0.145589
6.02802
6.02418
6.01623
6.00362
5.98541
5.96019
5.9258
5.87882
5.81355
5.71978
5.57779
5.3445
4.91368
4.04037
2.41731
5.9237
5.9199
5.91205
5.89958
5.88151
5.85635
5.82168
5.77363
5.70565
5.60648
5.45657
5.22193
4.84459
4.26092
3.56468
5.82178
5.81822
5.81087
5.79922
5.7824
5.75899
5.72678
5.68212
5.61904
5.52794
5.39425
5.19829
4.91846
4.55955
4.23133
5.7221
5.71894
5.71246
5.70227
5.68769
5.66766
5.64044
5.60322
5.55151
5.4785
5.37522
5.23272
5.04688
4.8368
4.67282
5.62438
5.62175
5.61642
5.60816
5.59662
5.58122
5.56097
5.53424
5.49839
5.44962
5.38346
5.2971
5.19179
5.08194
5.00318
5.52826
5.52623
5.52218
5.51613
5.50809
5.49804
5.48591
5.47141
5.4539
5.43234
5.40576
5.37447
5.3395
5.3054
5.28159
5.43332
5.43189
5.42914
5.42531
5.4208
5.41622
5.41242
5.41051
5.41186
5.4181
5.43135
5.45423
5.48628
5.5216
5.54622
5.33917
5.33825
5.33663
5.33477
5.33341
5.33376
5.33753
5.34719
5.36605
5.39853
5.45028
5.52744
5.63043
5.74513
5.83066
5.24543
5.24489
5.2441
5.24369
5.24471
5.24881
5.25847
5.2773
5.31043
5.36514
5.45159
5.58255
5.7661
5.98881
6.17722
5.15186
5.15149
5.1511
5.15143
5.15372
5.15991
5.17298
5.19731
5.23945
5.30926
5.42202
5.60096
5.87422
6.25619
6.65734
5.05833
5.05791
5.05742
5.05764
5.05987
5.06615
5.07957
5.10479
5.14889
5.2231
5.34653
5.55372
5.90651
6.5101
7.41871
4.96489
4.96416
4.96305
4.96228
4.96307
4.96732
4.97788
4.999
5.03706
5.10233
5.21291
5.40523
5.76426
6.55208
8.8137
-125.481
-93.2654
-81.8048
-76.3164
-73.1151
-71.0283
-69.58
-68.5375
-67.7714
-67.2035
-66.7835
-66.4784
-66.2658
-66.1313
-66.0662
-106.293
-93.1923
-84.2532
-78.7461
-75.2204
-72.8405
-71.1633
-69.9455
-69.045
-68.3738
-67.8751
-67.5112
-67.2568
-67.0955
-67.0172
-96.205
-90.2291
-84.3178
-79.7996
-76.5301
-74.1642
-72.4272
-71.133
-70.1592
-69.4242
-68.8729
-68.4677
-68.183
-68.0017
-67.9136
-90.2704
-87.2207
-83.4146
-79.9858
-77.2123
-75.0508
-73.3832
-72.0979
-71.1074
-70.3468
-69.7691
-69.3404
-69.0371
-68.8432
-68.7486
-86.4569
-84.7375
-82.2489
-79.7167
-77.4694
-75.5941
-74.0733
-72.8578
-71.8958
-71.1424
-70.5616
-70.1259
-69.8151
-69.6153
-69.5176
-83.8406
-82.7882
-81.113
-79.2498
-77.4682
-75.8907
-74.5509
-73.4415
-72.5394
-71.818
-71.2531
-70.8243
-70.5159
-70.3164
-70.2185
-81.9583
-81.2711
-80.1072
-78.726
-77.3253
-76.0216
-74.8682
-73.8811
-73.0572
-72.3849
-71.8499
-71.439
-71.1408
-70.9467
-70.8511
-80.5565
-80.0848
-79.2519
-78.2155
-77.1151
-76.0478
-75.0694
-74.2071
-73.4697
-72.8562
-72.3605
-71.9752
-71.6931
-71.5084
-71.4171
-79.4855
-79.1491
-78.5375
-77.7493
-76.8819
-76.0118
-75.1897
-74.446
-73.7961
-73.2456
-72.7943
-72.4395
-72.1775
-72.005
-71.9194
-78.6514
-78.4043
-77.9453
-77.338
-76.6506
-75.942
-75.2552
-74.6197
-74.0534
-73.5659
-73.1609
-72.8391
-72.5996
-72.441
-72.3621
-77.992
-77.8063
-77.4556
-76.9821
-76.4341
-75.8565
-75.2846
-74.745
-74.256
-73.8287
-73.4696
-73.1814
-72.9653
-72.8215
-72.7497
-77.4648
-77.3228
-77.0508
-76.6777
-76.2383
-75.7665
-75.2911
-74.835
-74.4155
-74.0442
-73.7287
-73.4734
-73.2806
-73.1517
-73.0871
-77.0394
-76.9294
-76.7159
-76.4192
-76.0648
-75.6787
-75.2837
-74.8994
-74.5413
-74.2209
-73.946
-73.7217
-73.5514
-73.4369
-73.3795
-76.6937
-76.6075
-76.4383
-76.2006
-75.9134
-75.5967
-75.2685
-74.9454
-74.641
-74.3659
-74.1279
-73.9324
-73.783
-73.6823
-73.6317
-76.411
-76.343
-76.2079
-76.0163
-75.7825
-75.5221
-75.2494
-74.9781
-74.7201
-74.485
-74.2801
-74.1107
-73.9807
-73.8928
-73.8484
-76.1789
-76.1249
-76.0164
-75.8611
-75.6701
-75.4556
-75.2289
-75.0014
-74.7833
-74.5831
-74.4074
-74.2615
-74.149
-74.0727
-74.0341
-75.9874
-75.9444
-75.8569
-75.7305
-75.5741
-75.3971
-75.2086
-75.0179
-74.8339
-74.6639
-74.514
-74.3888
-74.292
-74.2261
-74.1927
-75.8289
-75.7947
-75.7238
-75.6208
-75.4923
-75.3461
-75.1893
-75.0297
-74.8747
-74.7307
-74.6032
-74.4962
-74.4133
-74.3566
-74.3279
-75.6975
-75.6702
-75.6128
-75.5285
-75.4229
-75.302
-75.1716
-75.038
-74.9077
-74.786
-74.6778
-74.5868
-74.516
-74.4675
-74.443
-75.5881
-75.5665
-75.5199
-75.451
-75.364
-75.264
-75.1556
-75.0439
-74.9345
-74.8319
-74.7404
-74.6632
-74.6029
-74.5616
-74.5407
-75.497
-75.48
-75.4422
-75.3858
-75.3142
-75.2315
-75.1414
-75.0481
-74.9563
-74.8701
-74.7928
-74.7275
-74.6764
-74.6414
-74.6236
-75.4209
-75.4076
-75.3771
-75.3309