/*--------------------------------*- C++ -*----------------------------------*\
| =========                 |                                                 |
| \\      /  F ield         | OpenFOAM: The Open Source CFD Toolbox           |
|  \\    /   O peration     | Version:  5.x                                   |
|   \\  /    A nd           | Web:      www.OpenFOAM.org                      |
|    \\/     M anipulation  |                                                 |
\*---------------------------------------------------------------------------*/
FoamFile
{
    version     2.0;
    format      ascii;
    class       volScalarField;
    location    "20";
    object      T;
}
// * * * * * * * * * * * * * * * * * * * * * * * * * * * * * * * * * * * * * //

dimensions      [0 0 0 1 0 0 0];

internalField   nonuniform List<scalar> 
6300
(
10.0132
10.0396
10.0659
10.092
10.1178
10.1432
10.1682
10.1927
10.2165
10.2397
10.2622
10.2839
10.3047
10.3245
10.3435
10.0133
10.0397
10.0661
10.0922
10.1181
10.1436
10.1687
10.1932
10.2172
10.2405
10.263
10.2847
10.3056
10.3255
10.3444
10.0133
10.04
10.0665
10.0928
10.1188
10.1445
10.1697
10.1944
10.2185
10.2419
10.2646
10.2864
10.3074
10.3274
10.3464
10.0135
10.0403
10.0671
10.0936
10.1199
10.1458
10.1713
10.1962
10.2205
10.2441
10.267
10.289
10.3101
10.3302
10.3493
10.0136
10.0408
10.0679
10.0948
10.1213
10.1476
10.1733
10.1986
10.2232
10.2471
10.2702
10.2925
10.3138
10.3341
10.3533
10.0138
10.0414
10.0689
10.0961
10.1231
10.1498
10.1759
10.2016
10.2266
10.2509
10.2744
10.2969
10.3185
10.339
10.3584
10.0141
10.0421
10.0701
10.0978
10.1253
10.1524
10.1791
10.2052
10.2307
10.2554
10.2794
10.3024
10.3243
10.3451
10.3647
10.0143
10.043
10.0715
10.0998
10.1278
10.1555
10.1827
10.2094
10.2355
10.2608
10.2853
10.3088
10.3312
10.3524
10.3722
10.0146
10.0439
10.0731
10.102
10.1307
10.159
10.1869
10.2143
10.241
10.267
10.2922
10.3163
10.3394
10.3611
10.3813
10.015
10.045
10.0748
10.1045
10.1339
10.163
10.1916
10.2197
10.2472
10.2741
10.3
10.325
10.3488
10.3712
10.3919
10.0154
10.0461
10.0768
10.1072
10.1374
10.1673
10.1968
10.2258
10.2542
10.2819
10.3089
10.3349
10.3597
10.383
10.4045
10.0158
10.0474
10.0789
10.1103
10.1413
10.1721
10.2025
10.2324
10.2618
10.2906
10.3187
10.3459
10.372
10.3967
10.4193
10.0163
10.0488
10.0812
10.1135
10.1455
10.1772
10.2086
10.2395
10.27
10.2999
10.3293
10.358
10.3858
10.4124
10.4369
10.0168
10.0503
10.0837
10.117
10.15
10.1827
10.2151
10.2471
10.2787
10.3098
10.3406
10.3709
10.4009
10.4302
10.4581
10.0173
10.0519
10.0864
10.1207
10.1548
10.1886
10.222
10.2551
10.2878
10.3201
10.3522
10.3842
10.4165
10.4495
10.4834
10.3599
10.3742
10.3878
10.4008
10.413
10.4246
10.4356
10.4461
10.4559
10.4653
10.4741
10.4826
10.4906
10.4983
10.5057
10.5129
10.5198
10.5265
10.5331
10.5396
10.546
10.5524
10.5588
10.5652
10.5717
10.5782
10.5848
10.5915
10.5983
10.6052
10.6121
10.6192
10.6263
10.6334
10.6405
10.6477
10.6547
10.6617
10.6685
10.6751
10.6815
10.6876
10.6932
10.6985
10.7031
10.7072
10.7106
10.7132
10.715
10.7158
10.7155
10.714
10.7113
10.7071
10.7014
10.694
10.6847
10.6735
10.66
10.6441
10.6256
10.6043
10.5799
10.5521
10.5207
10.4854
10.4458
10.4015
10.3523
10.2975
10.2369
10.1698
10.0959
10.0144
9.92496
9.82681
9.71937
9.60198
9.47397
9.33465
9.18337
9.01946
8.8423
8.65129
8.44594
8.2258
7.99054
7.73997
7.474
7.1927
10.3609
10.3752
10.3888
10.4017
10.4139
10.4255
10.4365
10.4468
10.4566
10.4659
10.4747
10.4831
10.4911
10.4988
10.5061
10.5132
10.52
10.5267
10.5332
10.5397
10.5461
10.5524
10.5588
10.5651
10.5716
10.5781
10.5847
10.5913
10.5981
10.605
10.612
10.6191
10.6262
10.6334
10.6405
10.6477
10.6548
10.6619
10.6688
10.6755
10.6819
10.6881
10.6938
10.6992
10.704
10.7082
10.7117
10.7145
10.7163
10.7173
10.7171
10.7158
10.7132
10.7093
10.7038
10.6966
10.6876
10.6766
10.6634
10.6478
10.6297
10.6087
10.5847
10.5573
10.5264
10.4915
10.4524
10.4087
10.3601
10.306
10.2461
10.1798
10.1066
10.026
9.93739
9.84016
9.73366
9.61723
9.49019
9.35185
9.20152
9.03851
8.86218
8.67192
8.46719
8.24752
8.01257
7.76211
7.49604
7.21443
10.3629
10.3772
10.3907
10.4036
10.4158
10.4273
10.4381
10.4484
10.4581
10.4673
10.476
10.4842
10.4921
10.4996
10.5068
10.5138
10.5205
10.5271
10.5335
10.5398
10.5461
10.5524
10.5586
10.565
10.5713
10.5778
10.5843
10.591
10.5978
10.6047
10.6117
10.6188
10.626
10.6333
10.6405
10.6478
10.6551
10.6622
10.6693
10.6761
10.6828
10.6891
10.6951
10.7006
10.7057
10.7101
10.7139
10.7169
10.719
10.7202
10.7204
10.7194
10.7172
10.7136
10.7086
10.7018
10.6933
10.6828
10.6702
10.6552
10.6377
10.6174
10.5942
10.5676
10.5376
10.5037
10.4656
10.4231
10.3756
10.3229
10.2643
10.1995
10.128
10.049
9.96221
9.86681
9.76221
9.64773
9.52266
9.38628
9.23787
9.07671
8.9021
8.71336
8.50991
8.29123
8.05691
7.80668
7.54043
7.25821
10.3658
10.3801
10.3937
10.4064
10.4185
10.4299
10.4406
10.4508
10.4603
10.4693
10.4778
10.4858
10.4935
10.5008
10.5079
10.5146
10.5212
10.5276
10.5339
10.54
10.5462
10.5523
10.5584
10.5647
10.5709
10.5773
10.5838
10.5905
10.5973
10.6042
10.6113
10.6185
10.6258
10.6331
10.6405
10.648
10.6554
10.6627
10.67
10.6771
10.684
10.6906
10.6969
10.7028
10.7082
10.713
10.7171
10.7205
10.7231
10.7247
10.7253
10.7248
10.7231
10.7201
10.7157
10.7096
10.7018
10.6921
10.6803
10.6663
10.6497
10.6305
10.6083
10.583
10.5543
10.5218
10.4853
10.4444
10.3988
10.348
10.2916
10.229
10.1599
10.0835
9.99929
9.90667
9.80495
9.69342
9.57136
9.438
9.29256
9.13425
8.9623
8.77595
8.57453
8.35741
8.12411
7.87429
7.60779
7.32463
10.3699
10.3841
10.3976
10.4103
10.4223
10.4335
10.444
10.4539
10.4632
10.472
10.4802
10.488
10.4954
10.5025
10.5093
10.5158
10.5221
10.5283
10.5343
10.5403
10.5462
10.5522
10.5581
10.5642
10.5704
10.5767
10.5831
10.5897
10.5965
10.6035
10.6106
10.6179
10.6253
10.6329
10.6405
10.6481
10.6557
10.6633
10.6709
10.6783
10.6855
10.6926
10.6993
10.7056
10.7115
10.7168
10.7214
10.7253
10.7284
10.7306
10.7318
10.7319
10.7309
10.7286
10.725
10.7199
10.713
10.7044
10.6937
10.6808
10.6656
10.6477
10.627
10.6033
10.5763
10.5457
10.5112
10.4726
10.4294
10.3812
10.3276
10.2681
10.2021
10.1291
10.0485
9.9596
9.86177
9.75426
9.63629
9.50707
9.36572
9.21139
9.04318
8.86023
8.6617
8.44686
8.21507
7.9659
7.69909
7.41466
10.375
10.3893
10.4027
10.4153
10.4271
10.4381
10.4483
10.4579
10.4669
10.4753
10.4833
10.4907
10.4978
10.5046
10.511
10.5172
10.5232
10.5291
10.5349
10.5406
10.5462
10.5519
10.5577
10.5636
10.5696
10.5758
10.5821
10.5887
10.5955
10.6025
10.6098
10.6172
10.6248
10.6325
10.6403
10.6482
10.6561
10.664
10.6719
10.6797
10.6874
10.695
10.7022
10.7091
10.7156
10.7215
10.7267
10.7312
10.7349
10.7378
10.7397
10.7406
10.7405
10.7391
10.7365
10.7325
10.7269
10.7195
10.7102
10.6988
10.6851
10.6689
10.65
10.6283
10.6034
10.5751
10.5432
10.5073
10.4671
10.4222
10.3721
10.3163
10.2544
10.1856
10.1095
10.0254
9.93248
9.8301
9.71741
9.59354
9.45756
9.30847
9.14526
8.96689
8.77234
8.56066
8.33104
8.08286
7.81575
7.52967
10.3814
10.3957
10.409
10.4214
10.4329
10.4436
10.4536
10.4628
10.4714
10.4794
10.487
10.494
10.5007
10.507
10.5131
10.5189
10.5245
10.5301
10.5355
10.5408
10.5462
10.5516
10.5571
10.5628
10.5686
10.5746
10.5808
10.5873
10.5941
10.6012
10.6086
10.6162
10.624
10.6319
10.64
10.6482
10.6564
10.6647
10.673
10.6813
10.6895
10.6977
10.7056
10.7133
10.7205
10.7271
10.7331
10.7383
10.7427
10.7463
10.749
10.7508
10.7516
10.7514
10.75
10.7473
10.7432
10.7374
10.7298
10.7201
10.7082
10.694
10.6772
10.6577
10.6353
10.6097
10.5808
10.5482
10.5116
10.4706
10.4247
10.3735
10.3164
10.2528
10.1821
10.1037
10.0168
9.92074
9.81459
9.69742
9.56822
9.42586
9.26915
9.09682
8.9076
8.70026
8.4737
8.22703
7.95971
7.67158
10.3891
10.4033
10.4166
10.4288
10.44
10.4503
10.4598
10.4686
10.4767
10.4843
10.4913
10.4978
10.504
10.5099
10.5155
10.5208
10.526
10.5311
10.5361
10.5411
10.5461
10.5511
10.5563
10.5616
10.5672
10.573
10.5791
10.5855
10.5923
10.5995
10.607
10.6149
10.6229
10.6312
10.6396
10.6481
10.6566
10.6653
10.674
10.6829
10.6918
10.7007
10.7095
10.718
10.7261
10.7337
10.7405
10.7465
10.7517
10.7561
10.7597
10.7624
10.7643
10.7653
10.7654
10.7643
10.7619
10.7579
10.7522
10.7445
10.7347
10.7227
10.7082
10.6912
10.6716
10.6492
10.6236
10.5948
10.5624
10.5259
10.485
10.4391
10.3877
10.3301
10.2658
10.1941
10.1144
10.0259
9.92758
9.81859
9.69778
9.56388
9.41548
9.25103
9.06891
8.8675
8.64527
8.40093
8.1336
7.84296
10.3983
10.4125
10.4256
10.4375
10.4483
10.4582
10.4671
10.4753
10.4829
10.4898
10.4962
10.5022
10.5078
10.5131
10.5181
10.523
10.5277
10.5323
10.5368
10.5413
10.5459
10.5505
10.5553
10.5602
10.5654
10.571
10.5768
10.5832
10.59
10.5972
10.605
10.6132
10.6216
10.6303
10.639
10.6478
10.6567
10.6657
10.6749
10.6843
10.694
10.7038
10.7137
10.7234
10.7326
10.7412
10.749
10.7558
10.7618
10.767
10.7714
10.7752
10.7782
10.7806
10.7823
10.7831
10.7827
10.7809
10.7773
10.7719
10.7644
10.7547
10.7428
10.7286
10.712
10.6929
10.6712
10.6467
10.6189
10.5877
10.5525
10.5126
10.4677
10.417
10.3601
10.2962
10.2247
10.1449
10.0559
9.95676
9.84617
9.72275
9.58487
9.43064
9.25798
9.0647
8.84865
8.6079
8.34101
8.04735
10.4092
10.4234
10.4363
10.4478
10.4581
10.4673
10.4755
10.483
10.4898
10.496
10.5017
10.507
10.512
10.5167
10.5211
10.5254
10.5295
10.5335
10.5375
10.5415
10.5455
10.5496
10.5539
10.5584
10.5632
10.5684
10.574
10.5801
10.5869
10.5943
10.6024
10.611
10.62
10.6292
10.6383
10.6475
10.6566
10.6659
10.6754
10.6854
10.6959
10.7068
10.7181
10.7293
10.74
10.7499
10.7587
10.7664
10.7731
10.779
10.7842
10.7888
10.7931
10.797
10.8005
10.8035
10.8056
10.8063
10.8053
10.8023
10.7972
10.79
10.7807
10.7694
10.756
10.7405
10.7229
10.703
10.6805
10.6552
10.6264
10.5936
10.5559
10.513
10.4642
10.4091
10.3469
10.2772
10.199
10.1113
10.013
9.90242
9.77778
9.63676
9.4767
9.29466
9.08757
8.85246
8.58692
8.28966
10.4221
10.4363
10.4488
10.4598
10.4693
10.4777
10.4851
10.4917
10.4976
10.503
10.5079
10.5124
10.5166
10.5205
10.5243
10.5279
10.5314
10.5348
10.5381
10.5415
10.545
10.5485
10.5522
10.5562
10.5604
10.5651
10.5703
10.5762
10.5828
10.5904
10.5989
10.6083
10.6181
10.628
10.6377
10.6471
10.6563
10.6656
10.6753
10.6857
10.6971
10.7094
10.7226
10.7359
10.7486
10.76
10.7699
10.7784
10.7856
10.7919
10.7976
10.803
10.8084
10.8138
10.8195
10.8252
10.8304
10.8341
10.8359
10.8356
10.833
10.8283
10.8216
10.8131
10.8029
10.7911
10.7777
10.7628
10.7463
10.7276
10.7063
10.6812
10.6518
10.6174
10.5775
10.5319
10.4801
10.4216
10.3556
10.2812
10.1973
10.1023
9.99423
9.87025
9.72703
9.56066
9.36679
9.14081
8.87849
8.57702
10.4375
10.4517
10.4637
10.4737
10.4822
10.4895
10.4958
10.5013
10.5062
10.5105
10.5145
10.5182
10.5215
10.5247
10.5277
10.5306
10.5333
10.5361
10.5388
10.5415
10.5442
10.5471
10.5502
10.5534
10.557
10.561
10.5657
10.571
10.5774
10.5851
10.5942
10.6048
10.6161
10.6272
10.6374
10.6469
10.6558
10.6648
10.6742
10.6847
10.6968
10.7108
10.7267
10.7435
10.7591
10.7723
10.7832
10.7921
10.7994
10.8057
10.8115
10.8172
10.8234
10.8304
10.8385
10.8477
10.8571
10.8647
10.8698
10.872
10.8718
10.8693
10.8651
10.8592
10.852
10.8438
10.8348
10.8251
10.8149
10.804
10.7913
10.7753
10.7548
10.7294
10.6991
10.6637
10.623
10.5766
10.5241
10.4648
10.3976
10.3212
10.2335
10.1314
10.0107
9.86622
9.69218
9.48147
9.22637
8.92042
10.4562
10.4702
10.4813
10.4899
10.4969
10.5027
10.5076
10.5118
10.5154
10.5187
10.5216
10.5243
10.5268
10.5291
10.5313
10.5334
10.5354
10.5374
10.5393
10.5413
10.5434
10.5455
10.5478
10.5502
10.553
10.5561
10.5599
10.5644
10.5702
10.5777
10.5875
10.6
10.6146
10.6276
10.6383
10.6473
10.6553
10.6631
10.6715
10.6813
10.6936
10.7094
10.7296
10.7529
10.7728
10.788
10.7994
10.8079
10.8146
10.8202
10.8255
10.8309
10.8372
10.8452
10.8559
10.87
10.8862
10.8991
10.9075
10.9121
10.9137
10.913
10.9107
10.9072
10.9027
10.8977
10.8926
10.888
10.8846
10.8827
10.8813
10.8757
10.8647
10.8486
10.828
10.8031
10.7739
10.7405
10.7026
10.6596
10.6111
10.5562
10.4933
10.4195
10.3284
10.2144
10.0703
9.88602
9.64742
9.33864
10.4797
10.4931
10.5022
10.5086
10.5134
10.5172
10.5203
10.523
10.5252
10.5273
10.5291
10.5307
10.5322
10.5336
10.535
10.5362
10.5375
10.5387
10.5399
10.5411
10.5423
10.5436
10.545
10.5466
10.5483
10.5504
10.5529
10.5561
10.5605
10.5668
10.5767
10.5924
10.6152
10.6312
10.6417
10.6491
10.6551
10.6607
10.6668
10.6744
10.6852
10.7017
10.7282
10.7669
10.7932
10.8094
10.8195
10.8263
10.8313
10.8353
10.8391
10.8432
10.8484
10.8561
10.8685
10.8891
10.9199
10.9398
10.9509
10.9564
10.9588
10.9591
10.9582
10.9564
10.9541
10.9517
10.9498
10.9493
10.9521
10.9608
10.9772
10.9837
10.9819
10.9744
10.963
10.9484
10.931
10.9109
10.8881
10.8624
10.8338
10.8025
10.769
10.7322
10.679
10.6057
10.5064
10.3687
10.1695
9.86951
10.5124
10.5222
10.5269
10.5295
10.5313
10.5327
10.5337
10.5347
10.5354
10.5361
10.5367
10.5373
10.5378
10.5383
10.5387
10.5391
10.5395
10.5399
10.5403
10.5408
10.5412
10.5416
10.5421
10.5426
10.5432
10.5439
10.5448
10.546
10.5479
10.551
10.5576
10.5744
10.6257
10.6427
10.6495
10.653
10.6554
10.6575
10.6598
10.663
10.6684
10.6797
10.709
10.7989
10.8281
10.8393
10.8445
10.8474
10.8493
10.8508
10.8522
10.8538
10.8561
10.8602
10.8692
10.8935
10.9693
10.9934
11.002
11.0054
11.0067
11.007
11.0068
11.0063
11.0056
11.005
11.0047
11.0058
11.0108
11.028
11.0873
11.1037
11.1071
11.1058
11.1024
11.0977
11.092
11.0853
11.0777
11.0693
11.0603
11.0521
11.0492
11.0687
11.0586
11.0346
10.9977
10.9399
10.8367
10.6111
6.86663
6.48973
6.0925
5.6761
5.24185
4.79122
4.32579
3.84718
3.35704
2.85699
2.34866
1.83361
1.31339
0.789491
0.263406
6.88781
6.51001
6.11166
5.69393
5.2582
4.80601
4.33895
3.8587
3.36693
2.86527
2.35536
1.83878
1.31705
0.791678
0.264133
6.93044
6.55082
6.15016
5.72972
5.291
4.83562
4.36529
3.88173
3.38667
2.8818
2.36874
1.84908
1.32435
0.796035
0.265582
6.99509
6.61265
6.2084
5.78378
5.34044
4.88018
4.40483
3.91625
3.41622
2.90649
2.3887
1.86444
1.33523
0.802526
0.267739
7.08266
6.69627
6.28699
5.85652
5.40678
4.93979
4.4576
3.96219
3.45547
2.93922
2.41512
1.88475
1.34961
0.811095
0.270586
7.19442
6.80274
6.38675
5.94852
5.49034
5.01459
4.52356
4.01943
3.50422
2.97978
2.4478
1.90984
1.36734
0.821658
0.274094
7.3321
6.93348
6.50871
6.06043
5.59146
5.10464
4.6026
4.08773
3.56219
3.02787
2.48645
1.93945
1.38824
0.834101
0.278225
7.49804
7.09035
6.65417
6.19299
5.71042
5.20989
4.69443
4.1667
3.62893
3.08304
2.53067
1.97326
1.41208
0.848275
0.282928
7.69533
7.27569
6.82461
6.34691
5.84733
5.33004
4.79853
4.25568
3.70376
3.14467
2.57993
2.01084
1.43853
0.863987
0.288139
7.92823
7.49245
7.02162
6.5227
6.00193
5.46437
4.91397
4.35369
3.78577
3.21193
2.63352
2.05164
1.4672
0.881002
0.29378
8.20257
7.74422
7.2467
6.72031
6.17327
5.61154
5.03927
4.45933
3.87368
3.28375
2.69058
2.09498
1.49762
0.899038
0.299757
8.52671
8.03515
7.50061
6.93854
6.35927
5.76922
5.17224
4.57064
3.96585
3.35879
2.75005
2.14009
1.52923
0.917775
0.305964
8.91289
8.36901
7.78203
7.17393
6.55604
5.93381
5.3098
4.68513
4.06029
3.43548
2.81074
2.18607
1.56145
0.936861
0.312286
9.37847
8.74594
8.08453
7.41908
6.75711
6.10017
5.44798
4.79976
4.1547
3.51209
2.87135
2.232
1.59363
0.955927
0.318601
9.94086
9.1517
8.39104
7.66072
6.95311
6.26176
5.58217
4.91121
4.24663
3.58682
2.93057
2.27692
1.62514
0.974609
0.324792
10.0178
10.0534
10.089
10.1243
10.1594
10.1942
10.2287
10.2628
10.2965
10.3298
10.363
10.3962
10.4301
10.4663
10.5088
10.0183
10.0549
10.0914
10.1278
10.1638
10.1996
10.235
10.2701
10.3046
10.3388
10.3726
10.4065
10.4409
10.4771
10.5173
10.0188
10.0565
10.094
10.1314
10.1685
10.2053
10.2417
10.2776
10.313
10.3479
10.3823
10.4164
10.4504
10.4851
10.5215
10.0194
10.0581
10.0967
10.1351
10.1733
10.2111
10.2486
10.2855
10.3218
10.3574
10.3923
10.4263
10.4595
10.492
10.5244
10.0199
10.0598
10.0995
10.1391
10.1784
10.2173
10.2558
10.2938
10.3311
10.3675
10.4028
10.4368
10.469
10.4991
10.5271
10.0205
10.0616
10.1025
10.1432
10.1837
10.2238
10.2635
10.3026
10.3409
10.3783
10.4143
10.4484
10.4799
10.5075
10.5306
10.0211
10.0634
10.1055
10.1475
10.1892
10.2306
10.2715
10.3118
10.3514
10.3899
10.427
10.4619
10.4934
10.5192
10.5363
10.0218
10.0653
10.1087
10.152
10.195
10.2377
10.2799
10.3216
10.3626
10.4026
10.4413
10.4779
10.5109
10.5368
10.548
10.0224
10.0673
10.112
10.1566
10.201
10.2451
10.2888
10.3319
10.3745
10.4162
10.457
10.4962
10.5332
10.5647
10.5779
10.0231
10.0693
10.1154
10.1614
10.2072
10.2527
10.2979
10.3427
10.3869
10.4306
10.4736
10.5163
10.5592
10.6054
10.6686
10.0238
10.0714
10.119
10.1664
10.2136
10.2606
10.3073
10.3537
10.3997
10.4453
10.4906
10.536
10.5828
10.6344
10.6988
10.0245
10.0736
10.1225
10.1714
10.2201
10.2687
10.317
10.365
10.4128
10.4602
10.5075
10.5549
10.6032
10.6544
10.7115
10.0253
10.0757
10.1262
10.1766
10.2268
10.2769
10.3269
10.3766
10.4261
10.4753
10.5242
10.573
10.6216
10.6703
10.7191
10.026
10.078
10.1299
10.1818
10.2336
10.2853
10.3368
10.3883
10.4395
10.4905
10.5411
10.5912
10.6399
10.6859
10.7266
10.0267
10.0802
10.1336
10.187
10.2404
10.2937
10.3469
10.4001
10.4531
10.5059
10.5584
10.6102
10.6602
10.7053
10.7386
10.0275
10.0824
10.1374
10.1923
10.2472
10.3022
10.3571
10.4119
10.4668
10.5216
10.5762
10.6305
10.6837
10.733
10.7664
10.0282
10.0847
10.1411
10.1976
10.2541
10.3106
10.3672
10.4238
10.4805
10.5373
10.5943
10.6516
10.7099
10.7717
10.8491
10.029
10.0869
10.1449
10.2029
10.2609
10.3191
10.3773
10.4356
10.4942
10.5529
10.6121
10.672
10.7336
10.7997
10.8771
10.0297
10.0891
10.1486
10.2081
10.2677
10.3274
10.3873
10.4473
10.5076
10.5683
10.6294
10.6911
10.7542
10.8196
10.8895
10.0304
10.0913
10.1523
10.2133
10.2744
10.3357
10.3971
10.4589
10.5209
10.5833
10.6461
10.7094
10.7731
10.8364
10.898
10.0312
10.0935
10.1559
10.2184
10.281
10.3438
10.4068
10.4701
10.5338
10.598
10.6625
10.7275
10.7921
10.8544
10.9087
10.0319
10.0956
10.1594
10.2233
10.2874
10.3517
10.4163
10.4812
10.5465
10.6123
10.6787
10.7457
10.8128
10.878
10.9316
10.0326
10.0977
10.1629
10.2282
10.2937
10.3594
10.4255
10.4919
10.5588
10.6262
10.6945
10.7637
10.8347
10.9096
10.9978
10.0332
10.0997
10.1663
10.233
10.2998
10.367
10.4344
10.5023
10.5706
10.6396
10.7095
10.7806
10.854
10.932
11.0201
10.0339
10.1017
10.1696
10.2376
10.3058
10.3742
10.4431
10.5123
10.582
10.6524
10.7236
10.7959
10.87
10.9472
11.0295
10.0345
10.1036
10.1727
10.242
10.3115
10.3813
10.4514
10.5219
10.5929
10.6645
10.7368
10.8099
10.8839
10.959
11.0351
10.0351
10.1054
10.1758
10.2463
10.3171
10.3881
10.4594
10.5312
10.6035
10.6762
10.7495
10.8232
10.897
10.9699
11.0402
10.0357
10.1072
10.1788
10.2505
10.3224
10.3946
10.4672
10.5402
10.6136
10.6875
10.7619
10.8365
10.9108
10.9827
11.0478
10.0363
10.1089
10.1816
10.2545
10.3276
10.401
10.4747
10.5488
10.6234
10.6985
10.7741
10.8501
10.926
11.0002
11.0651
10.0368
10.1106
10.1844
10.2583
10.3325
10.407
10.4818
10.5571
10.6328
10.7091
10.7859
10.8636
10.9425
11.0242
11.1158
10.0374
10.1121
10.187
10.262
10.3373
10.4128
10.4887
10.565
10.6418
10.7192
10.7973
10.8763
10.957
11.0411
11.1329
10.0379
10.1136
10.1895
10.2655
10.3418
10.4184
10.4953
10.5726
10.6504
10.7288
10.8079
10.8878
10.9691
11.0527
11.1401
10.0383
10.1151
10.1919
10.2689
10.3461
10.4236
10.5015
10.5798
10.6586
10.7379
10.8178
10.8984
10.9796
11.0616
11.1443
10.0388
10.1164
10.1942
10.2721
10.3502
10.4287
10.5075
10.5867
10.6664
10.7466
10.8274
10.9085
10.9896
11.07
11.1483
10.0392
10.1177
10.1963
10.2751
10.3541
10.4334
10.5131
10.5932
10.6738
10.755
10.8366
10.9185
11.0001
11.08
11.1543
10.0396
10.1189
10.1983
10.2779
10.3578
10.4379
10.5184
10.5994
10.6809
10.763
10.8455
10.9286
11.0118
11.0937
11.1681
10.04
10.1201
10.2002
10.2806
10.3612
10.4421
10.5234
10.6052
10.6876
10.7705
10.8542
10.9387
11.0244
11.1125
11.2089
10.0404
10.1211
10.202
10.2831
10.3644
10.446
10.5281
10.6107
10.6938
10.7776
10.8622
10.9479
11.0352
11.1256
11.2224
10.0407
10.1221
10.2036
10.2853
10.3673
10.4497
10.5324
10.6157
10.6995
10.7841
10.8695
10.9559
11.0439
11.1341
11.2279
10.041
10.123
10.2051
10.2874
10.37
10.453
10.5364
10.6203
10.7048
10.79
10.876
10.9629
11.0509
11.1402
11.2309
10.0413
10.1238
10.2065
10.2893
10.3725
10.456
10.5399
10.6244
10.7095
10.7953
10.8818
10.9691
11.057
11.1453
11.2332
10.0415
10.1245
10.2077
10.291
10.3747
10.4587
10.5431
10.6281
10.7138
10.8
10.8871
10.9747
11.0629
11.1507
11.2364
10.0417
10.1251
10.2087
10.2925
10.3766
10.461
10.5459
10.6314
10.7175
10.8043
10.8918
10.9801
11.0689
11.1576
11.243
10.0419
10.1257
10.2096
10.2938
10.3782
10.463
10.5484
10.6342
10.7208
10.808
10.8961
10.985
11.075
11.1666
11.2623
10.042
10.1261
10.2104
10.2948
10.3796
10.4647
10.5504
10.6366
10.7235
10.8112
10.8997
10.9892
11.08
11.1727
11.2687
10.0421
10.1265
10.2109
10.2956
10.3806
10.466
10.552
10.6385
10.7257
10.8137
10.9026
10.9925
11.0836
11.1764
11.2712
10.0422
10.1267
10.2114
10.2962
10.3814
10.467
10.5531
10.6399
10.7273
10.8155
10.9047
10.9949
11.0862
11.1787
11.2724
10.0423
10.1269
10.2116
10.2966
10.3819
10.4676
10.5539
10.6407
10.7283
10.8168
10.9061
10.9964
11.0878
11.1801
11.2731
10.0423
10.1269
10.2117
10.2967
10.382
10.4678
10.5541
10.6411
10.7288
10.8173
10.9068
10.9973
11.0887
11.1811
11.2738
10.0423
10.1269
10.2116
10.2966
10.3819
10.4676
10.554
10.6409
10.7286
10.8172
10.9068
10.9974
11.089
11.1818
11.2755
10.0422
10.1267
10.2113
10.2962
10.3814
10.4671
10.5533
10.6402
10.7279
10.8164
10.906
10.9967
11.0886
11.1817
11.2759
10.0421
10.1264
10.2109
10.2956
10.3806
10.4661
10.5522
10.6389
10.7265
10.8149
10.9044
10.9952
11.0872
11.1808
11.2756
10.042
10.1261
10.2103
10.2947
10.3795
10.4648
10.5506
10.6371
10.7244
10.8126
10.902
10.9927
11.0849
11.1789
11.2748
10.0418
10.1256
10.2095
10.2936
10.3781
10.463
10.5485
10.6346
10.7216
10.8096
10.8986
10.9891
11.0812
11.1757
11.2732
10.0416
10.125
10.2085
10.2922
10.3763
10.4608
10.5459
10.6316
10.7182
10.8057
10.8943
10.9842
11.0759
11.1703
11.2697
10.0414
10.1243
10.2073
10.2906
10.3742
10.4582
10.5428
10.6281
10.7141
10.801
10.889
10.9781
11.0687
11.1615
11.2604
10.0412
10.1235
10.206
10.2887
10.3718
10.4553
10.5393
10.6239
10.7094
10.7957
10.8829
10.971
11.0599
11.1485
11.2324
10.0409
10.1226
10.2045
10.2866
10.369
10.4519
10.5353
10.6193
10.704
10.7896
10.8761
10.9634
11.0512
11.1386
11.2227
10.0405
10.1216
10.2028
10.2843
10.366
10.4482
10.5308
10.6141
10.6981
10.7829
10.8686
10.9553
11.0429
11.1309
11.2182
10.0402
10.1205
10.201
10.2817
10.3627
10.4441
10.5259
10.6084
10.6915
10.7755
10.8605
10.9467
11.0343
11.1237
11.2149
10.0398
10.1193
10.199
10.2789
10.3591
10.4396
10.5206
10.6022
10.6844
10.7674
10.8515
10.937
11.0244
11.1151
11.2107
10.0393
10.1181
10.1969
10.2759
10.3552
10.4348
10.5149
10.5955
10.6767
10.7586
10.8416
10.9258
11.0123
11.103
11.2029
10.0389
10.1167
10.1947
10.2728
10.3511
10.4297
10.5088
10.5883
10.6684
10.7491
10.8306
10.9132
10.9972
11.0846
11.1837
10.0384
10.1153
10.1923
10.2694
10.3468
10.4244
10.5023
10.5807
10.6596
10.739
10.819
10.8994
10.9798
11.0581
11.1258
10.0379
10.1138
10.1898
10.2659
10.3422
10.4187
10.4956
10.5728
10.6505
10.7285
10.807
10.8856
10.9637
11.0389
11.1063
10.0374
10.1123
10.1872
10.2623
10.3375
10.4129
10.4886
10.5646
10.641
10.7178
10.7949
10.8723
10.9495
11.0253
11.0978
10.0369
10.1107
10.1845
10.2585
10.3326
10.4068
10.4813
10.5561
10.6312
10.7067
10.7826
10.8591
10.9361
11.0139
11.0924
10.0363
10.109
10.1818
10.2546
10.3275
10.4006
10.4739
10.5474
10.6212
10.6953
10.7699
10.8454
10.9223
11.002
11.0867
10.0358
10.1074
10.179
10.2507
10.3224
10.3943
10.4663
10.5384
10.6108
10.6835
10.7567
10.8307
10.9065
10.9865
11.077
10.0352
10.1057
10.1761
10.2466
10.3172
10.3878
10.4585
10.5293
10.6003
10.6714
10.7428
10.8147
10.8876
10.9639
11.0537
10.0346
10.1039
10.1732
10.2426
10.3119
10.3813
10.4507
10.5201
10.5896
10.6591
10.7286
10.7979
10.8664
10.9319
10.984
10.0341
10.1022
10.1703
10.2385
10.3066
10.3747
10.4428
10.5108
10.5789
10.6468
10.7145
10.7816
10.8473
10.909
10.9606
10.0335
10.1005
10.1674
10.2344
10.3013
10.3681
10.4349
10.5016
10.5682
10.6346
10.7008
10.7664
10.831
10.8932
10.9507
10.0329
10.0987
10.1645
10.2303
10.296
10.3616
10.4271
10.4924
10.5576
10.6226
10.6873
10.7519
10.8162
10.8805
10.9446
10.0323
10.097
10.1617
10.2262
10.2907
10.3551
10.4193
10.4833
10.5471
10.6107
10.6741
10.7375
10.8016
10.8678
10.9385
10.0318
10.0953
10.1588
10.2222
10.2856
10.3487
10.4117
10.4744
10.5368
10.5989
10.6607
10.7226
10.7854
10.8519
10.9285
10.0312
10.0937
10.156
10.2183
10.2805
10.3425
10.4042
10.4656
10.5267
10.5872
10.6473
10.707
10.7667
10.8291
10.9046
10.0307
10.092
10.1533
10.2145
10.2755
10.3364
10.3969
10.4571
10.5169
10.576
10.6342
10.6912
10.7463
10.797
10.8331
10.0301
10.0904
10.1506
10.2107
10.2707
10.3304
10.3899
10.449
10.5075
10.5652
10.6219
10.6768
10.7288
10.7751
10.8096
10.0296
10.0889
10.148
10.2071
10.266
10.3247
10.3831
10.4412
10.4986
10.5553
10.6107
10.6644
10.7152
10.7613
10.8004
10.0291
10.0873
10.1455
10.2035
10.2615
10.3192
10.3766
10.4337
10.4903
10.5461
10.6008
10.654
10.7048
10.7524
10.796
10.0286
10.0858
10.143
10.2001
10.257
10.3138
10.3704
10.4266
10.4825
10.5377
10.592
10.6452
10.6967
10.7461
10.7934
10.0281
10.0844
10.1406
10.1967
10.2527
10.3086
10.3643
10.4198
10.475
10.5298
10.584
10.6375
10.69
10.7413
10.7916
10.0276
10.0829
10.1382
10.1934
10.2485
10.3035
10.3585
10.4132
10.4679
10.5223
10.5765
10.6304
10.684
10.7372
10.7901
10.0272
10.0815
10.1358
10.1901
10.2443
10.2985
10.3526
10.4067
10.4608
10.515
10.5692
10.6236
10.6783
10.7333
10.7887
10.0267
10.0801
10.1335
10.1868
10.2402
10.2935
10.3468
10.4002
10.4538
10.5076
10.5617
10.6166
10.6723
10.7292
10.7872
10.0262
10.0787
10.1311
10.1836
10.236
10.2885
10.341
10.3936
10.4465
10.4998
10.5538
10.6089
10.6655
10.7242
10.7853
10.0258
10.0773
10.1288
10.1803
10.2318
10.2834
10.335
10.3868
10.439
10.4916
10.5451
10.6001
10.6572
10.7175
10.7823
10.0253
10.0759
10.1265
10.177
10.2276
10.2782
10.3289
10.3798
10.431
10.4828
10.5355
10.5897
10.6466
10.7079
10.7768
10.0248
10.0745
10.1241
10.1737
10.2234
10.273
10.3227
10.3726
10.4227
10.4733
10.5247
10.5776
10.6328
10.6928
10.7639
10.5095
9.49748
8.64416
7.86139
7.11783
6.39909
5.69726
5.00749
4.32651
3.65206
2.98244
2.31639
1.65288
0.991073
0.330251
10.6891
9.70163
8.82524
8.01657
7.25032
6.51216
5.79351
5.08889
4.3946
3.70799
3.02712
2.35049
1.6769
1.00535
0.334989
10.7639
9.82862
8.95927
8.14226
7.36328
6.61166
5.87999
5.16311
4.45733
3.75993
3.06885
2.38247
1.69949
1.01881
0.339459
10.8013
9.90982
9.05692
8.24153
7.45721
6.69728
5.95619
5.22962
4.51423
3.80747
3.1073
2.41209
1.72049
1.03135
0.343626
10.8233
9.96417
9.12851
8.31919
7.53418
6.7698
6.02229
5.28833
4.56514
3.85042
3.14229
2.43919
1.73977
1.04288
0.347467
10.8375
10.0022
9.18178
8.37995
7.59679
6.83058
6.07898
5.33956
4.61015
3.88878
3.17379
2.46372
1.7573
1.0534
0.350971
10.8475
10.0299
9.22212
8.42771
7.6476
6.88121
6.12717
5.38384
4.64955
3.9227
3.20185
2.4857
1.77307
1.06289
0.354137
10.8549
10.0506
9.25317
8.46553
7.68887
6.92322
6.16791
5.42184
4.68377
3.95244
3.22664
2.50523
1.78714
1.07137
0.356972
10.8604
10.0664
9.27743
8.49569
7.72245
6.95805
6.20221
5.45426
4.71329
3.97833
3.24838
2.52245
1.79959
1.0789
0.359491
10.8647
10.0788
9.29662
8.51992
7.74986
6.98691
6.23103
5.48181
4.73863
4.00074
3.26731
2.53752
1.81053
1.08553
0.361712
10.8681
10.0886
9.31196
8.53953
7.77232
7.01084
6.25519
5.50515
4.76029
4.02003
3.28372
2.55064
1.82009
1.09133
0.363659
10.8708
10.0965
9.32433
8.55547
7.79077
7.03071
6.27544
5.52488
4.77874
4.03657
3.29786
2.562
1.82839
1.09639
0.365355
10.873
10.1028
9.33436
8.56851
7.80598
7.04721
6.2924
5.54154
4.79442
4.05071
3.31
2.57179
1.83556
1.10076
0.366825
10.8747
10.108
9.34256
8.57922
7.81855
7.06095
6.30661
5.55558
4.80771
4.06276
3.32039
2.5802
1.84174
1.10454
0.368095
10.8761
10.1122
9.34929
8.58804
7.82896
7.07239
6.31852
5.5674
4.81896
4.073
3.32926
2.5874
1.84704
1.10778
0.369186
10.8773
10.1157
9.35483
8.59534
7.83761
7.08193
6.32849
5.57735
4.82847
4.08169
3.33681
2.59354
1.85158
1.11056
0.370122
10.8783
10.1185
9.35941
8.60138
7.8448
7.0899
6.33686
5.58573
4.8365
4.08905
3.34322
2.59877
1.85544
1.11293
0.370922
10.8791
10.1209
9.36321
8.60641
7.85079
7.09656
6.34387
5.59278
4.84328
4.09528
3.34866
2.60322
1.85874
1.11496
0.371604
10.8798
10.1228
9.36636
8.61059
7.85579
7.10214
6.34975
5.59871
4.84899
4.10055
3.35327
2.607
1.86153
1.11668
0.372184
10.8803
10.1245
9.36899
8.61408
7.85997
7.1068
6.35469
5.60369
4.85381
4.105
3.35717
2.61019
1.86391
1.11814
0.372677
10.8808
10.1258
9.37118
8.617
7.86347
7.11072
6.35884
5.60789
4.85787
4.10876
3.36047
2.6129
1.86592
1.11938
0.373095
10.8812
10.127
9.37301
8.61944
7.8664
7.114
6.36232
5.61142
4.8613
4.11193
3.36326
2.6152
1.86763
1.12043
0.37345
10.8815
10.1279
9.37455
8.62148
7.86885
7.11675
6.36525
5.61439
4.86419
4.11461
3.36562
2.61714
1.86907
1.12132
0.373751
10.8818
10.1287
9.37584
8.6232
7.87092
7.11907
6.36772
5.6169
4.86662
4.11688
3.36761
2.61878
1.87029
1.12207
0.374005
10.882
10.1294
9.37692
8.62464
7.87265
7.12102
6.3698
5.61902
4.86868
4.11879
3.3693
2.62017
1.87133
1.12271
0.374221
10.8822
10.13
9.37783
8.62585
7.87412
7.12267
6.37156
5.6208
4.87042
4.12041
3.37073
2.62134
1.87221
1.12325
0.374404
10.8823
10.1304
9.3786
8.62688
7.87536
7.12406
6.37304
5.62232
4.8719
4.12178
3.37194
2.62234
1.87295
1.12371
0.374559
10.8825
10.1308
9.37925
8.62775
7.87641
7.12525
6.3743
5.6236
4.87315
4.12294
3.37297
2.62319
1.87358
1.1241
0.374691
10.8826
10.1312
9.37981
8.6285
7.87731
7.12626
6.37538
5.6247
4.87422
4.12394
3.37385
2.62392
1.87412
1.12443
0.374804
10.8827
10.1315
9.38029
8.62914
7.87808
7.12713
6.37631
5.62564
4.87514
4.12479
3.3746
2.62454
1.87459
1.12472
0.3749
10.8828
10.1317
9.3807
8.6297
7.87875
7.12788
6.37711
5.62646
4.87593
4.12553
3.37525
2.62508
1.87499
1.12497
0.374984
10.8829
10.132
9.38107
8.63019
7.87934
7.12854
6.37781
5.62717
4.87663
4.12618
3.37582
2.62554
1.87533
1.12518
0.375056
10.8829
10.1322
9.3814
8.63063
7.87986
7.12913
6.37844
5.6278
4.87724
4.12674
3.37632
2.62595
1.87564
1.12537
0.37512
10.883
10.1324
9.38171
8.63103
7.88035
7.12967
6.379
5.62838
4.87779
4.12725
3.37676
2.62632
1.87591
1.12553
0.375176
10.8831
10.1325
9.382
8.63141
7.8808
7.13017
6.37953
5.6289
4.8783
4.12772
3.37717
2.62665
1.87615
1.12568
0.375226
10.8831
10.1327
9.38229
8.63179
7.88124
7.13065
6.38003
5.6294
4.87877
4.12815
3.37754
2.62695