/*--------------------------------*- C++ -*----------------------------------*\
| =========                 |                                                 |
| \\      /  F ield         | OpenFOAM: The Open Source CFD Toolbox           |
|  \\    /   O peration     | Version:  5.x                                   |
|   \\  /    A nd           | Web:      www.OpenFOAM.org                      |
|    \\/     M anipulation  |                                                 |
\*---------------------------------------------------------------------------*/
FoamFile
{
    version     2.0;
    format      ascii;
    class       volScalarField;
    location    "17.2";
    object      gradTx;
}
// * * * * * * * * * * * * * * * * * * * * * * * * * * * * * * * * * * * * * //

dimensions      [0 -1 0 1 0 0 0];

internalField   nonuniform List<scalar> 
6300
(
7.83056
7.80683
7.75938
7.68825
7.59352
7.47535
7.33401
7.16993
6.98378
6.77655
6.54963
6.30488
6.04472
5.7721
5.49053
7.85399
7.83024
7.78275
7.71154
7.61667
7.49823
7.35646
7.19171
7.00458
6.79597
6.56719
6.32005
6.05693
5.78083
5.49534
7.90085
7.87709
7.82954
7.7582
7.66306
7.54416
7.40159
7.23559
7.04659
6.8353
6.60286
6.35095
6.0819
5.79874
5.50528
7.97117
7.9474
7.89981
7.82835
7.73292
7.61345
7.46987
7.3022
7.1106
6.8955
6.65774
6.39875
6.1207
5.82672
5.52089
8.06496
8.04121
7.99365
7.92215
7.82653
7.70656
7.56195
7.39244
7.19783
6.97809
6.7336
6.46534
6.17522
5.86634
5.5432
8.18218
8.15852
8.1111
8.03975
7.94418
7.82399
7.67864
7.50751
7.3099
7.08517
6.83297
6.55354
6.24824
5.92
5.57379
8.32274
8.29925
8.25217
8.18127
8.08615
7.96626
7.82081
7.64876
7.4488
7.21945
6.95929
6.66737
6.34394
5.9914
5.61515
8.48646
8.46326
8.41675
8.34667
8.25257
8.13379
7.98929
7.81762
7.6168
7.38427
7.11711
6.81244
6.46852
6.08628
5.67126
8.67304
8.65025
8.60457
8.53575
8.44337
8.32671
8.18463
8.01534
7.81619
7.58344
7.31214
6.9965
6.63114
6.21368
5.74863
8.88207
8.8598
8.81519
8.74807
8.65812
8.54474
8.40685
8.24259
8.0489
7.82087
7.55121
7.22998
6.84558
6.38844
5.85854
9.11303
9.09134
9.04797
8.98288
8.89598
8.78695
8.65511
8.49897
8.31561
8.09961
7.84155
7.52634
7.13249
6.63568
6.02182
9.36531
9.34422
9.30212
9.23917
9.15561
9.05164
8.92733
8.78222
8.61462
8.42007
8.18873
7.90102
7.52209
6.99972
6.28034
9.63833
9.61775
9.57675
9.51573
9.43529
9.33631
9.21998
9.08763
8.94022
8.77697
8.59196
8.36661
8.05487
7.5605
6.72846
9.93156
9.91131
9.87105
9.81134
9.73313
9.63798
9.5283
9.40772
9.28129
9.15528
9.0352
8.91828
8.76998
8.45868
7.61105
10.2447
10.2245
10.1844
10.1251
10.0475
9.95378
9.84714
9.73327
9.62155
9.5273
9.47496
9.50098
9.64773
9.89283
9.67844
5.22802
4.98832
4.75025
4.51624
4.28861
4.06948
3.86072
3.66394
3.48044
3.31127
3.15718
3.0187
2.89614
2.78964
2.69918
2.6246
2.56565
2.52193
2.49299
2.47825
2.47703
2.48851
2.51176
2.5457
2.58911
2.64063
2.69874
2.76186
2.82831
2.89641
2.9645
3.031
3.09445
3.15348
3.20681
3.25323
3.29153
3.32047
3.33877
3.34513
3.33826
3.31699
3.2803
3.22743
3.15786
3.07131
2.9677
2.84696
2.70901
2.55353
2.37998
2.18747
1.97483
1.74061
1.48319
1.20086
0.891877
0.554549
0.187195
-0.211883
-0.644497
-1.11267
-1.61876
-2.16552
-2.75618
-3.39444
-4.0844
-4.83058
-5.63769
-6.51062
-7.45424
-8.47334
-9.57253
-10.7562
-12.0283
-13.3925
-14.852
-16.4089
-18.0649
-19.8201
-21.6731
-23.6205
-25.6567
-27.7734
-29.9595
-32.2011
-34.4816
-36.7822
-39.0821
-41.3601
5.22901
4.98576
4.7442
4.50688
4.27621
4.05438
3.84332
3.64465
3.45968
3.28941
3.13457
2.99564
2.8729
2.76643
2.67619
2.60201
2.54359
2.50056
2.47245
2.45869
2.45862
2.47145
2.49625
2.53196
2.57734
2.63101
2.69143
2.75694
2.82582
2.89629
2.96665
3.03528
3.10069
3.16154
3.21663
3.26479
3.30486
3.33564
3.35582
3.36402
3.35885
3.33903
3.30346
3.25132
3.18214
3.09575
2.99219
2.87162
2.73408
2.57941
2.40712
2.21632
2.00576
1.77388
1.51894
1.2391
0.932577
0.597668
0.232768
-0.163697
-0.593385
-1.05817
-1.56027
-2.10239
-2.68772
-3.32002
-4.00352
-4.74286
-5.54295
-6.40884
-7.34554
-8.358
-9.45091
-10.6287
-11.8956
-13.2554
-14.7114
-16.2663
-17.922
-19.6791
-21.5369
-23.4925
-25.5406
-27.6732
-29.8794
-32.1448
-34.4525
-36.7826
-39.1135
-41.4224
5.23112
4.98059
4.73187
4.48776
4.25089
4.02361
3.80792
3.60549
3.4176
3.24519
3.08891
2.94915
2.82609
2.71975
2.62999
2.5566
2.49926
2.45759
2.43113
2.41933
2.42155
2.43706
2.46495
2.50418
2.55353
2.61156
2.67667
2.74708
2.8209
2.89623
2.97118
3.04406
3.11335
3.17779
3.23628
3.28784
3.33144
3.36594
3.38997
3.402
3.4004
3.38362
3.35032
3.2996
3.23105
3.14473
3.04105
2.92056
2.78368
2.63054
2.46078
2.27349
2.06725
1.84024
1.5904
1.31565
1.01403
0.68386
0.323688
-0.0677747
-0.491832
-0.950012
-1.44426
-1.97709
-2.5517
-3.17194
-3.84228
-4.56771
-5.35351
-6.20509
-7.12779
-8.12679
-9.20698
-10.373
-11.6292
-12.9796
-14.4282
-15.9784
-17.6327
-19.3931
-21.2598
-23.231
-25.3025
-27.467
-29.7135
-32.0275
-34.3907
-36.7816
-39.1761
-41.5488
5.23453
4.97261
4.71271
4.45805
4.2116
3.97597
3.75329
3.54525
3.35308
3.17761
3.01934
2.8785
2.75511
2.64905
2.56011
2.48797
2.43227
2.39263
2.36859
2.35966
2.36526
2.38472
2.41721
2.46174
2.5171
2.58181
2.65416
2.73218
2.81371
2.89656
2.97858
3.05787
3.13287
3.20245
3.26578
3.3222
3.371
3.41115
3.44124
3.45945
3.46368
3.45182
3.42211
3.37341
3.3054
3.21857
3.11398
2.99293
2.85654
2.70545
2.53953
2.3578
2.15852
1.93934
1.69762
1.43074
1.13648
0.813135
0.459553
0.0749798
-0.341242
-0.790009
-1.27276
-1.79173
-2.35003
-2.95175
-3.60178
-4.30567
-5.06938
-5.89893
-6.80019
-7.77866
-8.83946
-9.98734
-11.2269
-12.5625
-13.9988
-15.5402
-17.1908
-18.9539
-20.8319
-22.8249
-24.9304
-27.1423
-29.4502
-31.839
-34.2887
-36.775
-39.2698
-41.7432
5.23959
4.96154
4.68582
4.41633
4.15658
3.90951
3.67744
3.46203
3.26439
3.08514
2.92455
2.78258
2.65905
2.55362
2.46592
2.39554
2.34207
2.3051
2.2842
2.27897
2.28892
2.31351
2.35203
2.40361
2.46709
2.54096
2.62338
2.71209
2.80453
2.89797
2.98979
3.07771
3.16008
3.23597
3.30509
3.36742
3.42285
3.4707
3.50949
3.5369
3.54996
3.54558
3.52108
3.47486
3.4067
3.31783
3.21046
3.08722
2.95044
2.80158
2.64088
2.46725
2.27832
2.07078
1.8409
1.58515
1.3007
0.985829
0.639934
0.263204
-0.143887
-0.581156
-1.04921
-1.54978
-2.08593
-2.66206
-3.28376
-3.95755
-4.69046
-5.48954
-6.3614
-7.312
-8.34653
-9.4697
-10.6861
-12.0004
-13.4181
-14.9447
-16.5865
-18.3493
-20.2382
-22.2566
-24.4048
-26.6791
-29.0701
-31.5624
-34.1339
-36.7557
-39.3941
-42.0117
5.24688
4.94691
4.64978
4.36042
4.08313
3.82132
3.57745
3.35309
3.14909
2.96571
2.80282
2.66003
2.5368
2.43255
2.34669
2.27868
2.22802
2.19431
2.17718
2.17632
2.19142
2.22213
2.26797
2.32826
2.40199
2.48772
2.58343
2.68651
2.79376
2.90161
3.0065
3.10543
3.19648
3.27912
3.35401
3.42245
3.48548
3.54315
3.59398
3.63484
3.66123
3.66815
3.65119
3.60773
3.53769
3.44356
3.32965
3.20088
3.06157
2.91459
2.76074
2.59861
2.42477
2.23424
2.02133
1.78075
1.50859
1.20308
0.864601
0.495038
0.0968227
-0.328071
-0.778907
-1.25668
-1.76433
-2.3068
-2.89078
-3.52435
-4.21631
-4.97535
-5.80927
-6.72448
-7.72595
-8.81781
-10.0041
-11.2896
-12.6802
-14.1834
-15.8078
-17.5628
-19.4579
-21.5012
-23.6976
-26.0474
-28.5439
-31.1717
-33.906
-36.7124
-39.5479
-42.3642
5.25729
4.92798
4.60236
4.28696
3.98723
3.70713
3.4492
3.2147
3.00396
2.81665
2.65203
2.50919
2.38713
2.28491
2.20168
2.13673
2.08949
2.05955
2.04663
2.05059
2.07135
2.10886
2.163
2.23345
2.31953
2.41999
2.53278
2.65483
2.78203
2.90939
3.03166
3.14436
3.24487
3.33328
3.4121
3.48511
3.55566
3.62529
3.6927
3.75344
3.80037
3.82494
3.81931
3.77871
3.70319
3.59762
3.47009
3.32953
3.18361
3.03734
2.89235
2.7467
2.59512
2.42977
2.24149
2.02168
1.76437
1.4677
1.13391
0.768017
0.375843
-0.0377311
-0.469916
-0.920622
-1.39268
-1.89182
-2.42645
-3.00713
-3.6456
-4.35336
-5.14013
-6.01274
-6.97521
-8.02992
-9.17931
-10.4273
-11.7803
-13.2475
-14.8408
-16.5746
-18.4642
-20.525
-22.7694
-25.2044
-27.8282
-30.6273
-33.5742
-36.6268
-39.7291
-42.8155
5.27222
4.90354
4.54001
4.19077
3.86287
3.56086
3.28704
3.04196
2.82498
2.63479
2.4698
2.32833
2.2088
2.10983
2.03025
1.96918
1.92595
1.90018
1.89171
1.90059
1.92708
1.97157
2.03445
2.11603
2.21626
2.33442
2.46867
2.61563
2.76994
2.92436
3.0705
3.20069
3.31056
3.4011
3.47844
3.55114
3.62703
3.71049
3.80086
3.89177
3.97153
4.02506
4.03761
3.99982
3.91178
3.78314
3.62914
3.46574
3.30598
3.15809
3.02476
2.90316
2.78517
2.6582
2.50691
2.31646
2.07671
1.78563
1.44931
1.07873
0.68557
0.279303
-0.134358
-0.553916
-0.982105
-1.4258
-1.89588
-2.40676
-2.97515
-3.61763
-4.3474
-5.17164
-6.09165
-7.10568
-8.21247
-9.41379
-10.7159
-12.1298
-13.6716
-15.3617
-17.224
-19.2841
-21.5665
-24.0894
-26.86
-29.8697
-33.0898
-36.4691
-39.933
-43.3881
5.29399
4.87147
4.45689
4.06368
3.70106
3.37386
3.08337
2.8286
2.60726
2.41655
2.25359
2.11577
2.00078
1.90672
1.83211
1.77585
1.73721
1.71583
1.7117
1.72515
1.75684
1.80769
1.87889
1.97168
2.0871
2.22557
2.38618
2.56571
2.75759
2.95113
3.13218
3.28614
3.40392
3.48782
3.55129
3.61245
3.68733
3.78557
3.90809
4.04599
4.1803
4.28402
4.32824
4.29311
4.17868
4.00501
3.80156
3.59655
3.41113
3.25769
3.14012
3.05427
2.98802
2.92147
2.82856
2.68209
2.46284
2.16855
1.81395
1.42182
1.01406
0.606879
0.209591
-0.17488
-0.549293
-0.921873
-1.30663
-1.72365
-2.19806
-2.75626
-3.41868
-4.19267
-5.0727
-6.04789
-7.10949
-8.25516
-9.49029
-10.828
-12.2888
-13.9007
-15.6986
-17.7232
-20.017
-22.6173
-25.5474
-28.8088
-32.376
-36.1894
-40.149
-44.1168
5.32658
4.82778
4.34282
3.8924
3.48815
3.13386
2.82816
2.567
2.34534
2.15821
2.00111
1.87024
1.76252
1.67554
1.60748
1.55707
1.52354
1.50657
1.50632
1.52339
1.5589
1.61446
1.69218
1.79464
1.92464
2.08476
2.27634
2.49792
2.74271
2.99578
3.23275
3.42357
3.54593
3.60381
3.62732
3.65384
3.71387
3.82552
3.99302
4.20518
4.43294
4.62846
4.73293
4.7004
4.5307
4.26958
3.97606
3.699
3.47007
3.30549
3.20966
3.17698
3.19114
3.22257
3.22718
3.15238
2.95688
2.63817
2.23248
1.78731
1.34162
0.920114
0.534991
0.189581
-0.119214
-0.400498
-0.671014
-0.957944
-1.30041
-1.74489
-2.32934
-3.06103
-3.91678
-4.86568
-5.88545
-6.96769
-8.11697
-9.34878
-10.6885
-12.1718
-13.8468
-15.7745
-18.0258
-20.6703
-23.7574
-27.3072
-31.3074
-35.6989
-40.3526
-45.0572
5.37708
4.76397
4.17886
3.65445
3.20316
2.82381
2.50875
2.24842
2.03364
1.85655
1.71077
1.5913
1.49434
1.41705
1.35737
1.31393
1.28595
1.27318
1.27591
1.29503
1.33204
1.38923
1.46978
1.57787
1.71876
1.89853
2.12322
2.39662
2.71577
3.06352
3.39962
3.65942
3.78067
3.76915
3.69887
3.64683
3.66593
3.78491
4.01346
4.34177
4.73181
5.10385
5.33471
5.30502
5.0142
4.58063
4.12667
3.73198
3.43618
3.25418
3.18813
3.2321
3.36922
3.56212
3.73999
3.79633
3.6282
3.23288
2.70775
2.1534
1.63426
1.18086
0.803124
0.501231
0.271164
0.105288
-0.0118489
-0.112352
-0.255939
-0.532047
-1.02805
-1.75078
-2.62677
-3.58144
-4.57148
-5.58365
-6.62477
-7.7142
-8.88117
-10.1669
-11.631
-13.3595
-15.4685
-18.0858
-21.301
-25.1568
-29.675
-34.8304
-40.4823
-46.3018
5.45907
4.65968
3.92732
3.31107
2.81437
2.42099
2.11038
1.86412
1.66758
1.50972
1.38245
1.27989
1.19779
1.13313
1.08382
1.04849
1.02641
1.01741
1.02187
1.04083
1.07606
1.13033
1.20765
1.3138
1.45681
1.64755
1.89988
2.22933
2.64755
3.1479
3.67624
4.09465
4.20647
4.01894
3.74401
3.53723
3.47397
3.58636
3.89007
4.38926
5.05642
5.7823
6.31149
6.28543
5.70309
4.92085
4.19173
3.6224
3.23826
3.03572
3.00802
3.15291
3.46685
3.92316
4.42763
4.76333
4.62651
4.01438
3.22494
2.46866
1.83209
1.33251
0.961937
0.709351
0.569013
0.5408
0.623272
0.795186
0.979266
0.997356
0.599619
-0.219895
-1.22354
-2.2463
-3.2257
-4.15796
-5.06301
-5.96793
-6.90281
-7.90523
-9.03421
-10.3964
-12.1793
-14.6402
-17.9216
-22.0526
-27.1246
-33.2469
-40.3702
-48.0133
5.60089
4.45865
3.50843
2.79538
2.27677
1.89893
1.61929
1.40818
1.24574
1.11878
1.01851
0.938963
0.876075
0.827067
0.790076
0.763927
0.748005
0.742201
0.746919
0.763152
0.792642
0.838161
0.903974
0.996604
1.12607
1.30779
1.56544
1.9341
2.46096
3.19184
4.11102
4.97122
5.06314
4.39441
3.69089
3.2208
3.02897
3.11217
3.48506
4.1947
5.29628
6.74377
8.08757
8.06664
6.67958
5.18438
4.02652
3.24601
2.77873
2.56537
2.57926
2.83013
3.35929
4.21469
5.3581
6.41057
6.30904
5.051
3.69424
2.61141
1.83256
1.29832
0.950773
0.755754
0.705317
0.816839
1.1295
1.6851
2.45338
3.12542
2.83452
1.57603
0.207126
-0.97363
-1.94783
-2.77144
-3.50144
-4.17853
-4.82715
-5.46128
-6.10156
-6.82762
-7.91367
-10.0131
-13.3187
-17.5933
-23.0613
-30.2217
-39.5092
-50.5028
5.86706
3.98092
2.74791
1.99963
1.53632
1.23534
1.02947
0.882105
0.772741
0.689376
0.624679
0.574008
0.534337
0.503667
0.480692
0.464606
0.454998
0.451812
0.455353
0.466353
0.486109
0.516739
0.56164
0.626329
0.720016
0.858658
1.07105
1.41101
1.9805
2.96448
4.63058
6.95389
7.01495
4.8198
3.30148
2.50352
2.1878
2.2207
2.59497
3.43558
5.03783
7.85429
11.8285
11.8147
7.81156
4.96194
3.31774
2.41842
1.95343
1.76765
1.80913
2.10651
2.78182
4.09131
6.41931
9.71932
9.65667
6.22959
3.7689
2.31629
1.48068
0.995188
0.719903
0.593888
0.608331
0.803158
1.28581
2.26865
4.06593
6.63994
6.46256
3.53081
1.36677
0.00150984
-0.886833
-1.51976
-2.01605
-2.43015
-2.77233
-3.00848
-3.04536
-2.7404
-2.18876
-3.6491
-7.32041
-11.4152
-16.5608
-24.1332
-36.191
-54.422
6.40983
2.56253
1.28921
0.793454
0.562072
0.434766
0.355336
0.301272
0.262276
0.233055
0.210626
0.193191
0.179615
0.169165
0.161368
0.155937
0.152726
0.151719
0.153029
0.156928
0.163899
0.174744
0.190788
0.214273
0.249203
0.303288
0.392924
0.557356
0.903061
1.75478
4.20356
12.194
12.2154
4.27035
1.87465
1.0917
0.84455
0.83755
1.03327
1.57955
3.03071
7.29726
21.3119
21.307
7.28214
3.00348
1.5362
0.96531
0.725997
0.642607
0.670425
0.838604
1.29099
2.5011
6.08058
17.8699
17.8487
6.01635
2.39175
1.13262
0.624538
0.389312
0.274035
0.229717
0.251544
0.374955
0.721759
1.67928
4.5598
14.1162
14.0566
4.37994
1.37607
0.289827
-0.19368
-0.464839
-0.649032
-0.785342
-0.870177
-0.842656
-0.481447
0.991563
6.43333
5.89863
-0.712332
-3.72374
-6.56573
-11.5857
-23.9831
-61.2126
-43.8119
-46.3979
-48.8564
-51.1607
-53.2896
-55.2283
-56.9679
-58.5038
-59.8358
-60.966
-61.8981
-62.6366
-63.186
-63.5499
-63.7312
-43.9067
-46.5248
-49.0103
-51.3355
-53.4792
-55.4271
-57.1708
-58.7073
-60.0371
-61.1634
-62.0911
-62.8252
-63.3707
-63.7319
-63.9118
-44.1
-46.7838
-49.324
-51.6913
-53.8641
-55.8294
-57.5805
-59.1168
-60.4411
-61.559
-62.4769
-63.2016
-63.7392
-64.0947
-64.2715
-44.3995
-47.1858
-49.8103
-52.2409
-54.4562
-56.4451
-58.2046
-59.7376
-61.0511
-62.1539
-63.0554
-63.7646
-64.2892
-64.6354
-64.8075
-44.8181
-47.7491
-50.4901
-53.0053
-55.2743
-57.2898
-59.0545
-60.5774
-61.8711
-62.9494
-63.8255
-64.5114
-65.0169
-65.3497
-65.5148
-45.3761
-48.5021
-51.3951
-54.0153
-56.3452
-58.3847
-60.1456
-61.6458
-62.9061
-63.9465
-64.7853
-65.4379
-65.9168
-66.231
-66.3866
-46.1046
-49.4877
-52.5722
-55.3151
-57.706
-59.7578
-61.4965
-62.9536
-64.1602
-65.1445
-65.9306
-66.5377
-66.9806
-67.2702
-67.4133
-47.0517
-50.7713
-54.0905
-56.9664
-59.4053
-61.4432
-63.1286
-64.5112
-65.6359
-66.5402
-67.2542
-67.8008
-68.1972
-68.4553
-68.5825
-48.2946
-52.4547
-56.0515
-59.0542
-61.5051
-63.4804
-65.0627
-66.3261
-67.3313
-68.1256
-68.7444
-69.2136
-69.5515
-69.7705
-69.8781
-49.9615
-54.7008
-58.6062
-61.6931
-64.0797
-65.9102
-67.3151
-68.3983
-69.2368
-69.8857
-70.3836
-70.7571
-71.024
-71.1963
-71.2807
-52.2804
-57.7804
-61.9788
-65.0316
-67.2098
-68.765
-69.8887
-70.7146
-71.3312
-71.7961
-72.1465
-72.4063
-72.5907
-72.7091
-72.7671
-55.6927
-62.1608
-66.4964
-69.2442
-70.9622
-72.0502
-72.7596
-73.2396
-73.5766
-73.8202
-73.9992
-74.1301
-74.2225
-74.2818
-74.3108
-61.1594
-68.6732
-72.6011
-74.4859
-75.3437
-75.7134
-75.8592
-75.9068
-75.9144
-75.9081
-75.8992
-75.8918
-75.8868
-75.884
-75.8827
-71.112
-78.7708
-80.7481
-80.754
-80.2125
-79.5996
-79.0565
-78.6133
-78.2652
-77.9978
-77.7969
-77.6502
-77.5481
-77.4838
-77.4527
-92.8891
-94.549
-90.8654
-87.569
-85.1518
-83.4149
-82.1531
-81.2242
-80.5343
-80.0202
-79.6396
-79.3632
-79.171
-79.0496
-78.9909
10.5498
10.5295
10.489
10.429
10.3503
10.2547
10.1457
10.0294
9.91707
9.82956
9.80593
9.92413
10.3618
11.6283
15.6543
10.841
10.8204
10.7793
10.7179
10.6369
10.5373
10.4218
10.2955
10.1682
10.0597
10.0081
10.0867
10.4351
11.2893
12.801
11.1462
11.1253
11.0834
11.0203
10.936
10.8307
10.7052
10.5618
10.4061
10.2502
10.1194
10.0616
10.1569
10.4934
11.0016
11.4657
11.4445
11.4018
11.3371
11.2495
11.1379
11.0008
10.8365
10.6438
10.4231
10.1796
9.93001
9.71087
9.57795
9.55909
11.7997
11.7783
11.7352
11.6694
11.5793
11.4624
11.3148
11.1306
10.9007
10.6115
10.2439
9.77694
9.20474
8.58306
8.10761
12.1481
12.127
12.0842
12.0184
11.9275
11.8079
11.6539
11.4561
11.1986
10.854
10.3768
9.69669
8.73271
7.48639
6.33007
12.5109
12.4904
12.4487
12.3844
12.2952
12.1769
12.0231
11.8228
11.5565
11.1885
10.6502
9.81332
8.4565
6.32705
3.75369
12.8876
12.8682
12.8286
12.7675
12.6827
12.5703
12.4243
12.235
11.9849
11.6407
11.1309
10.2907
8.71659
5.47583
-0.605516
13.2776
13.2596
13.2231
13.1668
13.089
12.9865
12.8552
12.689
12.4785
12.2074
11.8407
11.2776
10.1338
6.59711
-9.18352
13.6796
13.6635
13.6309
13.5808
13.5119
13.4224
13.31
13.1735
13.0138
12.8402
12.6864
12.6675
13.2123
16.221
31.6736
14.0925
14.0786
14.0505
14.0076
13.9489
13.8736
13.7813
13.6737
13.5585
13.4589
13.4382
13.6657
14.5793
17.2029
22.8775
14.5147
14.5033
14.4801
14.4448
14.397
14.3362
14.2627
14.1788
14.0921
14.0223
14.0172
14.1872
14.7583
16.0656
18.0274
14.9445
14.9356
14.9177
14.8905
14.8537
14.8071
14.7508
14.6855
14.6137
14.5403
14.4741
14.4297
14.4256
14.4735
14.5451
15.3802
15.3739
15.3613
15.3424
15.3168
15.2844
15.2447
15.1964
15.1361
15.0529
14.9156
14.6438
14.0565
12.8645
11.1182
15.8197
15.8162
15.8091
15.7984
15.7842
15.7663
15.744
15.7152
15.674
15.6026
15.45
15.0766
14.1068
11.6402
6.48417
16.2614
16.2605
16.2588
16.2566
16.2538
16.2508
16.2473
16.2424
16.2327
16.208
16.1375
15.9232
15.1961
12.2831
-1.72462
16.7032
16.705
16.7087
16.7146
16.7232
16.7351
16.7511
16.7723
16.8014
16.8447
16.9244
17.1254
17.8031
20.6304
34.553
17.1434
17.1477
17.1565
17.1703
17.1898
17.216
17.2507
17.2965
17.3598
17.4557
17.6266
17.9963
18.9165
21.2722
26.2975
17.5803
17.5869
17.6004
17.6216
17.6512
17.6906
17.7419
17.8082
17.8951
18.014
18.1902
18.4845
19.0326
20.0596
21.5385
18.012
18.0208
18.0387
18.0665
18.1052
18.1564
18.2222
18.305
18.4079
18.5321
18.6712
18.7959
18.8157
18.5325
17.8134
18.4372
18.4479
18.4697
18.5034
18.5501
18.6116
18.69
18.7875
18.9056
19.0391
19.1616
19.1798
18.8085
17.3075
13.5959
18.8546
18.8669
18.892
18.9307
18.9842
19.0545
19.1439
19.2554
19.392
19.5533
19.7239
19.8338
19.5854
17.6173
6.80792
19.2628
19.2765
19.3044
19.3471
19.4062
19.4835
19.5818
19.7053
19.8609
20.0602
20.328
20.7359
21.5559
24.0663
35.2271
19.6611
19.6759
19.7059
19.7518
19.815
19.8973
20.0015
20.1325
20.299
20.5191
20.8342
21.3515
22.3517
24.5076
28.6978
20.0487
20.0643
20.0958
20.144
20.21
20.2952
20.4021
20.5345
20.6996
20.9112
21.1993
21.6312
22.3444
23.5356
25.0861
20.4248
20.441
20.4737
20.5234
20.591
20.6775
20.7843
20.9133
21.0673
21.2496
21.464
21.7151
22.0044
22.3136
22.5589
20.7893
20.8059
20.8393
20.8899
20.9583
21.0449
21.1503
21.2743
21.415
21.5651
21.7025
21.7719
21.6501
21.1352
20.2099
21.1416
21.1585
21.1924
21.2436
21.3123
21.3988
21.5028
21.6231
21.7558
21.8888
21.9877
21.9609
21.5681
20.2414
17.2262
21.4817
21.4988
21.533
21.5845
21.6534
21.7398
21.8432
21.9628
22.096
22.2354
22.3595
22.4036
22.1339
20.5197
12.1567
21.8095
21.8267
21.8611
21.9128
21.9819
22.0682
22.1717
22.2925
22.4314
22.5919
22.7862
23.0638
23.6328
25.484
33.9726
22.1247
22.142
22.1766
22.2285
22.2977
22.384
22.4875
22.609
22.7515
22.9243
23.1544
23.521
24.2406
25.8383
29.0069
22.4274
22.4448
22.4796
22.5317
22.6009
22.6871
22.7901
22.9103
23.05
23.216
23.4273
23.7326
24.2378
25.1012
26.25
22.7175
22.735
22.77
22.8223
22.8918
22.9779
23.0801
23.1976
23.3298
23.4757
23.6342
23.8047
23.9856
24.1653
24.2995
22.9948
23.0125
23.0478
23.1005
23.1704
23.2569
23.3587
23.4742
23.5995
23.7259
23.832
23.8691
23.7334
23.2604
22.4508
23.2593
23.2772
23.3129
23.3663
23.437
23.5243
23.6272
23.7433
23.868
23.9895
24.0772
24.0529
23.7148
22.5888
20.0484
23.5108
23.5289
23.5652
23.6194
23.6913
23.7803
23.8857
24.0059
24.1382
24.2757
24.3994
24.4542
24.2425
22.8988
15.8907
23.7491
23.7675
23.8044
23.8596
23.933
24.0243
24.1331
24.2595
24.4044
24.5707
24.7689
25.0398
25.5558
27.1418
34.2787
23.974
23.9928
24.0304
24.0867
24.1617
24.2552
24.3676
24.4997
24.6551
24.8429
25.0871
25.4547
26.1252
27.5294
30.2283
24.1852
24.2044
24.2427
24.3002
24.3768
24.4724
24.5875
24.7232
24.883
25.0752
25.3189
25.6588
26.1843
27.0172
28.0613
24.3825
24.402
24.4412
24.4998
24.5779
24.6754
24.7923
24.9293
25.0878
25.2708
25.4831
25.7333
26.0291
26.3577
26.6285
24.5656
24.5856
24.6255
24.6853
24.7649
24.8641
24.9825
25.1198
25.2751
25.4453
25.6205
25.7755
25.8505
25.7376
25.3929
24.7343
24.7546
24.7954
24.8564
24.9376
25.0386
25.1588
25.2973
25.4516
25.6155
25.7711
25.8727
25.8014
25.2781
23.9273
24.8882
24.909
24.9506
25.0129
25.0958
25.199
25.3217
25.4631
25.621
25.7906
25.9585
26.0894
26.0655
25.3924
21.5329
25.027
25.0483
25.0908
25.1545
25.2393
25.345
25.4709
25.6167
25.7818
25.966
26.1708
26.4131
26.7797
27.719
31.7162
25.1505
25.1722
25.2156
25.2808
25.3677
25.476
25.6056
25.7563
25.929
26.1262
26.3564
26.6498
27.0954
27.9214
29.4362
25.2582
25.2804
25.3248
25.3915
25.4804
25.5915
25.7247
25.8801
26.0586
26.2625
26.4975
26.7802
27.1461
27.6449
28.2177
25.3499
25.3726
25.4179
25.4861
25.5771
25.6909
25.8276
25.9872
26.1701
26.3764
26.6049
26.8521
27.1038
27.3161
27.4067
25.4253
25.4483
25.4946
25.5641
25.6571
25.7736
25.9137
26.0775
26.2648
26.4739
26.6984
26.9203
27.088
27.0713
26.6681
25.4839
25.5074
25.5545
25.6253
25.7201
25.8391
25.9827
26.1509
26.3438
26.56
26.7931
27.0255
27.1995
27.0942
25.6592
25.5257
25.5495
25.5972
25.6691
25.7655
25.8869
26.0336
26.2064
26.4062
26.6335
26.8876
27.1706
27.5042
28.0399
29.7251
25.5503
25.5743
25.6225
25.6953
25.7929
25.9161
26.0656
26.2426
26.449
26.6874
26.9613
27.2799
27.6676
28.1868
28.9092
25.5576
25.5818
25.6302
25.7034
25.8019
25.9263
26.0777
26.2577
26.4691
26.7158
27.0033
27.3407
27.7387
28.192
28.6046
25.5475
25.5716
25.6202
25.6935
25.7921
25.917
26.0691
26.2505
26.4642
26.715
27.0097
27.3589
27.7707
28.2247
28.5964
25.52
25.544
25.5923
25.6652
25.7635
25.8878
26.0394
26.2201
26.4329
26.6828
26.9776
27.3328
27.7727
28.3138
28.8562
25.4751
25.4989
25.5466
25.6188
25.7159
25.8389
25.9887
26.1667
26.3755
26.6186
26.9029
27.2473
27.7035
28.4012
29.5024
25.4131
25.4365
25.4834
25.5543
25.6498
25.7706
25.9174
26.0914
26.2936
26.5249
26.7858
27.0836
27.4656
28.2079
30.923
25.3343
25.3571
25.4029
25.4721
25.5654
25.6833
25.8266
25.9958
26.1911
26.4098
26.6422
26.8607
26.9768
26.644
24.1576
25.239
25.2611
25.3055
25.3726
25.4631
25.5776
25.7169
25.8815
26.0717
26.2844
26.5076
26.7083
26.7988
26.5749
25.7565
25.1277
25.1489
25.1917
25.2563
25.3435
25.4539
25.5887
25.7489
25.9362
26.1508
26.388
26.6319
26.8385
26.918
26.7967
25.001
25.0213
25.062
25.1237
25.207
25.3126
25.4419
25.5969
25.7813
26.0006
26.2629
26.5807
26.9655
27.3999
27.7624
24.8596
24.8787
24.9173
24.9756
25.0542
25.154
25.2764
25.4239
25.6017
25.8197
26.0984
26.4825
27.0571
27.9313
28.9893
24.7042
24.7221
24.7582
24.8126
24.886
24.979
25.0927
25.2293
25.3936
25.5958
25.8601
26.2513
26.94
28.3341
30.9607
24.5358
24.5524
24.5857
24.6359
24.7035
24.7887
24.8922
25.0149
25.1588
25.3279
25.5329
25.8129
26.3322
27.8805
34.7656
24.3552
24.3704
24.4008
24.4466
24.508
24.585
24.6775
24.785
24.9059
25.0344
25.1527
25.2079
25.0089
23.7202
16.9753
24.1635
24.1772
24.2046
24.2458
24.3009
24.3697
24.4516
24.5454
24.6473
24.7471
24.8158
24.7787
24.4416
23.3483
20.8963
23.9617
23.9739
23.9982
24.0348
24.0836
24.1444
24.2167
24.2994
24.3898
24.4805
24.5516
24.5572
24.3986
23.9192
23.1239
23.7508
23.7615
23.7828
23.8148
23.8573
23.9104
23.9738
24.0475
24.1316
24.2266
24.3322
24.4493
24.5777
24.709
24.8084
23.5319
23.5411
23.5593
23.5867
23.6231
23.6685
23.723
23.7876
23.8655
23.9645
24.1041
24.3329
24.7539
25.5204
26.5712
23.3061
23.3137
23.329
23.3517
23.3819
23.4194
23.4644
23.518
23.5842
23.6734
23.8134
24.0826
24.6895
26.1337
29.0727
23.0744
23.0805
23.0928
23.1111
23.135
23.1644
23.1989
23.2391
23.2865
23.3461
23.4324
23.5971
24.0428
25.7084
33.6243
22.8377
22.8425
22.8519
22.8658
22.8837
22.9049
22.9289
22.9545
22.9798
22.9995
22.9964
22.9158
22.5482
20.9418
13.0491
22.5972
22.6007
22.6074
22.6171
22.6292
22.6429
22.657
22.6695
22.6767
22.6678
22.6134
22.4333
21.9133
20.5402
17.6347
22.3537
22.356
22.3603
22.3662
22.3731
22.3799
22.3853
22.3877
22.3841
22.3671
22.3171
22.1864
21.8701
21.2021
20.2114
22.108
22.1093
22.1115
22.1141
22.1163
22.117
22.1151
22.1096
22.1004
22.0886
22.0761
22.0678
22.0704
22.0876
22.1088
21.8609
21.8613
21.8618
21.8617
21.86
21.8553
21.8465
21.8333
21.8182
21.8098
21.8315
21.9411
22.2599
22.9697
24.0296
21.6129
21.6127
21.612
21.6099
21.605
21.5957
21.5803
21.5579
21.5308
21.5093
21.5252
21.6687
22.1771
23.6082
26.695
21.3644
21.364
21.3626
21.3593
21.3524
21.3397
21.3182
21.2852
21.239
21.1821
21.1297
21.1424
21.4527
23.0963
31.5125
21.1157
21.1153
21.1141
21.1107
21.1033
21.089
21.0635
21.0212
20.9543
20.8509
20.6883
20.4088
19.8019
17.8805
9.27954
20.8667
20.8668
20.8664
20.8643
20.8584
20.8453
20.8196
20.7736
20.6945
20.5603
20.3273
19.9022
19.0631
17.3028
13.9856
20.617
20.618
20.6194
20.6201
20.6179
20.6095
20.5893
20.5484
20.4726
20.3374
20.0992
19.6825
18.9635
17.8059
16.3963
20.3661
20.3683
20.3723
20.3772
20.3812
20.3813
20.3726
20.3469
20.2915
20.1852
19.9945
19.6722
19.1679
18.4834
17.8361
20.1132
20.1169
20.1241
20.1344
20.1465
20.1585
20.1669
20.1656
20.1453
20.0911
19.9805
19.7879
19.4966
19.1347
18.8346
19.8571
19.8625
19.8734
19.8897
19.9114
19.9376
19.9671
19.997
20.0224
20.0352
20.0229
19.9717
19.8736
19.7425
19.6327
19.5967
19.6038
19.6183
19.6408
19.6724
19.7138
19.7664
19.8309
19.9078
19.9961
20.0916
20.1875
20.273
20.3351
20.3627
19.3309
19.3394
19.3571
19.3852
19.4258
19.4817
19.5567
19.6556
19.7849
19.9512
20.1595
20.4099
20.688
20.951
21.1198
19.0587
19.0682
19.0881
19.1204
19.1681
19.2357
19.3296
19.4588
19.6359
19.8765
20.1976
20.6125
21.1127
21.6319
22.0022
18.7794
18.7892
18.8101
18.8444
18.8959
18.9707
19.0772
19.2283
19.4424
19.7452
20.17
20.7553
21.5235
22.4155
23.1498
18.4926
18.5021
18.5223
18.5558
18.6071
18.6829
18.7933
18.9536
19.1869
19.5283
20.0303
20.7706
21.8477
23.3081
24.8152
18.1989
18.207
18.2246
18.2544
18.3007
18.3705
18.4741
18.6276
18.856
19.1993
19.7244
20.5516
21.9049
24.1676
27.5352
17.899
17.905
17.9181
17.9409
17.9775
18.0339
18.1197
18.2492
18.4449
18.7433
19.208
19.9668
21.3298
24.2592
32.6016
-153.543
-113.91
-99.7839
-93.0095
-89.0549
-86.4758
-84.6858
-83.398
-82.4521
-81.751
-81.2324
-80.8555
-80.5929
-80.4269
-80.3464
-129.913
-113.796
-102.786
-95.9966
-91.6473
-88.7096
-86.6391
-85.1361
-84.025
-83.1969
-82.5814
-82.1321
-81.8181
-81.619
-81.5223
-117.485
-110.134
-102.856
-97.2889
-93.2586
-90.3405
-88.1978
-86.6016
-85.4008
-84.4943
-83.8143
-83.3143
-82.963
-82.7393
-82.6305
-110.17
-106.421
-101.736
-97.5137
-94.0967
-91.4323
-89.3764
-87.7921
-86.5714
-85.6339
-84.9215
-84.3928
-84.0186
-83.7794
-83.6627
-105.468
-103.356
-100.295
-97.1786
-94.4113
-92.1008
-90.2269
-88.7296
-87.5446
-86.6163
-85.9004
-85.3633
-84.9801
-84.7337
-84.6132
-102.241
-100.951
-98.8921
-96.6004
-94.4079
-92.4653
-90.8154
-89.4495
-88.3389
-87.4506
-86.7546
-86.2262
-85.8461
-85.6002
-85.4795
-99.9184
-99.0785
-97.65
-95.9526
-94.2302
-92.6259
-91.2062
-89.9917
-88.978
-88.1505
-87.4918
-86.9856
-86.6182
-86.3791
-86.2613
-98.1886
-97.6143
-96.5937
-95.3217
-93.9698
-92.6573
-91.454
-90.3937
-89.4871
-88.7325
-88.1225
-87.6481
-87.3007
-87.0733
-86.9608
-96.8667
-96.4592
-95.7115
-94.7456
-93.6813
-92.6123
-91.602
-90.6884
-89.89
-89.2133
-88.6583
-88.2217
-87.8993
-87.687
-87.5816
-95.8369
-95.5395
-94.9801
-94.2374
-93.3952
-92.5256
-91.6824
-90.9025
-90.2076
-89.6089
-89.1111
-88.7155
-88.4209
-88.2258
-88.1287
-95.0227
-94.8012
-94.3753
-93.7976
-93.1276
-92.4196
-91.7184
-91.0571
-90.4576
-89.9335
-89.4925
-89.1384
-88.8728
-88.696
-88.6077
-94.3716
-94.2039
-93.8752
-93.4215
-92.8854
-92.3083
-91.7262
-91.1681
-90.6545
-90.1997
-89.8127
-89.4993
-89.2626
-89.1042
-89.0249
-93.8461
-93.7178
-93.4613
-93.102
-92.6709
-92.1996
-91.717
-91.2475
-90.81
-90.418
-90.0812
-89.8062
-89.5973
-89.4569
-89.3864
-93.4188
-93.32
-93.1182
-92.8317
-92.4836
-92.098
-91.698
-91.3042
-90.933
-90.5972
-90.3061
-90.0667
-89.8838
-89.7604
-89.6984
-93.0693
-92.9929
-92.8333
-92.6037
-92.3216
-92.0057
-91.6742
-91.3446
-91.0309
-90.7444
-90.4943
-90.2874
-90.1284
-90.0209
-89.9666
-92.782
-92.723
-92.5962
-92.4116
-92.1824
-91.9232
-91.6488
-91.3733
-91.109
-90.8658
-90.652
-90.474
-90.3368
-90.2436
-90.1965
-92.5448
-92.4994
-92.3986
-92.2498
-92.0634
-91.8506
-91.6235
-91.3937
-91.1716
-90.9659
-90.784
-90.6318
-90.514
-90.4338
-90.3932
-92.3483
-92.3137
-92.2336
-92.1136
-91.9619
-91.7873
-91.5995
-91.4082
-91.2221
-91.0488
-90.8946
-90.7651
-90.6645
-90.5959
-90.5611
-92.1849
-92.159
-92.0955
-91.9989
-91.8755
-91.7324
-91.5773
-91.4185
-91.2631
-91.1175
-90.9874
-90.8778
-90.7923
-90.7338
-90.7042
-92.0486
-92.0298
-91.9798
-91.9022
-91.8021
-91.685
-91.5573
-91.4258
-91.2964
-91.1747
-91.0654
-90.973
-90.9007
-90.8512
-90.826
-91.9346
-91.9215
-91.8826
-91.8206
-91.7397
-91.6443
-91.5395
-91.431
-91.3238
-91.2224
-91.1311
-91.0535
-90.9928
-90.951
-90.9298
-91.8389
-91.8305
-91.8006
-91.7516
-91.6866
-91.6093
-91.5238
-91.4347
-91.3463
-91.2624
-91.1864
-91.1218
-91.071
-91.0361
-91.0183
-91.7582
-91.7537
-91.7313
-91.693
-91.6414
-91.5793
-91.5099
-91.4374
-91.365
-91.296
-91.2333
-91.1797
-91.1376
-91.1086
-91.0938
-91.6898
-91.6885
-91.6725
-91.6432
-91.6028
-91.5534
-91.4978
-91.4393
-91.3806
-91.3244
-91.2731
-91.2292
-91.1945
-91.1706
-91.1584
-91.6314
-91.6329
-91.6222
-91.6005
-91.5696
-91.5311
-91.4873
-91.4407
-91.3938
-91.3486
-91.3072
-91.2715
-91.2434
-91.2239
-91.2139
-91.5812
-91.585
-91.5789
-91.5638
-91.541
-91.5118
-91.478
-91.4419
-91.4051
-91.3694
-91.3365
-91.3081
-91.2856
-91.2699
-91.262