/*--------------------------------*- C++ -*----------------------------------*\
| =========                 |                                                 |
| \\      /  F ield         | OpenFOAM: The Open Source CFD Toolbox           |
|  \\    /   O peration     | Version:  5.x                                   |
|   \\  /    A nd           | Web:      www.OpenFOAM.org                      |
|    \\/     M anipulation  |                                                 |
\*---------------------------------------------------------------------------*/
FoamFile
{
    version     2.0;
    format      ascii;
    class       volScalarField;
    location    "17.2";
    object      gradTy;
}
// * * * * * * * * * * * * * * * * * * * * * * * * * * * * * * * * * * * * * //

dimensions      [0 -1 0 1 0 0 0];

internalField   nonuniform List<scalar> 
6300
(
1003.92
1011.76
1019.56
1027.3
1034.96
1042.51
1049.93
1057.2
1064.3
1071.19
1077.87
1084.31
1090.49
1096.41
1102.05
0.0175743
0.0527164
0.0878307
0.122877
0.157781
0.192417
0.226587
0.260002
0.292254
0.322811
0.351004
0.376045
0.397072
0.41322
0.423711
0.0292976
0.0878877
0.146454
0.204946
0.263259
0.321205
0.378479
0.434618
0.488966
0.540636
0.588495
0.631185
0.667187
0.694953
0.713076
0.041025
0.123081
0.205148
0.287188
0.369095
0.450654
0.53149
0.611011
0.688339
0.762252
0.831136
0.892994
0.945525
0.986314
1.01312
0.0527428
0.158261
0.263861
0.369552
0.475267
0.580811
0.6858
0.789577
0.891109
0.988877
1.08078
1.1641
1.23558
1.29164
1.32886
0.0644271
0.193351
0.322472
0.451879
0.581591
0.7115
0.841298
0.970362
1.09761
1.22133
1.33897
1.44702
1.54101
1.61575
1.66607
0.0760404
0.228239
0.380786
0.533888
0.6877
0.84228
0.997502
1.15293
1.30762
1.45983
1.60672
1.74397
1.86561
1.96424
2.03189
0.0875319
0.262769
0.43853
0.615165
0.793017
0.972388
1.15347
1.3362
1.52004
1.7036
1.88403
2.05644
2.21316
2.34363
2.43544
0.0988462
0.296767
0.495384
0.695205
0.896789
1.10075
1.30774
1.51831
1.73271
1.95041
2.16931
2.38452
2.58685
2.76158
2.88901
0.109929
0.330057
0.551019
0.773458
0.998151
1.22606
1.45839
1.69654
1.94202
2.19596
2.45818
2.72537
2.98802
3.22673
3.41002
0.120739
0.362503
0.60516
0.849433
1.09626
1.34692
1.60316
1.86739
2.14279
2.43311
2.74199
3.07064
3.41303
3.74715
4.02431
0.13126
0.394044
0.657663
0.922826
1.19051
1.46213
1.73987
2.02701
2.32853
2.65162
3.0059
3.40203
3.84617
4.32441
4.77099
0.141511
0.424735
0.7086
0.99367
1.28077
1.57119
1.86711
2.17217
2.4926
2.83884
3.22782
3.68531
4.24507
4.93319
5.70404
0.151557
0.454771
0.758308
1.06245
1.36766
1.67471
1.98512
2.30187
2.63077
2.9832
3.3811
3.86619
4.51546
5.45905
6.84779
0.161496
0.48447
0.807382
1.13015
1.45265
1.7748
2.09673
2.41931
2.7453
3.08196
3.44706
3.88277
4.49139
5.5395
7.81872
1106.95
1111.21
1115.26
1119.12
1122.78
1126.26
1129.55
1132.68
1135.64
1138.46
1141.14
1143.7
1146.15
1148.51
1150.78
1152.99
1155.14
1157.25
1159.33
1161.39
1163.44
1165.5
1167.57
1169.67
1171.8
1173.98
1176.2
1178.47
1180.8
1183.18
1185.62
1188.12
1190.68
1193.29
1195.94
1198.64
1201.37
1204.14
1206.92
1209.71
1212.51
1215.3
1218.06
1220.78
1223.46
1226.07
1228.6
1231.03
1233.36
1235.57
1237.64
1239.56
1241.31
1242.87
1244.24
1245.38
1246.27
1246.9
1247.23
1247.25
1246.92
1246.21
1245.11
1243.57
1241.55
1239.03
1235.96
1232.29
1227.98
1222.97
1217.21
1210.64
1203.19
1194.79
1185.37
1174.85
1163.16
1150.21
1135.93
1120.22
1103.01
1084.22
1063.75
1041.55
1017.55
991.685
963.925
934.24
902.621
869.077
0.427612
0.426649
0.42117
0.411332
0.397436
0.379896
0.359206
0.335898
0.310502
0.283529
0.255439
0.226641
0.197486
0.168269
0.13924
0.11061
0.0825679
0.0552893
0.0289494
0.00373298
-0.020157
-0.0424948
-0.0630319
-0.0815014
-0.0976301
-0.111156
-0.121853
-0.129552
-0.134171
-0.135724
-0.134322
-0.130154
-0.123444
-0.114406
-0.103189
-0.0898491
-0.0743493
-0.0565882
-0.0364598
-0.0139234
0.0109337
0.0378618
0.0664556
0.0962079
0.1266
0.157206
0.187785
0.218337
0.24911
0.280563
0.313284
0.347898
0.384967
0.424919
0.467995
0.514261
0.563653
0.616056
0.671412
0.7298
0.791502
0.85702
0.927053
1.00244
1.08408
1.17284
1.26949
1.37461
1.48855
1.61143
1.74316
1.88347
2.03195
2.18809
2.35128
2.52071
2.69536
2.8738
3.05417
3.23396
3.41
3.57839
3.7346
3.87357
3.98999
4.07862
4.1347
4.1544
4.13517
4.07606
0.719879
0.718291
0.708919
0.692047
0.668226
0.63821
0.602884
0.563188
0.520054
0.47436
0.426893
0.378338
0.329273
0.280181
0.231458
0.183441
0.136424
0.0906798
0.0464846
0.00413339
-0.0360431
-0.0736694
-0.108323
-0.13954
-0.166838
-0.189742
-0.207835
-0.2208
-0.228475
-0.230885
-0.22825
-0.220944
-0.209425
-0.194123
-0.175337
-0.153163
-0.127487
-0.0980498
-0.0645629
-0.0268602
0.0149679
0.0604931
0.108955
0.159365
0.210693
0.262084
0.313049
0.363574
0.414138
0.465624
0.519167
0.57596
0.637066
0.703262
0.774949
0.852158
0.93465
1.02208
1.11421
1.21107
1.3131
1.42119
1.53657
1.66078
1.79545
1.94219
2.10235
2.27697
2.46667
2.67162
2.8916
3.12608
3.37437
3.63562
3.90886
4.19292
4.48625
4.7867
5.0913
5.39603
5.69564
5.98356
6.25197
6.49207
6.69445
6.84974
6.94934
6.98621
6.95567
6.85592
1.02331
1.02111
1.00743
0.982735
0.947907
0.904144
0.852831
0.795408
0.73328
0.667735
0.59991
0.530767
0.461102
0.391562
0.322665
0.254839
0.188453
0.123849
0.0613741
0.00141333
-0.0555893
-0.109112
-0.158547
-0.203207
-0.242355
-0.275241
-0.301183
-0.319647
-0.330341
-0.333295
-0.328884
-0.317785
-0.300837
-0.278842
-0.252348
-0.221503
-0.186028
-0.145329
-0.0987233
-0.0457244
0.0136913
0.0789082
0.14866
0.221211
0.294706
0.367586
0.438952
0.508762
0.577843
0.647728
0.720374
0.797818
0.881845
0.973705
1.07396
1.18246
1.29854
1.42134
1.55018
1.68488
1.826
1.97484
2.13338
2.30405
2.48947
2.69219
2.91437
3.15762
3.42284
3.71016
4.01913
4.34882
4.69812
5.06586
5.45086
5.85177
6.26686
6.69358
7.12822
7.56547
7.99809
8.41678
8.81009
9.16485
9.46668
9.70101
9.85423
9.91505
9.87579
9.73341
1.34323
1.34046
1.32181
1.28802
1.24046
1.18096
1.11158
1.03442
0.951448
0.864425
0.774859
0.683989
0.592801
0.502067
0.412383
0.324223
0.237979
0.154015
0.0727109
-0.00549626
-0.0800741
-0.150365
-0.215567
-0.274734
-0.326804
-0.370655
-0.405213
-0.429592
-0.443264
-0.446218
-0.439058
-0.422954
-0.399423
-0.369945
-0.335531
-0.296417
-0.251996
-0.201018
-0.141996
-0.0737345
0.00415546
0.0908885
0.184429
0.281792
0.379697
0.475363
0.567189
0.65509
0.74048
0.825949
0.914763
1.01029
1.11544
1.23216
1.36118
1.50193
1.65285
1.81201
1.97781
2.14955
2.32786
2.51461
2.7128
2.92615
3.15868
3.41424
3.69614
4.00674
4.34724
4.71763
5.11689
5.54339
5.99538
6.47132
6.96999
7.49028
8.03076
8.58911
9.16142
9.74158
10.3207
10.8865
11.4238
11.9138
12.3361
12.6691
12.8922
12.988
12.9443
12.7562
1.68591
1.68262
1.65794
1.61306
1.55013
1.47193
1.38148
1.28173
1.17537
1.06471
0.951625
0.837611
0.723796
0.611013
0.499869
0.39081
0.284187
0.180321
0.0795615
-0.0176558
-0.110753
-0.198964
-0.281292
-0.356494
-0.423098
-0.47946
-0.523909
-0.554963
-0.571625
-0.573712
-0.562115
-0.538823
-0.506581
-0.468165
-0.425491
-0.378983
-0.327422
-0.268308
-0.198594
-0.115632
-0.0181395
0.0930389
0.214662
0.341562
0.467874
0.588632
0.701034
0.80499
0.902956
0.999299
1.09943
1.20885
1.3323
1.47286
1.63146
1.80668
1.99523
2.19307
2.39679
2.60472
2.81747
3.03783
3.27032
3.52057
3.79462
4.09828
4.43648
4.8127
5.2285
5.68342
6.17532
6.70116
7.25803
7.84392
8.45785
9.09956
9.7688
10.4644
11.1832
11.9191
12.6621
13.3974
14.1051
14.7603
15.334
15.7952
16.1133
16.2616
16.2207
15.9824
2.05923
2.05549
2.02309
1.96401
1.88171
1.78046
1.66467
1.53846
1.40539
1.26837
1.12963
0.990854
0.853215
0.717517
0.584276
0.453816
0.326359
0.202092
0.0812531
-0.0358014
-0.14852
-0.25608
-0.357319
-0.450677
-0.534173
-0.605451
-0.661924
-0.701086
-0.720999
-0.72094
-0.702041
-0.667606
-0.62266
-0.572545
-0.521006
-0.468859
-0.41376
-0.3509
-0.274312
-0.178501
-0.0601971
0.080089
0.237233
0.402108
0.563977
0.713856
0.846961
0.96343
1.06768
1.16711
1.2706
1.38713
1.52439
1.68747
1.87769
2.09211
2.32412
2.56555
2.80957
3.05281
3.29598
3.54343
3.80212
4.08055
4.38776
4.73241
5.12192
5.56149
6.05325
6.59579
7.18468
7.81402
8.47871
9.17594
9.90549
10.669
11.4687
12.306
13.18
14.0861
15.0143
15.9478
16.8618
17.7237
18.4936
19.1269
19.5786
19.8071
19.7813
19.4862
2.47364
2.4695
2.42655
2.34828
2.24048
2.10982
1.96275
1.80496
1.64101
1.47438
1.30759
1.14234
0.979735
0.820383
0.664581
0.512413
0.363851
0.218849
0.0774223
-0.0602591
-0.193777
-0.322357
-0.444749
-0.55911
-0.662892
-0.752804
-0.824909
-0.874968
-0.899172
-0.895334
-0.864382
-0.811567
-0.746225
-0.679025
-0.617443
-0.563038
-0.511324
-0.453312
-0.377764
-0.273823
-0.133978
0.0427858
0.248585
0.46689
0.677247
0.863132
1.01673
1.13935
1.23925
1.32895
1.42287
1.53543
1.67918
1.86284
2.08893
2.35207
2.63928
2.93412
3.22332
3.50082
3.76816
4.03267
4.30534
4.59893
4.92679
5.30175
5.73508
6.23494
6.80465
7.44121
8.13556
8.87575
9.65229
10.4612
11.304
12.186
13.1141
14.0944
15.1303
16.221
17.3586
18.5257
19.6934
20.8194
21.8493
22.7201
23.3647
23.7186
23.7292
23.3687
2.94388
2.9393
2.88074
2.77498
2.6321
2.46271
2.27627
2.08031
1.88046
1.68062
1.48331
1.29004
1.10157
0.918148
0.739671
0.565839
0.39625
0.230494
0.068241
-0.090664
-0.246091
-0.397483
-0.543682
-0.682707
-0.811508
-0.925723
-1.01956
-1.086
-1.11764
-1.10869
-1.05812
-0.973485
-0.87239
-0.777336
-0.703469
-0.653267
-0.617885
-0.580895
-0.522023
-0.420767
-0.260847
-0.0362627
0.241988
0.543168
0.825802
1.05893
1.23117
1.34803
1.42555
1.48476
1.54839
1.63885
1.77657
1.97715
2.24688
2.57738
2.94348
3.31085
3.65393
3.9635
4.24442
4.51021
4.77843
5.068
5.39801
5.78707
6.25243
6.8078
7.45977
8.20341
9.02039
9.88512
10.7792
11.6975
12.6459
13.6367
14.6843
15.8024
17.0019
18.2884
19.6601
21.1027
22.5848
24.0532
25.434
26.6387
27.5694
28.1241
28.2113
27.7745
3.49242
3.48675
3.40283
3.25505
3.06181
2.84013
2.60344
2.36128
2.11995
1.88327
1.65329
1.43091
1.21624
1.00888
0.808175
0.613265
0.423245
0.237217
0.054369
-0.125941
-0.304071
-0.479938
-0.652788
-0.820867
-0.98096
-1.12781
-1.25349
-1.34695
-1.3944
-1.38179
-1.30075
-1.15892
-0.989682
-0.844962
-0.755242
-0.721978
-0.726591
-0.739818
-0.727137
-0.652009
-0.480653
-0.192416
0.202537
0.646315
1.0458
1.34259
1.52548
1.61351
1.63834
1.63439
1.63542
1.6744
1.78361
1.99207
2.31748
2.75159
3.24601
3.72273
4.13296
4.46756
4.74261
4.98439
5.22092
5.479
5.78435
6.16272
6.64032
7.2417
7.98306
8.86014
9.83657
10.8523
11.8715
12.8906
13.9269
15.0056
16.1531
17.3935
18.7479
20.2333
21.8594
23.623
25.4959
27.4133
29.2721
30.952
32.3154
33.2029
33.4479
32.9251
4.1569
4.14677
4.01681
3.80052
3.53238
3.23904
2.93831
2.64089
2.35258
2.07608
1.81218
1.56054
1.32022
1.08993
0.868208
0.653538
0.444389
0.239266
0.0367535
-0.164437
-0.365382
-0.566803
-0.768825
-0.970576
-1.16952
-1.36044
-1.53387
-1.67416
-1.7577
-1.75345
-1.63094
-1.38387
-1.0717
-0.83343
-0.725758
-0.736186
-0.822938
-0.936102
-1.02224
-1.02189
-0.868843
-0.502319
0.0926893
0.813147
1.41355
1.79013
1.95628
1.96986
1.89244
1.77669
1.66763
1.60866
1.64757
1.83841
2.2314
2.83879
3.57386
4.23014
4.7207
5.05719
5.28849
5.46591
5.63215
5.8217
6.06529
6.39522
6.84971
7.47379
8.31065
9.37352
10.5959
11.8143
12.9635
14.0587
15.1463
16.2752
17.4877
18.8201
20.3051
21.9748
23.8606
25.9853
28.3423
30.8574
33.3673
35.7206
37.7462
39.2063
39.7895
39.1915
5.00938
4.97917
4.75495
4.42048
4.03906
3.64849
3.26832
2.90727
2.56812
2.25068
1.95332
1.6738
1.4097
1.15858
0.918048
0.685829
0.459708
0.23754
0.0172263
-0.203288
-0.426002
-0.652786
-0.885228
-1.12429
-1.36961
-1.6182
-1.8619
-2.08302
-2.24733
-2.29536
-2.1404
-1.70253
-1.04724
-0.633813
-0.526188
-0.640465
-0.881217
-1.17126
-1.44184
-1.6116
-1.56439
-1.14121
-0.197789
1.15284
2.10356
2.54066
2.60669
2.4572
2.20171
1.90932
1.6277
1.40193
1.29273
1.39365
1.83653
2.74208
4.01507
4.97611
5.53017
5.79818
5.91184
5.96343
6.00973
6.08647
6.22183
6.44827
6.81479
7.39939
8.31267
9.65716
11.3606
12.876
14.1329
15.2376
16.3061
17.4239
18.6496
20.0267
21.596
23.4051
25.5173
28.0129
30.9605
34.3086
37.6878
40.9605
43.9908
46.4719
47.8314
47.2827
6.21724
6.09068
5.65161
5.10784
4.55875
4.04279
3.57071
3.14203
2.75236
2.39634
2.06874
1.76486
1.4805
1.21198
0.955951
0.709374
0.46938
0.233196
-0.00194926
-0.238903
-0.480679
-0.730531
-0.992001
-1.26887
-1.56489
-1.88287
-2.2223
-2.57356
-2.90423
-3.12944
-3.05708
-2.33416
-0.674374
0.0062441
-0.00698867
-0.362531
-0.868413
-1.43434
-2.00647
-2.51359
-2.8012
-2.52909
-1.07455
2.06846
3.5332
3.82552
3.56744
3.0972
2.56412
2.0265
1.5074
1.02743
0.635407
0.456573
0.77553
2.11631
4.90552
6.30811
6.75153
6.76141
6.62456
6.46857
6.34346
6.26687
6.24724
6.29964
6.46587
6.85175
7.69376
9.42397
12.3959
14.3098
15.5215
16.4683
17.3947
18.4174
19.5932
20.9565
22.5413
24.3986
26.622
29.3893
33.002
37.7148
42.1613
46.5491
51.0258
55.3522
58.6205
58.8349
8.27893
7.65201
6.69883
5.80267
5.03055
4.37376
3.81042
3.32046
2.88799
2.50091
2.14989
1.82767
1.52841
1.24729
0.980159
0.723362
0.4735
0.227296
-0.018568
-0.267612
-0.523755
-0.791565
-1.0766
-1.38589
-1.72854
-2.11661
-2.56563
-3.0937
-3.71292
-4.39195
-4.91047
-4.31484
1.10848
1.64541
1.0051
0.131875
-0.769146
-1.68847
-2.66466
-3.73163
-4.84395
-5.6196
-4.38271
5.40066
6.65095
5.90279
4.83354
3.82753
2.93295
2.11692
1.33066
0.526221
-0.328953
-1.19736
-1.75694
-0.595297
7.79251
9.02111
8.59696
7.93571
7.36464
6.92902
6.60714
6.36507
6.16877
5.98693
5.80054
5.64714
5.79568
7.40249
14.9547
16.7542
17.2913
17.7283
18.3441
19.1901
20.2663
21.5671
23.094
24.8646
26.9428
29.548
33.4588
41.5039
46.7186
52.0092
58.2765
65.7555
73.8066
78.6939
13.1166
9.68292
7.66369
6.31866
5.33612
4.56999
3.94437
3.41599
2.95822
2.55348
2.18953
1.85739
1.55019
1.26243
0.9895
0.72738
0.472382
0.220944
-0.0305608
-0.286042
-0.549962
-0.827715
-1.1262
-1.45474
-1.8267
-2.26242
-2.79499
-3.4824
-4.43529
-5.88536
-8.36801
-13.2471
9.92772
4.9798
2.35259
0.666363
-0.643424
-1.8606
-3.19196
-4.88413
-7.37124
-11.6079
-19.9975
21.0204
12.6463
8.44228
6.00847
4.39734
3.18869
2.16448
1.18015
0.0981794
-1.27412
-3.29583
-6.76779
-13.7124
20.9886
14.1139
10.7837
8.98001
7.90958
7.22566
6.75583
6.39738
6.06949
5.68082
5.08773
4.00785
1.79779
-3.18026
25.797
21.0165
19.2047
18.7308
18.962
19.6312
20.6158
21.8521
23.2954
24.8875
26.5047
27.8265
27.962
49.3682
51.1662
56.0621
63.782
75.3343
93.5477
125.479
830.092
784.903
737.169
687.036
634.673
580.267
524.017
466.128
406.806
346.256
284.677
222.266
159.215
95.7097
31.9333
3.96805
3.79776
3.58213
3.33016
3.05153
2.75559
2.45053
2.14293
1.8376
1.53764
1.24461
0.958827
0.679612
0.405568
0.134814
6.67159
6.3799
6.01057
5.57988
5.10515
4.60283
4.08709
3.56908
3.05675
2.55506
2.06633
1.59076
1.12695
0.672295
0.223439
9.46572
9.03965
8.50035
7.87362
7.18636
6.4635
5.72591
4.98954
4.26528
3.55952
2.87487
2.21093
1.5651
0.933219
0.310081
12.3938
11.8126
11.0775
10.2278
9.30312
8.33884
7.36352
6.39787
5.4553
4.54288
3.66268
2.81297
1.9893
1.18538
0.393741
15.5077
14.7391
13.7692
12.6569
11.4593
10.2252
8.99136
7.78309
6.61514
5.49402
4.42
3.38896
2.39374
1.42526
0.473236
18.8722
17.8664
16.6031
15.171
13.652
12.1109
10.5935
9.12789
7.72811
6.39802
5.13433
3.9291
2.77143
1.64867
0.547177
22.5724
21.2511
19.6054
17.7718
15.8664
13.9728
12.1437
10.4066
8.77127
7.23555
5.79019
4.42168
3.11421
1.85081
0.613977
26.7249
24.9602
22.7954
20.4445
18.0688
15.7701
13.6017
11.5835
9.71463
7.98262
6.36913
4.85319
3.41291
2.02637
0.671902
31.4972
29.0691
26.1716
23.1418
20.1941
17.437
14.9095
12.611
10.521
8.61104
6.85047
5.20899
3.65784
2.16984
0.719164
37.1395
33.6469
29.6795
25.7567
22.1284
18.8742
15.9884
13.4297
11.1471
9.09002
7.21264
5.47443
3.83958
2.27597
0.754077
44.0353
38.699
33.1425
28.0767
23.6882
19.9428
16.7397
13.9723
11.5476
9.38919
7.43556
5.63647
3.95007
2.34037
0.775247
52.7245
43.971
36.1145
29.7193
24.6046
20.469
17.0553
14.1721
11.6815
9.48349
7.50388
5.68578
3.98381
2.36017
0.781786
63.5006
48.3455
37.6247
30.0811
24.5416
20.273
16.8402
13.9792
11.5227
9.35929
7.41061
5.61889
3.9392
2.33469
0.773509
72.8565
48.2849
35.9575
28.4383
23.2075
19.2411
16.053
13.3815
11.0708
9.02022
7.16032
5.43995
3.81936
2.26586
0.751067
0.170612
0.511721
0.852439
1.19234
1.53072
1.86652
2.19816
2.52359
2.84048
3.14737
3.44644
3.75097
4.10315
4.6179
5.58956
0.17898
0.536774
0.893991
1.24997
1.60357
1.9529
2.29483
2.62438
2.93381
3.21123
3.43861
3.58737
3.60361
3.34147
2.24175
0.18746
0.562217
0.936385
1.30922
1.67936
2.04436
2.40002
2.73908
3.04927
3.30978
3.48529
3.51568
3.29727
2.64663
1.24368
0.196049
0.588057
0.979686
1.37031
1.75866
2.14227
2.51665
2.87374
3.19916
3.46728
3.63267
3.61667
3.29103
2.4741
0.998661
0.204698
0.614147
1.02366
1.43297
1.84122
2.24654
2.64523
3.03032
3.38876
3.69602
3.90589
3.93259
3.6259
2.7588
1.11604
0.213307
0.640178
1.06776
1.49632
1.92576
2.35534
2.78318
3.20533
3.61382
3.99231
4.30618
4.47996
4.34983
3.58208
1.64262
0.221734
0.665702
1.11115
1.55902
2.01016
2.46528
2.925
3.38975
3.85963
4.33338
4.80357
5.23831
5.51642
5.21896
3.10374
0.229808
0.690181
1.15285
1.61943
2.09173
2.57197
3.06323
3.57049
4.10268
4.67682
5.32543
6.10531
7.08256
8.11802
7.40663
0.23735
0.713049
1.1918
1.67583
2.16776
2.67094
3.19027
3.73381
4.31647
4.96846
5.75595
6.83511
8.6081
12.2299
21.5023
0.244192
0.733781
1.22706
1.72672
2.23591
2.75863
3.3004
3.86986
4.482
5.16588
5.98375
7.0829
8.84949
12.4175
21.5764
0.250189
0.751935
1.25785
1.77094
2.29464
2.83301
3.39122
3.97615
4.5976
5.27012
6.01607
6.86699
7.83962
8.72223
7.65319
0.255231
0.767175
1.28362
1.80777
2.34311
2.89355
3.46338
4.05699
4.67759
5.32324
5.97532
6.56638
6.89208
6.38201
3.61681
0.259238
0.779269
1.30401
1.83677
2.38105
2.94055
3.51894
4.11897
4.74006
5.37175
5.9768
6.44987
6.52474
5.60768
2.68338
0.262159
0.78807
1.31881
1.85773
2.40836
2.97437
3.55938
4.16621
4.79506
5.43862
6.06975
6.60972
6.84606
6.22712
3.44604
0.263965
0.7935
1.32789
1.8705
2.42492
2.99493
3.58457
4.19806
4.83971
5.51397
6.22585
6.98027
7.76115
8.34788
7.06348
0.264652
0.795541
1.33122
1.87505
2.43058
3.00176
3.5931
4.21025
4.86161
5.56305
6.35222
7.3323
8.81084
11.7678
19.5992
0.264233
0.794233
1.32888
1.87141
2.42533
2.99453
3.58361
4.19857
4.84861
5.55109
6.34584
7.33798
8.83361
11.8025
19.6205
0.262743
0.789681
1.32102
1.85983
2.40941
2.97341
3.55604
4.16241
4.79905
5.47491
6.20222
6.99382
7.83307
8.46931
7.14802
0.260237
0.782055
1.30794
1.84072
2.38341
2.93928
3.51191
4.1051
4.72214
5.36287
6.01378
6.61638
6.9733
6.49532
3.68558
0.256791
0.771585
1.29004
1.8147
2.34821
2.89343
3.4534
4.03112
4.62864
5.24364
5.85874
6.40937
6.69315
6.14045
3.3907
0.252497
0.758553
1.26781
1.78247
2.30482
2.83727
3.38247
3.9433
4.52288
5.12419
5.74832
6.38752
6.99371
7.31115
5.89548
0.247458
0.743277
1.24181
1.74488
2.25435
2.7722
3.3006
3.84235
4.40192
4.98877
5.62727
6.38844
7.4946
9.68523
15.6052
0.241788
0.7261
1.21262
1.70278
2.19802
2.69973
3.20938
3.72892
4.26192
4.81735
5.42089
6.14962
7.24219
9.46926
15.5106
0.235599
0.707375
1.18086
1.65713
2.13714
2.62166
3.11121
3.60603
4.10623
4.61243
5.12741
5.65799
6.20176
6.60424
5.56492
0.229004
0.687444
1.14715
1.60885
2.07308
2.54004
3.0093
3.47932
3.94628
4.40129
4.82297
5.15707
5.25927
4.74031
2.62639
0.222103
0.666619
1.11202
1.55877
2.00709
2.45675
2.90677
3.35463
3.79453
4.2132
4.57923
4.81704
4.74803
3.98388
1.86755
0.214982
0.64516
1.07594
1.50758
1.94011
2.37316
2.80568
3.23537
3.65742
4.06155
4.4244
4.68998
4.71938
4.16636
2.23281
0.207708
0.623269
1.03923
1.45573
1.87272
2.28989
2.70649
3.12133
3.53268
3.93848
4.33698
4.72684
5.09508
5.30742
4.3564
0.200329
0.601088
1.00211
1.40349
1.80517
2.20694
2.60846
3.00965
3.4117
3.82037
4.25546
4.7786
5.57891
7.25626
11.87
0.192877
0.578705
0.964734
1.35102
1.73753
2.1241
2.5106
2.89728
3.28603
3.68385
4.11268
4.63778
5.45353
7.16577
11.8359
0.185368
0.55617
0.927152
1.29837
1.66979
2.04126
2.41254
2.78341
3.15399
3.52569
3.90294
4.29499
4.70547
5.02099
4.24615
0.177808
0.533497
0.889384
1.24555
1.60198
1.95851
2.31472
2.66965
3.0211
3.36361
3.68282
3.9393
4.02324
3.63327
2.0156
0.170195
0.510673
0.851404
1.19251
1.53406
1.87593
2.21772
2.55824
2.89433
3.21763
3.50616
3.70332
3.67001
3.09805
1.46106
0.162516
0.487661
0.813139
1.13915
1.46587
1.79337
2.12156
2.44985
2.77637
3.0957
3.39288
3.62731
3.69074
3.30235
1.79892
0.154754
0.464405
0.774483
1.08528
1.3971
1.71029
2.02526
2.34263
2.66333
2.98909
3.32308
3.66995
4.02515
4.28092
3.59119
0.14689
0.440841
0.73531
1.03067
1.32735
1.62592
1.92726
2.23302
2.54672
2.8767
3.24425
3.70674
4.42852
5.91596
9.89216
0.138905
0.416908
0.695502
0.975117
1.25626
1.53959
1.82615
2.11785
2.41873
2.73817
3.09939
3.56337
4.30007
5.82255
9.85679
0.130781
0.392553
0.654969
0.918484
1.18361
1.45097
1.72141
1.99624
2.2778
2.57054
2.8831
3.23053
3.62583
3.98471
3.47627
0.122506
0.367744
0.613657
0.860712
1.10939
1.36018
1.61357
1.86991
2.12906
2.38909
2.64251
2.86436
2.97679
2.74908
1.57074
0.114073
0.342455
0.571539
0.801794
1.03367
1.26755
1.50364
1.74159
1.97963
2.21218
2.42379
2.57411
2.56388
2.17353
1.02845
0.105475
0.316669
0.528594
0.741731
0.956532
1.17337
1.39238
1.61316
1.83396
2.04975
2.24757
2.39528
2.41489
2.12205
1.11935
0.0967043
0.290368
0.484796
0.680496
0.87796
1.07763
1.27985
1.48468
1.69173
1.89975
2.10607
2.30537
2.4828
2.56347
2.06856
0.0877543
0.263528
0.440102
0.618018
0.797832
0.980113
1.16547
1.35462
1.54879
1.75089
1.96939
2.23057
2.61785
3.40454
5.54701
0.0786177
0.236127
0.394465
0.554208
0.71597
0.880432
1.04841
1.22104
1.40031
1.5906
1.80302
2.06816
2.47546
3.30401
5.51024
0.0692889
0.208145
0.347843
0.488983
0.632215
0.778286
0.928092
1.08281
1.24414
1.41491
1.59997
1.80698
2.04047
2.24666
1.95147
0.0597655
0.179571
0.300213
0.422291
0.546474
0.673526
0.804339
0.939939
1.08139
1.22925
1.38163
1.52736
1.62439
1.53742
0.89802
0.0500497
0.150412
0.251576
0.354128
0.458727
0.566137
0.677239
0.792984
0.91414
1.04042
1.16788
1.28151
1.33603
1.21179
0.647767
0.04015
0.120691
0.20197
0.284534
0.369015
0.456168
0.546896
0.642249
0.743305
0.850749
0.963692
1.07667
1.17177
1.19153
0.905485
0.030082
0.0904534
0.151464
0.2136
0.277438
0.343703
0.413324
0.487533
0.568012
0.657232
0.759445
0.884228
1.05979
1.3836
2.22215
0.019869
0.0597692
0.100173
0.141476
0.184167
0.228895
0.276552
0.328446
0.386632
0.454671
0.539494
0.656497
0.84482
1.21816
2.15594
0.00954249
0.0287328
0.0482545
0.0683815
0.0894755
0.112042
0.136825
0.164974
0.198397
0.240441
0.297175
0.379213
0.501338
0.660707
0.683801
-0.000857716
-0.0025353
-0.00408714
-0.00538769
-0.00624399
-0.00635566
-0.00525129
-0.00217128
0.00416415
0.0160006
0.0372654
0.0740742
0.131972
0.197865
0.177399
-0.0112846
-0.0338918
-0.0566048
-0.0794674
-0.102483
-0.125602
-0.148705
-0.171586
-0.193897
-0.214994
-0.233448
-0.245721
-0.242956
-0.205019
-0.096836
-0.0216852
-0.0651751
-0.109019
-0.153441
-0.198652
-0.24486
-0.292315
-0.341398
-0.392806
-0.447827
-0.508457
-0.575964
-0.642316
-0.656687
-0.43044
-0.0320027
-0.0962121
-0.161032
-0.226867
-0.294126
-0.363251
-0.434794
-0.509595
-0.589204
-0.676763
-0.778692
-0.907002
-1.07777
-1.27545
-1.20475
-0.0421783
-0.126824
-0.212339
-0.299301
-0.388301
-0.479961
-0.575006
-0.674448
-0.780073
-0.89571
-1.0306
-1.20854
-1.49452
-2.08055
-3.60323
-0.0521525
-0.156832
-0.262637
-0.370317
-0.480624
-0.594314
-0.712157
-0.834998
-0.963977
-1.10128
-1.25259
-1.43505
-1.70288
-2.23518
-3.66251
-0.0618658
-0.186057
-0.311629
-0.439503
-0.570591
-0.705774
-0.845827
-0.991276
-1.14209
-1.29709
-1.45295
-1.60223
-1.72756
-1.76823
-1.39871
-0.0712588
-0.214321
-0.359018
-0.506449
-0.657707
-0.813841
-0.975738
-1.14381
-1.31727
-1.49229
-1.65784
-1.78603
-1.81099
-1.58609
-0.820949
-0.0802729
-0.241445
-0.404504
-0.57073
-0.741426
-0.917893
-1.10134
-1.2926
-1.49135
-1.69405
-1.88864
-2.0415
-2.06791
-1.77909
-0.852029
-0.0888507
-0.267256
-0.447785
-0.631899
-0.821124
-1.01708
-1.2215
-1.43616
-1.66265
-1.9014
-2.1484
-2.38473
-2.5437
-2.4153
-1.42267
-0.0969385
-0.291587
-0.488569
-0.689507
-0.896133
-1.11038
-1.33452
-1.57148
-1.82541
-2.10298
-2.41553
-2.78165
-3.21901
-3.65161
-3.27989
-0.104489
-0.314293
-0.526599
-0.743153
-0.965836
-1.19679
-1.43862
-1.69498
-1.97174
-2.28022
-2.64543
-3.12904
-3.89756
-5.44639
-9.43433
-0.111463
-0.335257
-0.561671
-0.792529
-1.02978
-1.27561
-1.53262
-1.80427
-2.096
-2.41802
-2.79305
-3.27852
-4.03416
-5.54725
-9.47287
-0.117834
-0.354395
-0.593648
-0.837452
-1.08776
-1.34665
-1.61641
-1.89959
-2.19919
-2.51895
-2.86393
-3.24032
-3.64467
-3.97261
-3.40578
-0.123584
-0.371656
-0.622455
-0.877846
-1.13975
-1.41011
-1.69084
-1.98348
-2.28835
-2.60233
-2.91293
-3.18263
-3.30818
-3.01928
-1.67525
-0.128703
-0.387017
-0.648064
-0.913704
-1.18584
-1.46636
-1.75699
-2.05883
-2.37112
-2.68802
-2.99029
-3.22498
-3.25944
-2.79862
-1.33806
-0.133191
-0.400473
-0.67047
-0.945038
-1.22608
-1.51555
-1.81531
-2.12688
-2.45066
-2.7838
-3.11452
-3.40631
-3.55459
-3.27216
-1.84497
-0.137051
-0.412037
-0.689692
-0.971857
-1.26046
-1.55757
-1.86539
-2.18642
-2.52365
-2.88122
-3.26572
-3.68725
-4.14876
-4.54061
-3.92321
-0.140295
-0.42174
-0.705769
-0.994185
-1.28892
-1.59211
-1.90626
-2.23466
-2.58246
-2.95989
-3.39113
-3.94037
-4.79124
-6.50985
-11.0215
-0.142945
-0.429641
-0.718787
-1.01211
-1.31148
-1.61901
-1.93721
-2.26937
-2.62066
-3.00114
-3.43454
-3.98395
-4.83102
-6.53933
-11.0329
-0.14503
-0.435833
-0.728892
-1.02581
-1.32835
-1.63848
-1.95842
-2.29075
-2.63852
-3.00559
-3.39732
-3.82073
-4.27263
-4.63451
-3.96027
-0.146598
-0.440451
-0.736302
-1.0356
-1.33993
-1.65109
-1.97099
-2.30137
-2.64294
-2.99285
-3.33804
-3.63765
-3.77668
-3.44913
-1.91977
-0.147708
-0.443671
-0.741308
-1.04186
-1.34675
-1.65761
-1.97623
-2.30418
-2.64152
-2.98332
-3.31034
-3.56603
-3.60466
-3.09828
-1.48352
-0.148437
-0.44572
-0.744276
-1.04509
-1.34939
-1.6587
-1.97497
-2.30041
-2.63694
-2.984
-3.33213
-3.64506
-3.81105
-3.51708
-1.98634
-0.148877
-0.446877
-0.745659
-1.04589
-1.34852
-1.65494
-1.96728
-2.28889
-2.62501
-2.98388
-3.37827
-3.82608
-4.33679
-4.79467
-4.18491
-0.149143
-0.447482
-0.746016
-1.04501
-1.345
-1.64702
-1.95312
-2.26726
-2.59723
-2.95903
-3.38726
-3.96336
-4.89912
-6.81359
-11.7723
-0.149369
-0.447942
-0.746039
-1.04342
-1.34003
-1.63624
-1.93334
-2.23456
-2.54731
-2.88798
-3.29348
-3.85079
-4.7817
-6.71829
-11.7338
-0.149706
-0.448723
-0.746543
-1.04234
-1.33532
-1.62481
-1.91064
-2.19382
-2.47795
-2.77186
-3.09422
-3.47871
-3.96579
-4.48473
-4.05533
-0.150315
-0.450326
-0.748433
-1.04321
-1.33299
-1.61588
-1.88975
-2.15238
-2.40173
-2.63595
-2.85173
-3.03532
-3.12767
-2.90965
-1.71096
-0.151349
-0.453242
-0.752624
-1.04751
-1.33543
-1.61319
-1.87661
-2.1201
-2.33595
-2.51279
-2.63153
-2.65523
-2.50503
-2.01555
-0.910448
-0.15294
-0.457891
-0.759919
-1.05663
-1.34489
-1.62043
-1.87728
-2.10697
-2.29723
-2.42991
-2.47728
-2.39586
-2.11794
-1.54891
-0.607002
-0.155174
-0.464558
-0.770892
-1.07159
-1.36315
-1.6406
-1.89677
-2.12117
-2.29845
-2.40622
-2.4124
-2.27289
-1.93296
-1.34119
-0.492499
-0.158072
-0.473332
-0.785762
-1.09287
-1.39117
-1.67552
-1.93828
-2.16805
-2.34788
-2.45302
-2.44865
-2.28904
-1.92282
-1.31186
-0.472642
-0.161582
-0.48406
-0.804308
-1.12026
-1.42884
-1.72539
-2.00266
-2.24956
-2.44911
-2.57583
-2.59262
-2.44863
-2.08258
-1.44101
-0.526432
-0.165565
-0.496324
-0.825823
-1.15273
-1.47485
-1.78859
-2.08809
-2.3639
-2.60086
-2.77492
-2.84816
-2.76237
-2.43362
-1.75971
-0.676239
-0.169803
-0.50945
-0.849121
-1.18849
-1.52664
-1.86165
-2.18993
-2.50514
-2.79623
-3.04394
-3.21406
-3.24477
-3.02428
-2.36278
-1.01284
-0.174008
-0.522546
-0.872609
-1.22508
-1.58058
-1.93934
-2.30079
-2.66306
-3.02165
-3.36676
-3.67669
-3.9015
-3.92113
-3.44387
-1.81863
-0.177847
-0.534571
-0.894407
-1.25952
-1.63224
-2.0151
-2.41104
-2.82346
-3.25634
-3.71389
-4.19834
-4.70063
-5.16291
-5.32213
-4.02156
-0.180967
-0.544421
-0.912518
-1.28867
-1.67681
-2.08176
-2.50979
-2.96957
-3.4738
-4.04223
-4.70749
-5.52745
-6.61493
-8.21401
-10.9067
51.4163
38.3347
30.4324
25.0032
20.9127
17.6345
14.8929
12.5275
10.4358
8.54782
6.81269
5.19145
3.65273
2.17
0.719781
18.7871
24.4834
23.3182
20.7973
18.1828
15.7529
13.5451
11.5385
9.70071
8.00012
6.40867
4.90185
3.45804
2.0578
0.683121
8.29524
15.3968
17.1452
16.6562
15.3247
13.7169
12.0574
10.4322
8.87026
7.37657
5.94584
4.56845
3.23308
1.92782
0.640601
4.39284
10.0276
12.5258
13.1001
12.6582
11.7168
10.5458
9.28185
7.99234
6.70925
5.44592
4.20585
2.9872
1.78529
0.593901
2.67854
6.83653
9.24241
10.2495
10.3384
9.87602
9.09881
8.14915
7.1099
6.02816
4.92983
3.82834
2.72968
1.63544
0.54471
1.79691
4.86214
6.93031
8.03649
8.40152
8.25378
7.77145
7.07861
6.25693
5.35853
4.4159
3.44885
2.46906
1.48313
0.49461
1.28236
3.58011
5.28622
6.3381
6.82064
6.86381
6.59022
6.09748
5.4572
4.71958
3.91891
3.07817
2.21268
1.33263
0.444989
0.953187
2.70891
4.09642
5.03504
5.54481
5.69378
5.56113
5.21877
4.72502
4.12439
3.4497
2.72467
1.96641
1.18737
0.39699
0.728628
2.0934
3.21832
4.02976
4.51949
4.71926
4.67763
4.44516
4.06703
3.58061
3.01542
2.39423
1.73456
1.04999
0.351488
0.568294
1.64442
2.55789
3.24786
3.69549
3.91234
3.92663
3.77265
3.48422
3.09152
2.61999
2.0905
1.51997
0.922264
0.309093
0.449941
1.30839
2.05266
2.63423
3.03174
3.24606
3.29246
3.19348
2.9738
2.65713
2.2648
1.81526
1.32425
0.805274
0.270178
0.360362
1.05163
1.66039
2.14838
2.49517
2.69635
2.75922
2.69812
2.5307
2.27528
1.94933
1.5688
1.14794
0.699469
0.234915
0.291236
0.852151
1.35199
1.76058
2.05971
2.24269
2.31204
2.27657
2.1487
1.94238
1.67174
1.35034
0.990806
0.604825
0.203315
0.237076
0.695083
1.10694
1.44878
1.70489
1.86792
1.93763
1.91918
1.82116
1.65413
1.4294
1.15835
0.852023
0.520961
0.175268
0.194128
0.570055
0.910515
1.1965
1.41471
1.55792
1.62445
1.61702
1.54154
1.40593
1.21921
0.990856
0.730409
0.447255
0.150581
0.159739
0.469652
0.751909
0.99128
1.17659
1.30117
1.36261
1.36211
1.30366
1.19321
1.03791
0.845641
0.624559
0.382933
0.129009
0.131991
0.388452
0.623081
0.823593
0.980648
1.08826
1.14377
1.14742
1.10189
1.01162
0.882295
0.720424
0.532972
0.327149
0.110278
0.109464
0.322412
0.517939
0.686077
0.819029
0.911534
0.960919
0.966891
0.931184
0.857133
0.749272
0.612968
0.454137
0.279034
0.0941063
0.0910904
0.268467
0.431814