/*--------------------------------*- C++ -*----------------------------------*\
| =========                 |                                                 |
| \\      /  F ield         | OpenFOAM: The Open Source CFD Toolbox           |
|  \\    /   O peration     | Version:  5.x                                   |
|   \\  /    A nd           | Web:      www.OpenFOAM.org                      |
|    \\/     M anipulation  |                                                 |
\*---------------------------------------------------------------------------*/
FoamFile
{
    version     2.0;
    format      ascii;
    class       volScalarField;
    location    "0.8";
    object      gradTy;
}
// * * * * * * * * * * * * * * * * * * * * * * * * * * * * * * * * * * * * * //

dimensions      [0 -1 0 1 0 0 0];

internalField   nonuniform List<scalar> 
2048
(
-19.2225
-19.2274
-19.2367
-19.2489
-19.2621
-19.2735
-19.2799
-19.2773
-19.2612
-19.2268
-19.169
-19.0829
-18.9635
-18.8066
-18.6082
-18.3655
-18.0766
-17.7411
-17.3605
-16.9382
-16.4799
-15.9931
-15.4873
-14.973
-14.4613
-13.9625
-13.486
-13.039
-12.627
-12.2532
-11.9186
-11.623
-11.3646
-11.1408
-10.9487
-10.7848
-10.6459
-10.5288
-10.4304
-10.3481
-10.2794
-10.2223
-10.1749
-10.1355
-10.103
-10.0761
-10.0539
-10.0356
-10.0205
-10.008
-9.99778
-9.98937
-9.98246
-9.97679
-9.97215
-9.96837
-9.9653
-9.96283
-9.96086
-9.95932
-9.95815
-9.95731
-9.95677
-9.9565
-19.2172
-19.2226
-19.233
-19.2468
-19.2621
-19.2763
-19.2859
-19.2869
-19.2747
-19.2443
-19.1906
-19.1083
-18.9926
-18.8387
-18.6427
-18.4014
-18.1128
-17.7762
-17.3928
-16.9659
-16.5013
-16.0069
-15.4926
-14.9695
-14.4492
-13.943
-13.4604
-13.0091
-12.5946
-12.2197
-11.8855
-11.5912
-11.3348
-11.1135
-10.924
-10.7629
-10.6266
-10.5119
-10.4157
-10.3353
-10.2684
-10.2127
-10.1666
-10.1283
-10.0967
-10.0706
-10.049
-10.0312
-10.0165
-10.0045
-9.99455
-9.98639
-9.97969
-9.9742
-9.9697
-9.96604
-9.96306
-9.96067
-9.95876
-9.95726
-9.95613
-9.95531
-9.95479
-9.95453
-19.2067
-19.2132
-19.2255
-19.2424
-19.2618
-19.2812
-19.2969
-19.3048
-19.3001
-19.2775
-19.2315
-19.1568
-19.0479
-18.9
-18.7087
-18.4703
-18.1824
-17.8437
-17.4551
-17.0196
-16.543
-16.0338
-15.5028
-14.9624
-14.4257
-13.9049
-13.4107
-12.9513
-12.5319
-12.1554
-11.822
-11.5305
-11.2782
-11.0618
-10.8775
-10.7215
-10.5901
-10.48
-10.388
-10.3113
-10.2476
-10.1947
-10.151
-10.1147
-10.0848
-10.0601
-10.0398
-10.023
-10.0092
-9.99783
-9.98848
-9.9808
-9.97449
-9.96932
-9.96509
-9.96164
-9.95884
-9.95658
-9.95479
-9.95338
-9.95231
-9.95154
-9.95104
-9.95081
-19.1912
-19.199
-19.2141
-19.2352
-19.2605
-19.2872
-19.3117
-19.3295
-19.3356
-19.3242
-19.2895
-19.2255
-19.1267
-18.9875
-18.8031
-18.5693
-18.2828
-17.9416
-17.5458
-17.0981
-16.6042
-16.0733
-15.5178
-14.9518
-14.3908
-13.8488
-13.3379
-12.8669
-12.441
-12.0625
-11.7309
-11.4439
-11.1978
-10.9886
-10.8118
-10.6633
-10.5391
-10.4355
-10.3494
-10.2779
-10.2187
-10.1697
-10.1293
-10.0959
-10.0684
-10.0457
-10.027
-10.0116
-9.99898
-9.98857
-9.98001
-9.97299
-9.96722
-9.96249
-9.95863
-9.95547
-9.95292
-9.95085
-9.94921
-9.94793
-9.94695
-9.94625
-9.94579
-9.94557
-19.1703
-19.1798
-19.1983
-19.2248
-19.2574
-19.2933
-19.329
-19.3596
-19.3796
-19.3826
-19.3623
-19.3123
-19.2264
-19.0986
-18.9236
-18.6962
-18.4122
-18.0686
-17.6642
-17.2011
-16.6848
-16.1255
-15.5374
-14.9375
-14.3441
-13.7743
-13.2418
-12.7563
-12.3229
-11.9429
-11.6144
-11.3337
-11.0962
-10.8966
-10.7298
-10.591
-10.4759
-10.3805
-10.3018
-10.2368
-10.1832
-10.139
-10.1027
-10.0728
-10.0482
-10.028
-10.0113
-9.99764
-9.98639
-9.97715
-9.96957
-9.96334
-9.95823
-9.95404
-9.95062
-9.94782
-9.94556
-9.94373
-9.94227
-9.94114
-9.94027
-9.93965
-9.93924
-9.93905
-19.1439
-19.1553
-19.1778
-19.2103
-19.2515
-19.2985
-19.3476
-19.3936
-19.4304
-19.451
-19.4483
-19.4151
-19.3449
-19.2313
-19.068
-18.8493
-18.5695
-18.224
-17.8103
-17.3291
-16.7857
-16.191
-15.5618
-14.9188
-14.2848
-13.6803
-13.1217
-12.6194
-12.178
-11.7974
-11.474
-11.2023
-10.976
-10.7885
-10.634
-10.5069
-10.4026
-10.3171
-10.247
-10.1896
-10.1425
-10.1039
-10.0723
-10.0464
-10.0251
-10.0076
-9.99333
-9.98158
-9.97193
-9.96402
-9.95752
-9.9522
-9.94783
-9.94425
-9.94133
-9.93894
-9.937
-9.93544
-9.9342
-9.93322
-9.93248
-9.93195
-9.93159
-9.93144
-19.1118
-19.1252
-19.1519
-19.1912
-19.2418
-19.3014
-19.3661
-19.4302
-19.4867
-19.5279
-19.5456
-19.5321
-19.4803
-19.3834
-19.2346
-19.027
-18.7536
-18.4077
-17.9848
-17.4834
-16.9082
-16.2709
-15.5913
-14.8954
-14.2114
-13.5652
-12.976
-12.4552
-12.0063
-11.627
-11.3113
-11.0515
-10.8392
-10.6666
-10.5267
-10.4133
-10.3215
-10.2471
-10.1868
-10.1378
-10.0979
-10.0655
-10.039
-10.0175
-9.99982
-9.9854
-9.9736
-9.96394
-9.95603
-9.94954
-9.94423
-9.93988
-9.93631
-9.93339
-9.931
-9.92905
-9.92747
-9.92619
-9.92518
-9.92438
-9.92377
-9.92334
-9.92304
-9.92292
-19.0738
-19.0892
-19.1202
-19.1666
-19.2276
-19.3011
-19.3832
-19.468
-19.5473
-19.612
-19.653
-19.6617
-19.6308
-19.5532
-19.4215
-19.228
-18.9637
-18.6198
-18.1885
-17.6658
-17.0544
-16.3668
-15.6265
-14.8662
-14.1221
-13.4266
-12.8028
-12.2625
-11.8074
-11.4322
-11.1278
-10.8833
-10.6882
-10.5332
-10.4101
-10.3123
-10.2344
-10.1723
-10.1226
-10.0828
-10.0507
-10.0248
-10.0038
-9.98684
-9.97304
-9.9618
-9.95265
-9.94517
-9.93907
-9.93408
-9.92999
-9.92665
-9.92392
-9.92168
-9.91985
-9.91836
-9.91715
-9.91617
-9.91539
-9.91477
-9.91431
-9.91398
-9.91375
-9.91366
-19.0299
-19.0473
-19.0825
-19.136
-19.2077
-19.2962
-19.3978
-19.5058
-19.6109
-19.7022
-19.7691
-19.8025
-19.7947
-19.7387
-19.6269
-19.4506
-19.1991
-18.8604
-18.4229
-17.8785
-17.2269
-16.4808
-15.6681
-14.8304
-14.0145
-13.2617
-12.5995
-12.0397
-11.5811
-11.2139
-10.9248
-10.6995
-10.5252
-10.3905
-10.2864
-10.2058
-10.1432
-10.0943
-10.056
-10.0257
-10.0018
-9.98267
-9.96742
-9.95518
-9.94531
-9.93734
-9.93089
-9.92565
-9.92139
-9.91791
-9.91508
-9.91277
-9.91088
-9.90934
-9.90808
-9.90705
-9.90621
-9.90553
-9.90499
-9.90456
-9.90424
-9.90402
-9.90386
-9.90381
-18.9803
-18.9993
-19.0384
-19.0987
-19.1812
-19.2857
-19.4085
-19.5426
-19.6767
-19.7976
-19.8931
-19.9531
-19.9702
-19.9379
-19.8487
-19.6933
-19.4587
-19.1297
-18.6894
-18.1243
-17.4293
-16.6159
-15.7173
-14.7865
-13.8854
-13.0666
-12.363
-11.7851
-11.3268
-10.9727
-10.704
-10.5024
-10.3523
-10.2407
-10.1578
-10.0959
-10.0495
-10.0146
-9.98803
-9.96774
-9.95211
-9.93998
-9.9305
-9.92305
-9.91715
-9.91246
-9.90871
-9.9057
-9.90328
-9.90132
-9.89973
-9.89844
-9.8974
-9.89654
-9.89584
-9.89527
-9.8948
-9.89443
-9.89412
-9.89388
-9.89371
-9.89359
-9.8935
-9.89348
-18.9251
-18.9455
-18.9878
-19.0542
-19.1473
-19.2682
-19.4141
-19.5772
-19.7438
-19.8977
-20.0241
-20.1124
-20.1558
-20.1488
-20.0848
-19.9539
-19.7413
-19.4276
-18.9898
-18.4065
-17.6657
-16.7758
-15.7754
-14.7331
-13.7308
-12.837
-12.0898
-11.4967
-11.0445
-10.7097
-10.4672
-10.2941
-10.1719
-10.0861
-10.0261
-9.98421
-9.95491
-9.93438
-9.91995
-9.90976
-9.90253
-9.89736
-9.89364
-9.89094
-9.88897
-9.88751
-9.88642
-9.88561
-9.88499
-9.88451
-9.88414
-9.88386
-9.88363
-9.88345
-9.8833
-9.88317
-9.88307
-9.88298
-9.88292
-9.88286
-9.88283
-9.88281
-9.88279
-9.88281
-18.865
-18.8862
-18.9306
-19.0022
-19.1051
-19.2425
-19.4132
-19.6085
-19.8118
-20.0022
-20.1617
-20.2794
-20.3497
-20.3692
-20.3327
-20.2302
-20.0452
-19.7537
-19.3255
-18.729
-17.9415
-16.9653
-15.8444
-14.6678
-13.5459
-12.5674
-11.7759
-11.1728
-10.7341
-10.4263
-10.2166
-10.077
-9.98636
-9.92883
-9.89338
-9.8724
-9.86071
-9.85489
-9.85268
-9.85259
-9.85369
-9.85539
-9.85732
-9.85927
-9.86112
-9.8628
-9.8643
-9.8656
-9.86672
-9.86768
-9.86849
-9.86916
-9.86973
-9.87019
-9.87057
-9.87088
-9.87112
-9.87132
-9.87148
-9.8716
-9.8717
-9.87178
-9.87184
-9.8719
-18.8004
-18.8218
-18.8672
-18.9422
-19.0535
-19.2072
-19.4042
-19.6356
-19.8803
-20.1111
-20.3058
-20.4532
-20.5504
-20.5968
-20.5896
-20.5195
-20.3683
-20.1074
-19.698
-19.0957
-18.2627
-17.1905
-15.9269
-14.588
-13.3243
-12.2514
-11.417
-10.8116
-10.3962
-10.1244
-9.9545
-9.85365
-9.79797
-9.77089
-9.76129
-9.76192
-9.76816
-9.77711
-9.78702
-9.79689
-9.80614
-9.81452
-9.82193
-9.82836
-9.83389
-9.83858
-9.84255
-9.84588
-9.84866
-9.85098
-9.85291
-9.8545
-9.85582
-9.8569
-9.85778
-9.85849
-9.85907
-9.85954
-9.85991
-9.8602
-9.86043
-9.86061
-9.86073
-9.86083
-18.7322
-18.7529
-18.7977
-18.8742
-18.9919
-19.1609
-19.3855
-19.6572
-19.9494
-20.225
-20.4564
-20.6332
-20.7562
-20.8293
-20.8527
-20.8186
-20.7078
-20.4871
-20.1082
-19.5109
-18.6368
-17.4591
-16.0265
-14.4901
-13.0582
-11.8816
-11.0087
-10.4121
-10.032
-9.80631
-9.68375
-9.62663
-9.60912
-9.61429
-9.63147
-9.65409
-9.67828
-9.70185
-9.72366
-9.7432
-9.76034
-9.77513
-9.78777
-9.79848
-9.80749
-9.81504
-9.82135
-9.82659
-9.83094
-9.83454
-9.83752
-9.83998
-9.842
-9.84366
-9.84501
-9.84611
-9.847
-9.84772
-9.84829
-9.84874
-9.8491
-9.84937
-9.84955
-9.84968
-18.6612
-18.6803
-18.7228
-18.7981
-18.9194
-19.1018
-19.3552
-19.6723
-20.0193
-20.3448
-20.6142
-20.8188
-20.9655
-21.0641
-21.1189
-21.1242
-21.0605
-20.8906
-20.5564
-19.979
-19.0723
-17.7811
-16.148
-14.3691
-12.7375
-11.4492
-10.5465
-9.97362
-9.64325
-9.47489
-9.40735
-9.39873
-9.42208
-9.46088
-9.50536
-9.55001
-9.59194
-9.62979
-9.66311
-9.69195
-9.7166
-9.73749
-9.75508
-9.76981
-9.7821
-9.79233
-9.80082
-9.80785
-9.81366
-9.81846
-9.82241
-9.82567
-9.82835
-9.83055
-9.83234
-9.8338
-9.83498
-9.83593
-9.83669
-9.83729
-9.83777
-9.83811
-9.83836
-9.8385
-18.5885
-18.605
-18.643
-18.7141
-18.8352
-19.0283
-19.3108
-19.6794
-20.0908
-20.4723
-20.7801
-21.0097
-21.1767
-21.2986
-21.3848
-21.4325
-21.4226
-21.3151
-21.042
-20.5039
-19.579
-18.1691
-16.298
-14.2184
-12.3497
-10.9445
-10.0264
-9.49656
-9.23271
-9.13359
-9.12857
-9.17269
-9.23905
-9.31232
-9.38421
-9.45063
-9.50985
-9.56147
-9.60579
-9.64344
-9.67519
-9.7018
-9.72401
-9.74249
-9.75784
-9.77054
-9.78105
-9.78974
-9.7969
-9.8028
-9.80766
-9.81166
-9.81494
-9.81763
-9.81983
-9.82162
-9.82306
-9.82424
-9.82517
-9.8259
-9.8265
-9.8269
-9.82721
-9.82735
-18.515
-18.5279
-18.5593
-18.6226
-18.739
-18.9383
-19.2495
-19.6767
-20.1653
-20.6097
-20.9552
-21.2053
-21.3882
-21.5303
-21.6472
-21.7394
-21.7897
-21.7565
-21.5634
-21.0889
-20.1675
-18.6389
-16.4858
-14.0287
-11.8788
-10.3566
-9.44472
-8.98246
-8.80402
-8.78636
-8.85084
-8.95123
-9.06205
-9.17007
-9.26908
-9.35669
-9.43253
-9.49726
-9.55197
-9.59789
-9.63624
-9.66817
-9.69466
-9.71661
-9.73476
-9.74974
-9.76211
-9.7723
-9.7807
-9.78761
-9.79329
-9.79797
-9.8018
-9.80494
-9.80751
-9.8096
-9.81129
-9.81266
-9.81376
-9.81462
-9.81531
-9.81577
-9.81612
-9.81627
-18.4419
-18.4502
-18.4726
-18.5242
-18.6303
-18.83
-19.1678
-19.6618
-20.2449
-20.7603
-21.141
-21.4055
-21.5981
-21.7566
-21.9027
-22.041
-22.1571
-22.2099
-22.1174
-21.7361
-20.8496
-19.2106
-16.7247
-13.7866
-11.3047
-9.67369
-8.79936
-8.43431
-8.36178
-8.43758
-8.57765
-8.73691
-8.89286
-9.03537
-9.16079
-9.26874
-9.36036
-9.43741
-9.50181
-9.5554
-9.59986
-9.63666
-9.66708
-9.69219
-9.71289
-9.72996
-9.74401
-9.75557
-9.76509
-9.77291
-9.77934
-9.78463
-9.78896
-9.79251
-9.79541
-9.79777
-9.79969
-9.80124
-9.80248
-9.80345
-9.80423
-9.80473
-9.80512
-9.80526
-18.3702
-18.3729
-18.3843
-18.42
-18.5091
-18.7012
-19.0612
-19.6312
-20.3329
-20.9282
-21.3395
-21.6095
-21.8048
-21.9751
-22.1482
-22.3332
-22.5196
-22.6696
-22.6991
-22.446
-21.6372
-19.9092
-17.0339
-13.4728
-10.6023
-8.88397
-8.08988
-7.85678
-7.91156
-8.09191
-8.31246
-8.53211
-8.73306
-8.90922
-9.05998
-9.18718
-9.29357
-9.38206
-9.45539
-9.51601
-9.56605
-9.60729
-9.64126
-9.66923
-9.69225
-9.71118
-9.72675
-9.73955
-9.75007
-9.75871
-9.76581
-9.77164
-9.77643
-9.78034
-9.78354
-9.78615
-9.78827
-9.78998
-9.79135
-9.79241
-9.79328
-9.79381
-9.79423
-9.79437
-18.301
-18.2972
-18.2954
-18.3112
-18.376
-18.55
-18.9245
-19.5801
-20.4341
-21.1188
-21.5522
-21.8167
-22.0064
-22.1833
-22.3809
-22.6123
-22.8722
-23.129
-23.3019
-23.2164
-22.5415
-20.7657
-17.4418
-13.0592
-9.74081
-7.97609
-7.31833
-7.25643
-7.45974
-7.75421
-8.05855
-8.3389
-8.58393
-8.79237
-8.96706
-9.11223
-9.23227
-9.33125
-9.41272
-9.47972
-9.53478
-9.58002
-9.61719
-9.64772
-9.6728
-9.6934
-9.71032
-9.72422
-9.73564
-9.74501
-9.75271
-9.75902
-9.7642
-9.76844
-9.77191
-9.77474
-9.77703
-9.77889
-9.78037
-9.78152
-9.78246
-9.78302
-9.78345
-9.7836
-18.2351
-18.2243
-18.2076
-18.1993
-18.232
-18.375
-18.7513
-19.5012
-20.5561
-21.3385
-21.7808
-22.026
-22.2008
-22.379
-22.598
-22.8746
-23.2097
-23.581
-23.9173
-24.042
-23.572
-21.8171
-17.9902
-12.5038
-8.68303
-6.94064
-6.49004
-6.64171
-7.01337
-7.4293
-7.81891
-8.15905
-8.44645
-8.68534
-8.88229
-9.04398
-9.17646
-9.28494
-9.37374
-9.44645
-9.50601
-9.55481
-9.59481
-9.62761
-9.65452
-9.67659
-9.69471
-9.70958
-9.72178
-9.7318
-9.74002
-9.74676
-9.75229
-9.75682
-9.76053
-9.76354
-9.76599
-9.76798
-9.76957
-9.77078
-9.77179
-9.77237
-9.7728
-9.77298
-18.1733
-18.155
-18.1222
-18.0864
-18.0788
-18.1752
-18.5339
-19.3837
-20.7098
-21.5951
-22.0263
-22.2356
-22.3861
-22.5604
-22.7975
-23.1172
-23.5273
-24.0179
-24.535
-24.9136
-24.7345
-23.1073
-18.7417
-11.7442
-7.38534
-5.7719
-5.61423
-6.02291
-6.57988
-7.12178
-7.59618
-7.99398
-8.32131
-8.58844
-8.80575
-8.98241
-9.12608
-9.24304
-9.33835
-9.41612
-9.47964
-9.53158
-9.57407
-9.60886
-9.63737
-9.66074
-9.6799
-9.69562
-9.70851
-9.71909
-9.72776
-9.73488
-9.74072
-9.74549
-9.7494
-9.75259
-9.75517
-9.75727
-9.75895
-9.76022
-9.76128
-9.76188
-9.76231
-9.76255
-18.1164
-18.0904
-18.0407
-17.9747
-17.9189
-17.9507
-18.2641
-19.2115
-20.9117
-21.8973
-22.289
-22.4433
-22.5601
-22.7257
-22.9778
-23.3377
-23.8208
-24.4324
-25.1432
-25.8177
-26.0289
-24.6854
-19.7899
-10.687
-5.79871
-4.47012
-4.70455
-5.41184
-6.16676
-6.83582
-7.3925
-7.84471
-8.20894
-8.50177
-8.7374
-8.92741
-9.08098
-9.20541
-9.30644
-9.38863
-9.45561
-9.51027
-9.55492
-9.59144
-9.62134
-9.64582
-9.66589
-9.68233
-9.69582
-9.70688
-9.71596
-9.72339
-9.72949
-9.73449
-9.73857
-9.7419
-9.74461
-9.7468
-9.74856
-9.74987
-9.75097
-9.75161
-9.75203
-9.75234
-18.0647
-18.0312
-17.9645
-17.8664
-17.7556
-17.7034
-17.9329
-18.9604
-21.1864
-22.2546
-22.5675
-22.6461
-22.7208
-22.8737
-23.1375
-23.5342
-24.0865
-24.8173
-25.7292
-26.736
-27.4462
-26.6031
-21.2739
-9.19305
-3.87152
-3.04427
-3.77934
-4.82144
-5.7812
-6.57501
-7.2095
-7.71185
-8.10948
-8.42525
-8.67707
-8.87878
-9.04099
-9.1719
-9.27787
-9.36387
-9.43382
-9.49081
-9.53732
-9.57532
-9.6064
-9.63183
-9.65267
-9.66974
-9.68373
-9.69521
-9.70462
-9.71233
-9.71865
-9.72383
-9.72806
-9.73152
-9.73433
-9.7366
-9.73843
-9.73978
-9.7409
-9.7416
-9.742
-9.74238
-18.0187
-17.9779
-17.8946
-17.764
-17.5931
-17.4369
-17.532
-18.5946
-21.5703
-22.6756
-22.8584
-22.8404
-22.8661
-23.0034
-23.2762
-23.7055
-24.3218
-25.1662
-26.2798
-27.646
-28.9661
-28.9093
-23.4
-7.05627
-1.55507
-1.51504
-2.8614
-4.26502
-5.42967
-6.34215
-7.04823
-7.59565
-8.02282
-8.35864
-8.62449
-8.83626
-9.00586
-9.1423
-9.25247
-9.3417
-9.41416
-9.47313
-9.5212
-9.56045
-9.59252
-9.61876
-9.64024
-9.65784
-9.67226
-9.68408
-9.69377
-9.70171
-9.70822
-9.71356
-9.71792
-9.72148
-9.72437
-9.72671
-9.72859
-9.72998
-9.7311
-9.73188
-9.73228
-9.7327
-17.9784
-17.9311
-17.8322
-17.6698
-17.4359
-17.1576
-17.0553
-18.0615
-22.1164
-23.1669
-23.1561
-23.022
-22.9943
-23.1142
-23.3935
-23.8513
-24.5247
-25.474
-26.7822
-28.5211
-30.5532
-31.6402
-26.4708
-3.97425
1.18674
0.0822972
-1.97725
-3.75553
-5.11755
-6.13919
-6.90915
-7.49598
-7.94862
-8.30154
-8.57927
-8.79953
-8.97533
-9.11639
-9.23005
-9.32197
-9.39652
-9.45713
-9.5065
-9.54677
-9.57967
-9.60657
-9.62859
-9.64662
-9.66139
-9.6735
-9.68342
-9.69155
-9.69822
-9.70368
-9.70814
-9.71179
-9.71476
-9.71715
-9.71908
-9.7205
-9.72161
-9.72247
-9.72287
-9.72329
-17.9438
-17.8909
-17.7779
-17.586
-17.2894
-16.8746
-16.5014
-17.2844
-22.9016
-23.7304
-23.4517
-23.1864
-23.1037
-23.2061
-23.4899
-23.9715
-24.6943
-25.7366
-27.2247
-29.3327
-32.1557
-34.804
-30.925
0.491676
4.362
1.69566
-1.15572
-3.30462
-4.84888
-5.96714
-6.79215
-7.41237
-7.88632
-8.25344
-8.54097
-8.76819
-8.94906
-9.09388
-9.2104
-9.3045
-9.38075
-9.44268
-9.49309
-9.5342
-9.56777
-9.59521
-9.61766
-9.63604
-9.65109
-9.66343
-9.67354
-9.68182
-9.68861
-9.69417
-9.69873
-9.70245
-9.70547
-9.7079
-9.70986
-9.71133
-9.71242
-9.71335
-9.71377
-9.71411
-17.9149
-17.8572
-17.7321
-17.5141
-17.1585
-16.6002
-15.878
-16.154
-24.0359
-24.3588
-23.7336
-23.3287
-23.1933
-23.2792
-23.566
-24.0669
-24.8305
-25.9517
-27.598
-30.0518
-33.7039
-38.3578
-37.3904
6.96932
7.92783
3.25541
-0.425934
-2.9218
-4.62608
-5.82607
-6.69662
-7.34404
-7.83519
-8.21369
-8.50903
-8.74178
-8.92667
-9.07447
-9.19323
-9.28905
-9.36663
-9.42961
-9.48085
-9.52261
-9.5567
-9.58456
-9.60735
-9.626
-9.64128
-9.6538
-9.66406
-9.67246
-9.67935
-9.68499
-9.68961
-9.69338
-9.69645
-9.69892
-9.70089
-9.70242
-9.70347
-9.70447
-9.70492
-9.70512
-17.8912
-17.83
-17.695
-17.4553
-17.048
-16.3494
-15.2074
-14.5155
-25.6743
-25.0303
-23.987
-23.4449
-23.2624
-23.334
-23.6227
-24.1386
-24.9342
-26.1185
-27.8953
-30.6513
-35.1124
-42.1749
-46.7524
16.3441
11.7575
4.67618
0.185307
-2.61375
-4.44998
-5.71526
-6.6215
-7.29001
-7.79439
-8.18159
-8.48288
-8.71983
-8.90776
-9.05782
-9.17828
-9.2754
-9.35398
-9.41775
-9.46961
-9.51186
-9.54634
-9.57452
-9.59756
-9.61642
-9.63187
-9.64452
-9.65489
-9.66339
-9.67035
-9.67605
-9.68072
-9.68454
-9.68765
-9.69013
-9.69211
-9.6937
-9.69472
-9.69573
-9.69625
-9.69628
-17.8726
-17.8088
-17.6664
-17.4103
-16.9617
-16.1389
-14.5342
-12.1543
-28.0319
-25.7003
-24.1957
-23.5316
-23.3113
-23.3717
-23.6614
-24.188
-25.007
-26.2378
-28.1134
-31.1099
-36.2858
-46.0001
-60.2403
29.8453
15.5957
5.86251
0.65635
-2.38382
-4.31987
-5.6333
-6.5655
-7.2492
-7.76305
-8.15646
-8.46199
-8.70192
-8.89201
-9.04366
-9.16532
-9.26336
-9.34265
-9.40697
-9.45927
-9.50187
-9.53663
-9.56503
-9.58826
-9.60726
-9.62283
-9.63558
-9.64602
-9.65458
-9.66159
-9.66734
-9.67204
-9.67589
-9.67903
-9.68152
-9.68349
-9.68515
-9.68614
-9.68713
-9.68773
-9.68764
-17.8585
-17.7933
-17.6461
-17.3791
-16.9021
-15.9855
-13.9361
-8.77704
-31.4025
-26.2922
-24.3437
-23.5871
-23.3406
-23.3934
-23.6838
-24.2171
-25.0511
-26.312
-28.2528
-31.4142
-37.1299
-49.3909
-79.5338
49.1521
18.9998
6.71975
0.973444
-2.23203
-4.23386
-5.57843
-6.52725
-7.22062
-7.74047
-8.13781
-8.44601
-8.68783
-8.87927
-9.03192
-9.15434
-9.25295
-9.33269
-9.39736
-9.44993
-9.49275
-9.52769
-9.55623
-9.57956
-9.59866
-9.6143
-9.62711
-9.6376
-9.6462
-9.65325
-9.65902
-9.66374
-9.66761
-9.67077
-9.67327
-9.67522
-9.67695
-9.67793
-9.67883
-9.67955
-9.67943
-17.8488
-17.7829
-17.6335
-17.3611
-16.8699
-15.9024
-13.5364
-3.98954
-36.1809
-26.683
-24.4182
-23.6113
-23.3517
-23.4008
-23.6914
-24.228
-25.0691
-26.3446
-28.317
-31.5609
-37.5693
-51.6434
-106.89
76.5212
21.2657
7.17229
1.13335
-2.15481
-4.1887
-5.54828
-6.50506
-7.20305
-7.72576
-8.12496
-8.43443
-8.67714
-8.86923
-9.02236
-9.14513
-9.24402
-9.32397
-9.3888
-9.4415
-9.48443
-9.51945
-9.54805
-9.57144
-9.59058
-9.60625
-9.61909
-9.62961
-9.63823
-9.64529
-9.65107
-9.65581
-9.65969
-9.66285
-9.66536
-9.66728
-9.66908
-9.67006
-9.67083
-9.67169
-9.67163
)
;

boundaryField
{
    left
    {
        type            calculated;
        value           nonuniform List<scalar> 
32
(
-19.2225
-19.2172
-19.2067
-19.1912
-19.1703
-19.1439
-19.1118
-19.0738
-19.0299
-18.9803
-18.9251
-18.865
-18.8004
-18.7322
-18.6612
-18.5885
-18.515
-18.4419
-18.3702
-18.301
-18.2351
-18.1733
-18.1164
-18.0647
-18.0187
-17.9784
-17.9438
-17.9149
-17.8912
-17.8726
-17.8585
-17.8488
)
;
    }
    right
    {
        type            calculated;
        value           nonuniform List<scalar> 
32
(
-9.9565
-9.95453
-9.95081
-9.94557
-9.93905
-9.93144
-9.92292
-9.91366
-9.90381
-9.89348
-9.88281
-9.8719
-9.86083
-9.84968
-9.8385
-9.82735
-9.81627
-9.80526
-9.79437
-9.7836
-9.77298
-9.76255
-9.75234
-9.74238
-9.7327
-9.72329
-9.71411
-9.70512
-9.69628
-9.68764
-9.67943
-9.67163
)
;
    }
    interface
    {
        type            calculated;
        value           nonuniform List<scalar> 
64
(
-17.8449
-17.7788
-17.629
-17.3553
-16.8606
-15.8798
-13.4047
-1.18684
-38.9783
-26.8095
-24.4358
-23.6157
-23.3528
-23.401
-23.6917
-24.229
-25.0719
-26.3509
-28.331
-31.5952
-37.6801
-52.378
-122.905
92.5438
22.0071
7.28984
1.17434
-2.13417
-4.17583
-5.53903
-6.49772
-7.19682
-7.72022
-8.11987
-8.42964
-8.67256
-8.86481
-9.01805
-9.14091
-9.23986
-9.31986
-9.38473
-9.43747
-9.48042
-9.51545
-9.54407
-9.56748
-9.58663
-9.60231
-9.61515
-9.62568
-9.6343
-9.64136
-9.64715
-9.65189
-9.65577
-9.65894
-9.66145
-9.66335
-9.66518
-9.66617
-9.66687
-9.66781
-9.66778
)
;
    }
    bottom
    {
        type            calculated;
        value           nonuniform List<scalar> 
64
(
-19.2239
-19.2287
-19.2376
-19.2494
-19.262
-19.2728
-19.2784
-19.2748
-19.2577
-19.2222
-19.1634
-19.0762
-18.956
-18.7982
-18.5993
-18.3562
-18.0672
-17.732
-17.3522
-16.9311
-16.4743
-15.9895
-15.4859
-14.974
-14.4644
-13.9676
-13.4926
-13.0468
-12.6354
-12.2618
-11.9272
-11.6312
-11.3723
-11.1479
-10.9551
-10.7905
-10.651
-10.5332
-10.4343
-10.3515
-10.2824
-10.2248
-10.1771
-10.1374
-10.1047
-10.0776
-10.0552
-10.0367
-10.0215
-10.0089
-9.99863
-9.99015
-9.98318
-9.97747
-9.97279
-9.96898
-9.96589
-9.9634
-9.96141
-9.95986
-9.95868
-9.95783
-9.95729
-9.95702
)
;
    }
    defaultFaces
    {
        type            empty;
    }
}


// ************************************************************************* //
