/*--------------------------------*- C++ -*----------------------------------*\
| =========                 |                                                 |
| \\      /  F ield         | OpenFOAM: The Open Source CFD Toolbox           |
|  \\    /   O peration     | Version:  5.x                                   |
|   \\  /    A nd           | Web:      www.OpenFOAM.org                      |
|    \\/     M anipulation  |                                                 |
\*---------------------------------------------------------------------------*/
FoamFile
{
    version     2.0;
    format      ascii;
    class       volScalarField;
    location    "0.8";
    object      gradTx;
}
// * * * * * * * * * * * * * * * * * * * * * * * * * * * * * * * * * * * * * //

dimensions      [0 -1 0 1 0 0 0];

internalField   nonuniform List<scalar> 
2048
(
-0.00110315
-0.0031652
-0.0047683
-0.00560627
-0.00537552
-0.00375688
-0.000463697
0.00475452
0.0120953
0.0216833
0.0335605
0.0476807
0.0639066
0.0820041
0.101632
0.122326
0.143488
0.164379
0.184136
0.201815
0.216463
0.22723
0.233468
0.234839
0.231364
0.223423
0.211693
0.19705
0.180449
0.162817
0.144972
0.127575
0.111115
0.0959171
0.082161
0.0699138
0.059158
0.0498184
0.0417843
0.034927
0.029112
0.0242073
0.0200886
0.0166427
0.0137685
0.011377
0.00939122
0.00774496
0.00638192
0.00525441
0.00432229
0.00355185
0.00291488
0.00238778
0.00195084
0.00158759
0.00128428
0.00102937
0.000813218
0.000627635
0.000465553
0.000320729
0.000187704
6.17559e-05
-0.0033831
-0.00972906
-0.0147287
-0.0174644
-0.0170335
-0.0124886
-0.00296275
0.0123017
0.0339008
0.0622116
0.097362
0.139219
0.187381
0.241165
0.299573
0.361247
0.42442
0.486895
0.546084
0.599132
0.643145
0.675506
0.69423
0.698266
0.687678
0.66364
0.628239
0.584161
0.534317
0.481514
0.428211
0.376375
0.327448
0.282367
0.241645
0.205453
0.173718
0.146198
0.122554
0.102393
0.0853112
0.0709139
0.0588316
0.0487283
0.0403046
0.0332984
0.0274825
0.0226622
0.0186721
0.015372
0.0126443
0.01039
0.00852637
0.00698437
0.00570623
0.00464371
0.0037565
0.00301093
0.00237873
0.00183601
0.00136207
0.000938374
0.000548489
0.000180048
-0.00589543
-0.0170124
-0.0259551
-0.03121
-0.0312837
-0.0245998
-0.00969055
0.0147327
0.0496836
0.0958026
0.15331
0.221995
0.301215
0.389881
0.486403
0.588602
0.693612
0.797812
0.89687
0.985931
1.06
1.11452
1.14598
1.15251
1.13424
1.09322
1.03315
0.958724
0.874966
0.786671
0.697968
0.612109
0.531421
0.457378
0.390736
0.331702
0.280085
0.235438
0.19716
0.164583
0.137025
0.113829
0.0943855
0.0781419
0.0646097
0.053362
0.0440304
0.0363001
0.0299035
0.0246149
0.0202447
0.0166338
0.0136494
0.0111805
0.00913424
0.00743337
0.00601322
0.00481981
0.00380796
0.00293945
0.00218132
0.00150355
0.000877067
0.000286513
-0.00879337
-0.025474
-0.0392202
-0.0479494
-0.0495739
-0.0418623
-0.0226999
0.00978449
0.0570629
0.12006
0.199094
0.29388
0.403555
0.52668
0.661158
0.804096
0.951618
1.09872
1.23926
1.36622
1.47219
1.55032
1.59525
1.6041
1.57703
1.51724
1.43033
1.32339
1.20389
1.07879
0.953983
0.833977
0.721897
0.61963
0.528058
0.44731
0.37699
0.316377
0.264568
0.220588
0.183465
0.152277
0.126174
0.104396
0.0862738
0.0712246
0.0587487
0.0484202
0.0398783
0.0328192
0.0269881
0.0221718
0.0181922
0.0149007
0.0121732
0.00990645
0.00801394
0.00642367
0.00507532
0.00391801
0.00290824
0.0020068
0.00116887
0.000379683
-0.0121745
-0.0354162
-0.0550522
-0.0684624
-0.0729568
-0.0656023
-0.0435597
-0.00429308
0.0541916
0.13313
0.232931
0.353222
0.492935
0.650339
0.822948
1.0073
1.19864
1.39065
1.57532
1.74318
1.88402
1.98811
2.04774
2.0587
2.02121
1.9399
1.82286
1.6801
1.522
1.35799
1.1958
1.04116
0.897858
0.768041
0.652546
0.551279
0.46353
0.388218
0.324083
0.269812
0.224127
0.185831
0.153841
0.127194
0.105049
0.0866806
0.071467
0.0588817
0.0484802
0.039889
0.0327956
0.0269389
0.0221013
0.0181013
0.0147876
0.012034
0.00973531
0.00780389
0.00616627
0.00476035
0.0035338
0.0024415
0.00142067
0.00045888
-0.0160897
-0.0470043
-0.0737624
-0.0932476
-0.102157
-0.096787
-0.0734613
-0.0288569
0.0396321
0.13358
0.253456
0.398757
0.568199
0.759824
0.970902
1.19761
1.43451
1.67411
1.90646
2.11934
2.29916
2.43253
2.50864
2.52149
2.47137
2.36481
2.21314
2.03013
1.82965
1.62396
1.4227
1.23274
1.05835
0.9017
0.763378
0.642899
0.539104
0.450464
0.3753
0.311927
0.258742
0.214276
0.177212
0.146394
0.120823
0.0996382
0.082111
0.0676245
0.0556603
0.0457845
0.0376346
0.0309087
0.0253552
0.0207649
0.0169631
0.0138045
0.011168
0.00895306
0.00707505
0.00546218
0.00405468
0.00280482
0.00163075
0.000523744
-0.0205476
-0.0602796
-0.0954674
-0.122555
-0.137618
-0.136091
-0.1133
-0.0649639
0.0122626
0.120315
0.259658
0.429557
0.628465
0.854262
1.10416
1.37423
1.6587
1.94905
2.23345
2.49661
2.72076
2.88787
2.98292
2.99743
2.93175
2.79505
2.60299
2.37414
2.12667
1.87599
1.63375
1.40775
1.20248
1.01984
0.859945
0.721705
0.603371
0.502871
0.41805
0.346819
0.28724
0.237567
0.196261
0.161985
0.133589
0.110097
0.0906834
0.0746525
0.0614234
0.0505105
0.0415099
0.0340854
0.0279577
0.0228945
0.0187024
0.0152201
0.0123139
0.00987259
0.00780277
0.00602434
0.00447151
0.00309675
0.00179882
0.000574234
-0.025518
-0.0751688
-0.120104
-0.156411
-0.179537
-0.183943
-0.163743
-0.113448
-0.0287998
0.0925176
0.250832
0.445003
0.673119
0.932948
1.22186
1.53621
1.87027
2.21491
2.55648
2.8763
3.15158
3.35821
3.47548
3.4914
3.40641
3.23332
2.99364
2.71218
2.41229
2.11296
1.82774
1.56511
1.32937
1.12185
0.941835
0.787454
0.656217
0.545416
0.452368
0.374558
0.309706
0.255799
0.211083
0.174053
0.143429
0.11813
0.0972468
0.08002
0.0658156
0.0541063
0.0444543
0.0364965
0.0299316
0.0245093
0.0200212
0.0162938
0.0131833
0.0105707
0.00835575
0.00645156
0.0047877
0.00331926
0.00192564
0.000610589
-0.0309336
-0.0914909
-0.14744
-0.194628
-0.227887
-0.240566
-0.225281
-0.174987
-0.0842643
0.0495933
0.226557
0.444785
0.701823
0.995361
1.3232
1.68244
2.06796
2.47055
2.87505
3.25915
3.59399
3.84758
3.9914
4.00849
3.89936
3.68195
3.38574
3.04364
2.68524
2.33337
2.00331
1.70372
1.43828
1.20725
1.00883
0.84011
0.697729
0.57826
0.478455
0.39536
0.326357
0.269174
0.221861
0.182763
0.150486
0.12386
0.101908
0.0838179
0.0689137
0.0566361
0.0465216
0.0381867
0.031314
0.0256397
0.0209446
0.017046
0.0137928
0.0110605
0.00874419
0.00675147
0.00500872
0.00347567
0.00201272
0.00063326
-0.0366934
-0.108964
-0.177082
-0.236819
-0.282431
-0.306004
-0.298277
-0.250166
-0.154728
-0.00886656
0.186675
0.428906
0.714538
1.0412
1.40745
1.81169
2.25014
2.7143
3.18801
3.64526
4.04999
4.36003
4.53608
4.55408
4.41461
4.14289
3.77934
3.36725
2.94366
2.53537
2.15891
1.8225
1.52853
1.27575
1.0609
0.879828
0.728172
0.601726
0.496654
0.409561
0.337507
0.277978
0.22885
0.188338
0.154953
0.127452
0.104806
0.0861628
0.0708156
0.0581816
0.0477797
0.0392124
0.0321512
0.0263238
0.0215037
0.017502
0.0141628
0.0113583
0.00898086
0.00693366
0.00514149
0.0035702
0.00206209
0.000642908
-0.0426651
-0.127212
-0.208486
-0.282401
-0.342727
-0.380133
-0.383005
-0.339541
-0.240737
-0.0831231
0.131293
0.397692
0.71155
1.07043
1.47401
1.92266
2.4149
2.9439
3.49343
4.03396
4.52115
4.89969
5.11548
5.13414
4.95632
4.61771
4.17374
3.68102
3.18517
2.71681
2.29294
1.92043
1.59963
1.32724
1.09822
0.906949
0.747973
0.616272
0.507417
0.417588
0.343542
0.282555
0.23235
0.191037
0.15705
0.129094
0.1061
0.0871878
0.0716321
0.0588352
0.0483052
0.0396367
0.0324955
0.0266046
0.0217337
0.0176905
0.0143164
0.0114825
0.00908008
0.0070089
0.00519381
0.00360774
0.00207626
0.00064045
-0.0486901
-0.145776
-0.240963
-0.330598
-0.408126
-0.462676
-0.479691
-0.443703
-0.342853
-0.173323
0.0607728
0.351817
0.693493
1.08329
1.52245
2.01409
2.56007
3.15658
3.78859
4.42378
5.00851
5.47087
5.73629
5.75536
5.5288
5.10748
4.56745
3.98219
3.40687
2.87532
2.40378
1.99661
1.65128
1.36185
1.12115
0.921978
0.757698
0.622467
0.511283
0.419932
0.344903
0.28329
0.232695
0.191144
0.157019
0.128987
0.105958
0.0870343
0.0714813
0.0586948
0.0481791
0.0395266
0.0324019
0.0265272
0.0216713
0.0176413
0.0142777
0.0114523
0.0090569
0.00698856
0.00517409
0.00359365
0.00205831
0.000627166
-0.0545886
-0.164129
-0.273695
-0.380442
-0.477763
-0.553192
-0.588534
-0.563349
-0.461721
-0.279526
-0.0242553
0.292312
0.661369
1.08035
1.55257
2.08476
2.68331
3.34904
4.06993
4.81222
5.51249
6.07807
6.40623
6.42546
6.13656
5.61261
4.958
4.26717
3.6054
3.00839
2.48989
2.05037
1.68341
1.37989
1.13025
0.925573
0.758024
0.620964
0.508854
0.417132
0.342062
0.28059
0.23023
0.188954
0.155107
0.127341
0.104554
0.0858467
0.0704826
0.0578593
0.0474832
0.0389495
0.0319257
0.0261368
0.0213537
0.0173846
0.0140711
0.0112871
0.0089265
0.00688416
0.00509105
0.00353378
0.00201197
0.000604797
-0.0601666
-0.181691
-0.305753
-0.430782
-0.550541
-0.651059
-0.709729
-0.699359
-0.598153
-0.401732
-0.122881
0.220584
0.616555
1.06251
1.56444
2.1336
2.78221
3.51753
4.33297
5.19563
6.0326
6.72593
7.13432
7.15349
6.78429
6.13268
5.34178
4.53152
3.77698
3.11347
2.54995
2.08128
1.69621
1.38193
1.12626
0.918523
0.749726
0.612479
0.500773
0.409752
0.335503
0.27487
0.225308
0.18476
0.151561
0.12436
0.102059
0.0837667
0.0687536
0.0564258
0.0462975
0.0379713
0.0311212
0.025478
0.0208171
0.0169497
0.0137201
0.0110057
0.00870373
0.00670705
0.00495353
0.00343437
0.00194171
0.000575589
-0.0652243
-0.197852
-0.336123
-0.480291
-0.625113
-0.755438
-0.843478
-0.85289
-0.753222
-0.539892
-0.233885
0.138434
0.560795
1.031
1.55844
2.15979
2.8544
3.65797
4.57236
5.56898
6.56718
7.41922
7.9313
7.9502
7.4768
6.6661
5.71385
4.76996
3.91757
3.18813
2.58289
2.08925
1.69017
1.36874
1.11007
0.901723
0.733641
0.597768
0.487702
0.398363
0.325715
0.266541
0.218273
0.178852
0.146621
0.120243
0.0986388
0.0809308
0.0664069
0.054487
0.0446984
0.0366548
0.0300399
0.0245928
0.0200956
0.0163644
0.0132471
0.0106259
0.00840282
0.00646819
0.00477041
0.00330209
0.00185268
0.000542193
-0.0695658
-0.212001
-0.363737
-0.527487
-0.699858
-0.865221
-0.989973
-1.02548
-0.928365
-0.693911
-0.355699
0.0480606
0.496178
0.987364
1.53525
2.16282
2.89771
3.76612
4.78188
5.92569
7.11302
8.16268
8.81015
8.82857
8.21888
7.20974
6.06773
4.97638
4.02299
3.23019
2.58802
2.07454
1.66606
1.34131
1.08269
0.876147
0.710652
0.577605
0.470307
0.38353
0.313172
0.256
0.209457
0.171504
0.140514
0.11518
0.0944476
0.0774669
0.0635478
0.0521299
0.0427575
0.0350587
0.0287299
0.0235206
0.0192215
0.0156549
0.0126731
0.0101647
0.00803719
0.00617799
0.00455037
0.00314395
0.0017504
0.000507376
-0.0730088
-0.223553
-0.387517
-0.570756
-0.772863
-0.978951
-1.14937
-1.21919
-1.12553
-0.863615
-0.486346
-0.0479373
0.425092
0.933394
1.49586
2.14254
2.91028
3.83772
4.9546
6.25746
7.66483
8.96068
9.78667
9.80446
9.01496
7.7584
6.39525
5.14399
4.08912
3.23786
2.56513
2.0378
1.6249
1.30078
1.04526
0.842824
0.681659
0.552761
0.449241
0.365799
0.298329
0.243625
0.19917
0.162974
0.133453
0.109344
0.0896296
0.0734933
0.0602736
0.0494343
0.0405402
0.0332368
0.0272353
0.0222974
0.0182241
0.0148448
0.0120173
0.00963733
0.0076193
0.00584621
0.00430172
0.00296704
0.0016402
0.000473546
-0.075395
-0.231982
-0.406419
-0.608401
-0.841906
-1.09472
-1.32169
-1.43673
-1.34732
-1.04869
-0.623355
-0.146569
0.350156
0.871093
1.44156
2.09924
2.89075
3.86877
5.08304
6.55412
8.21463
9.81678
10.8804
10.8974
9.86867
8.30423
6.68638
5.26549
4.11213
3.20993
2.51451
1.98005
1.56801
1.24848
0.998979
0.802805
0.647561
0.523991
0.42513
0.34569
0.281614
0.229767
0.187703
0.153498
0.125632
0.102894
0.0843156
0.0691176
0.0566725
0.0464726
0.0381059
0.0312379
0.0255959
0.0209559
0.0171299
0.0139557
0.0112971
0.00905778
0.00716063
0.00548191
0.00403213
0.00277826
0.00152658
0.000442156
-0.076599
-0.236853
-0.419492
-0.638692
-0.904461
-1.21007
-1.50673
-1.68171
-1.59722
-1.24858
-0.763662
-0.244479
0.274132
0.802577
1.37389
2.03366
2.83839
3.85577
5.15947
6.80361
8.75101
10.7329
12.1156
12.1317
10.782
8.83591
6.92922
5.33334
4.08875
3.14585
2.43703
1.90271
1.4969
1.18582
0.945088
0.757142
0.609232
0.492016
0.398566
0.323684
0.263421
0.214748
0.175317
0.143292
0.117228
0.0959763
0.0786235
0.064436
0.0528236
0.0433095
0.0355077
0.0291053
0.0238474
0.019525
0.0159626
0.0130069
0.0105279
0.00843852
0.00667158
0.00509339
0.00374833
0.00258381
0.0014125
0.000413181
-0.0765364
-0.237845
-0.42593
-0.659946
-0.95772
-1.3218
-1.70382
-1.95887
-1.87986
-1.46224
-0.903487
-0.338001
0.199819
0.729985
1.29456
1.947
2.75317
3.79604
5.17632
6.99209
9.2583
11.7081
13.5229
13.538
11.7541
9.33789
7.1101
5.34017
4.01654
3.0459
2.33409
1.80751
1.41324
1.11427
0.884835
0.706863
0.56751
0.457514
0.370097
0.300226
0.244109
0.198859
0.16225
0.132548
0.108395
0.0887168
0.0726577
0.059534
0.0487964
0.040002
0.0327923
0.0268772
0.022021
0.0180304
0.014743
0.0120153
0.00972349
0.00779059
0.00616141
0.00468825
0.00345582
0.00238875
0.00129891
0.000384858
-0.0751694
-0.234777
-0.425127
-0.670612
-0.998653
-1.42589
-1.91151
-2.2744
-2.20131
-1.6879
-1.0382
-0.42324
0.129924
0.655377
1.20543
1.84091
2.63591
3.68793
5.12661
7.10426
9.71571
12.7368
15.1409
15.1548
12.7794
9.7895
7.2139
5.27925
3.89415
2.9112
2.20767
1.69649
1.31884
1.03534
0.819442
0.652949
0.523177
0.42111
0.340223
0.275716
0.224001
0.182361
0.148711
0.121436
0.0992737
0.0812283
0.0665094
0.054486
0.0446521
0.0366
0.0300005
0.0245871
0.020144
0.0164943
0.0134891
0.0109956
0.00889592
0.00712365
0.00563826
0.00427332
0.00315872
0.0021965
0.00118488
0.000353932
-0.0725096
-0.227621
-0.416724
-0.669379
-1.02411
-1.51731
-2.12709
-2.63641
-2.56957
-1.92251
-1.16222
-0.496197
0.0669275
0.580643
1.1084
1.71741
2.48827
3.5311
5.00459
7.12395
10.0965
13.8059
17.0188
17.0315
13.8449
10.1641
7.22458
5.14504
3.72155
2.74376
2.06019
1.57187
1.21556
0.950531
0.750083
0.59632
0.476956
0.383372
0.309393
0.250512
0.203381
0.16548
0.134883
0.110104
0.0899824
0.0736078
0.0602577
0.0493564
0.0404429
0.0331462
0.0271671
0.0222635
0.0182398
0.0149358
0.0122166
0.00996048
0.00805561
0.00644605
0.005109
0.00385472
0.00285972
0.00200861
0.00106821
0.000316495
-0.0686181
-0.216504
-0.400641
-0.655276
-1.03097
-1.58995
-2.34597
-3.05543
-2.99508
-2.16117
-1.26888
-0.552945
0.0129411
0.507411
1.00535
1.57886
2.31271
3.32671
4.80627
7.03494
10.3676
14.8911
19.2192
19.2307
14.9263
10.4287
7.12609
4.93378
3.50016
2.54647
1.89448
1.43603
1.10527
0.861268
0.67786
0.537821
0.429499
0.344808
0.278004
0.224925
0.182497
0.148415
0.120926
0.0986786
0.0806244
0.0659387
0.0539702
0.0442001
0.0362136
0.0296772
0.024322
0.0199308
0.0163283
0.0133712
0.0109388
0.00892075
0.00721149
0.00576499
0.00457927
0.00343779
0.00256025
0.00182469
0.000946719
0.000269368
-0.0636016
-0.201701
-0.377099
-0.627781
-1.01636
-1.63658
-2.56067
-3.54511
-3.49141
-2.39613
-1.35047
-0.589856
-0.0304201
0.436988
0.898086
1.42784
2.11246
3.07744
4.53003
6.82221
10.4892
15.9515
21.8226
21.8328
15.9829
10.5437
6.90357
4.64407
3.23298
2.32292
1.71366
1.29137
0.98977
0.768908
0.603785
0.478217
0.381389
0.305864
0.246403
0.199227
0.161563
0.131335
0.106973
0.0872691
0.0712865
0.0582912
0.0477038
0.0390634
0.0320019
0.0262236
0.0214902
0.0176094
0.0144262
0.0118141
0.00966661
0.00788541
0.00637114
0.00508666
0.00405344
0.00302705
0.00226098
0.00164283
0.000819772
0.000211695
-0.0576064
-0.183616
-0.346614
-0.586905
-0.97792
-1.649
-2.7596
-4.12314
-4.07615
-2.61556
-1.39836
-0.603875
-0.0621492
0.370318
0.788259
1.26705
1.89133
2.78753
4.17713
6.47346
10.4157
16.9224
24.9319
24.9409
16.9499
10.4634
6.54484
4.27734
2.92454
2.07737
1.52098
1.14028
0.870794
0.674698
0.528771
0.418184
0.333132
0.266927
0.214886
0.173649
0.140758
0.114383
0.0931388
0.0759656
0.0620416
0.0507239
0.0415058
0.0339846
0.0278389
0.0228108
0.0186924
0.0153161
0.0125472
0.0102759
0.00840942
0.00686194
0.00554089
0.00441637
0.0035347
0.00262607
0.00196231
0.00146023
0.000689611
0.000146228
-0.0508085
-0.162759
-0.30997
-0.533252
-0.914099
-1.61835
-2.92539
-4.81226
-4.77197
-2.80186
-1.40327
-0.592839
-0.0819225
0.307975
0.677356
1.09925
1.65359
2.46262
3.75202
5.98087
10.0975
17.7057
28.6789
28.6866
17.7292
10.1384
6.0422
3.83822
2.58073
1.81444
1.31975
0.985045
0.74993
0.579762
0.453622
0.358309
0.285164
0.228325
0.183704
0.148383
0.120234
0.0976763
0.0795165
0.0648427
0.0529493
0.0432848
0.035415
0.0289951
0.0237501
0.0194594
0.0159453
0.0130647
0.0107027
0.00876568
0.0071747
0.00585638
0.00472589
0.00375869
0.00302518
0.00223736
0.00166512
0.00127411
0.000561747
7.96706e-05
-0.0434023
-0.139708
-0.268176
-0.468032
-0.82449
-1.53571
-3.03266
-5.64163
-5.60797
-2.92947
-1.35597
-0.555801
-0.0901276
0.250177
0.566666
0.927074
1.40373
2.10945
3.26245
5.34295
9.48452
18.1572
33.2316
33.2381
18.1769
9.51875
5.39425
3.33465
2.20853
1.539
1.11318
0.827803
0.628613
0.485087
0.379038
0.299094
0.237855
0.190332
0.153064
0.123589
0.100114
0.0813119
0.066182
0.0539607
0.0440578
0.0360126
0.0294625
0.0241201
0.0197559
0.016186
0.0132626
0.0108663
0.00890157
0.00729089
0.0059685
0.00487359
0.00393027
0.00311753
0.0025262
0.00186226
0.00137133
0.00108268
0.000443922
2.15503e-05
-0.0355877
-0.115077
-0.2224
-0.393029
-0.710129
-1.39314
-3.04533
-6.64836
-6.62124
-2.96215
-1.2482
-0.493337
-0.0878352
0.196835
0.45727
0.753037
1.1463
1.73557
2.71932
4.56631
8.53207
18.0715
38.8036
38.8089
18.0874
8.55967
4.60771
2.77763
1.81571
1.25592
0.904298
0.670473
0.508104
0.391525
0.305606
0.240958
0.191506
0.153172
0.123135
0.0993944
0.0804967
0.0653667
0.0531959
0.0433674
0.0354051
0.0289377
0.0236729
0.0193792
0.0158721
0.0130036
0.0106547
0.00872933
0.0071509
0.00585726
0.00479558
0.00391736
0.00315719
0.00249618
0.00203855
0.0015009
0.00108421
0.000885751
0.000343427
-1.85245e-05
-0.0275573
-0.0894753
-0.173898
-0.310501
-0.573728
-1.18514
-2.91322
-7.87944
-7.8587
-2.84959
-1.07423
-0.407774
-0.0767077
0.14762
0.350048
0.579406
0.88563
1.34889
2.13613
3.66701
7.20924
17.1621
45.6645
45.6685
17.1743
7.23035
3.69871
2.1808
1.41035
0.969824
0.695842
0.514743
0.389482
0.29979
0.233814
0.184242
0.146363
0.117024
0.0940499
0.0759004
0.0614589
0.0499003
0.0406046
0.0330996
0.0270205
0.0220834
0.0180647
0.0147877
0.0121111
0.00992208
0.00812959
0.00666038
0.00545599
0.00446917
0.00365956
0.00299058
0.00240896
0.00189734
0.00156279
0.00115229
0.00080829
0.000684998
0.000263243
-3.47684e-05
-0.0194863
-0.0634852
-0.123933
-0.223041
-0.419761
-0.91072
-2.56797
-9.39383
-9.37927
-2.52332
-0.832903
-0.303277
-0.0588491
0.10204
0.245697
0.408174
0.625751
0.957217
1.52817
2.67107
5.51087
15.0385
54.1521
54.1549
15.047
5.52569
2.69332
1.55955
1.00041
0.684986
0.490226
0.36205
0.273644
0.210464
0.164053
0.129217
0.102618
0.0820271
0.0659108
0.0531834
0.043059
0.0349574
0.0284432
0.0231845
0.0189254
0.0154668
0.0126518
0.0103564
0.0084817
0.00694853
0.00569314
0.00466417
0.00382071
0.00312979
0.0025631
0.00209542
0.00168717
0.00132308
0.00109954
0.000814552
0.00054881
0.00048357
0.000198358
-2.90043e-05
-0.0115249
-0.037638
-0.0737135
-0.133376
-0.254343
-0.576196
-1.91827
-11.2649
-11.2563
-1.89198
-0.530361
-0.185717
-0.0366061
0.0595201
0.144748
0.241026
0.370198
0.567875
0.911449
1.61379
3.47335
11.1786
64.6867
64.6883
11.1837
3.48208
1.6269
0.92994
0.593345
0.405148
0.289486
0.213577
0.161314
0.124008
0.0966282
0.0760896
0.0604144
0.0482845
0.0387931
0.0312991
0.0253388
0.0205701
0.0167361
0.0136413
0.011135
0.00909983
0.00744348
0.00609291
0.00498992
0.00408788
0.00334929
0.00274391
0.00224768
0.00184129
0.00150805
0.00123338
0.000992799
0.000774787
0.000649674
0.000485271
0.000310666
0.000285337
0.000134546
-1.22327e-05
-0.00379757
-0.0124096
-0.0243415
-0.0441622
-0.0848065
-0.198625
-0.844463
-13.5829
-13.5801
-0.83582
-0.183557
-0.0622437
-0.0123399
0.0194763
0.0475891
0.0793286
0.12195
0.187314
0.301416
0.537329
1.19447
4.89825
77.7856
77.7861
4.8999
1.19735
0.541637
0.307496
0.195692
0.133449
0.0952799
0.0702619
0.0530514
0.0407735
0.0317657
0.0250107
0.0198564
0.0158685
0.0127485
0.0102853
0.0083264
0.00675919
0.00549924
0.00448225
0.00365868
0.00298994
0.00244568
0.00200192
0.0016395
0.00134312
0.00110044
0.000901525
0.000738476
0.000604982
0.000495536
0.000405478
0.000326352
0.000253168
0.000214418
0.000162059
9.70793e-05
9.41569e-05
5.27199e-05
-1.21248e-06
)
;

boundaryField
{
    left
    {
        type            calculated;
        value           uniform 0;
    }
    right
    {
        type            calculated;
        value           uniform 0;
    }
    interface
    {
        type            calculated;
        value           nonuniform List<scalar> 
64
(
-0.00379757
-0.0124096
-0.0243415
-0.0441622
-0.0848065
-0.198625
-0.844463
-13.5829
-13.5801
-0.83582
-0.183557
-0.0622437
-0.0123399
0.0194763
0.0475891
0.0793286
0.12195
0.187314
0.301416
0.537329
1.19447
4.89825
77.7856
77.7861
4.8999
1.19735
0.541637
0.307496
0.195692
0.133449
0.0952799
0.0702619
0.0530514
0.0407735
0.0317657
0.0250107
0.0198564
0.0158685
0.0127485
0.0102853
0.0083264
0.00675919
0.00549924
0.00448225
0.00365868
0.00298994
0.00244568
0.00200192
0.0016395
0.00134312
0.00110044
0.000901525
0.000738476
0.000604982
0.000495536
0.000405478
0.000326352
0.000253168
0.000214418
0.000162059
9.70793e-05
9.41569e-05
5.27199e-05
-1.21248e-06
)
;
    }
    bottom
    {
        type            calculated;
        value           nonuniform List<scalar> 
64
(
-0.00110315
-0.0031652
-0.0047683
-0.00560627
-0.00537552
-0.00375688
-0.000463697
0.00475452
0.0120953
0.0216833
0.0335605
0.0476807
0.0639066
0.0820041
0.101632
0.122326
0.143488
0.164379
0.184136
0.201815
0.216463
0.22723
0.233468
0.234839
0.231364
0.223423
0.211693
0.19705
0.180449
0.162817
0.144972
0.127575
0.111115
0.0959171
0.082161
0.0699138
0.059158
0.0498184
0.0417843
0.034927
0.029112
0.0242073
0.0200886
0.0166427
0.0137685
0.011377
0.00939122
0.00774496
0.00638192
0.00525441
0.00432229
0.00355185
0.00291488
0.00238778
0.00195084
0.00158759
0.00128428
0.00102937
0.000813218
0.000627635
0.000465553
0.000320729
0.000187704
6.17559e-05
)
;
    }
    defaultFaces
    {
        type            empty;
    }
}


// ************************************************************************* //
