/*--------------------------------*- C++ -*----------------------------------*\
| =========                 |                                                 |
| \\      /  F ield         | OpenFOAM: The Open Source CFD Toolbox           |
|  \\    /   O peration     | Version:  5.x                                   |
|   \\  /    A nd           | Web:      www.OpenFOAM.org                      |
|    \\/     M anipulation  |                                                 |
\*---------------------------------------------------------------------------*/
FoamFile
{
    version     2.0;
    format      ascii;
    class       volScalarField;
    location    "0.8";
    object      T;
}
// * * * * * * * * * * * * * * * * * * * * * * * * * * * * * * * * * * * * * //

dimensions      [0 0 0 1 0 0 0];

internalField   nonuniform List<scalar> 
2048
(
9.86189
9.86186
9.86179
9.86171
9.86162
9.86154
9.8615
9.86152
9.86165
9.8619
9.86233
9.86295
9.86382
9.86495
9.86638
9.86812
9.8702
9.87261
9.87534
9.87836
9.88164
9.88513
9.88875
9.89242
9.89608
9.89965
9.90307
9.90627
9.90922
9.91191
9.91431
9.91644
9.9183
9.91991
9.9213
9.92248
9.92348
9.92433
9.92504
9.92563
9.92613
9.92654
9.92689
9.92717
9.92741
9.9276
9.92776
9.92789
9.928
9.92809
9.92817
9.92823
9.92828
9.92832
9.92835
9.92838
9.9284
9.92842
9.92843
9.92845
9.92845
9.92846
9.92846
9.92847
9.59175
9.59164
9.59145
9.59118
9.5909
9.59065
9.59051
9.59056
9.59089
9.59162
9.59284
9.59466
9.59719
9.60052
9.60473
9.60988
9.61601
9.62314
9.63123
9.64021
9.64995
9.6603
9.67106
9.682
9.69288
9.70349
9.71362
9.72312
9.73188
9.73982
9.74692
9.7532
9.75869
9.76343
9.76751
9.77099
9.77393
9.77641
9.7785
9.78024
9.7817
9.78291
9.78391
9.78475
9.78544
9.78601
9.78648
9.78687
9.78719
9.78745
9.78767
9.78785
9.78799
9.78811
9.78821
9.78829
9.78835
9.78841
9.78845
9.78848
9.78851
9.78852
9.78854
9.78854
9.33353
9.33335
9.333
9.33253
9.33202
9.33156
9.33125
9.33125
9.33171
9.33281
9.33471
9.3376
9.34165
9.34701
9.35383
9.36221
9.37222
9.38389
9.39716
9.41191
9.42797
9.44504
9.46279
9.48085
9.49881
9.5163
9.53297
9.54858
9.56293
9.57592
9.58752
9.59774
9.60665
9.61434
9.62094
9.62655
9.6313
9.63531
9.63866
9.64147
9.6438
9.64575
9.64736
9.6487
9.6498
9.65072
9.65147
9.65209
9.65261
9.65303
9.65338
9.65366
9.65389
9.65409
9.65424
9.65437
9.65448
9.65456
9.65463
9.65468
9.65472
9.65475
9.65477
9.65477
9.08677
9.0865
9.08597
9.08527
9.08448
9.08372
9.08317
9.08301
9.08347
9.08479
9.08722
9.09102
9.09641
9.10363
9.11287
9.12429
9.138
9.15403
9.17233
9.19275
9.21502
9.23876
9.26347
9.28861
9.3136
9.33789
9.36101
9.38259
9.40237
9.42021
9.43608
9.45002
9.46214
9.47258
9.48151
9.48909
9.49549
9.50087
9.50537
9.50913
9.51227
9.51487
9.51702
9.51881
9.52029
9.52151
9.52251
9.52334
9.52403
9.52459
9.52505
9.52543
9.52574
9.526
9.52621
9.52638
9.52652
9.52663
9.52672
9.52679
9.52684
9.52688
9.52691
9.52692
8.85103
8.85064
8.84992
8.84892
8.84778
8.84664
8.84573
8.84528
8.84559
8.84698
8.84976
8.85426
8.86079
8.86966
8.88112
8.89538
8.91259
8.93283
8.95605
8.98206
9.01053
9.04094
9.07266
9.10493
9.13699
9.16809
9.19761
9.22506
9.25011
9.27262
9.29255
9.30999
9.32509
9.33805
9.34909
9.35844
9.36632
9.37292
9.37845
9.38305
9.38688
9.39006
9.39269
9.39486
9.39666
9.39815
9.39937
9.40038
9.40121
9.40189
9.40246
9.40292
9.4033
9.40361
9.40386
9.40407
9.40424
9.40438
9.40448
9.40457
9.40463
9.40468
9.40471
9.40472
8.62587
8.62536
8.6244
8.62306
8.62148
8.61987
8.61846
8.61757
8.61756
8.61881
8.62173
8.62673
8.63419
8.64449
8.65794
8.67483
8.69536
8.71966
8.74768
8.77923
8.81391
8.85108
8.88993
8.92948
8.96872
9.00671
9.04262
9.07587
9.10606
9.13304
9.15681
9.1775
9.19534
9.21058
9.22351
9.23443
9.2436
9.25128
9.25768
9.26301
9.26743
9.27109
9.27413
9.27663
9.2787
9.28041
9.28181
9.28297
9.28393
9.28471
9.28536
9.28589
9.28632
9.28668
9.28697
9.28721
9.2874
9.28756
9.28768
9.28778
9.28785
9.28791
9.28794
9.28796
8.41089
8.41024
8.409
8.40726
8.40517
8.40296
8.40092
8.39942
8.39889
8.3998
8.40265
8.40792
8.41607
8.42756
8.44277
8.46206
8.48571
8.51389
8.54662
8.58369
8.62464
8.66871
8.71489
8.76193
8.80856
8.85355
8.8959
8.93489
8.97009
9.00135
9.02872
9.0524
9.07271
9.08998
9.10458
9.11685
9.12713
9.13571
9.14285
9.14877
9.15369
9.15775
9.16111
9.16388
9.16617
9.16806
9.16961
9.17089
9.17194
9.17281
9.17352
9.17411
9.17459
9.17498
9.1753
9.17557
9.17578
9.17595
9.17609
9.17619
9.17628
9.17633
9.17637
9.17639
8.20568
8.20488
8.20333
8.20113
8.19844
8.19552
8.1927
8.1904
8.18915
8.1895
8.19204
8.19734
8.20595
8.21838
8.2351
8.25656
8.28311
8.31501
8.35233
8.3949
8.44221
8.49338
8.54715
8.60199
8.65626
8.70844
8.7573
8.80199
8.84206
8.87738
8.90809
8.93449
8.957
8.97604
8.99205
9.00547
9.01666
9.02598
9.03371
9.04011
9.04541
9.04979
9.05341
9.05639
9.05884
9.06087
9.06254
9.06391
9.06504
9.06597
9.06673
9.06735
9.06787
9.06829
9.06863
9.06892
9.06914
9.06933
9.06947
9.06959
9.06968
9.06974
9.06978
9.0698
8.00987
8.00891
8.00701
8.0043
8.00093
7.99718
7.99341
7.99014
7.98795
7.9875
7.9895
7.99458
8.00339
8.01652
8.0345
8.05787
8.08708
8.12249
8.16428
8.21233
8.26613
8.32465
8.38637
8.44938
8.51163
8.57123
8.62669
8.67704
8.72181
8.76095
8.79472
8.82355
8.84797
8.8685
8.88569
8.90003
8.91195
8.92183
8.93002
8.93678
8.94237
8.94698
8.95078
8.95391
8.95649
8.95862
8.96036
8.9618
8.96298
8.96396
8.96475
8.96541
8.96595
8.96639
8.96675
8.96704
8.96728
8.96747
8.96763
8.96775
8.96784
8.9679
8.96795
8.96797
7.82309
7.82194
7.81968
7.81641
7.81228
7.80758
7.80272
7.79826
7.7949
7.79342
7.79462
7.79926
7.80803
7.82159
7.84057
7.86557
7.89718
7.93589
7.982
8.03551
8.09592
8.16208
8.23217
8.30383
8.37448
8.44178
8.50395
8.55989
8.60917
8.65188
8.6884
8.71934
8.74536
8.76711
8.78522
8.80026
8.81272
8.82302
8.83152
8.83854
8.84432
8.84909
8.85301
8.85624
8.85889
8.86108
8.86288
8.86436
8.86557
8.86657
8.86739
8.86806
8.86861
8.86907
8.86944
8.86974
8.86998
8.87018
8.87034
8.87046
8.87055
8.87062
8.87067
8.87069
7.64496
7.64363
7.64099
7.63712
7.63216
7.62641
7.62028
7.61444
7.60967
7.60691
7.60708
7.61102
7.6195
7.63325
7.65296
7.67932
7.71304
7.75478
7.80504
7.86395
7.9311
8.00524
8.08421
8.1651
8.24465
8.31998
8.38896
8.45041
8.50399
8.54995
8.58889
8.6216
8.6489
8.67159
8.69038
8.70591
8.71872
8.72928
8.73798
8.74514
8.75103
8.75588
8.75986
8.76314
8.76583
8.76804
8.76986
8.77136
8.77259
8.7736
8.77443
8.77511
8.77567
8.77612
8.7765
8.7768
8.77705
8.77725
8.77741
8.77753
8.77763
8.7777
8.77774
8.77776
7.47515
7.47363
7.4706
7.4661
7.46026
7.45334
7.44581
7.43835
7.43194
7.42764
7.42652
7.42954
7.43752
7.45121
7.47137
7.49879
7.53431
7.57879
7.63295
7.69718
7.7712
7.8537
7.94216
8.03296
8.12202
8.20573
8.28163
8.34847
8.40607
8.45493
8.49592
8.53005
8.55832
8.58165
8.60087
8.61669
8.62969
8.64037
8.64914
8.65634
8.66226
8.66712
8.67111
8.67439
8.67709
8.6793
8.68112
8.68261
8.68384
8.68485
8.68567
8.68635
8.68691
8.68736
8.68774
8.68804
8.68829
8.68849
8.68865
8.68877
8.68886
8.68893
8.68898
8.689
7.3133
7.31159
7.30817
7.30304
7.29628
7.28811
7.279
7.26972
7.26139
7.25529
7.25266
7.25453
7.26179
7.2752
7.29555
7.32372
7.3607
7.40757
7.46536
7.53476
7.61574
7.70702
7.80568
7.90722
8.00647
8.09898
8.18187
8.25392
8.31522
8.36659
8.40923
8.4444
8.4733
8.49701
8.51643
8.53233
8.54535
8.55602
8.56475
8.57192
8.57779
8.58261
8.58656
8.5898
8.59246
8.59465
8.59644
8.59792
8.59913
8.60012
8.60093
8.6016
8.60215
8.6026
8.60297
8.60327
8.60351
8.60371
8.60386
8.60399
8.60408
8.60414
8.60419
8.60421
7.15908
7.1572
7.1534
7.14764
7.13994
7.13044
7.11959
7.10826
7.09774
7.08957
7.08518
7.08573
7.09208
7.10499
7.12528
7.15388
7.19195
7.24083
7.30188
7.37623
7.46424
7.56475
7.67442
7.7877
7.89797
7.99971
8.08962
8.16664
8.23123
8.28467
8.32852
8.36435
8.39356
8.41736
8.43675
8.45256
8.46545
8.47598
8.48459
8.49163
8.4974
8.50212
8.50599
8.50916
8.51176
8.5139
8.51565
8.51708
8.51826
8.51923
8.52003
8.52068
8.52121
8.52165
8.52201
8.5223
8.52254
8.52273
8.52288
8.523
8.52309
8.52316
8.5232
8.52322
7.01215
7.01011
7.00596
6.9996
6.99095
6.98007
6.96735
6.95371
6.94069
6.93017
6.92382
6.92286
6.92815
6.94039
6.96037
6.98909
7.02786
7.07829
7.14217
7.22118
7.3162
7.4264
7.54805
7.67425
7.7965
7.9079
8.00481
8.08646
8.15387
8.20888
8.2535
8.2896
8.31879
8.34242
8.36157
8.37711
8.38974
8.40003
8.40842
8.41527
8.42087
8.42545
8.4292
8.43227
8.43479
8.43686
8.43855
8.43994
8.44108
8.44201
8.44278
8.44341
8.44393
8.44435
8.44469
8.44498
8.44521
8.44539
8.44554
8.44565
8.44574
8.4458
8.44584
8.44586
6.87218
6.87001
6.86556
6.85864
6.84907
6.83677
6.82204
6.80583
6.78999
6.77682
6.7683
6.76571
6.76981
6.78121
6.80066
6.82919
6.86825
6.91974
6.98594
7.06918
7.17112
7.29146
7.4262
7.56678
7.7021
7.82362
7.9274
8.01323
8.08291
8.13895
8.18386
8.21983
8.24868
8.27189
8.2906
8.30572
8.31798
8.32793
8.33603
8.34263
8.34802
8.35242
8.35602
8.35896
8.36138
8.36335
8.36497
8.3663
8.3674
8.36829
8.36902
8.36963
8.37012
8.37052
8.37086
8.37112
8.37134
8.37152
8.37166
8.37177
8.37185
8.37191
8.37195
8.37197
6.73887
6.73659
6.73188
6.72448
6.71405
6.70033
6.68345
6.66441
6.64535
6.62923
6.61837
6.61404
6.61687
6.62732
6.64604
6.67407
6.71299
6.76501
6.83292
6.91984
7.02847
7.15937
7.30849
7.4652
7.61488
7.74692
7.85733
7.94677
8.01808
8.07456
8.11926
8.15472
8.18294
8.2055
8.22359
8.23816
8.24993
8.25946
8.2672
8.2735
8.27863
8.28282
8.28625
8.28905
8.29134
8.29322
8.29476
8.29602
8.29705
8.2979
8.2986
8.29917
8.29964
8.30002
8.30033
8.30059
8.3008
8.30097
8.3011
8.3012
8.30128
8.30134
8.30137
8.30139
6.61189
6.60953
6.60464
6.59683
6.58563
6.57052
6.55142
6.52922
6.50652
6.48712
6.47375
6.46764
6.46917
6.47858
6.49639
6.52363
6.56199
6.61396
6.68289
6.77281
6.88771
7.02952
7.19448
7.36953
7.53502
7.67793
7.79453
7.88687
7.95908
8.01538
8.05939
8.09396
8.12126
8.14296
8.16028
8.17418
8.18537
8.19441
8.20174
8.2077
8.21254
8.2165
8.21973
8.22236
8.22452
8.22629
8.22774
8.22892
8.2299
8.2307
8.23135
8.23189
8.23233
8.23269
8.23298
8.23322
8.23342
8.23357
8.2337
8.2338
8.23387
8.23392
8.23396
8.23397
6.49094
6.48855
6.48354
6.47544
6.46358
6.44718
6.42577
6.40009
6.37321
6.35018
6.3342
6.32631
6.32656
6.33488
6.35164
6.37781
6.41519
6.46651
6.53568
6.62775
6.74829
6.90121
7.0837
7.27983
7.46281
7.61677
7.73893
7.8333
7.9056
7.96108
8.00391
8.03723
8.06337
8.08401
8.10043
8.11355
8.12409
8.13259
8.13946
8.14504
8.14958
8.15327
8.15629
8.15875
8.16077
8.16241
8.16376
8.16487
8.16578
8.16652
8.16713
8.16763
8.16804
8.16838
8.16865
8.16888
8.16906
8.1692
8.16932
8.16941
8.16948
8.16953
8.16956
8.16957
6.37573
6.37334
6.3683
6.36003
6.34767
6.3301
6.30637
6.27685
6.24515
6.21811
6.19946
6.18987
6.18889
6.19612
6.21171
6.23657
6.27255
6.32261
6.39118
6.48437
6.60968
6.77369
6.97556
7.19628
7.39862
7.5636
7.69043
7.78579
7.85731
7.91131
7.95249
7.98425
8.00898
8.02841
8.0438
8.05606
8.06589
8.0738
8.08019
8.08536
8.08957
8.09299
8.09578
8.09806
8.09992
8.10145
8.1027
8.10372
8.10456
8.10524
8.10581
8.10627
8.10665
8.10696
8.10721
8.10742
8.10759
8.10772
8.10783
8.10791
8.10798
8.10802
8.10805
8.10806
6.26596
6.26361
6.25862
6.25033
6.23767
6.21912
6.19311
6.15938
6.12203
6.09059
6.06929
6.05815
6.05606
6.06221
6.07654
6.09988
6.13407
6.18225
6.24932
6.34246
6.47132
6.64607
6.86935
7.11923
7.34294
7.51858
7.64886
7.74402
7.81384
7.86571
7.90481
7.9347
7.95783
7.97591
7.99018
8.00152
8.01059
8.01787
8.02375
8.0285
8.03236
8.0355
8.03806
8.04015
8.04186
8.04325
8.04439
8.04533
8.0461
8.04673
8.04724
8.04766
8.04801
8.04829
8.04852
8.04871
8.04887
8.04899
8.04909
8.04917
8.04922
8.04927
8.04929
8.0493
6.16136
6.1591
6.15425
6.14607
6.13333
6.11407
6.08591
6.0476
6.00353
5.9673
5.94345
5.93098
5.92794
5.93307
5.94609
5.96771
5.99976
6.04547
6.1101
6.20186
6.33273
6.51738
6.76416
7.04921
7.29639
7.48186
7.61402
7.70763
7.77481
7.82393
7.86055
7.88831
7.90967
7.9263
7.93937
7.94974
7.95801
7.96464
7.96999
7.97431
7.97782
7.98067
7.98299
7.98488
7.98643
7.98769
7.98873
7.98958
7.99027
7.99084
7.99131
7.99169
7.992
7.99226
7.99247
7.99264
7.99278
7.99289
7.99298
7.99305
7.9931
7.99314
7.99317
7.99318
6.06166
6.05952
6.0549
6.047
6.03442
6.01478
5.98473
5.94147
5.88925
5.84787
5.82172
5.80822
5.80444
5.80863
5.82029
5.84004
5.86963
5.91232
5.97359
6.06251
6.19343
6.3865
6.65878
6.9871
7.25974
7.45355
7.58564
7.67624
7.73982
7.78562
7.8194
7.84482
7.86427
7.87936
7.89119
7.90054
7.90799
7.91396
7.91877
7.92265
7.9258
7.92835
7.93043
7.93213
7.93352
7.93465
7.93558
7.93634
7.93696
7.93747
7.93789
7.93823
7.93851
7.93874
7.93893
7.93908
7.93921
7.93931
7.93939
7.93945
7.93949
7.93953
7.93955
7.93956
5.96661
5.96462
5.96031
5.95284
5.94069
5.92108
5.88955
5.84106
5.77876
5.73195
5.70388
5.68975
5.68545
5.6888
5.69911
5.71686
5.74373
5.78288
5.8399
5.92444
6.05309
6.25223
6.55158
6.93418
7.23385
7.43365
7.56334
7.64939
7.70847
7.75042
7.78106
7.80397
7.82141
7.8349
7.84544
7.85377
7.86039
7.86568
7.86995
7.87339
7.87617
7.87843
7.88028
7.88178
7.883
7.884
7.88482
7.8855
7.88604
7.8865
7.88686
7.88717
7.88741
7.88762
7.88778
7.88792
7.88803
7.88812
7.88819
7.88825
7.88828
7.88832
7.88834
7.88834
5.87596
5.87416
5.87022
5.86333
5.85188
5.83277
5.80035
5.74653
5.6715
5.61915
5.58977
5.57545
5.5709
5.57351
5.58247
5.59815
5.62206
5.65725
5.70917
5.78778
5.91147
6.11327
6.4403
6.8924
7.2197
7.42208
7.54668
7.62661
7.68035
7.718
7.74527
7.76553
7.7809
7.79274
7.80198
7.80927
7.81505
7.81968
7.82339
7.82639
7.82882
7.83079
7.83239
7.8337
7.83477
7.83564
7.83635
7.83694
7.83742
7.83781
7.83813
7.83839
7.83861
7.83878
7.83893
7.83905
7.83914
7.83922
7.83928
7.83933
7.83936
7.83939
7.83941
7.83941
5.78949
5.7879
5.7844
5.77821
5.76773
5.74965
5.71716
5.65823
5.56678
5.5091
5.47922
5.46525
5.46069
5.46269
5.47032
5.48386
5.50467
5.53553
5.58163
5.65278
5.76853
5.96833
6.32183
6.86454
7.21829
7.41858
7.53511
7.6074
7.65506
7.68805
7.71176
7.72929
7.74254
7.75273
7.76066
7.7669
7.77186
7.77581
7.77899
7.78155
7.78363
7.78531
7.78668
7.7878
7.78871
7.78945
7.79006
7.79056
7.79097
7.7913
7.79157
7.7918
7.79198
7.79213
7.79226
7.79236
7.79244
7.79251
7.79256
7.7926
7.79263
7.79265
7.79267
7.79267
5.70696
5.70561
5.7026
5.69722
5.68797
5.67146
5.63998
5.57669
5.46368
5.40144
5.37213
5.35907
5.35476
5.35625
5.36258
5.37396
5.39155
5.41782
5.45747
5.51978
5.62444
5.81617
6.19185
6.85466
7.23054
7.42268
7.528
7.59125
7.63221
7.66027
7.68031
7.69506
7.70618
7.7147
7.72133
7.72655
7.73068
7.73398
7.73663
7.73876
7.74049
7.74189
7.74303
7.74396
7.74472
7.74534
7.74584
7.74626
7.7466
7.74688
7.7471
7.74729
7.74744
7.74757
7.74767
7.74775
7.74782
7.74788
7.74792
7.74796
7.74798
7.748
7.74801
7.74801
5.62819
5.62707
5.62459
5.62012
5.61231
5.59793
5.56877
5.50277
5.36101
5.29585
5.26844
5.25685
5.25303
5.2541
5.25918
5.26839
5.28271
5.30421
5.33695
5.38919
5.47964
5.65582
6.04438
6.86843
7.25716
7.43366
7.52465
7.57765
7.61145
7.6344
7.65069
7.66266
7.67165
7.67853
7.68388
7.68808
7.69141
7.69407
7.6962
7.69792
7.6993
7.70043
7.70135
7.70209
7.7027
7.7032
7.70361
7.70394
7.70421
7.70444
7.70462
7.70477
7.70489
7.70499
7.70507
7.70514
7.7052
7.70524
7.70528
7.7053
7.70532
7.70534
7.70535
7.70535
5.55297
5.55211
5.55017
5.54667
5.54047
5.52874
5.50343
5.4377
5.2572
5.19212
5.16815
5.15855
5.15541
5.15615
5.16002
5.16709
5.17813
5.19477
5.22028
5.26152
5.33487
5.48681
5.87119
6.91383
7.29833
7.45052
7.52428
7.56611
7.59243
7.61018
7.62274
7.63192
7.63882
7.6441
7.64819
7.6514
7.65395
7.65598
7.6576
7.65892
7.65998
7.66084
7.66154
7.66211
7.66257
7.66295
7.66326
7.66351
7.66372
7.66389
7.66403
7.66415
7.66424
7.66432
7.66438
7.66443
7.66447
7.66451
7.66453
7.66456
7.66457
7.66458
7.66459
7.66459
5.48112
5.48051
5.47914
5.47664
5.47217
5.46352
5.44371
5.38327
5.15015
5.09017
5.0713
5.06414
5.06182
5.0623
5.06501
5.06998
5.07776
5.08954
5.10768
5.13729
5.19115
5.30951
5.6611
7.00176
7.35344
7.47198
7.52612
7.55615
7.57486
7.58741
7.59626
7.60273
7.60758
7.61128
7.61415
7.61641
7.61819
7.61961
7.62075
7.62167
7.62242
7.62302
7.62351
7.62391
7.62423
7.6245
7.62472
7.62489
7.62504
7.62516
7.62526
7.62534
7.6254
7.62546
7.6255
7.62554
7.62557
7.62559
7.62561
7.62562
7.62563
7.62564
7.62565
7.62565
5.41248
5.41212
5.4113
5.40982
5.40714
5.40187
5.38913
5.34192
5.0371
4.99016
4.97798
4.97359
4.97218
4.97245
4.97404
4.97697
4.98157
4.98854
4.99931
5.01702
5.04974
5.12556
5.39908
7.14702
7.42059
7.49651
7.5294
7.54735
7.55846
7.56589
7.57112
7.57494
7.5778
7.57998
7.58167
7.583
7.58405
7.58489
7.58556
7.5861
7.58654
7.58689
7.58718
7.58742
7.58761
7.58776
7.58789
7.588
7.58808
7.58815
7.58821
7.58826
7.5883
7.58833
7.58835
7.58837
7.58839
7.58841
7.58842
7.58843
7.58843
7.58844
7.58844
7.58844
5.34689
5.34677
5.3465
5.34601
5.34512
5.34336
5.33891
5.31697
4.91444
4.89259
4.88832
4.88685
4.88638
4.88647
4.88699
4.88795
4.88947
4.89176
4.89532
4.90118
4.91211
4.93851
5.06518
7.36931
7.496
7.52243
7.53342
7.53936
7.54303
7.54547
7.5472
7.54845
7.54939
7.55011
7.55067
7.5511
7.55145
7.55172
7.55194
7.55212
7.55226
7.55238
7.55248
7.55255
7.55262
7.55267
7.55271
7.55274
7.55277
7.5528
7.55281
7.55283
7.55284
7.55285
7.55286
7.55287
7.55287
7.55288
7.55288
7.55288
7.55289
7.55289
7.55289
7.55289
)
;

boundaryField
{
    left
    {
        type            zeroGradient;
    }
    right
    {
        type            zeroGradient;
    }
    interface
    {
        type            fixedValue;
        value           nonuniform List<scalar> 
64
(
5.31483
5.31483
5.31483
5.31483
5.31483
5.31483
5.31483
5.31483
4.84444
4.84444
4.84444
4.84444
4.84444
4.84444
4.84444
4.84444
4.84444
4.84444
4.84444
4.84444
4.84444
4.84444
4.84444
7.53553
7.53553
7.53553
7.53553
7.53553
7.53553
7.53553
7.53553
7.53553
7.53553
7.53553
7.53553
7.53553
7.53553
7.53553
7.53553
7.53553
7.53553
7.53553
7.53553
7.53553
7.53553
7.53553
7.53553
7.53553
7.53553
7.53553
7.53553
7.53553
7.53553
7.53553
7.53553
7.53553
7.53553
7.53553
7.53553
7.53553
7.53553
7.53553
7.53553
7.53553
)
;
    }
    bottom
    {
        type            fixedValue;
        value           uniform 10;
    }
    defaultFaces
    {
        type            empty;
    }
}


// ************************************************************************* //
