/*--------------------------------*- C++ -*----------------------------------*\
| =========                 |                                                 |
| \\      /  F ield         | OpenFOAM: The Open Source CFD Toolbox           |
|  \\    /   O peration     | Version:  5.x                                   |
|   \\  /    A nd           | Web:      www.OpenFOAM.org                      |
|    \\/     M anipulation  |                                                 |
\*---------------------------------------------------------------------------*/
FoamFile
{
    version     2.0;
    format      ascii;
    class       volScalarField;
    location    "2.2";
    object      gradTy;
}
// * * * * * * * * * * * * * * * * * * * * * * * * * * * * * * * * * * * * * //

dimensions      [0 -1 0 1 0 0 0];

internalField   nonuniform List<scalar> 
6300
(
5022.05
13054.9
21053.7
28995.9
36858.3
44617.5
52249.9
59731.5
67038.3
74146.5
81032.6
87674.5
94051.6
100146
105942
16.5022
49.5926
82.9322
116.653
150.837
185.49
220.51
255.667
290.566
324.632
357.104
387.058
413.455
435.233
451.422
27.407
82.375
137.791
193.901
250.869
308.732
367.358
426.388
485.188
542.806
597.951
649.022
694.189
731.553
759.359
38.1554
114.704
191.947
270.278
349.986
431.189
513.773
597.306
680.956
763.41
842.824
916.836
982.67
1037.37
1078.14
48.6633
146.331
245
345.262
447.583
552.236
659.202
768.064
877.869
986.993
1093.03
1192.75
1282.2
1357.02
1412.96
58.8271
176.947
296.443
418.161
542.818
670.929
802.687
937.82
1075.39
1213.59
1349.47
1478.84
1596.26
1695.43
1769.93
68.5208
206.174
345.645
488.091
634.562
785.925
942.737
1105.06
1272.21
1442.4
1612.31
1776.76
1928.46
2058.37
2156.72
77.5981
233.567
391.849
553.961
721.368
895.413
1077.2
1267.4
1465.91
1671.36
1880.48
2087.27
2282.31
2452.69
2583.32
85.8978
258.633
434.195
614.498
801.483
997.09
1203.17
1421.33
1652.53
1896.53
2150.85
2409.39
2660.66
2886.6
3063.4
93.2523
280.853
471.769
668.309
872.917
1088.21
1316.99
1562.1
1826.24
2111.23
2416.86
2738.58
3064.15
3369.45
3616.61
99.5045
299.736
503.685
714.001
933.597
1165.78
1414.35
1683.74
1978.94
2305.15
2666.59
3063.75
3487.67
3910.18
4272.51
104.527
314.88
529.198
750.36
981.625
1226.85
1490.79
1779.45
2100.51
2463.66
2880.4
3361.93
3912.32
4510.78
5076.52
108.242
326.036
547.83
776.561
1015.62
1269.13
1542.41
1842.62
2179.82
2568.42
3029.19
3591.01
4288.6
5143.77
6092.88
110.642
333.167
559.486
792.382
1035.07
1291.53
1566.97
1868.69
2207.58
2600.8
3076.73
3684.03
4506.99
5682.42
7358.41
111.793
336.481
564.525
798.348
1040.69
1294.87
1565.13
1857.46
2180.86
2550.29
2992.64
3561.12
4372.57
5720.1
8471.02
110971
115324
119456
123367
127059
130538
133810
136881
139762
142462
144993
147365
149590
151680
153645
155498
157249
158908
160487
161994
163438
164829
166174
167480
168753
170000
171225
172433
173626
174807
175978
177140
178293
179437
180571
181694
182806
183904
184987
186054
187102
188129
189132
190110
191060
191978
192864
193714
194526
195298
196029
196715
197356
197948
198490
198977
199409
199780
200088
200329
200499
200595
200610
200541
200383
200130
199775
199312
198733
198030
197193
196214
195083
193787
192316
190658
188801
186732
184438
181907
179125
176080
172761
169155
165255
161050
156537
151710
146569
141115
460.453
464
462.83
457.08
447.059
433.214
416.085
396.264
374.348
350.91
326.473
301.498
276.379
251.443
226.954
203.127
180.13
158.101
137.154
117.392
98.9064
81.7908
66.1376
52.0389
39.582
28.8417
19.8696
12.6815
7.24659
3.47984
1.24173
0.347522
0.585902
1.74412
3.63371
6.11007
9.08042
12.4984
16.3469
20.6148
25.2735
30.2608
35.4768
40.7933
46.0745
51.2035
56.1065
60.768
65.2347
69.6068
74.0205
78.6248
83.5582
88.9304
94.8102
101.225
108.17
115.624
123.572
132.021
141.015
150.641
161.02
172.303
184.65
198.215
213.129
229.487
247.339
266.69
287.5
309.699
333.191
357.861
383.582
410.203
437.54
465.36
493.36
521.153
548.251
574.064
597.904
619.009
636.572
649.797
657.956
660.455
656.897
647.131
774.836
780.836
778.672
768.6
751.188
727.25
697.76
663.77
626.329
586.428
544.962
502.709
460.323
418.339
377.186
337.203
298.656
261.759
226.689
193.602
162.647
133.974
107.74
84.104
63.2248
45.2439
30.2664
18.3368
9.41524
3.36028
-0.075302
-1.22906
-0.492969
1.73767
5.11786
9.39389
14.4198
20.1451
26.5787
33.7384
41.6023
50.0736
58.9704
68.0462
77.0333
85.6987
93.8946
101.59
108.875
115.945
123.065
130.517
138.565
147.408
157.163
167.861
179.468
191.915
205.147
219.157
234.01
249.856
266.916
285.465
305.797
328.195
352.9
380.081
409.826
442.136
476.933
514.083
553.415
594.737
637.844
682.505
728.439
775.288
822.574
869.671
915.775
959.891
1000.84
1037.3
1067.84
1091.04
1105.58
1110.38
1104.69
1088.23
1100.75
1109.33
1105.8
1090.58
1064.6
1029.16
985.801
936.128
881.731
824.077
764.461
703.988
643.564
583.917
525.615
469.095
414.695
362.678
313.261
266.638
223
182.548
145.503
112.103
82.5993
57.2275
36.1814
19.5681
7.36416
-0.62286
-4.76982
-5.61885
-3.81607
-0.0166034
5.21902
11.5044
18.6578
26.6773
35.6692
45.7516
56.9594
69.1749
82.1067
95.3262
108.354
120.768
132.301
142.898
152.72
162.11
171.523
181.448
192.32
204.465
218.048
233.08
249.443
266.964
285.491
304.964
325.461
347.206
370.552
395.94
423.848
454.733
488.979
526.855
568.491
613.868
662.843
715.186
770.63
828.897
889.72
952.819
1017.86
1084.42
1151.89
1219.45
1285.99
1350.1
1410.07
1463.92
1509.48
1544.55
1567.04
1575.2
1567.81
1544.38
1443.81
1455.18
1449.66
1427.96
1391.54
1342.41
1282.84
1215.21
1141.75
1064.48
985.126
905.126
825.62
747.494
671.415
597.879
527.25
459.805
395.766
335.337
278.729
226.183
177.984
134.466
95.9969
62.958
35.6903
14.4289
-0.779712
-10.1554
-14.2326
-13.8464
-10.0335
-3.85808
3.78929
12.3453
21.6289
31.7892
43.1687
56.1235
70.8443
87.223
104.806
122.859
140.533
157.08
172.031
185.296
197.161
208.214
219.22
230.984
244.216
259.42
276.818
296.349
317.719
340.532
364.437
389.262
415.077
442.211
471.206
502.745
537.568
576.382
619.779
668.163
721.711
780.357
843.834
911.755
983.702
1059.3
1138.23
1220.24
1305.01
1392.14
1480.98
1570.57
1659.56
1746.13
1827.96
1902.32
1966.09
2016.02
2048.98
2062.24
2053.87
2023.04
1810.77
1825.21
1816.7
1786.42
1736.67
1670.54
1591.4
1502.59
1407.17
1307.79
1206.65
1105.49
1005.63
908.064
813.499
722.425
635.175
551.985
473.036
398.5
328.579
263.533
203.706
149.538
101.56
60.3643
26.5389
0.563499
-17.3321
-27.3261
-30.131
-27.0161
-19.6609
-9.82744
1.04266
12.1296
23.3287
35.1361
48.3899
63.9424
82.3318
103.527
126.817
150.924
174.324
195.677
214.176
229.695
242.757
254.369
265.808
278.39
293.258
311.196
332.501
356.95
383.896
412.503
442.038
472.107
502.767
534.509
568.167
604.79
645.507
691.395
743.355
801.992
867.541
939.834
1018.37
1102.46
1191.45
1284.81
1382.24
1483.58
1588.68
1697.28
1808.86
1922.44
2036.5
2148.83
2256.49
2355.8
2442.46
2511.79
2559.12
2580.26
2572.13
2533.29
2210.25
2228.15
2214.98
2172.77
2105.29
2017.3
1913.78
1799.39
1678.21
1553.59
1428.16
1303.92
1182.3
1064.29
950.542
841.453
737.251
638.059
543.957
455.032
371.428
293.391
221.306
155.727
97.391
47.1944
6.12255
-24.8955
-45.22
-54.8058
-54.5094
-46.2477
-32.8128
-17.2453
-1.97225
11.7963
24.1963
36.4434
50.3439
67.7183
89.8222
116.855
147.695
180.05
211.103
238.425
260.65
277.671
290.479
300.814
310.79
322.544
337.917
358.161
383.694
413.991
447.716
483.171
518.9
554.133
588.928
624.074
660.88
700.959
746.017
797.682
857.325
925.875
1003.66
1090.32
1184.89
1286.11
1392.86
1504.44
1620.59
1741.44
1867.23
1998.08
2133.77
2273.54
2415.83
2558.16
2696.92
2827.36
2943.63
3039.1
3106.82
3140.28
3134.44
3086.75
2653.86
2675.69
2654.93
2595.33
2503.3
2386.3
2251.66
2105.82
1954.05
1800.4
1647.85
1498.48
1353.68
1214.3
1080.8
953.373
832.048
716.748
607.374
503.857
406.223
314.646
229.508
151.464
81.4829
20.8698
-28.7833
-65.7632
-88.5798
-96.5227
-90.3646
-72.9353
-49.0428
-24.2467
-2.82917
13.4248
25.2749
35.3599
47.2848
64.6716
90.2021
124.685
166.375
211.037
253.237
288.497
314.598
331.696
341.743
347.755
353.189
361.464
375.54
397.487
428.004
466.068
509.019
553.417
596.445
636.755
674.549
711.209
748.844
789.913
836.965
892.43
958.412
1036.4
1126.94
1229.34
1341.74
1461.71
1587.24
1717.35
1852.06
1992.07
2138.35
2291.75
2452.67
2620.82
2794.92
2972.41
3149.12
3319.09
3474.53
3606.12
3703.57
3756.64
3756.75
3699.13
3158.21
3184.35
3150.6
3064.41
2937.05
2780.51
2605.48
2420.63
2232.43
2045.45
1862.77
1686.28
1517.09
1355.68
1202.16
1056.38
918.045
786.789
662.246
544.111
432.203
326.539
227.415
135.514
52.0132
-21.3046
-82.0021
-127.087
-153.417
-158.603
-142.508
-108.989
-66.6335
-26.4443
3.68694
21.3308
28.8307
31.5627
36.2959
49.8322
77.6227
122.069
180.706
245.492
305.29
351.68
381.432
395.795
398.737
395.447
391.419
391.947
401.747
424.385
461.36
511.023
568.147
625.544
677.808
722.904
761.702
796.838
831.756
870.145
915.683
971.918
1042.09
1128.73
1232.99
1353.81
1487.54
1629.13
1774.86
1923.46
2075.7
2233.47
2399.02
2574.34
2760.89
2959.26
3168.86
3387.48
3610.71
3831.39
4039.41
4221.94
4363.87
4448.84
4461.77
4393.03
3748.78
3778.99
3721.55
3592.51
3412.59
3201.08
2973.26
2740.08
2508.88
2284.2
2068.64
1863.5
1669.2
1485.62
1312.3
1148.61
993.802
847.127
707.864
575.377
449.181
329.008
214.924
107.475
7.89432
-81.6325
-157.68
-215.391
-248.67
-251.299
-219.713
-157.738
-81.0805
-14.1359
28.2054
43.863
39.2713
24.9027
12.6512
14.4889
41.0815
99.0369
186.199
287.147
376.664
438.832
470.435
476.346
464.712
444.215
423.098
409.091
409.482
430.651
476.458
545.238
626.885
705.063
769.49
818.117
854.119
882.77
909.66
940.069
978.984
1031.32
1102.02
1195.65
1315.17
1459.63
1621.94
1790.52
1958.27
2124.24
2291.24
2463.55
2645.46
2840.63
3051.94
3281.35
3529.61
3795.69
4075.71
4361.65
4640.69
4895.9
5105.84
5244.44
5284.05
5203.55
4468.58
4499.56
4395.32
4193.59
3933.38
3644.92
3348.51
3056.49
2775.74
2509.62
2259.36
2024.97
1805.76
1600.67
1408.5
1227.96
1057.78
896.731
743.67
597.544
457.449
322.683
192.861
68.0957
-50.7063
-161.369
-259.753
-338.865
-388.047
-393.247
-340.667
-227.62
-81.5371
33.6014
91.1477
95.5526
63.7903
15.195
-31.2809
-56.5001
-40.6216
33.9455
171.837
345.25
487.408
569.982
596.417
582.149
543.437
493.862
444.524
405.491
387.284
401.426
458.459
560.908
690.598
804.355
883.897
931.478
957.09
971.206
982.458
997.704
1022.92
1064.24
1128.87
1225.24
1361.38
1539.66
1747.24
1952.97
2144.15
2323.38
2498.99
2679.67
2872.62
3083.48
3316.72
3576.05
3864.45
4183.54
4531.85
4901.53
5275.87
5634.65
5950.11
6182.15
6278.82
6189.75
5400.1
5414.51
5209.13
4878.6
4494.55
4099.93
3717.17
3356.44
3021.32
2711.98
2427.03
2164.39
1921.79
1696.98
1487.8
1292.26
1108.48
934.733
769.394
610.945
457.968
309.174
163.462
20.0816
-121.067
-258.817
-389.605
-505.455
-590.776
-618.416
-548.711
-345.101
-37.4677
164.231
230.571
199.279
112.507
2.39737
-105.858
-186.704
-206.871
-122.372
106.28
448.307
683.892
781.91
780.95
723.086
637.745
543.113
451.057
371.85
318.453
310.385
375.005
537.291
777.186
952.845
1044.25
1076.4
1076.53
1063.68
1049.42
1040.91
1043.56
1063.51
1109.93
1197.43
1346.82
1577.34
1875.08
2136.19
2347.06
2527.53
2699.25
2877.9
3073.77
3293.85
3543.68
3828.62
4154.76
4528.98
4956.81
5434.27
5932.98
6435.26
6913.95
7314.2
7540.5
7464.8
6734.08
6645.58
6202.76
5640.28
5070.6
4537.57
4053.8
3619.28
3229.54
2879.04
2562.4
2274.81
2012.09
1770.65
1547.38
1339.53
1144.67
960.567
785.15
616.427
452.44
291.208
130.702
-31.1439
-196.307
-366.27
-540.938
-715.967
-876.524
-983.716
-949.536
-612.343
159.159
489.777
510.577
382.895
194.832
-13.0623
-219.89
-404.264
-523.817
-486.248
-122.528
704.633
1078.46
1136.34
1047.4
903.575
745.419
588.646
439.086
301.047
184.356
114.681
150.917
401.913
956.257
1222.64
1289.9
1267.37
1214.66
1158.15
1108.1
1067.99
1039.29
1024.65
1031.77
1080.48
1215.38
1518.15
2055.58
2391.63
2593.6
2744.13
2889.36
3051.16
3239.86
3461.2
3719.86
4021.64
4375.55
4796.91
5309.96
5935.95
6584.46
7269.27
7990.18
8696.1
9236.46
9290.59
9034.38
8386.34
7368.22
6411.89
5593.49
4903.91
4319.2
3817.33
3381.01
2997.12
2655.73
2349.21
2071.57
1818.02
1584.6
1367.98
1165.25
973.798
791.181
615.02
442.883
272.147
99.8323
-77.6203
-264.653
-466.954
-691.744
-947.305
-1239.09
-1552.56
-1786.67
-1504.98
990.624
1261.41
1004.34
653.41
305.677
-30.0839
-366.272
-715.169
-1067.02
-1319.78
-1018.7
1613.71
1927.9
1702.13
1392.82
1104.64
851.046
623.748
410.487
199.473
-17.4663
-233.555
-382.447
-170.317
1549.93
1779.09
1664.74
1501.75
1358.16
1243.24
1152.4
1078.56
1014.69
954.392
893.682
839.365
842.144
1120.93
2525.9
2839.98
2913.99
2968.18
3055.38
3185.47
3358.72
3574.55
3833.72
4139.31
4498.93
4932.47
5500.06
6404.66
7183.05
8050.62
9087.24
10315.6
11631.8
12441.3
14461.2
10659.4
8444.17
6984.38
5930.44
5118.86
4464.96
3920.71
3456.7
3053.75
2698.63
2381.82
2096.2
1836.25
1597.51
1376.31
1169.49
974.215
787.836
607.755
431.254
255.315
76.3311
-110.32
-311.019
-535.247
-798.221
-1126.44
-1570.37
-2235.62
-3366.46
-5585.58
5025.75
2793.05
1633.18
919.263
399.24
-46.5108
-494.353
-1021.81
-1752.85
-2950.8
-5271.97
5860.93
3554.76
2388.14
1707.72
1255.82
918.761
638.597
378.625
106.415
-220.518
-678.547
-1435.67
-2914.23
4290.67
2830.08
2109.54
1708.13
1460.28
1293.6
1172.17
1074.73
984.905
884.684
746.349
516.004
71.4257
-898.013
4566.89
3633.81
3262.7
3144.48
3159.43
3257.39
3416.05
3625.28
3880.49
4178.93
4515.64
4874.72
5204.52
7054.48
7652.46
8587.74
9907.34
11807.7
14755.6
19883.8
134779
127435
119680
111537
103033
94198.7
85065.9
75667.6
66037.1
56207.6
46211.4
36080.3
25845.2
15536.5
5183.69
629.681
602.457
568.141
528.13
483.935
437.02
388.667
339.911
291.509
243.946
197.47
152.133
107.832
64.3498
21.3895
1058.49
1011.9
953.159
884.803
809.532
729.921
648.191
566.097
484.891
405.348
327.838
252.398
178.811
106.672
35.4519
1501.3
1433.35
1347.67
1248.28
1139.36
1024.84
907.993
791.318
676.541
564.666
456.102
350.792
248.333
148.075
49.2007
1964.9
1872.39
1755.77
1621.14
1474.69
1321.99
1167.53
1014.56
865.213
720.605
581.057
446.299
315.638
188.089
62.4768
2457.43
2335.4
2181.77
2005.7
1816.16
1620.81
1425.47
1234.1
1049.07
871.409
701.156
537.66
379.8
226.149
75.0913
2989.09
2829.84
2630.04
2403.59
2163.33
1919.5
1679.32
1447.24
1225.5
1014.73
814.43
623.329
439.713
261.593
86.8231
3573.18
3364.59
3104.74
2815.08
2513.88
2214.38
1924.94
1649.91
1390.88
1147.53
918.438
701.453
494.085
293.66
97.4208
4228.06
3950.23
3608.91
3237.81
2862.45
2498.99
2155.93
1836.44
1540.43
1266
1010.26
769.9
541.469
321.511
106.61
4980.5
4599.05
4142.61
3664.54
3198.9
2763.02
2363.16
1999.3
1668.29
1365.67
1086.61
826.348
580.33
344.275
114.109
5870.67
5322.5
4697.61
4078.59
3505.35
2990.81
2534.21
2129.15
1767.61
1441.66
1144.08
868.472
609.174
361.119
119.65
6960.37
6122.15
5246.28
4446.44
3752.79
3160.4
2653.49
2215.3
1831.2
1489.17
1179.49
894.206
626.718
371.344
123.011
8337.42
6958.94
5718.52
4707.68
3898.68
3244.23
2703.8
2247.17
1852.58
1504.22
1190.38
902.066
632.094
374.497
124.052
10052.4
7657.07
5960.76
4766.68
3889.69
3213.78
2670.08
2216.82
1827.55
1484.63
1175.66
891.498
625.04
370.466
122.742
11555.9
7655.49
5700.18
4508.21
3679.3
3050.84
2545.68
2122.31
1756.04
1430.95
1136.02
863.149
606.048
359.554
119.183
111.91
336.659
564.218
796.545
1035.74
1284.17
1544.6
1820.56
2117.01
2441.66
2808.14
3243.1
3803.45
4620.68
6016.63
111.295
334.638
560.231
789.553
1024.05
1265.05
1513.74
1770.89
2036.57
2309.45
2585.08
2850.74
3065.87
3080.08
2262.37
110.153
331.038
553.624
778.932
1007.77
1240.55
1476.93
1715.2
1951.04
2175.21
2368.83
2493.32
2467.64
2117.06
1082.3
108.605
326.24
545.098
765.818
988.709
1213.48
1438.74
1661.11
1873.51
2062.08
2200.49
2240.07
2094.92
1629.05
686.811
106.757
320.576
535.253
751.156
968.293
1186.01
1402.51
1613.87
1812.43
1983.67
2100.67
2115
1944.82
1471.77
590.852
104.692
314.301
524.528
735.601
947.424
1159.35
1369.77
1575.45
1770.25
1942.83
2072.05
2117.94
2004.96
1597.67
703.746
102.467
307.581
513.189
719.487
926.442
1133.67
1340.27
1544.5
1743.41
1932.02
2101.21
2231.12
2269.39
2061.44
1173.25
100.113
300.501
501.347
702.88
905.225
1108.39
1312.34
1517.17
1723.65
1934.62
2157.54
2407.85
2704.7
2997.53
2655.43
97.6431
293.089
489.003
685.674
883.393
1082.53
1283.76
1488.6
1700.68
1928.85
2194.75
2552.17
3142.68
4374.41
7588.04
95.0584
285.338
476.107
667.706
860.534
1055.17
1252.63
1454.94
1666.46
1896.83
2168.29
2534.51
3135.26
4374.81
7589.83
92.3573
277.236
462.613
648.849
836.376
1025.8
1218.07
1414.84
1619.07
1836.19
2075.93
2353.88
2684.1
3003.2
2664.25
89.5393
268.778
448.503
629.063
810.862
994.401
1180.33
1369.48
1562.65
1759.78
1956.94
2136.86
2240.55
2088.44
1203.54
86.6074
259.973
433.793
608.387
784.098
961.294
1140.32
1321.28
1503.41
1683.26
1849.85
1972.69
1974.56
1682.47
799.86
83.5683
250.842
418.527
586.906
756.265
926.872
1098.9
1272.2
1445.7
1615.87
1773.06
1892.46
1912.61
1686.53
894.138
80.4312
241.415
402.762
564.719
727.529
891.419
1056.55
1222.94
1390.23
1557.43
1722.44
1881.07
2021.57
2083.81
1679.97
77.2065
231.724
386.556
541.914
698.01
855.058
1013.28
1172.98
1334.76
1500.45
1676.18
1882.2
2184.8
2804.68
4518.57
73.9054
221.804
369.966
518.569
667.795
817.839
968.946
1121.52
1276.5
1436.43
1608.82
1816.17
2127.62
2765.7
4505.18
70.5396
211.689
353.051
494.766
636.978
779.842
923.541
1068.35
1214.74
1363.69
1517.11
1677.78
1843.53
1961.77
1638.97
67.1208
201.416
335.871
470.591
605.675
741.223
877.321
1014.01
1151.14
1287.78
1420.29
1535.78
1592.35
1464.03
824.863
63.6609
191.02
318.488
446.134
574.016
702.181
830.643
959.321
1087.82
1214.69
1335.21
1434.63
1469.48
1321
712.503
60.1714
180.536
300.962
421.485
542.125
662.89
783.766
904.701
1025.56
1145.94
1264.71
1378.25
1473.86
1497.35
1167.13
56.6629
169.996
283.35
396.725
510.111
623.479
736.798
850.081
963.563
1078.26
1197.77
1334.24
1528.24
1919.26
3013.39
53.1451
159.431
265.701
371.93
478.072
584.058
689.803
795.266
900.661
1007.15
1118.99
1250.2
1445.73
1852.8
2985.55
49.6259
148.865
248.061
347.166
446.105
544.76
642.952
740.438
836.935
932.257
1026.68
1121.41
1216.22
1282.29
1071.75
46.1111
138.316
230.461
322.487
414.297
505.736
596.537
686.235
773.955
857.913
934.086
992.496
1006.57
903.802
500.226
42.6043
127.794
212.921
297.925
382.707
467.106
550.832
633.341
713.517
788.898
853.743
894.284
877.981
734.137
343.166
39.1058
117.301
195.444
273.484
351.342
428.892
505.914
582.002
656.333
727.118
790.194
835.456
837.879
736.02
391.184
35.6137
106.831
178.014
249.134
320.147
390.991
461.584
531.811
601.534
670.607
738.922
806.281
870.098
906.548
742.995
32.1236
96.368
160.603
224.823
289.022
353.21
417.441
481.896
547.103
614.53
688.213
779.457
921.204
1215.84
2013.06
28.6302
85.8956
143.177
200.488
257.857
315.34
373.073
431.379
491.042
554.01
625.2
717.44
865.996
1175.94
1998.02
25.1279
75.3956
125.701
176.074
226.561
277.236
328.237
379.835
432.592
487.676
547.453
616.187
698.567
780.207
694.252
21.6115
64.8523
108.148
151.54
195.082
238.841
282.909
327.399
372.425
417.973
463.365
505.329
531.513
500.717
294.924
18.077
54.2531
90.497
126.859
163.396
200.165
237.208
274.496
311.791
348.262
381.534
405.294
403.897
342.639
162.239
14.5209
43.588
72.7326
102.013
131.491
161.227
191.252
221.493
251.615
280.649
306.173
322.586
317.715
267.182
129.556
10.9411
32.85
54.8419
76.9818
99.3458
122.015
145.056
168.468
192.077
215.339
236.993
254.503
263.083
252.064
181.161
7.33628
22.0346
36.815
51.7481
66.9264
82.4675
98.5094
115.196
132.653
151.004
170.529
192.446
221.87
278.331
434.97
3.70705
11.1424
18.6483
26.2957
34.1915
42.4922
51.4182
61.271
72.4747
85.7
102.228
124.982
161.653
234.735
418.523
0.0565956
0.181174
0.349065
0.621588
1.11037
2.00138
3.58363
6.28756
10.7496
17.9416
29.4163
47.644
75.9104
113.955
127.828
-3.6081
-10.8298
-18.0566
-25.252
-32.3157
-39.0522
-45.1316
-50.0413
-53.0204
-52.9614
-48.2792
-36.8817
-16.8595
9.72279
24.1194
-7.27501
-21.856
-36.5171
-51.2654
-66.0343
-80.6453
-94.7622
-107.838
-119.055
-127.256
-130.845
-127.628
-114.424
-86.259
-36.2005
-10.926
-32.8443
-54.9479
-77.3106
-99.9259
-122.664
-145.218
-167.053
-187.342
-204.942
-218.359
-225.567
-222.644
-197.679
-112.15
-14.5358
-43.7197
-73.2268
-103.223
-133.792
-164.887
-196.275
-227.466
-257.657
-285.729
-310.425
-330.825
-346.494
-351.48
-284.663
-18.0717
-54.3839
-91.1903
-128.775
-167.345
-206.979
-247.563
-288.697
-329.6
-369.062
-405.735
-439.693
-478.168
-555.637
-806.609
-21.4934
-64.7152
-108.632
-153.673
-200.202
-248.471
-298.55
-350.201
-402.695
-454.529
-503.199
-545.776
-583.247
-640.055
-841.567
-24.7537
-74.5697
-125.307
-177.559
-231.881
-288.753
-348.511
-411.217
-476.382
-542.373
-605.147
-655.747
-675.387
-624.731
-403.743
-27.7996
-83.7856
-140.933
-200.016
-261.807
-327.058
-396.469
-470.595
-549.608
-632.606
-715.767
-787.517
-816.75
-728.197
-373.684
-30.5749
-92.19
-155.208
-220.589
-289.329
-362.479
-441.166
-526.619
-620.141
-722.848
-834.485
-949.067
-1040.23
-1016.71
-616.66
-33.0226
-99.6076
-167.825
-238.807
-313.765
-394.03
-481.147
-577.037
-684.327
-806.962
-951.281
-1127.09
-1343.61
-1566.99
-1438.49
-35.0885
-105.871
-178.487
-254.223
-334.464
-420.767
-514.977
-619.491
-737.828
-876.026
-1046.28
-1276.97
-1642.47
-2361.97
-4169.31
-36.7238
-110.831
-186.936
-266.444
-350.873
-441.916
-541.55
-652.246
-777.447
-922.767
-1099.3
-1333.29
-1695.73
-2401.95
-4184.56
-37.8881
-114.363
-192.956
-275.158
-362.572
-456.959
-560.283
-674.765
-802.932
-947.676
-1112.33
-1300.39
-1510.34
-1694.8
-1488.19
-38.5503
-116.373
-196.387
-280.136
-369.276
-465.605
-571.049
-687.545
-816.659
-958.498
-1108.87
-1252.1
-1342.57
-1259.32
-715.522
-38.6903
-116.799
-197.122
-281.224
-370.797
-467.684
-573.856
-691.246
-821.208
-963.016
-1109.98
-1240.08
-1295.11
-1143.46
-558.958
-38.2993
-115.614
-195.11
-278.341
-367.011
-463.028
-568.527
-685.815
-817.082
-963.444
-1122.22
-1279.58
-1390.57
-1327.67
-772.583
-37.3819
-112.829
-190.36
-271.476
-357.857
-451.453
-554.602
-670.196
-801.918
-954.597
-1134.7
-1350.43
-1605.85
-1852.71
-1673.16
-35.9574
-108.499
-182.956
-260.722
-343.387
-432.86
-531.568
-642.821
-771.541
-925.915
-1121.52
-1392.6
-1825.74
-2672.26
-4771.34
-34.0616
-102.731
-173.071
-246.305
-323.846
-407.422
-499.299
-602.69
-722.599
-867.697
-1054.83
-1320.88
-1756.81
-2619.39
-4750.66
-31.7476
-95.6856
-160.977
-228.614
-299.739
-375.748
-458.458
-550.396
-655.339
-779.29
-932.168
-1129.75
-1389.75
-1682.84
-1604.72
-29.0846
-87.5743
-147.042
-208.196
-271.838
-338.913
-410.587
-488.325
-573.983
-669.731
-777.23
-893.833
-998.011
-1002.16
-631.655
-26.155
-78.651
-131.711
-185.73
-241.129
-298.355
-357.852
-419.966
-484.673
-550.887
-614.692
-665.069
-674.162
-580.18
-277.769
-23.0506
-69.198
-115.481
-161.972
-208.713
-255.669
-302.629
-348.993
-393.339
-432.557
-460.155
-463.445
-420.321
-301.548
-98.9888
-19.8672
-59.5099
-98.8652
-137.699
-175.7
-212.418
-247.131
-278.59
-304.574
-321.108
-321.106
-292.448
-217.246
-79.4042
83.9732
-16.7004
-49.8786
-82.3705
-113.659
-143.128
-169.997
-193.196
-211.141
-221.361
-219.936
-200.464
-152.034
-55.5797
127.443
499.247
-13.6417
-40.5819
-66.4709
-90.5404
-111.918
-129.573
-142.229
-148.212
-145.222
-130.103
-98.4059
-43.1268
48.3883
206.77
530.169
-10.7761
-31.8767
-51.5987
-68.955
-82.8589
-92.0901
-95.2507
-90.7014
-76.5199
-50.6377
-11.2774
42.394
108.294
175.011
186.057
-8.18153
-23.9962
-38.1417
-49.4404
-56.6247
-58.3168
-53.019
-39.1235
-15.0094
20.5361
67.1984
120.967
169.562
184.196
110.193
-5.92834
-17.1506
-26.4467
-32.4727
-33.8031
-28.9155
-16.1916
6.05064
39.4195
84.9651
141.854
204.438
255.837
256.358
136.854
-4.07949
-11.528
-16.8241
-18.4782
-14.9251
-4.50512
14.5495
44.1189
86.1446
142.366
213.479
296.729
378.469
412.761
271.028
-2.69066
-7.29502
-9.54994
-7.83902
-0.475387
14.3223
38.4696
74.093
123.653
190.137
277.438
390.862
534.82
692.009
683.465
-1.81049
-4.59764
-4.86624
-0.892
9.11319
27.0244
54.8565
94.8947
149.965
224.035
323.92
464.398
682.568
1086.8
2039.43
-1.48106
-3.5616
-2.98103
2.07472
13.4736
33.1502
63.1428
105.707
163.57
240.473
342.767
484.463
701.553
1101.11
2044.96
-1.73864
-4.29449
-4.06988
0.823456
12.3159
32.3754
63.0051
106.271
164.366
239.646
334.686
452.548
594.156
737.734
701.584
-2.61468
-6.88901
-8.28201
-4.84181
5.41596
24.4889
54.3425
96.8383
153.574
225.391
311.084
404.43
485.633
499.351
307.629
-4.13667
-11.4263
-15.7484
-15.0931
-7.41925
9.32064
37.1142
77.759
132.585
201.741
282.412
364.956
424.142
403.748
207.846
-6.32817
-17.9773
-26.5871
-30.093
-26.3886
-13.3417
11.1476
49.0293
101.868
170.289
252.621
341.851
418.016
430.08
260.706
-9.20828
-26.6011
-40.9022
-49.9987
-51.7117
-43.7948
-23.9588
10.0756
60.5038
129.328
218.165
327.909
456.447
582.402
558.009
-12.7903
-37.341
-58.7774
-74.9513
-83.6156
-82.3988
-68.7921
-40.1306
6.49711
74.5813
169.275
300.958
496.655
839.045
1613.25
-17.0797
-50.2181
-80.263
-105.056
-122.299
-129.508
-123.975
-102.71
-62.3115
1.4329
94.7481
229.555
434.924
795.621
1597.2
-22.071
-65.2216
-105.36
-140.353
-167.886
-185.392
-190.002
-178.498
-147.263
-92.2008
-8.56933
109.129
265.239
445.828
506.546
-27.7447
-82.2986
-134
-180.792
-220.386
-250.175
-267.162
-267.932
-248.715
-205.645
-135.537
-37.9962
78.4799
179.156
161.449
-34.0627
-101.342
-166.026
-226.198
-279.658
-323.807
-355.541
-371.211
-366.704
-337.855
-281.557
-198.3
-97.36
-5.37604
28.238
-40.9645
-122.175
-201.166
-276.242
-345.371
-406.031
-455.05
-488.479
-501.583
-489.124
-446.31
-370.912
-267.018
-149.415
-42.4338
-48.3625
-144.541
-239.012
-330.399
-416.948
-496.322
-565.37
-619.854
-654.212
-661.483
-633.707
-563.339
-446.228
-286.107
-97.7616
-56.138
-168.088
-278.991
-387.907
-493.497
-593.779
-685.803
-765.21
-825.664
-858.196
-850.71
-788.256
-655.338
-442.425
-158.084
-64.1388
-192.359
-320.347
-447.724
-573.733
-696.973
-815.006
-923.746
-1016.53
-1082.73
-1105.92
-1062.14
-920.036
-648.372
-240.518
-72.1791
-216.793
-362.128
-508.495
-655.898
-803.794
-950.68
-1093.39
-1225.89
-1337.16
-1407.7
-1404.36
-1274.75
-948.931
-373.787
-80.0425
-240.729
-403.198
-568.556
-737.738
-911.34
-1089.28
-1270.17
-1450.05
-1619.93
-1760.83
-1834.35
-1765.78
-1422.68
-626.825
-87.4896
-263.431
-442.272
-625.976
-816.532
-1015.9
-1225.88
-1447.7
-1681.22
-1922.88
-2160.84
-2363.09
-2447.54
-2210.9
-1197.82
-94.2699
-284.126
-477.98
-678.658
-889.235
-1113.14
-1354.29
-1617.17
-1906.82
-2228.48
-2585.76
-2973.74
-3352.42
-3538.42
-2728.98
-100.138
-302.052
-508.964
-724.491
-952.718
-1198.46
-1467.69
-1768.1
-2110.26
-2509.46
-2989.49
-3590.99
-4391.29
-5557.38
-7488.4
8164.44
6082.13
4826.55
3964.98
3316.31
2796.61
2362.05
1987.09
1655.47
1356.1
1080.92
823.746
579.619
344.349
114.22
2982.65
3884.9
3698.97
3298.67
2883.91
2498.58
2148.53
1830.38
1538.96
1269.27
1016.84
777.804
548.729
326.543
108.403
1316.7
2443.12
2720.04
2642.2
2430.9
2175.89
1912.72
1654.99
1407.28
1170.37
943.416
724.898
513.024
305.911
101.653
697.163
1591.14
1987.31
2078.27
2008.1
1858.75
1673.03
1472.55
1268.01
1064.49
864.076
667.337
473.984
283.278
94.237
425.051
1084.77
1466.41
1626.1
1640.16
1566.78
1443.48
1292.83
1127.98
956.374
782.135
607.387
433.081
259.474
86.4223
285.123
771.455
1099.54
1274.98
1332.85
1309.37
1232.83
1122.91
992.559
850.038
700.503
547.094
391.667
235.269
78.4595
203.453
567.984
838.62
1005.44
1081.94
1088.74
1045.3
967.114
865.533
748.523
621.52
488.172
350.906
211.336
70.5686
151.198
429.685
649.74
798.569
879.365
902.933
881.843
827.504
749.171
653.903
546.906
431.944
311.726
188.224
62.9307
115.538
331.938
510.283
638.897
716.482
748.086
741.421
704.509
644.524
567.392
477.793
379.342
274.808
166.345
55.6838
90.063
260.598
405.334
514.623
585.489
619.773
621.96
597.496
551.748
489.504
414.8
330.941
240.605
145.983
48.9244
71.243
207.159
324.976
417.004
479.866
513.712
520.971
505.227
470.395
420.24
358.141
287.02
209.364
127.306
42.711
56.9813
166.278
262.508
339.613
394.366
426.082
435.926
426.183
399.655
359.247
307.728
247.619
181.169
110.382
37.0699
45.9568
134.461
213.306
277.723
324.842
353.615
364.456
358.771
338.531
305.949
263.262
212.608
155.977
95.2044
32.0017
37.2974
109.344
174.109
227.83
268.037
293.581
304.442
301.444
285.957
259.65
224.313
181.736
133.651
81.7092
27.4877
30.4053
89.277
142.572
187.307
221.398
243.724
254.034
252.772
240.879
219.607
190.378
154.678
113.995
69.7925
23.4957
24.8576
73.0768
116.971
154.164
182.916
202.197
211.647
211.468
202.3
185.078
160.926
131.07
96.7775
59.3258
19.9848
20.3473
59.8752
96.0169
126.871
150.999
167.485
175.931
176.394
169.3
155.348
135.425
110.534
81.7477
50.1674
16.909
16.646
49.0212
78.7277
104.242
124.379
138.346
145.748
146.557
141.053
129.756
113.364
92.6976
68.6525
42.1712
14.2207
13.58
40.0171
64.3441
85.3408
102.036
113.756
120.134
121.094
116.818
107.692
94.2648
77.2007
57.2443
35.1923
11.8722
11.0151
32.4754
52.2684
69.4201
83.1413
92.8675
98.2722
99.2598
95.9424
88.6078
77.6841
63.7066
47.2873
29.0915
9.8176
8.84528
26.0889
42.0231
55.8761
67.0142
74.9728
79.4704
80.4069
77.849
72.0088
63.2181
51.903
38.5603
23.737
8.01309
6.98505
20.6093
33.2193
44.2127
53.0891
59.4748
63.1346
63.9735
62.0281
57.4523
50.4993
41.5027
30.858
19.0059
6.41771
5.36423
15.8321
25.5347
34.0148
40.8883
45.8636
48.7512
49.4669
48.0273
44.5405
39.1944
32.2426
23.9908
14.7839
4.99336
3.92367
11.5843
18.6959
24.9281
30.0005
33.6961
35.8697
36.4507
35.4418
32.9142
28.9996
23.881
17.7838
10.9651
3.70462
2.61209
7.71582
12.4646
16.6426
20.0636
22.5799
24.088
24.5322
23.905
22.2455
19.6356
16.195
12.0748
7.45127
2.51852
1.38348
4.09179
6.62631
8.8783
10.7498
12.1579
13.0389
13.3513
13.0788
12.231
10.8435
8.97659
6.71217
4.15021
1.40418
0.194868
0.586337
0.980827
1.37372
1.75232
2.09597
2.37811
2.57013
2.64572
2.58524
2.37912
2.02993
1.55291
0.974969
0.332417
-0.995721
-2.9235
-4.66719
-6.12578
-7.22665
-7.92975
-8.22689
-8.1371
-7.69953
-6.96554
-5.9914
-4.83251
-3.53969
-2.15754
-0.72463
-2.23137
-6.56367
-10.5172
-13.879
-16.4881
-18.2443
-19.1079
-19.0932
-18.2577
-16.6897
-14.496
-11.7928
-8.69798
-5.32756
-1.79385
-3.55857
-10.4697
-16.7826
-22.1607
-26.3489
-29.1865
-30.6069
-30.6273
-29.3323
-26.8552
-23.3606
-19.0301
-14.0515
-8.61343