/*--------------------------------*- C++ -*----------------------------------*\
| =========                 |                                                 |
| \\      /  F ield         | OpenFOAM: The Open Source CFD Toolbox           |
|  \\    /   O peration     | Version:  5.x                                   |
|   \\  /    A nd           | Web:      www.OpenFOAM.org                      |
|    \\/     M anipulation  |                                                 |
\*---------------------------------------------------------------------------*/
FoamFile
{
    version     2.0;
    format      ascii;
    class       volScalarField;
    location    "2.9";
    object      gradTy;
}
// * * * * * * * * * * * * * * * * * * * * * * * * * * * * * * * * * * * * * //

dimensions      [0 -1 0 1 0 0 0];

internalField   nonuniform List<scalar> 
6300
(
3312.65
7931.44
12530.6
17097.1
21617.5
26078.4
30466.2
34767.1
38967.4
43053.3
47011.6
50829.6
54495.6
57999.3
61332.2
9.52884
28.6328
47.8704
67.3119
86.9983
106.928
127.039
147.197
167.172
186.636
205.153
222.195
237.171
249.476
258.559
15.8299
47.5728
79.557
111.914
144.727
178.012
211.683
245.531
279.19
312.111
343.559
372.617
398.246
419.362
434.969
22.0472
66.2706
110.87
156.057
201.982
248.704
296.144
344.049
391.936
439.052
484.342
526.459
563.82
594.743
617.644
28.1352
84.5912
141.592
199.457
258.437
318.671
380.134
442.575
505.443
567.804
628.283
685.037
735.814
778.129
809.572
34.037
102.365
171.446
241.739
313.633
387.4
463.134
540.663
619.442
698.422
775.929
849.568
916.244
972.36
1014.28
39.6832
119.385
200.085
282.414
366.947
454.153
544.328
637.486
733.219
830.493
927.419
1021.04
1107.21
1180.76
1236.17
44.9931
135.405
227.088
320.879
417.58
517.926
622.521
731.716
845.433
962.883
1082.19
1199.93
1310.74
1407.29
1480.97
49.8771
150.149
251.981
356.426
464.555
577.438
696.096
821.403
953.888
1093.39
1238.49
1385.71
1528.52
1656.64
1756.52
54.2421
163.332
274.253
388.281
506.766
631.158
763.001
903.886
1055.3
1218.26
1392.64
1575.85
1760.94
1934.2
2074.07
58.0006
174.678
293.412
415.667
543.057
677.409
820.841
975.816
1145.13
1331.69
1537.91
1764.08
2005.14
2245.1
2450.5
61.0814
183.964
309.043
437.91
572.37
714.56
867.116
1033.38
1217.67
1425.43
1663.19
1937.37
2250.37
2590.48
2911.76
63.4412
191.05
320.878
454.55
593.938
741.327
899.656
1072.91
1266.7
1489.13
1752.01
2071.78
2468.4
2954.6
3494.47
65.0738
195.912
328.861
465.463
607.493
757.134
917.25
1091.87
1287.04
1512.36
1783.87
2129.27
2596.77
3264.95
4219.32
66.0144
198.661
333.187
470.937
613.423
762.447
920.319
1090.26
1277.2
1489.36
1741.79
2064.57
2524.37
3288.98
4855.29
64224.9
66729.1
69106.9
71358.5
73485.5
75490.5
77377.3
79150.5
80815.3
82377.6
83843.8
85220.4
86514.2
87731.8
88880
89965.4
90994.4
91973.2
92907.7
93803.6
94666.1
95500.3
96310.6
97101.3
97876
98637.9
99389.7
100134
100871
101603
102331
103054
103772
104484
105191
105890
106580
107261
107931
108589
109233
109862
110474
111068
111642
112194
112724
113230
113710
114163
114589
114986
115352
115687
115990
116258
116491
116685
116841
116954
117024
117048
117023
116947
116816
116629
116380
116067
115685
115229
114696
114078
113371
112569
111665
110653
109525
108276
106897
105382
103723
101914
99948.5
97820.1
95523.9
93055.4
90411.5
87590.4
84591.7
81416.6
263.543
265.392
264.531
261.04
255.097
246.957
236.931
225.356
212.575
198.915
184.677
170.125
155.487
140.949
126.669
112.771
99.3592
86.5184
74.3238
62.8439
52.1457
42.2968
33.3665
25.4245
18.5372
12.7619
8.13848
4.68047
2.36677
1.13603
0.886303
1.48149
2.76463
4.57607
6.77228
9.2406
11.9062
14.7298
17.6969
20.8031
24.0379
27.374
30.7624
34.1374
37.4276
40.5711
43.53
46.2993
48.9097
51.4228
53.9211
56.4952
59.2301
62.195
65.4359
68.975
72.8153
76.9495
81.3709
86.0841
91.1118
96.498
102.306
108.613
115.503
123.058
131.348
140.427
150.325
161.051
172.587
184.901
197.94
211.64
225.924
240.699
255.85
271.234
286.669
301.931
316.745
330.785
343.677
355.007
364.341
371.25
375.337
376.28
373.858
367.986
443.515
446.647
445.089
438.99
428.678
414.618
397.368
377.53
355.705
332.459
308.306
283.691
258.99
234.514
210.512
187.185
164.695
143.174
122.74
103.5
85.5616
69.0361
54.041
40.6983
29.1285
19.4397
11.7126
5.9832
2.22491
0.33601
0.136312
1.3778
3.77021
7.01759
10.8573
15.0908
19.5969
24.3265
29.2799
34.4738
39.9094
45.5472
51.2991
57.0372
62.6186
67.9179
72.857
77.4237
81.6764
85.7336
89.7534
93.9077
98.3558
103.223
108.588
114.481
120.892
127.792
135.152
142.971
151.28
160.155
169.711
180.089
191.442
203.92
217.652
232.733
249.219
267.118
286.401
307.004
328.838
351.795
375.752
400.56
426.042
451.969
478.054
503.929
529.14
553.137
575.281
594.856
611.098
623.241
630.57
632.489
628.59
618.706
630.14
634.624
632.152
622.973
607.618
586.833
561.495
532.528
500.84
467.269
432.557
397.337
362.13
327.355
293.344
260.356
228.596
198.229
169.4
142.247
116.908
93.5371
72.3017
53.3851
36.9771
23.2583
12.3758
4.41298
-0.643609
-2.93144
-2.72425
-0.418728
3.50879
8.56999
14.3392
20.5116
26.9287
33.5643
40.4793
47.7597
55.4524
63.5192
71.8187
80.1256
88.1789
95.7467
102.683
108.964
114.688
120.061
125.355
130.859
136.839
143.496
150.942
159.201
168.224
177.928
188.232
199.106
210.587
222.787
235.886
250.113
265.714
282.928
301.963
322.968
346.024
371.141
398.262
427.282
458.064
490.457
524.295
559.395
595.531
632.418
669.679
706.821
743.217
778.091
810.517
839.434
863.689
882.094
893.519
897.004
891.873
877.835
826.652
832.601
828.861
815.835
794.364
765.594
730.838
691.44
648.682
603.718
557.538
510.962
464.644
419.095
374.703
331.762
290.492
251.072
213.654
178.385
145.428
114.969
87.2299
62.4661
40.9599
22.9989
8.84068
-1.33677
-7.49412
-9.78725
-8.60252
-4.54764
1.61754
9.10499
17.2418
25.5813
33.9467
42.3997
51.1528
60.4514
70.4565
81.1554
92.3275
103.579
114.438
124.484
133.454
141.303
148.203
154.501
160.649
167.123
174.345
182.626
192.118
202.813
214.57
227.188
240.483
254.358
268.845
284.109
300.425
318.143
337.645
359.299
383.418
410.228
439.842
472.256
507.366
544.997
584.945
627.009
670.995
716.705
763.908
812.294
861.436
910.747
959.445
1006.53
1050.76
1090.68
1124.65
1150.95
1167.85
1173.87
1167.93
1149.52
1036.93
1044.5
1038.91
1020.83
991.596
952.957
906.848
855.178
799.697
741.918
683.094
624.22
566.058
509.177
453.983
400.769
349.738
301.046
254.825
211.21
170.365
132.501
97.8896
66.8721
39.8535
17.2792
-0.411344
-12.8605
-19.8947
-21.6374
-18.6007
-11.703
-2.1661
8.71594
19.8628
30.6236
40.8478
50.8118
61.0492
72.1345
84.4701
98.1187
112.731
127.604
141.876
154.779
165.848
175.017
182.593
189.165
195.481
202.312
210.331
220.015
231.565
244.893
259.674
275.471
291.892
308.722
325.979
343.908
362.934
383.594
406.466
432.107
460.986
493.437
529.612
569.474
612.821
659.354
708.759
760.77
815.186
871.84
930.55
991.048
1052.91
1115.52
1177.96
1239.02
1297.15
1350.44
1396.63
1433.26
1457.8
1467.92
1461.88
1438.8
1265.92
1275.33
1266.93
1241.88
1202.36
1151.07
1090.87
1024.41
954.03
881.64
808.746
736.481
665.663
596.862
530.453
466.67
405.658
347.505
292.286
240.091
191.056
145.395
103.421
65.5665
32.3934
4.57276
-17.1655
-32.1372
-39.8711
-40.327
-34.1166
-22.6177
-7.84655
7.98481
23.0779
36.4764
48.1603
58.8666
69.7603
82.0529
96.6282
113.73
132.794
152.533
171.322
187.749
201.015
211.06
218.461
224.233
229.605
235.82
243.952
254.744
268.476
284.906
303.339
322.876
342.733
362.49
382.161
402.143
423.105
445.872
471.314
500.262
533.422
571.29
614.079
661.679
713.693
769.578
828.82
891.067
956.148
1024.01
1094.61
1167.82
1243.31
1320.5
1398.43
1475.71
1550.49
1620.36
1682.34
1732.96
1768.46
1785.21
1780.31
1752.19
1520.28
1531.79
1518.9
1483.76
1430.05
1362.02
1283.87
1199.28
1111.25
1022.08
933.493
846.661
762.375
681.118
603.156
528.603
457.481
389.764
325.419
264.447
206.917
153.008
103.046
57.5482
17.2536
-16.8651
-43.6368
-61.8108
-70.3028
-68.5925
-57.2252
-38.2232
-15.0337
8.33555
28.7511
44.8147
56.8961
66.6664
76.4713
88.6979
105.162
126.529
151.898
178.842
204.184
225.284
240.835
250.923
256.689
259.889
262.528
266.58
273.752
285.247
301.511
322.036
345.418
369.817
393.716
416.377
437.888
458.957
480.669
504.285
531.098
562.336
599.061
642.041
691.601
747.505
808.971
874.941
944.525
1017.25
1093.08
1172.19
1254.86
1341.25
1431.23
1524.37
1619.76
1715.95
1810.85
1901.57
1984.33
2054.34
2106.03
2133.61
2132.08
2098.49
1809.52
1823.33
1802.86
1752.37
1678.31
1587.53
1486.14
1379.09
1270.07
1161.69
1055.69
953.161
854.712
760.622
670.945
585.595
504.404
427.169
353.7
283.852
217.572
154.944
96.2511
42.0456
-6.77159
-48.8756
-82.4825
-105.421
-115.422
-110.761
-91.3267
-59.8589
-22.4815
12.9359
40.6858
58.8807
68.9516
74.4076
79.6851
89.2306
106.625
133.554
168.726
207.451
243.143
270.804
288.514
297.004
298.604
296.344
293.408
292.835
297.313
308.871
328.391
355.034
386.01
417.454
446.451
471.892
494.218
514.809
535.455
558.055
584.47
616.469
655.65
703.269
759.941
825.274
897.711
975.048
1055.65
1138.93
1225.2
1315.19
1409.71
1509.4
1614.53
1724.92
1839.85
1957.96
2077.1
2194.14
2304.56
2401.99
2478.2
2523.8
2529.86
2490.45
2148.23
2164.18
2130
2054.86
1950.61
1828.26
1696.55
1561.73
1427.97
1297.87
1172.91
1053.81
940.806
833.806
732.544
636.643
545.673
459.201
376.817
298.172
223.02
151.266
83.0477
18.8368
-40.4111
-93.0701
-136.64
-167.612
-181.605
-174.158
-142.712
-89.9622
-27.0668
28.6153
66.4158
84.6792
87.6851
82.4367
76.7833
78.4905
94.3877
128.741
180.467
240.46
293.7
330.689
349.506
353.042
346.111
333.809
320.916
311.849
310.709
321.054
345.039
381.811
425.942
468.626
504.317
531.895
553.05
570.581
587.43
606.329
629.799
660.258
700.083
751.454
815.803
892.803
979.383
1070.44
1162.88
1256.29
1351.93
1451.62
1557.09
1669.69
1790.21
1918.89
2055.31
2198.4
2346.3
2496.17
2643.41
2780.09
2894.34
2970.83
2992.98
2947.97
2560.96
2577.17
2516.07
2399.23
2248.93
2082.46
1911.4
1742.81
1580.6
1426.67
1281.71
1145.72
1018.27
898.758
786.46
680.626
580.509
485.39
394.594
307.511
223.622
142.547
64.1231
-11.4694
-83.4901
-150.305
-208.892
-254.208
-278.616
-272.075
-224.734
-134.639
-21.2317
70.0746
120.307
132.474
118.328
91.0704
63.3026
47.3364
55.5931
98.9334
180.324
283.221
367.685
416.77
432.532
424.18
401.383
372.154
342.943
319.472
307.591
313.615
343.289
398.003
467.963
529.872
573.861
601.144
617.093
627.328
636.44
648.009
665.05
690.545
727.875
780.934
853.43
946.514
1054.58
1163.82
1268.69
1370.42
1472.79
1579.68
1694.18
1818.51
1954.1
2101.63
2261.1
2431.82
2612.57
2801.89
2997.33
3190.35
3364.73
3495.95
3552.68
3504.78
3094.86
3101.42
2982.34
2791.71
2570.5
2343.22
2122.68
1914.7
1721.28
1542.52
1377.6
1225.31
1084.33
953.337
831.088
716.401
608.178
505.386
407.06
312.285
220.208
130.05
41.1589
-46.8811
-134.029
-219.352
-300.22
-370.877
-420.164
-428.717
-368.296
-212.866
16.4475
170.695
229.023
218.168
167.857
100.442
32.8287
-18.6983
-33.7218
14.3348
149.219
352.532
492.627
550.851
550.298
516.134
465.932
410.487
356.718
310.421
278.699
272.128
305.482
392.239
521.566
616.902
667.443
686.686
689.339
685.662
681.883
681.777
688.097
703.758
732.98
782.391
861.369
978.611
1128.04
1263.46
1378.95
1483.56
1587.09
1696.71
1817.03
1951.05
2100.69
2267.09
2450.6
2650.68
2866.38
3098.67
3354.59
3627.27
3897.08
4128.18
4262.84
4225.94
3858.93
3806.49
3551.52
3228.18
2900.73
2594.22
2315.85
2065.59
1840.86
1638.47
1455.33
1288.65
1136.03
995.375
864.876
742.925
628.081
519.015
414.474
313.241
214.097
115.794
17.0362
-83.5115
-187.128
-294.748
-406.19
-518.257
-620.309
-684.625
-648.619
-397.435
162.264
409.476
437.398
360.707
242.044
110.121
-20.7883
-137.279
-213.853
-195.275
19.6008
512.912
735.501
769.614
716.504
631.228
538.074
446.447
359.775
280.419
213.628
173.184
190.806
325.193
624.123
768.438
806.088
796.107
770.689
744.133
722.026
706.284
697.681
697.434
708.999
741.26
814.19
964.34
1221.66
1391.76
1504.88
1598.2
1692.62
1798.26
1920.12
2061.05
2223.1
2407.86
2616.16
2846.96
3096.16
3361.31
3687.56
4068.16
4485.01
4899.07
5219.85
5262.17
5175.49
4803.05
4219.07
3670.46
3200.73
2804.66
2468.52
2179.69
1928.26
1706.72
1509.35
1331.76
1170.52
1022.83
886.394
759.261
639.71
526.178
417.18
311.243
206.83
102.252
-4.45158
-115.665
-234.407
-364.587
-511.204
-680.009
-874.743
-1084.95
-1238.76
-1026.23
758.09
964.054
796.433
563.698
335.332
118.343
-95.1671
-313.343
-531.01
-687.556
-510.96
1063.15
1249.81
1114.01
929.064
757.697
608.05
475.299
352.329
232.354
110.65
-9.34857
-91.9865
21.2184
949.313
1073.55
1013.29
927.729
853.646
796.169
752.976
720.481
695.207
674.074
655.185
641.537
655.785
795.71
1440.84
1602.05
1659.29
1711.22
1781.91
1876.41
1995.7
2140.58
2312.71
2514.64
2749.21
3016.63
3302.88
3535.78
3942.06
4456.63
5076.72
5804.04
6577.54
7057.99
8279.85
6104.04
4835.54
3999.03
3394.6
2928.74
2553.01
2239.91
1972.63
1740.15
1534.89
1351.39
1185.53
1034.11
894.567
764.731
642.732
526.873
415.541
307.115
199.87
91.8381
-19.3776
-136.911
-265.15
-410.691
-584.202
-804.362
-1106.83
-1566.44
-2356.36
-3918.36
3626.77
2056.61
1249.25
760.409
412.245
121.559
-162.829
-490.148
-936.196
-1659.58
-3053.96
3611.37
2228.52
1529.22
1122.11
852.929
653.73
490.103
340.606
186.817
5.25763
-245.633
-656.743
-1456.16
2432.03
1644.27
1256.9
1042.78
912.659
827.609
768.494
724.256
686.745
647.461
593.802
501.62
316.38
-100.452
2356.85
1962.02
1821.29
1797.17
1836.86
1918.82
2034.35
2180.82
2359.34
2574.34
2834.91
3159.08
3586.28
3460.42
4040.42
4692.93
5513.74
6642.21
8356.91
11311.4
77733.2
73471.9
68978.5
64266.2
59350.7
54249
48979.2
43560
38010.1
32348.1
26592.3
20760.6
14870.4
8938.73
2982.32
357.797
342.121
322.491
299.684
274.543
247.887
220.435
192.767
165.308
138.33
111.973
86.2646
61.1446
36.4888
12.1289
601.364
574.564
540.99
502.045
459.24
414.017
367.621
321.038
274.971
229.856
185.899
143.12
101.393
60.4875
20.1029
852.761
813.737
764.814
708.225
646.319
581.285
514.965
448.766
383.658
320.204
258.635
198.916
140.817
83.9659
27.8993
1115.78
1062.76
996.261
919.68
836.487
749.804
662.153
575.375
490.662
408.644
329.502
253.081
178.987
106.658
35.4282
1394.97
1325.21
1237.75
1137.71
1030.11
919.256
808.437
699.893
594.947
494.183
397.625
304.903
215.38
128.246
42.583
1696.06
1605.31
1491.78
1363.25
1226.94
1088.64
952.415
820.786
695.028
575.492
461.888
353.505
249.37
148.354
49.2387
2026.57
1908.1
1760.73
1596.49
1425.71
1255.89
1091.75
935.774
788.862
650.847
520.909
397.84
280.226
166.551
55.2528
2396.96
2239.69
2046.42
1836.18
1623.44
1417.38
1222.84
1041.64
873.757
718.097
573.035
436.697
307.126
182.363
60.47
2822.51
2607.17
2349
2078.28
1814.41
1567.29
1340.52
1134.14
946.379
774.712
616.408
468.763
329.202
195.295
64.73
3326.4
3017.38
2664.02
2313.45
1988.54
1696.77
1437.77
1207.98
1002.86
817.927
649.09
492.718
345.605
204.874
67.881
3944.54
3471.75
2976.1
2522.83
2129.45
1793.37
1505.73
1257.08
1039.1
845.01
669.272
507.389
355.608
210.704
69.7974
4728.29
3948.8
3245.68
2672.15
2212.97
1841.44
1534.64
1275.42
1051.43
853.694
675.565
511.929
358.713
212.525
70.3987
5708.88
4349.29
3385.54
2707.01
2208.71
1824.71
1515.88
1258.47
1037.43
842.732
667.329
506.022
354.773
210.275
69.6675
6577.01
4353.7
3239.97
2561.53
2090.02
1732.71
1445.62
1205.09
997.053
812.433
644.96
490.029
344.062
204.123
67.6616
66.3535
199.588
334.416
471.934
613.302
759.784
912.839
1074.28
1246.63
1433.88
1643.3
1889.5
2204.5
2663.3
3450.34
66.2549
199.202
333.456
469.863
609.224
752.25
899.486
1051.17
1207.01
1365.71
1523.97
1673.54
1790.18
1787.11
1303.58
65.8518
197.907
330.996
465.734
602.593
741.784
883.032
1025.17
1165.4
1297.82
1410.66
1480.42
1458.93
1244.53
631.545
65.2041
195.892
327.388
460.126
594.336
729.883
865.953
1000.5
1129.18
1243.49
1327.25
1350.66
1261.61
978.711
410.957
64.3617
193.313
322.916
453.49
585.147
717.614
849.93
979.878
1102.94
1210.38
1285.73
1298.98
1198.91
910.694
366.864
63.3608
190.28
317.766
446.099
575.39
705.447
835.549
964.036
1087.55
1199.54
1287.32
1325.98
1266.87
1020.18
454.644
62.2222
186.853
312.026
438.04
565.099
693.247
822.287
951.645
1080.14
1205.51
1323.02
1420.88
1465.09
1351.08
781.145
60.9539
183.049
305.698
429.254
554.05
680.428
808.804
939.846
1074.91
1216.96
1372.36
1553.04
1773.2
1998.61
1796.79
59.5558
178.859
298.74
419.603
541.903
666.225
793.47
925.253
1064.81
1219.15
1404.15
1657.78
2077.69
2942.85
5167.84
58.0247
174.267
291.099
408.953
528.348
649.993
774.99
905.259
1044.46
1200.05
1388.29
1647.07
2072.99
2942.81
5168.77
56.3598
169.267
282.748
397.23
513.229
631.434
752.851
879.067
1012.71
1158.28
1323.46
1520.29
1760.04
2001.05
1801.59
54.5654
163.869
273.701
384.451
496.576
610.644
727.383
847.719
972.684
1102.9
1236.67
1363.72
1446.24
1365.2
798.102
52.6517
158.105
264.017
370.716
478.572
587.995
699.416
813.157
929.01
1045.06
1154.54
1238.07
1246.03
1066.91
509.28
50.634
152.024
253.785
356.178
459.476
563.955
669.837
777.127
885.2
991.768
1090.44
1164.91
1175.74
1031.48
540.55
48.5315
145.686
243.115
341.009
439.558
538.939
639.275
740.55
842.43
943.966
1043.13
1135.95
1213.14
1236.8
981.654
46.3655
139.155
232.122
325.384
419.059
513.254
608.057
703.549
799.894
897.806
1000.21
1117.85
1287.71
1635.72
2608.98
44.1584
132.501
220.921
309.47
398.195
487.14
576.356
665.948
756.263
848.517
946.704
1063.48
1238.55
1600.42
2596.08
41.9327
125.791
209.629
293.429
377.172
460.832
544.386
627.835
711.278
795.095
880.28
968.609
1059.64
1124.98
940.636
39.711
119.094
198.358
277.423
356.199
434.59
512.48
589.715
666.02
740.711
811.657
871.843
898.57
822.903
463.601
37.5154
112.475
187.222
261.611
335.487
408.686
481.018
552.227
621.87
688.91
750.488
798.296
808.583
717.78
380.93
35.3677
106.002
176.33
246.146
315.235
383.373
450.322
515.813
579.51
640.884
698.861
750.781
788.774
783.502
593.392
33.289
99.7358
165.788
231.178
295.633
358.874
420.623
480.629
538.746
595.195
651.417
712.912
798.982
977.549
1497.96
31.2999
93.7397
155.698
216.85
276.861
335.395
392.118
446.737
499.118
549.641
600.286
657.947
744.92
934.157
1479.91
29.4202
88.0729
146.161
203.301
259.102
313.158
365.055
414.379
460.757
503.977
544.255
582.597
619.807
643.138
531.754
27.6688
82.7927
137.273
190.671
242.538
292.402
339.759
384.043
424.564
460.33
489.54
508.003
504.299
445.638
244.768
26.064
77.9535
129.125
179.091
227.348
273.367
316.574
356.295
391.644
421.208
442.258
448.774
426.928
346.871
158.23
24.6224
73.6061
121.804
168.682
213.692
256.264
295.783
331.555
362.711
387.967
405.039
409.212
389.956
323.49
160.447
23.3597
69.7972
115.386
159.552
201.709
241.254
277.564
309.99
337.843
360.375
376.745
385.891
385.742
367.159
272.277
22.29
66.5691
109.942
151.798
191.515
228.462
262.012
291.565
316.632
337.026
353.429
368.993
394.302
463.797
696.373
21.4263
63.9606
105.537
145.509
183.217
217.998
249.197
276.217
298.622
316.407
330.655
345.292
372.146
447.163
689.953
20.78
62.0067
102.23
140.767
176.922
209.985
239.244
264.027
283.774
298.196
307.562
313.062
316.508
313.995
251.191
20.3613
60.7383
100.073
137.653
172.741
204.572
232.354
255.283
272.567
283.439
287.096
282.206
264.962
222.664
117.681
20.1782
60.1808
99.1138
136.24
170.784
201.925
228.781
250.402
265.748
273.628
272.499
259.865
230.758
174.823
74.6948
20.2364
60.3519
99.386
136.585
171.148
202.203
228.785
249.812
264.04
269.994
265.81
248.882
215.11
157.612
65.892
20.5374
61.2585
100.906
138.726
173.902
205.529
232.581
253.868
267.995
273.31
267.875
249.496
215.838
164.078
84.8613
21.0786
62.8934
103.668
142.662
179.068
211.97
240.306
262.812
277.974
283.986
278.816
260.598
229.006
189.473
166.565
21.8515
65.2326
107.634
148.353
186.611
221.514
251.996
276.762
294.2
302.309
298.687
280.844
247.527
203.116
171.762
22.8414
68.2325
112.734
155.705
196.424
234.051
267.566
295.695
316.788
328.645
328.287
311.678
273.573
207.471
101.8
24.0267
71.8286
118.862
164.569
208.318
249.36
286.779
319.402
345.657
363.319
369.013
357.266
318.88
239.129
99.7116
25.3793
75.9355
125.873
174.74
222.019
267.098
309.218
347.406
380.351
406.143
421.675
421.164
392.72
312.056
139.212
26.8644
80.4481
133.587
185.954
237.174
286.797
334.275
378.92
419.857
455.915
485.281
504.241
502.607
448.811
251.944
28.4421
85.2446
141.795
197.906
253.358
307.888
361.179
412.867
462.586
510.14
555.893
601.371
648.45
684.663
577.732
30.0683
90.1903
150.266
210.254
270.101
329.736
389.073
448.032
506.643
565.409
626.449
697.103
801.5
1019.53
1631.31
31.696
95.1423
158.752
222.636
286.908
351.688
417.101
483.283
550.409
618.88
690.061
769.08
875.229
1080.37
1656.99
33.2775
99.9548
167.003
234.683
303.278
373.095
444.468
517.721
593.052
670.247
747.958
821.889
879.791
882.627
666.015
34.7655
104.484
174.771
246.033
318.714
393.317
470.404
550.56
634.21
721.032
808.214
885.511
922.215
836.855
449.26
36.1152
108.592
181.819
256.334
332.734
411.711
494.084
580.821
672.978
771.346
875.077
977.019
1049.07
1000.64
587.125
37.286
112.156
187.932
265.266
344.886
427.649
514.616
607.174
707.256
817.721
942.933
1088.99
1259.26
1417.64
1253.1
38.2426
115.067
192.925
272.555
354.782
440.576
531.152
628.166
734.157
853.656
996.073
1183.85
1477.38
2058.52
3544.88
38.9566
117.241
196.652
277.989
362.133
450.098
543.114
642.795
751.526
873.491
1017.48
1204.99
1495.4
2070.25
3548.58
39.4069
118.613
199.008
281.427
366.771
456.038
550.357
651.025
759.566
877.871
1008.45
1154.42
1315.57
1454.07
1263.76
39.5795
119.143
199.932
282.795
368.634
458.409
553.116
653.691
760.705
873.591
988.574
1093.11
1151.19
1065.91
601.701
39.4669
118.81
199.39
282.062
367.721
457.304
551.742
651.808
757.669
867.748
975.825
1063.9
1086.21
940.725
452.858
39.0668
117.607
197.377
279.227
364.049
452.788
546.417
645.847
751.634
863.221
976.888
1080.25
1137.68
1053.22
594.149
38.3823
115.544
193.908
274.308
357.631
444.846
537.034
635.435
741.529
857.206
985.066
1128.46
1287.65
1425.86
1241.86
37.4208
112.643
189.018
267.348
348.497
433.435
523.319
619.662
724.75
842.718
982.443
1165.71
1452.21
2022.33
3486.68
36.1947
108.942
182.768
258.428
336.729
418.588
505.115
597.812
699.029
813.139
949.597
1131.33
1419.89
1997.94
3477.24
34.7215
104.492
175.249
247.677
322.497
400.509
482.643
570.061
664.375
768.08
885.354
1022.85
1186.62
1347.87
1210.81
33.0228
99.3608
166.578
235.274
306.063
379.591
456.529
537.556
623.241
713.66
807.137
896.195
955.238
905.077
530.977
31.1239
93.6265
156.893
221.433
287.75
356.334
427.616
501.865
578.878
657.194
732.078
790.495
799.804
687.357
328.887
29.0515
87.3718
146.34
206.38
267.892
331.24
396.694
464.317
533.682
603.202
668.562
719.025
729.058
640.606
334.709
26.8327
80.6791
135.064
190.331
246.796
304.73
364.324
425.632
488.466
552.207
615.52
675.78
726.871
745.026
593.075
24.4929
73.6266
123.199
173.483
224.722
277.12
330.83
385.97
442.717
501.63
564.746
639.079
747.772
967.83
1569.87
22.0555
66.2853
110.865
156.008
201.892
248.659
296.415
345.284
395.575
448.264
506.348
578.718
691.595
925.753
1553.64
19.5409
58.7173
98.1697
138.057
178.501
219.575
261.306
303.707
346.886
391.289
438.199
490.433
551.464
610.639
539.811
16.9664
50.9748
85.2018
119.763
154.728
190.103
225.813
261.691
297.47
332.716
366.519
396.235
412.857
386.07
226.773
14.345
43.0985
72.0326
101.233
130.729
160.47
190.288
219.848
248.549
275.289
297.842
311.319
304.596
253.715
118.186
11.6854
35.115
58.7101
82.5419
106.62
130.858
155.03
178.705
201.117
220.915
235.63
240.616
227.183
180.306
79.7038
8.99098
27.0353
45.2551
63.7264
82.4598
101.365
120.208
138.545
155.624
170.215
180.335
182.884
173.187
144.378
82.1562
6.25936
18.8525
31.6575
44.775
58.2406
71.9917
85.8281
99.3665
111.985
122.762
130.469
133.843
132.673
131.884
155.701
3.48225
10.5417
17.8754
25.6278
33.8827
42.6323
51.7446
60.9354
69.751
77.5816
83.7847
88.15
92.1314
102.624
144.674
0.64535
2.05952
3.83479
6.1778
9.24057
13.0927
17.6931
22.8706
28.3254
33.6681
38.542
42.9128
47.301
51.7673
46.4196
-2.27129
-6.65466
-10.5679
-13.726
-15.8906
-16.8958
-16.6756
-15.285
-12.9007
-9.78681
-6.19726
-2.16257
2.6169
7.9454
9.11578
-5.29271
-15.6771
-25.4636
-34.2744
-41.7683
-47.6649
-51.7752
-54.0329
-54.5161
-53.4425
-51.1006
-47.5938
-42.2806
-32.8325
-14.6265
-8.44817
-25.0973
-41.0066
-55.6935
-68.6979
-79.6052
-88.0811
-93.9194
-97.1009
-97.8545
-96.6763
-94.1277
-89.9003
-79.5638
-45.979
-11.77
-35.0143
-57.3695
-78.2391
-97.0289
-113.167
-126.14
-135.56
-141.267
-143.489
-143.072
-141.684
-141.613
-142.306
-117.795
-15.2917
-45.5324
-74.7364
-102.189
-127.149
-148.862
-166.591
-179.691
-187.75
-190.844
-190.009
-188.183
-192.636
-222.378
-336.048
-19.0465
-56.7547
-93.2927
-127.831
-159.476
-187.264
-210.183
-227.237
-237.585
-240.822
-237.504
-230.178
-225.924
-243.927
-343.543
-23.0634
-68.7742
-113.212
-155.446
-194.435
-228.992
-257.783
-279.36
-292.265
-295.252
-287.665
-269.906
-243.59
-208.571
-140.928
-27.3645
-81.6632
-134.635
-185.28
-232.427
-274.671
-310.332
-337.433
-353.747
-356.932
-344.784
-315.458
-267.165
-195.717
-86.9362
-31.9601
-95.4597
-157.651
-217.51
-273.78
-324.872
-368.766
-402.928
-424.265
-429.174
-413.74
-374.081
-306.714
-208.692
-78.0891
-36.8438
-110.151
-182.264
-252.201
-318.688
-380.022
-433.904
-477.268
-506.12
-515.465
-499.439
-451.859
-367.474
-244.229
-86.9727
-41.9875
-125.661
-208.368
-289.256
-367.136
-440.3
-506.292
-561.624
-601.456
-619.304
-606.978
-555.128
-455.155
-303.338
-107.428
-47.3369
-141.829
-235.715
-328.373
-418.823
-505.514
-586.031
-656.688
-711.995
-744.033
-741.897
-691.757
-578.786
-393.03
-141.025
-52.8085
-158.408
-263.896
-368.995
-473.085
-574.975
-672.569
-762.354
-838.635
-892.434
-910.09
-871.961
-752.916
-528.695
-195.476
-58.289
-175.053
-292.328
-410.293
-528.842
-647.379
-764.482
-877.345
-980.828
-1065.88
-1116.96
-1108.3
-1000.04
-740.023
-290.007
-63.6371
-191.332
-320.263
-451.159
-584.574
-720.74
-859.296
-998.796
-1135.76
-1262.85
-1365.26
-1413.76
-1352.49
-1083.26
-474.797
-68.6897
-206.743
-346.816
-490.25
-638.364
-792.401
-953.407
-1121.96
-1297.5
-1476.91
-1650.93
-1795.39
-1849.3
-1662.05
-896.46
-73.2715
-220.741
-371.018
-526.068
-688.008
-859.181
-1042.23
-1240.2
-1456.5
-1694.66
-1957.05
-2239.84
-2513.51
-2642.41
-2031.52
-77.2071
-232.781
-391.889
-557.076
-731.207
-917.667
-1120.66
-1345.67
-1600.26
-1895.52
-2248.93
-2690.56
-3278.15
-4136.43
-5563.84
4652.23
3461.4
2744.73
2253.68
1884.37
1588.73
1341.65
1128.55
940.147
770.097
613.806
467.759
329.129
195.533
64.8582
1698.92
2210.87
2103.77
1875.28
1638.99
1419.69
1220.61
1039.76
874.162
720.939
577.548
441.771
311.661
185.466
61.5693
749.659
1390.15
1547.03
1502.24
1381.74
1236.57
1086.87
940.337
799.55
664.929
535.981
411.833
291.463
173.796
57.7521
396.773
905.232
1130.27
1181.71
1141.59
1056.54
950.885
836.892
720.629
604.956
491.063
379.258
269.376
160.995
53.558
241.848
617.101
834.046
924.725
932.6
890.798
820.655
734.995
641.274
543.725
444.677
345.335
246.239
147.533
49.1391
162.223
438.884
625.472
725.208
758.075
744.702
701.172
638.67
564.554
483.515
398.479
311.23
222.821
133.85
44.6382
115.776
323.204
477.189
572.103
615.633
619.523
594.84
550.388
492.621
426.064
353.805
277.919
199.786
120.329
40.1808
86.0783
244.624
369.911
454.662
500.698
514.166
502.215
471.332
426.775
372.557
311.638
246.159
177.665
107.283
35.8703
65.8293
189.132
290.769
364.092
408.36
426.442
422.72
401.755
367.622
323.691
272.625
216.484
156.848
94.9505
31.786
51.3808
148.679
231.28
293.686
334.194
353.845
355.185
341.307
315.26
279.768
237.128
189.228
137.597
83.4942
27.9836
40.7244
118.427
185.807
238.476
274.499
293.951
298.206
289.296
269.446
240.797
205.277
164.555
120.058
73.0126
24.4975
32.6683
95.3392
150.544
194.816
226.303
244.599
250.358
244.872
229.731
206.591
177.031
142.498
104.284
63.549
21.3438
26.4622
77.4328
122.867
160.027
187.258
203.945
210.31
207.144
195.564
176.834
152.233
122.991
90.2587
55.1036
18.5244
21.6118
63.3683
100.931
132.128
155.528
170.452
176.873
175.249
166.356
151.147
130.651
105.903
77.9121
47.6451
16.0304
17.7792
52.2134
83.4123
109.64
129.676
142.856
149.016
148.396
141.527
129.126
112.016
91.0634
67.1432
41.1207
13.8456
14.7267
43.303
69.3423
91.445
108.581
120.13
125.861
125.876
120.533
110.371
96.0457
78.2807
57.8312
35.4645
11.949
12.2826
36.1525
58.003
76.6955
91.3609
101.438
106.67
107.071
102.88
94.5012
82.4599
67.3588
49.8482
30.6046
10.3176
10.3207
30.4026
48.8539
64.739
77.3231
86.1058
90.8276
91.4511
88.13
81.1708
70.995
58.1069
43.0661
26.4677
8.92755
8.74693
25.7835
41.4842
55.0716
65.9209
73.5896
77.8268
78.5655
75.9021
70.0697
61.4099
50.3468
37.3634
22.9833
7.75574
7.49013
22.0907
35.5796
47.3025
56.7238
63.4519
67.2509
68.0379
65.8704
60.9278
53.4902
43.9172
32.6284
20.0859
6.78066
6.49649
19.1685
30.8989
41.1287
49.393
55.344
58.7622
59.5574
57.7613
53.5143
47.0497
38.6762
28.7617
17.717
5.98289
5.72524
16.8986
27.258
36.3165
43.6647
48.9906
52.0904
52.8717
51.3495
47.6365
41.9309
34.5024
25.6774
15.8254
5.34552
5.14589
15.1924
24.5179
32.6885
39.3367
44.1784
47.0236
47.7807
46.4542
43.1378
38.0046
31.2949
23.3038
14.3682
4.8543
4.73627
13.9853
22.5769
30.1141
36.2589
40.7476
43.4015
44.1312
42.9355
39.8959
35.1686
28.9737
21.5835
13.311
4.49771
4.48119
13.233
21.3649
28.5026
34.3261
38.5854
41.1098
41.8128
40.6912
37.8205
33.347
27.4785
20.4729
12.6274
4.26699
4.37163
12.9089
20.84
27.7991
33.4741
37.6216
40.0762
40.7547
39.6551
36.8519
32.4888
26.7684
19.9422
12.2994
4.15604
4.40428
13.0033
20.986
27.9819
33.6765
37.8264
40.2685
40.9236
39.7943
36.9597
32.567
26.8212
19.9748
12.3167
4.16139
4.58148
13.5228
21.8128
29.0624
34.9442
39.2088
41.6931
42.3229
41.1092
38.1416
33.5776
27.6323
20.5667
12.6765
4.28209
4.91151
14.4911
23.3568
31.0856
37.3266
41.818
44.3954
44.992
43.6324
40.4229
35.5394
29.2148
21.7261
13.3834
4.51954
5.40924
15.9512
25.684
34.1336
40.9138
45.7452
48.4617
49.0078
47.4287
43.856
38.4928
31.598
23.4727
14.4486
4.87741
6.09742
17.9685
28.8949
38.331
45.8427
51.1281
54.0215
54.4858
52.5963
48.5206
42.4992
34.8268
25.837
15.8895
5.36137
7.00851
20.6362
33.1318
43.8529
52.3037
58.1565
61.2519
61.5823
59.2666
54.5224
47.6401
38.9608
28.8588
17.7291
5.97886
8.18768
24.0833
38.59
50.9372
60.5519
67.0813
70.3833
70.4973
67.6054
61.9929
54.0151
44.0715
32.586
19.9947
6.7387
9.69716
28.4867
45.5346