/*--------------------------------*- C++ -*----------------------------------*\
| =========                 |                                                 |
| \\      /  F ield         | OpenFOAM: The Open Source CFD Toolbox           |
|  \\    /   O peration     | Version:  5.x                                   |
|   \\  /    A nd           | Web:      www.OpenFOAM.org                      |
|    \\/     M anipulation  |                                                 |
\*---------------------------------------------------------------------------*/
FoamFile
{
    version     2.0;
    format      ascii;
    class       volScalarField;
    location    "2.9";
    object      gradTx;
}
// * * * * * * * * * * * * * * * * * * * * * * * * * * * * * * * * * * * * * //

dimensions      [0 -1 0 1 0 0 0];

internalField   nonuniform List<scalar> 
6300
(
4615.68
4602.6
4576.37
4536.91
4484.06
4417.68
4337.65
4243.93
4136.57
4015.86
3882.3
3736.73
3580.35
3414.75
3241.89
4628.42
4615.39
4589.28
4549.95
4497.25
4431
4351.03
4257.24
4149.64
4028.41
3894.03
3747.28
3589.32
3421.77
3246.65
4653.84
4640.94
4615.05
4576.03
4523.67
4457.72
4377.92
4284.06
4176.01
4053.84
3917.86
3768.75
3607.63
3436.14
3256.41
4691.82
4679.12
4653.62
4615.12
4563.35
4497.96
4418.55
4324.75
4216.22
4092.78
3954.54
3801.96
3636.07
3458.5
3271.58
4742.16
4729.76
4704.84
4667.15
4616.32
4551.88
4473.27
4379.85
4271.02
4146.25
4005.27
3848.23
3675.92
3489.96
3292.94
4804.55
4792.58
4768.48
4731.97
4682.57
4619.66
4542.46
4450.06
4341.44
4215.62
4071.77
3909.49
3729.16
3532.26
3321.66
4878.56
4867.17
4844.21
4809.33
4761.98
4701.38
4626.53
4536.16
4428.77
4302.73
4156.41
3988.54
3798.71
3588
3359.57
4963.62
4952.98
4931.51
4898.83
4854.3
4797.04
4725.79
4638.95
4534.45
4409.82
4262.32
4089.28
3888.88
3661.22
3409.52
5058.96
5049.26
5029.69
4999.82
4959.03
4906.33
4840.32
4759.07
4659.94
4539.49
4393.46
4217.1
4006.07
3758.22
3476.14
5163.64
5155.08
5137.79
5111.41
5075.32
5028.58
4969.76
4896.74
4806.44
4694.43
4554.63
4379.31
4159.82
3889.21
3567.22
5276.53
5269.28
5254.64
5232.34
5201.91
5162.56
5113.05
5051.37
4974.32
4876.83
4751.05
4585.4
4364.42
4071.34
3696.9
5396.32
5390.49
5378.78
5361.05
5337.06
5306.36
5268.16
5221.03
5162.31
5087.21
4987.03
4846.54
4640.84
4334.58
3893.12
5521.58
5517.24
5508.58
5495.67
5478.56
5457.31
5431.87
5401.92
5366.37
5322.36
5262.99
5172.58
5017.53
4732.74
4217.93
5650.81
5647.93
5642.28
5634.11
5623.83
5612.08
5599.75
5588.07
5578.54
5572.52
5569.67
5562.93
5523.66
5360.64
4830.58
5782.56
5781.02
5778.13
5774.3
5770.23
5767.06
5766.61
5771.71
5786.86
5819.19
5879.89
5985.47
6153.21
6355.29
6215.39
3079.14
2929.03
2778.5
2629.01
2481.97
2338.65
2200.2
2067.56
1941.52
1822.66
1711.4
1608.01
1512.62
1425.24
1345.78
1274.08
1209.9
1152.97
1102.95
1059.47
1022.12
990.453
963.979
942.174
924.477
910.291
898.996
889.96
882.553
876.167
870.241
864.275
857.847
850.62
842.333
832.798
821.875
809.457
795.457
779.794
762.396
743.202
722.173
699.3
674.606
648.152
620.021
590.306
559.095
526.452
492.401
456.925
419.958
381.397
341.104
298.925
254.697
208.255
159.437
108.078
54.0069
-2.96889
-63.0686
-126.549
-193.711
-264.896
-340.489
-420.906
-506.585
-597.975
-695.524
-799.665
-910.809
-1029.33
-1155.57
-1289.82
-1432.31
-1583.19
-1742.53
-1910.27
-2086.23
-2270.05
-2461.17
-2658.83
-2862.04
-3069.56
-3279.94
-3491.55
-3702.59
-3911.21
3081.66
2929.43
2776.8
2625.31
2476.44
2331.51
2191.69
2057.95
1931.06
1811.61
1699.98
1596.42
1501.02
1413.77
1334.55
1263.19
1199.43
1142.98
1093.51
1050.62
1013.93
982.967
957.256
936.265
919.429
906.14
895.761
887.635
881.104
875.531
870.325
864.968
859.03
852.176
844.164
834.829
824.058
811.767
797.881
782.322
765.01
745.871
724.855
701.943
677.163
650.586
622.317
592.475
561.171
528.487
494.462
459.077
422.26
383.892
343.822
301.878
257.886
211.679
163.097
111.988
58.1925
1.53477
-58.1929
-121.24
-187.905
-258.535
-333.526
-413.307
-498.336
-589.08
-686
-789.546
-900.14
-1018.17
-1143.99
-1277.9
-1420.16
-1570.94
-1730.35
-1898.36
-2074.82
-2259.42
-2451.64
-2650.72
-2855.69
-3065.29
-3278.03
-3492.19
-3705.91
-3917.21
3086.8
2930.22
2773.27
2617.69
2465.07
2316.85
2174.28
2038.34
1909.79
1789.18
1676.85
1572.99
1477.61
1390.66
1311.97
1241.3
1178.4
1122.93
1074.54
1032.86
997.464
967.918
943.732
924.379
909.282
897.812
889.298
883.034
878.299
874.39
870.655
866.529
861.561
855.429
847.931
838.959
828.462
816.406
802.745
787.403
770.281
751.272
730.29
707.298
682.327
655.475
626.895
596.762
565.244
532.465
498.488
463.296
426.798
388.843
349.24
307.78
264.266
218.522
170.399
119.768
66.5035
10.464
-48.5305
-110.712
-176.377
-245.882
-319.646
-398.133
-481.836
-571.261
-666.904
-769.243
-878.722
-995.75
-1120.7
-1253.91
-1395.67
-1546.21
-1705.69
-1874.18
-2051.61
-2237.73
-2432.1
-2634.03
-2842.55
-3056.36
-3273.91
-3493.32
-3712.54
-3929.37
3094.74
2931.32
2767.61
2605.62
2447.19
2293.93
2147.18
2007.95
1876.97
1754.73
1641.46
1537.24
1442.01
1355.59
1277.76
1208.21
1146.62
1092.64
1045.9
1006.01
972.572
945.143
923.25
906.37
893.919
885.241
879.613
876.25
874.328
873.025
871.576
869.329
865.798
860.68
853.852
845.316
835.141
823.387
810.058
795.077
778.298
759.539
738.643
715.526
690.22
662.872
633.724
603.058
571.143
538.18
504.271
469.399
433.438
396.171
357.331
316.642
273.859
228.791
181.312
131.34
78.8139
23.6526
-34.2723
-95.1625
-159.307
-227.083
-298.95
-375.427
-457.075
-544.46
-638.137
-738.622
-846.391
-961.875
-1085.47
-1217.56
-1358.47
-1508.53
-1667.99
-1837.05
-2015.77
-2204.05
-2401.58
-2607.74
-2821.63
-3041.92
-3266.93
-3494.57
-3722.45
-3947.99
3105.81
2932.63
2759.29
2588.25
2421.7
2261.51
2109.11
1965.55
1831.48
1707.24
1592.94
1488.47
1393.63
1308.12
1231.57
1163.61
1103.84
1051.89
1007.36
969.866
939.013
914.39
895.55
881.99
873.129
868.291
866.684
867.411
869.486
871.894
873.67
874.008
872.347
868.425
862.261
854.066
844.125
832.667
819.779
805.371
789.192
770.911
750.217
726.93
701.072
672.881
642.755
611.167
578.561
545.266
511.446
477.077
441.962
405.766
368.086
328.52
286.739
242.532
195.813
146.593
94.9198
40.8236
-15.739
-74.9198
-136.998
-202.383
-271.599
-345.26
-424.028
-508.575
-599.536
-697.481
-802.911
-916.273
-1037.98
-1168.43
-1308.04
-1457.23
-1616.41
-1785.93
-1966.08
-2156.97
-2358.49
-2570.23
-2791.35
-3020.57
-3256.01
-3495.3
-3735.55
-3973.57
3120.51
2933.97
2747.49
2564.22
2386.9
2217.7
2058.2
1909.36
1771.71
1645.35
1530.15
1425.77
1331.77
1247.66
1172.96
1107.16
1049.79
1000.43
958.672
924.14
896.472
875.305
860.247
850.846
846.558
846.698
850.411
856.648
864.187
871.695
877.863
881.593
882.181
879.429
873.623
865.362
855.323
844.034
831.72
818.242
803.143
785.784
765.551
742.058
715.306
685.692
653.907
620.757
586.98
553.115
519.416
485.835
452.043
417.499
381.555
343.584
303.109
259.886
213.916
165.376
114.515
61.5479
6.56844
-50.4984
-109.92
-172.156
-237.835
-307.719
-382.641
-463.432
-550.849
-645.527
-747.976
-858.615
-977.837
-1106.06
-1243.76
-1391.49
-1549.85
-1719.44
-1900.84
-2094.48
-2300.59
-2519.07
-2749.31
-2990.09
-3239.42
-3494.48
-3751.68
-4006.88
3139.61
2935.01
2730.89
2531.47
2340.25
2159.81
1991.78
1836.97
1695.57
1567.32
1451.7
1348.03
1255.58
1173.63
1101.48
1038.51
984.178
937.996
899.558
868.514
844.562
827.419
816.795
812.347
813.618
819.973
830.516
844.031
858.954
873.446
885.592
893.73
896.85
894.86
888.55
879.248
868.351
856.908
845.366
833.476
820.373
804.824
785.6
761.904
733.681
701.647
667.041
631.26
595.539
560.732
527.221
494.898
463.205
431.246
397.94
362.251
323.432
281.194
235.715
187.497
137.143
85.17
31.8842
-22.6813
-78.7829
-136.959
-198.003
-262.909
-332.783
-408.724
-491.68
-582.355
-681.212
-788.561
-904.693
-1029.99
-1164.99
-1310.39
-1467.04
-1635.88
-1817.88
-2013.94
-2224.8
-2450.85
-2691.96
-2947.16
-3214.42
-3490.41
-3770.49
-4049.08
3164.26
2935.18
2707.35
2486.74
2277.93
2083.91
1906.2
1745.16
1600.39
1471.01
1355.96
1254.07
1164.22
1085.41
1016.73
957.402
906.793
864.385
829.775
802.664
782.837
770.142
764.452
765.614
773.365
787.227
806.359
829.402
854.359
878.6
899.114
913.117
918.904
916.539
907.813
895.461
882.191
869.954
859.544
850.483
841.155
829.183
812.114
788.292
757.565
721.324
681.88
641.692
602.788
566.488
533.321
503.051
474.751
446.928
417.749
385.42
348.673
307.159
261.453
212.689
162.098
110.681
59.0432
7.35133
-44.6521
-97.6257
-152.601
-210.93
-274.174
-343.895
-421.37
-507.376
-602.189
-705.822
-818.31
-939.91
-1071.19
-1213.04
-1366.63
-1533.31
-1714.58
-1912
-2127.02
-2360.85
-2614.19
-2886.74
-3176.71
-3480.26
-3791.3
-4101.86
3196.3
2933.35
2673.26
2424.85
2194.16
1984.4
1796.49
1629.81
1482.93
1354.01
1241.19
1142.69
1056.93
982.564
918.46
863.703
817.57
779.521
749.177
726.312
710.835
702.774
702.244
709.396
724.322
746.904
776.582
812.031
850.816
889.139
922.035
944.36
952.72
947.402
932.325
913.022
894.573
880.399
871.804
867.905
865.771
860.908
848.376
824.647
789.412
745.629
697.808
650.285
606.297
567.739
535.25
508.366
485.607
464.557
442.086
414.94
380.77
339.151
291.587
240.503
188.238
136.507
86.2778
37.8335
-9.12071
-55.4035
-102.358
-151.861
-206.226
-267.88
-338.756
-419.69
-510.436
-610.3
-718.769
-835.845
-962.127
-1098.75
-1247.29
-1409.65
-1587.98
-1784.64
-2002.05
-2242.67
-2508.63
-2801.12
-3119.3
-3459.15
-3812.64
-4167.84
3238.66
2927.18
2622.2
2337.28
2080.12
1853.31
1656.07
1485.87
1339.5
1213.76
1105.73
1012.89
933.177
864.891
806.696
757.551
716.682
683.541
657.795
639.31
628.147
624.557
628.975
641.987
664.26
696.374
738.504
789.875
847.951
907.514
960.197
995.732
1006.26
992.339
962.947
929.38
900.824
882.835
877.331
882.811
894.343
903.704
900.79
877.593
833.589
775.769
713.32
653.799
601.997
560.253
529.11
507.737
493.994
484.222
473.145
454.562
423.578
379.689
326.778
270.009
213.598
160.166
110.938
66.1688
25.4454
-12.2096
-48.4409
-85.7799
-127.768
-178.571
-241.642
-317.854
-405.529
-502.361
-606.803
-718.489
-838.131
-967.259
-1108
-1262.92
-1434.95
-1627.3
-1843.59
-2087.9
-2364.78
-2678.38
-3030.54
-3418.27
-3831.32
-4251.14
3296.35
2911.48
2542.08
2209.58
1922.24
1679.53
1476.64
1307.52
1166.31
1047.95
948.319
864.157
792.919
732.65
681.864
639.457
604.64
576.893
555.943
541.756
534.548
534.808
543.329
561.245
590.034
631.43
687.131
758.074
842.96
935.811
1023.07
1083.13
1095.01
1059.58
999.602
938.545
891.882
867.316
867.069
889.03
926.072
964.203
982.439
960.527
897.686
812.596
724.631
646.211
583.218
537.504
508.897
496.117
496.653
505.753
514.995
512.024
484.948
433.201
367.51
298.983
234.661
177.763
129.175
88.6767
55.5944
28.9376
7.07717
-12.9966
-36.6077
-71.5851
-125.59
-199.492
-287.416
-383.443
-484.378
-589.646
-700.44
-819.008
-948.251
-1091.53
-1252.57
-1435.45
-1644.72
-1886.14
-2167.94
-2500
-2890.41
-3340.79
-3840.06
-4358.72
3378.61
2873.31
2408.66
2016.71
1700
1448.28
1248.5
1088.9
960.128
855.097
768.587
696.766
636.828
586.718
544.937
510.411
482.399
460.443
444.34
434.144
430.191
433.159
444.155
464.851
497.657
545.892
613.821
706.206
826.51
972.172
1125.12
1239.93
1251.91
1162.19
1037.83
927.005
851.139
816.804
824.85
873.56
956.26
1053.38
1121.93
1102.43
993.849
853.586
722.212
616.42
539.565
490.125
465.892
465.315
486.965
527.059
574.411
604.171
581.82
506.767
412.305
321.887
245.019
183.382
135.756
100.501
76.4894
63.1795
60.0259
64.8859
70.9273
62.8095
19.1273
-60.9268
-157.617
-257.437
-355.691
-452.824
-551.529
-655.356
-768.256
-894.516
-1038.72
-1205.54
-1399.5
-1626.19
-1898.63
-2237.5
-2663.81
-3192.73
-3820.72
-4503.21
3503.96
2776.44
2170.43
1715.37
1384.05
1142.15
962.42
825.844
719.7
635.53
567.66
512.227
466.553
428.764
397.541
371.965
351.422
335.552
324.221
317.534
315.866
319.949
331.012
351.02
383.069
432
505.301
614.142
773.551
998.052
1282.09
1544.83
1555.29
1314.67
1056.57
865.146
750.61
705.282
724.101
809.169
965.711
1183.73
1388.28
1372.62
1135.67
881.801
682.971
544.973
456.441
406.447
388.818
402.494
450.701
537.892
659.128
771.324
754.544
608.254
451.25
325.258
233.432
168.816
124.513
96.1335
81.9715
82.7968
101.437
141.07
198.856
248.423
216.227
101.604
-23.2975
-133.676
-228.6
-313.72
-395.222
-478.615
-569.002
-671.641
-792.27
-936.519
-1107.13
-1300.29
-1533.62
-1849.01
-2289.32
-2901.88
-3722.74
-4709.98
3713.27
2504.42
1714.7
1235.76
939.251
746.427
614.14
518.914
447.587
392.454
348.796
313.606
284.9
261.337
241.997
226.256
213.706
204.115
197.411
193.691
193.256
196.687
204.988
219.853
244.173
283.019
345.61
449.263
626.868
938.199
1469.75
2212.99
2220.21
1492.35
979.304
692.58
550.435
501.406
527.971
641.882
886.665
1333.53
1971.76
1961.51
1301.89
830.79
556.149
402.304
317.827
276.166
266.659
289.938
358.282
499.673
756.823
1124.15
1113.71
725.126
445.508
279.407
182.65
124.987
90.3363
71.2878
65.8701
76.7603
112.617
191.116
338.624
551.774
532.027
278.939
90.1161
-32.1581
-115.617
-179.813
-236.179
-291.79
-352.093
-422.845
-511.798
-629.53
-782.284
-916.517
-1050.41
-1280.56
-1666.71
-2310.93
-3385
-5034.84
4100.12
1628.74
811.323
493.372
345.094
263.488
212.454
177.539
152.131
132.831
117.719
105.633
95.828
87.8144
81.2608
75.9448
71.7229
68.515
66.2991
65.1144
65.0769
66.4104
69.5109
75.0734
84.363
99.8444
126.795
177.895
287.621
561.234
1352.56
3941.04
3943.63
1360.68
576.142
311.825
216.184
188.684
206.078
286.158
516.655
1207.79
3489.13
3485.54
1196.7
496.902
255.396
159.755
117.563
99.5828
97.2841
112.48
160.658
294.729
695.809
2020.88
2017.34
685.029
276.271
133.683
75.5603
48.0113
33.6874
26.8108
26.2838
34.7711
62.3921
141.79
383.863
1190.49
1183.84
363.734
107.702
13.4703
-30.3656
-57.1725
-78.2174
-98.2003
-120.134
-147.835
-189.886
-272.125
-484.141
-533.262
-428.602
-487.425
-672.434
-1100.89
-2218.01
-5605.2
-4135.38
-4371.54
-4595.85
-4805.98
-5000.06
-5176.79
-5335.38
-5475.43
-5596.91
-5700.01
-5785.06
-5852.47
-5902.62
-5935.85
-5952.4
-4144.21
-4383.16
-4609.83
-4821.78
-5017.16
-5194.69
-5353.64
-5493.73
-5615.01
-5717.77
-5802.42
-5869.43
-5919.24
-5952.23
-5968.65
-4162.17
-4406.84
-4638.29
-4853.92
-5051.86
-5230.9
-5390.5
-5530.56
-5651.35
-5753.34
-5837.13
-5903.3
-5952.4
-5984.86
-6001.02
-4189.93
-4443.53
-4682.35
-4903.53
-5105.19
-5286.31
-5446.62
-5586.38
-5706.19
-5806.84
-5889.16
-5953.94
-6001.88
-6033.52
-6049.24
-4228.55
-4494.79
-4743.8
-4972.42
-5178.8
-5362.26
-5523.02
-5661.86
-5779.91
-5878.37
-5958.42
-6021.12
-6067.35
-6097.78
-6112.88
-4279.75
-4563.05
-4825.42
-5063.3
-5275.06
-5460.64
-5621.05
-5757.87
-5872.92
-5968
-6044.72
-6104.45
-6148.3
-6177.07
-6191.33
-4346.13
-4652.01
-4931.3
-5180.06
-5397.25
-5583.93
-5742.38
-5875.35
-5985.62
-6075.69
-6147.7
-6203.36
-6244
-6270.58
-6283.71
-4431.74
-4767.33
-5067.48
-5328.14
-5549.67
-5735.17
-5888.9
-6015.26
-6118.22
-6201.14
-6266.71
-6316.97
-6353.45
-6377.21
-6388.92
-4543.06
-4917.85
-5242.92
-5515.08
-5737.85
-5917.89
-6062.49
-6178.24
-6270.54
-6343.64
-6400.71
-6444.04
-6475.29
-6495.55
-6505.52
-4691.01
-5117.86
-5470.99
-5751.12
-5968.47
-6135.77
-6264.63
-6364.34
-6441.76
-6501.86
-6548.11
-6582.88
-6607.78
-6623.86
-6631.75
-4895.26
-5391.36
-5771.81
-6049.67
-6248.85
-6391.77
-6495.63
-6572.38
-6629.98
-6673.61
-6706.65
-6731.25
-6748.76
-6760.02
-6765.54
-5194.62
-5780.24
-6174.92
-6426.6
-6585.16
-6686.54
-6753.42
-6799.25
-6831.81
-6855.63
-6873.32
-6886.37
-6895.63
-6901.59
-6904.51
-5675.05
-6359.8
-6720.73
-6896.32
-6978.3
-7015.49
-7031.93
-7039.01
-7042.04
-7043.44
-7044.28
-7044.92
-7045.44
-7045.83
-7046.04
-6556.53
-7262.85
-7451.56
-7459.32
-7415.87
-7364.87
-7319.44
-7282.46
-7253.54
-7231.49
-7215.08
-7203.22
-7195.03
-7189.9
-7187.43
-8506.39
-8683.14
-8363
-8073.15
-7860.61
-7708.32
-7598.16
-7517.46
-7457.78
-7413.55
-7380.99
-7357.47
-7341.19
-7330.94
-7325.98
5904.41
5903.93
5903.19
5902.68
5903.25
5906.31
5914.15
5930.51
5961.74
6018.95
6122.8
6315.51
6698.5
7580.21
10173.6
6015.26
6015.58
6016.46
6018.37
6022.19
6029.34
6042.1
6064.3
6102.42
6167.91
6281.66
6483.14
6847.61
7504.85
8528.5
6125.63
6126.6
6128.74
6132.48
6138.57
6148.2
6163.25
6186.78
6223.85
6283.08
6379.32
6537.34
6793.14
7174.72
7597.99
6235.06
6236.54
6239.64
6244.7
6252.24
6263.04
6278.26
6299.61
6329.63
6372.29
6433.83
6523.37
6651.03
6815.36
6965.11
6343.21
6345.08
6348.93
6354.94
6363.37
6374.55
6388.76
6406.14
6426.35
6448.13
6468.63
6482.65
6483.18
6465.84
6439.93
6449.79
6452
6456.46
6463.23
6472.34
6483.69
6496.81
6510.45
6521.71
6524.61
6507.66
6451.03
6327.46
6121.98
5900.48
6554.57
6557.09
6562.12
6569.63
6579.49
6591.35
6604.25
6616.14
6622.6
6614.61
6574
6465.61
6228.34
5788.98
5210.92
6657.35
6660.17
6665.78
6674.12
6685.01
6698.01
6712.15
6725.33
6733.27
6727.01
6687.13
6569.42
6269.29
5552.03
4123.62
6757.91
6761.04
6767.29
6776.59
6788.81
6803.64
6820.44
6837.89
6853.53
6862.49
6854.06
6799.64
6599.65
5808.64
2048.08
6856.03
6859.49
6866.4
6876.76
6890.53
6907.65
6928
6951.45
6978.18
7009.79
7052.66
7130.7
7340.19
8127.15
11876.1
6951.49
6955.27
6962.86
6974.29
6989.67
7009.17
7033.16
7062.45
7099.19
7149.02
7226.58
7370.22
7679.44
8388.46
9799.86
7044.05
7048.14
7056.37
7068.83
7085.7
7107.34
7134.36
7168
7210.86
7268.76
7354.34
7494.51
7740.82
8161.77
8707.28
7133.51
7137.88
7146.68
7160.02
7178.17
7201.51
7230.72
7266.86
7311.84
7369.01
7443.93
7544.86
7680.68
7848.34
7997.1
7219.68
7224.28
7233.55
7247.62
7266.77
7291.37
7322
7359.33
7404.11
7456.7
7515.18
7570.75
7598.19
7547.81
7393.79
7302.4
7307.18
7316.8
7331.43
7351.32
7376.81
7408.36
7446.33
7490.71
7540.04
7588.21
7615.95
7569.49
7319.02
6687.08
7381.53
7386.44
7396.32
7411.32
7431.71
7457.81
7490.01
7528.62
7573.62
7623.94
7675.18
7712.43
7682.23
7354.91
5545.08
7457
7461.97
7471.99
7487.21
7507.87
7534.31
7566.94
7606.2
7652.59
7706.97
7771.58
7855.53
8001.05
8420.07
10277.4
7528.75
7533.74
7543.79
7559.05
7579.77
7606.27
7639.01
7678.54
7725.76
7782.65
7854.31
7955.64
8129.68
8486.19
9175.55
7596.77
7601.72
7611.69
7626.83
7647.38
7673.66
7706.11
7745.27
7791.97
7847.81
7916.18
8005
8131.35
8320.9
8556.05
7661.08
7665.94
7675.73
7690.59
7710.74
7736.51
7768.28
7806.49
7851.59
7904.01
7963.59
8028.06
8088.9
8123.71
8103.46
7721.76
7726.48
7735.97
7750.39
7769.94
7794.93
7825.73
7862.65
7905.87
7954.99
8007.33
8053.41
8064.26
7964.52
7640.45
7778.89
7783.41
7792.52
7806.34
7825.09
7849.08
7878.65
7914.15
7955.82
8003.47
8055.17
8102.99
8116.16
7960.89
6956.05
7832.61
7836.89
7845.51
7858.59
7876.35
7899.09
7927.19
7961.09
8001.35
8048.88
8105.43
8176.39
8284.79
8547.01
9614.86
7883.09
7887.08
7895.11
7907.31
7923.88
7945.13
7971.44
8003.32
8041.57
8087.77
8145.42
8223.52
8346.34
8573.38
8981.66
7930.52
7934.18
7941.53
7952.71
7967.9
7987.39
8011.54
8040.84
8076.01
8118.46
8170.95
8239.35
8335.24
8473.63
8635.78
7975.14
7978.41
7985.01
7995.03
8008.66
8026.15
8047.8
8073.99
8105.14
8141.92
8185.15
8235.82
8294.37
8357.11
8406.32
8017.21
8020.06
8025.81
8034.56
8046.46
8061.74
8080.65
8103.4
8130.1
8160.64
8193.92
8226.57
8250.32
8249.72
8214.87
8057
8059.4
8064.24
8071.6
8081.64
8094.55
8110.55
8129.76
8152.15
8177.19
8202.86
8223.25
8222.93
8165.85
8003.04
8094.84
8096.75
8100.61
8106.5
8114.55
8124.96
8137.93
8153.63
8172.09
8193.06
8215.18
8234.07
8234.71
8155.16
7682
8131.05
8132.44
8135.26
8139.58
8145.53
8153.3
8163.13
8175.28
8190.03
8207.86
8229.5
8257.31
8301.94
8417.58
8907.28
8165.99
8166.84
8168.56
8171.23
8174.96
8179.94
8186.44
8194.82
8205.58
8219.75
8239.25
8268.64
8319.6
8420
8605.45
8200.04
8200.32
8200.9
8201.83
8203.21
8205.24
8208.17
8212.39
8218.51
8227.68
8241.88
8264.77
8302.71
8363.15
8436.29
8233.57
8233.27
8232.66
8231.79
8230.72
8229.62
8228.7
8228.33
8229.05
8231.86
8238.23
8250.2
8269.99
8297.27
8321.83
8267
8266.1
8264.28
8261.55
8257.95
8253.57
8248.57
8243.19
8237.86
8233.31
8230.41
8229.98
8231.84
8233.09
8228.36
8300.73
8299.22
8296.19
8291.59
8285.4
8277.65
8268.38
8257.7
8245.87
8233.34
8220.63
8207.95
8193.93
8172.92
8135.58
8335.17
8333.07
8328.83
8322.38
8313.62
8302.47
8288.85
8272.7
8254.06
8233.21
8210.57
8186.62
8160.66
8123.95
8020.91
8370.71
8368.05
8362.66
8354.42
8343.16
8328.68
8310.75
8289.09
8263.51
8234.04
8201.14
8166.44
8134.66
8120.88
8188.8
8407.74
8404.56
8398.1
8388.2
8374.59
8356.95
8334.89
8307.87
8275.35
8236.95
8192.68
8143.98
8095.89
8060.81
8058.44
8446.6
8442.96
8435.56
8424.16
8408.45
8387.96
8362.12
8330.11
8290.97
8243.62
8187
8120.84
8047.82
7977.74
7931.08
8487.62
8483.59
8475.38
8462.74
8445.25
8422.34
8393.26
8356.94
8311.95
8256.41
8187.64
8102.21
7997.44
7878.17
7776.07
8531.03
8526.7
8517.89
8504.28
8485.41
8460.63
8429.04
8389.39
8339.92
8278.06
8199.52
8096.72
7956.89
7766.48
7555.02
8577.04
8572.52
8563.31
8549.06
8529.28
8503.26
8470.02
8428.26
8376.11
8310.93
8227.91
8116.64
7951.25
7669.28
7192.11
8625.77
8621.17
8611.78
8597.25
8577.06
8550.48
8516.52
8473.9
8420.98
8355.81
8275.55
8173.85
8026.3
7707.55
6503.02
8677.26
8672.69
8663.36
8648.93
8628.85
8602.4
8568.6
8526.23
8473.93
8410.77
8337.66
8262.52
8219.94
8360.79
9443.98
8731.47
8727.05
8718.02
8704.05
8684.61
8658.97
8626.18
8584.99
8533.98
8472.19
8400.71
8328.15
8285.71
8359.02
8682.8
8788.29
8784.12
8775.63
8762.49
8744.19
8720.06
8689.13
8650.05
8601.03
8539.86
8464.02
8372.38
8270.55
8182.64
8153.45
8847.51
8843.72
8835.98
8824
8807.34
8785.38
8757.22
8721.49
8676.04
8617.19
8537.78
8423.15
8245.16
7964.89
7611.04
8908.88
8905.54
8898.75
8888.25
8873.67
8854.52
8830.05
8799.13
8759.8
8708.27
8635.42
8517.37
8290.24
7797.69
6830.31
8972.05
8969.26
8963.57
8954.8
8942.66
8926.82
8906.82
8882.02
8851.49
8813.59
8763.83
8686.76
8519.04
7959.75
5385.42
9036.63
9034.45
9029.99
9023.13
9013.69
9001.49
8986.38
8968.3
8947.71
8926.54
8910.58
8918.46
9019.13
9520.61
12052.2
9102.21
9100.67
9097.53
9092.7
9086.09
9077.64
9067.41
9055.7
9043.74
9035.22
9040.08
9085.03
9240.09
9670.73
10594.4
9168.32
9167.45
9165.67
9162.93
9159.2
9154.48
9148.87
9142.64
9136.75
9133.94
9141.04
9174.39
9268.84
9477.43
9787.33
9234.48
9234.29
9233.9
9233.28
9232.43
9231.38
9230.14
9228.69
9226.99
9225.11
9223.01
9220.55
9217.43
9212.82
9204.76
9300.21
9300.72
9301.71
9303.21
9305.23
9307.83
9310.95
9314.25
9316.7
9315.74
9304.49
9266.38
9166.19
8949.64
8626.01
9365.04
9366.22
9368.59
9372.18
9377.07
9383.35
9391.02
9399.71
9408.13
9412.82
9403.87
9354.54
9194.91
8759.88
7831.95
9428.49
9430.32
9434.02
9439.65
9447.35
9457.33
9469.78
9484.66
9501.51
9518.69
9530.54
9518.53
9414.03
8911.48
6402.91
9490.09
9492.55
9497.51
9505.08
9515.47
9529.04
9546.21
9567.57
9594.01
9627.57
9673.03
9746.01
9908.75
10455.3
12978.1
9549.43
9552.47
9558.59
9567.95
9580.82
9597.66
9619.13
9646.25
9680.95
9727.49
9795.7
9910.44
10136.2
10625.9
11577.2
9606.11
9609.66
9616.83
9627.78
9642.83
9662.49
9687.51
9719.01
9759.03
9811.71
9885.34
9997.07
10179.6
10475.4
10845.8
9659.75
9663.76
9671.85
9684.18
9701.08
9723.04
9750.77
9785.18
9827.7
9880.74
9947.81
10033.9
10143.6
10272.4
10380.5
9710.06
9714.47
9723.33
9736.83
9755.25
9779.04
9808.78
9845.06
9888.47
9939.38
9996.42
10053.5
10093.7
10083
9998.95
9756.77
9761.5
9771.02
9785.48
9805.13
9830.38
9861.66
9899.34
9943.44
9993.14
10044.3
10084.3
10078.3
9943.77
9567.72
9799.66
9804.66
9814.71
9829.94
9850.58
9876.98
9909.53
9948.51
9993.95
10045.3
10099.4
10146.3
10151.4
9971.5
8883.87
9838.54
9843.76
9854.24
9870.08
9891.5
9918.8
9952.37
9992.58
10039.8
10094.8
10158.9
10236.8
10352.2
10628.9
11763.6
9873.27
9878.67
9889.48
9905.8
9927.79
9955.75
9990.05
10031.1
10079.8
10137.6
10208.1
10300.7
10440.6
10689.9
11128.3
9903.75
9909.28
9920.35
9937.02
9959.43
9987.8
10022.5
10063.9
10112.8
10170.9
10241.5
10331.2
10452.4
10619.1
10804.9
9929.89
9935.53
9946.8
9963.73
9986.41
10015
10049.7
10090.9
10139
10195.1
10261
10339.3
10432.1
10534.8
10617.6
9951.62
9957.36
9968.8
9985.94
10008.8
10037.4
10072
10112.4
10159
10212
10271.5
10336.8
10404.4
10463.8
10494.9
9968.89
9974.72
9986.32
10003.7
10026.7
10055.3
10089.6
10129.3
10174.1
10223.9
10277.5
10332.2
10381.8
10411.9
10400.9
9981.65
9987.58
9999.37
10016.9
10040.2
10068.9
10102.9
10142
10185.4
10232.6
10282.1
10330.8
10372.3
10387.9
10306.2
9989.82
9995.88
10007.9
10025.8
10049.4
10078.3
10112.4
10151.1
10193.6
10239.3
10286.7
10334.1
10380.2
10431.1
10542.8
9993.33
9999.57
10011.9
10030.3
10054.3
10083.8
10118.2
10157
10199.3
10244.3
10290.9
10337.8
10384.4
10431.7
10481.6
9992.07
9998.54
10011.4
10030.3
10055.1
10085.4
10120.5
10159.9
10202.6
10247.8
10294.4
10341.4
10387.6
10430.4
10460.9
9985.89
9992.66
10006.1
10025.8
10051.7
10083.1
10119.5
10160.1
10203.9
10249.9
10297.2
10345.1
10392.8
10437.1
10467.3
9974.6
9981.73
9995.86
10016.7
10044
10077
10115.2
10157.6
10203.1
10250.6
10299.3
10348.7
10399.9
10453.4
10500.5
9957.94
9965.52
9980.55
10002.8
10031.8
10067
10107.6
10152.6
10200.6
10250.2
10300.3
10350.8
10404.9
10473.7
10572
9935.61
9943.73
9959.84
9983.68
10014.8
10052.8
10096.6
10145
10196.5
10249.1
10300.8
10350
10399.4
10473.2
10717.2
9907.25
9915.99
9933.34
9959.09
9992.87
10034.1
10081.9
10135
10191.3
10248.3
10302.6
10348.6
10376.4
10354.2
10130.1
9872.44
9881.86
9900.61
9928.53
9965.32
10010.5
10063.3
10122.2
10185.2
10249.2
10309.6
10359.6
10387.9
10375.2
10299.6
9830.72
9840.86
9861.11
9891.4
9931.58
9981.31
10039.9
10106.2
10178
10252.2
10323.7
10385.3
10427.5
10439.8
10421.3
9781.59
9792.47
9814.26
9847.03
9890.83
9945.59
10011
10086
10168.9
10256.7
10344.2
10424.3
10487.7
10525.4
10535.1
9724.54
9736.12
9759.41
9794.63
9842.11
9902.16
9974.9
10060
10156.2
10261
10369.6
10474.5
10565.4
10630.3
10660.3
9659.09
9671.28
9695.89
9733.35
9784.31
9849.58
9929.93
10025.8
10137.1
10262.2
10397.2
10534.3
10660.7
10759.2
10811.1
9584.83
9597.47
9623.08
9662.32
9716.24
9786.2
9873.8
9980.67
10108.1
10256.4
10423.1
10601
10775.2
10920.1
11002.6
9501.45
9514.3
9540.43
9580.76
9636.69
9710.24
9803.95
9920.87
10064.3
10237.3
10440.8
10670.2
10909.6
11124
11256.1
9408.82
9421.56
9447.59
9488
9544.59
9619.96
9717.65
9842.28
9999.7
10196.8
10440.1
10732
11061.2
11384.6
11606.1
9307
9319.27
9344.4
9383.66
9439.12
9513.87
9612.31
9740.58
9907.21
10123.9
10405.4
10767.6
11216.5
11715.7
12114.5
9196.34
9207.71
9231.06
9267.74
9319.94
9391.03
9485.94
9611.89
9779.65
10005.6
10314.4
10742.7
11336.7
12116
12904.5
9077.47
9087.5
9108.14
9140.7
9187.33
9251.34
9337.68
9453.83
9611.41
9829.35
10140
10602.3
11327.7
12509.7
14246.6
8951.33
8959.59
8976.63
9003.58
9042.35
9095.84
9168.42
9266.67
9400.94
9588.43
9860.06
10278.9
11001.2
12517.7
16799.4
-14020.7
-10440.2
-9170.35
-8564.59
-8212.68
-7984.19
-7826.32
-7713.24
-7630.49
-7569.41
-7524.44
-7491.89
-7469.29
-7455.02
-7448.11
-11885.2
-10432.5
-9442.83
-8834.79
-8446.74
-8185.66
-8002.38
-7869.85
-7772.2
-7699.67
-7645.98
-7606.92
-7579.69
-7562.45
-7554.08
-10762.5
-10102.8
-9450
-8951.91
-8592.33
-8332.83
-8142.93
-8001.94
-7896.18
-7816.59
-7757.08
-7713.47
-7682.88
-7663.43
-7653.97
-10102
-9767.98
-9349.42
-8972.52
-8668.13
-8431.39
-8249.24
-8109.28
-8001.7
-7919.31
-7856.89
-7810.69
-7778.06
-7757.2
-7747.04
-9677.51
-9491.54
-9219.6
-8942.48
-8696.64
-8491.76
-8325.98
-8193.82
-8089.46
-8007.9
-7945.16
-7898.21
-7864.77
-7843.28
-7832.77
-9386.22
-9274.48
-9093.07
-8890.39
-8696.4
-8524.68
-8379.08
-8258.76
-8161.1
-8083.14
-8022.21
-7976.05
-7942.89
-7921.45
-7910.93
-9176.59
-9105.5
-8981
-8831.97
-8680.39
-8539.17
-8414.34
-8307.67
-8218.75
-8146.29
-8088.74
-8044.59
-8012.58
-7991.77
-7981.51
-9020.4
-8973.31
-8885.65
-8775.02
-8656.89
-8542.01
-8436.69
-8343.95
-8264.7
-8198.82
-8145.67
-8104.4
-8074.22
-8054.46
-8044.69
-8901
-8868.97
-8805.97
-8722.98
-8630.81
-8537.91
-8450.03
-8370.54
-8301.07
-8242.24
-8194.07
-8156.23
-8128.31
-8109.93
-8100.8
-8807.93
-8785.86
-8739.85
-8677.03
-8604.93
-8530.04
-8457.27
-8389.86
-8329.75
-8277.98
-8235.01
-8200.88
-8175.49
-8158.68
-8150.3
-8734.28
-8719.06
-8685.13
-8637.22
-8580.68
-8520.42
-8460.48
-8403.81
-8352.35
-8307.35
-8269.52
-8239.17
-8216.42
-8201.27
-8193.7
-8675.31
-8664.95
-8639.81
-8603.12
-8558.7
-8510.28
-8461.15
-8413.83
-8370.17
-8331.46
-8298.54
-8271.9
-8251.78
-8238.31
-8231.56
-8627.61
-8620.83
-8602.23
-8574.09
-8539.19
-8500.37
-8460.25
-8421
-8384.25
-8351.27
-8322.93
-8299.8
-8282.21
-8270.39
-8264.45
-8588.73
-8584.62
-8570.98
-8549.46
-8522.1
-8491.07
-8458.48
-8426.12
-8395.42
-8367.57
-8343.41
-8323.54
-8308.35
-8298.09
-8292.92
-8556.79
-8554.73
-8544.93
-8528.59
-8507.25
-8482.58
-8456.26
-8429.76
-8404.34
-8381.02
-8360.63
-8343.75
-8330.76
-8321.96
-8317.51
-8530.4
-8529.92
-8523.13
-8510.91
-8494.42
-8474.96
-8453.86
-8432.36
-8411.48
-8392.16
-8375.13
-8360.94
-8349.97
-8342.5
-8338.72
-8508.44
-8509.22
-8504.81
-8495.89
-8483.35
-8468.18
-8451.47
-8434.2
-8417.26
-8401.43
-8387.37
-8375.59
-8366.44
-8360.19
-8357.02
-8490.04
-8491.82
-8489.34
-8483.11
-8473.8
-8462.2
-8449.17
-8435.52
-8421.96
-8409.18
-8397.75
-8388.11
-8380.6
-8375.45
-8372.82
-8474.5
-8477.1
-8476.2
-8472.17
-8465.54
-8456.93
-8447.01
-8436.45
-8425.82
-8415.7
-8406.59
-8398.87
-8392.81
-8388.64
-8386.52
-8461.26
-8464.54
-8464.94
-8462.75
-8458.37
-8452.28
-8445.02
-8437.12
-8429.04
-8421.25
-8414.18
-8408.15
-8403.4
-8400.12
-8398.44
-8449.85
-8453.7
-8455.19
-8454.55
-8452.09
-8448.16
-8443.19
-8437.6
-8431.75
-8426.02
-8420.77
-8416.25
-8412.67
-8410.18
-8408.9
-8439.87
-8444.21
-8446.64
-8447.33
-8446.52
-8444.47
-8441.51
-8437.95
-8434.07
-8430.18
-8426.55
-8423.39
-8420.87
-8419.1
-8418.19
-8431
-8435.75
-8439.01
-8440.88
-8441.52
-8441.13
-8439.96
-8438.22
-8436.11
-8433.87
-8431.71
-8429.79
-8428.23
-8427.12
-8426.55
-8422.92
-8428.06
-8432.06
-8434.98
-8436.95
-8438.06
-8438.51
-8438.43
-8437.94
-8437.22
-8436.42
-8435.64
-8434.97
-8434.48
-8434.21
-8415.39
-8420.89
-8425.57
-8429.48
-8432.66
-8435.18
-8437.14
-8438.61
-8439.64
-8440.34
-8440.81
-8441.12
-8441.28
-8441.36
-8441.39
-8408.16
-8413.99
-8419.33
-8424.18
-8428.55
-8432.41
-8435.82
-8438.78
-8441.27
-8443.34
-8445.04
-8446.37
-8447.35
-8447.98
-8448.29
-8400.99
-8407.16
-8413.16
-8418.95
-8424.48
-8429.68
-8434.53
-8438.96
-8442.89
-8446.31
-8449.22
-8451.57
-8453.34
-8454.52
-8455.1
-8393.66
-8400.17
-8406.85
-8413.61
-8420.34
-8426.92
-8433.24
-8439.17
-8444.57
-8449.36
-8453.49
-8456.87
-8459.44
-8461.16
-8462.02