/*--------------------------------*- C++ -*----------------------------------*\
| =========                 |                                                 |
| \\      /  F ield         | OpenFOAM: The Open Source CFD Toolbox           |
|  \\    /   O peration     | Version:  5.x                                   |
|   \\  /    A nd           | Web:      www.OpenFOAM.org                      |
|    \\/     M anipulation  |                                                 |
\*---------------------------------------------------------------------------*/
FoamFile
{
    version     2.0;
    format      ascii;
    class       volScalarField;
    location    "0.6";
    object      gradTy;
}
// * * * * * * * * * * * * * * * * * * * * * * * * * * * * * * * * * * * * * //

dimensions      [0 -1 0 1 0 0 0];

internalField   nonuniform List<scalar> 
2048
(
-20.7471
-20.7527
-20.7632
-20.7773
-20.7931
-20.8078
-20.8182
-20.8203
-20.8098
-20.7819
-20.7316
-20.654
-20.5445
-20.3988
-20.213
-19.9845
-19.7114
-19.3935
-19.0321
-18.6305
-18.1941
-17.7304
-17.2482
-16.7577
-16.2695
-15.7936
-15.3387
-14.9121
-14.5187
-14.1618
-13.8423
-13.56
-13.3133
-13.0996
-12.9162
-12.7597
-12.6271
-12.5152
-12.4213
-12.3427
-12.2772
-12.2226
-12.1773
-12.1398
-12.1087
-12.083
-12.0618
-12.0444
-12.0299
-12.0181
-12.0083
-12.0002
-11.9936
-11.9882
-11.9838
-11.9802
-11.9773
-11.9749
-11.973
-11.9715
-11.9704
-11.9696
-11.9691
-11.9688
-20.7409
-20.747
-20.7586
-20.7743
-20.7922
-20.8096
-20.8231
-20.8288
-20.8222
-20.7982
-20.7519
-20.6781
-20.5721
-20.4293
-20.2458
-20.0187
-19.7459
-19.4268
-19.0627
-18.6567
-18.2144
-17.7433
-17.2529
-16.7539
-16.2576
-15.7744
-15.3138
-14.883
-14.4872
-14.1293
-13.8101
-13.5291
-13.2843
-13.073
-12.8921
-12.7382
-12.608
-12.4985
-12.4067
-12.3299
-12.266
-12.2129
-12.1688
-12.1323
-12.1021
-12.0772
-12.0566
-12.0396
-12.0256
-12.0141
-12.0046
-11.9968
-11.9904
-11.9852
-11.9809
-11.9774
-11.9745
-11.9722
-11.9704
-11.969
-11.9679
-11.9671
-11.9666
-11.9664
-20.7288
-20.7358
-20.7494
-20.7681
-20.7901
-20.8126
-20.8322
-20.8447
-20.8454
-20.8291
-20.7904
-20.724
-20.6246
-20.4876
-20.3086
-20.0843
-19.8121
-19.491
-19.1218
-18.7076
-18.2537
-17.7684
-17.262
-16.7465
-16.2343
-15.7372
-15.2655
-14.8268
-14.4264
-14.0668
-13.7485
-13.4701
-13.2292
-13.0225
-12.8465
-12.6976
-12.5721
-12.467
-12.3791
-12.3059
-12.2451
-12.1946
-12.1528
-12.1182
-12.0897
-12.0661
-12.0467
-12.0307
-12.0175
-12.0066
-11.9977
-11.9904
-11.9843
-11.9794
-11.9754
-11.9721
-11.9694
-11.9672
-11.9655
-11.9642
-11.9631
-11.9624
-11.9619
-11.9617
-20.7108
-20.7193
-20.7356
-20.7585
-20.7863
-20.816
-20.8443
-20.8667
-20.878
-20.8727
-20.845
-20.789
-20.6994
-20.5708
-20.3985
-20.1785
-19.9076
-19.5841
-19.208
-18.7819
-18.3114
-17.8053
-17.2753
-16.7353
-16.1998
-15.6824
-15.1946
-14.7448
-14.3382
-13.9767
-13.66
-13.3859
-13.1509
-12.9511
-12.7823
-12.6405
-12.5219
-12.4229
-12.3407
-12.2724
-12.2159
-12.1692
-12.1305
-12.0987
-12.0724
-12.0507
-12.0329
-12.0182
-12.0061
-11.9962
-11.988
-11.9813
-11.9758
-11.9713
-11.9676
-11.9646
-11.9622
-11.9602
-11.9586
-11.9574
-11.9564
-11.9558
-11.9553
-11.9551
-20.687
-20.6971
-20.7168
-20.745
-20.78
-20.819
-20.8583
-20.8933
-20.9183
-20.9272
-20.9136
-20.8713
-20.7941
-20.6765
-20.5132
-20.2993
-20.0308
-19.7048
-19.3204
-18.8795
-18.3875
-17.8541
-17.2929
-16.7203
-16.1538
-15.6097
-15.1012
-14.6375
-14.2236
-13.8606
-13.5468
-13.2788
-13.052
-12.8614
-12.7021
-12.5695
-12.4595
-12.3685
-12.2933
-12.2312
-12.1801
-12.1379
-12.1032
-12.0747
-12.0512
-12.0319
-12.016
-12.0029
-11.9922
-11.9834
-11.9761
-11.9702
-11.9653
-11.9613
-11.958
-11.9553
-11.9532
-11.9514
-11.95
-11.9489
-11.9481
-11.9475
-11.9471
-11.9469
-20.6572
-20.6691
-20.6927
-20.727
-20.7704
-20.8204
-20.873
-20.9232
-20.9649
-20.991
-20.9946
-20.9687
-20.9069
-20.8028
-20.6508
-20.4451
-20.1805
-19.8527
-19.4592
-19.0009
-18.4828
-17.9154
-17.3148
-16.7009
-16.0954
-15.5181
-14.9845
-14.5047
-14.0831
-13.7195
-13.4106
-13.1511
-12.9349
-12.7559
-12.6083
-12.4869
-12.3873
-12.3056
-12.2387
-12.1839
-12.1389
-12.1021
-12.0719
-12.0471
-12.0268
-12.0102
-11.9965
-11.9853
-11.9761
-11.9685
-11.9623
-11.9572
-11.9531
-11.9496
-11.9468
-11.9446
-11.9427
-11.9412
-11.94
-11.9391
-11.9384
-11.9378
-11.9375
-11.9374
-20.6212
-20.6352
-20.663
-20.7039
-20.7568
-20.8192
-20.8872
-20.9553
-21.0165
-21.0629
-21.0866
-21.0798
-21.0358
-20.9479
-20.8096
-20.6145
-20.3559
-20.0275
-19.625
-19.1473
-18.5986
-17.9903
-17.3414
-16.6768
-16.0234
-15.4061
-14.8432
-14.3456
-13.9167
-13.5544
-13.2528
-13.0046
-12.8018
-12.6369
-12.5032
-12.395
-12.3073
-12.2362
-12.1786
-12.1318
-12.0938
-12.0628
-12.0376
-12.0169
-12.0001
-11.9863
-11.9751
-11.9659
-11.9583
-11.9521
-11.947
-11.9429
-11.9395
-11.9367
-11.9344
-11.9325
-11.931
-11.9298
-11.9288
-11.928
-11.9275
-11.927
-11.9268
-11.9266
-20.5791
-20.5951
-20.6271
-20.675
-20.7381
-20.8143
-20.8997
-20.9883
-21.072
-21.1417
-21.1881
-21.2031
-21.1792
-21.1098
-20.988
-20.8061
-20.5561
-20.2294
-19.8187
-19.3203
-18.7369
-18.0803
-17.3733
-16.647
-15.936
-15.2715
-14.6754
-14.1591
-13.7242
-13.3657
-13.0748
-12.8412
-12.6548
-12.5067
-12.3891
-12.2957
-12.2213
-12.162
-12.1146
-12.0765
-12.0458
-12.0211
-12.0011
-11.9849
-11.9717
-11.961
-11.9522
-11.9451
-11.9393
-11.9345
-11.9306
-11.9274
-11.9248
-11.9227
-11.9209
-11.9195
-11.9183
-11.9174
-11.9166
-11.916
-11.9156
-11.9153
-11.9151
-11.915
-20.5308
-20.5487
-20.5848
-20.6398
-20.7136
-20.8047
-20.9094
-21.0212
-21.1304
-21.2263
-21.2982
-21.3371
-21.3356
-21.2869
-21.184
-21.0185
-20.7805
-20.4585
-20.0417
-19.5223
-18.9003
-18.1876
-17.4112
-16.6106
-15.8309
-15.1114
-14.4786
-13.9436
-13.5052
-13.1543
-12.878
-12.6628
-12.4962
-12.3675
-12.268
-12.191
-12.1312
-12.0845
-12.0479
-12.019
-11.9961
-11.9779
-11.9633
-11.9516
-11.9422
-11.9346
-11.9284
-11.9234
-11.9194
-11.9161
-11.9134
-11.9111
-11.9093
-11.9079
-11.9067
-11.9057
-11.9049
-11.9042
-11.9037
-11.9033
-11.903
-11.9027
-11.9026
-11.9025
-20.4766
-20.4961
-20.536
-20.5977
-20.6822
-20.7892
-20.9151
-21.0527
-21.1907
-21.316
-21.4159
-21.4808
-21.5034
-21.4773
-21.3959
-21.2501
-21.0281
-20.7151
-20.2954
-19.7559
-19.0921
-18.3149
-17.4561
-16.5665
-15.7051
-14.9225
-14.2499
-13.6974
-13.2594
-12.9209
-12.664
-12.4714
-12.3279
-12.2213
-12.142
-12.0829
-12.0386
-12.0052
-11.9798
-11.9605
-11.9455
-11.9339
-11.9249
-11.9178
-11.9121
-11.9077
-11.9041
-11.9012
-11.8989
-11.897
-11.8955
-11.8943
-11.8933
-11.8925
-11.8918
-11.8912
-11.8908
-11.8904
-11.8901
-11.8899
-11.8897
-11.8896
-11.8895
-11.8895
-20.4167
-20.4375
-20.4806
-20.5483
-20.6433
-20.7665
-20.9155
-21.082
-21.2524
-21.4103
-21.5407
-21.6331
-21.681
-21.6791
-21.6216
-21.499
-21.2976
-20.9989
-20.5813
-20.0243
-19.3164
-18.4658
-17.5095
-16.513
-15.5548
-14.7003
-13.9859
-13.4189
-12.9865
-12.6665
-12.4347
-12.2692
-12.1524
-12.0704
-12.013
-11.973
-11.9449
-11.9253
-11.9115
-11.9018
-11.8949
-11.8899
-11.8864
-11.8838
-11.8819
-11.8805
-11.8795
-11.8787
-11.8781
-11.8777
-11.8773
-11.877
-11.8768
-11.8766
-11.8765
-11.8764
-11.8763
-11.8762
-11.8761
-11.8761
-11.876
-11.876
-11.876
-11.876
-20.3518
-20.3733
-20.4185
-20.4912
-20.5958
-20.7356
-20.9092
-21.108
-21.315
-21.5091
-21.6722
-21.7932
-21.8669
-21.8902
-21.8586
-21.7629
-21.5876
-21.3098
-20.901
-20.331
-19.5782
-18.6449
-17.5732
-16.4482
-15.3754
-14.4398
-13.683
-13.1063
-12.6868
-12.3925
-12.1919
-12.0585
-11.9718
-11.9168
-11.8829
-11.8628
-11.8516
-11.846
-11.8439
-11.8438
-11.8449
-11.8465
-11.8483
-11.8502
-11.8519
-11.8535
-11.855
-11.8562
-11.8573
-11.8582
-11.859
-11.8596
-11.8601
-11.8606
-11.8609
-11.8612
-11.8615
-11.8616
-11.8618
-11.8619
-11.862
-11.8621
-11.8621
-11.8622
-20.2823
-20.304
-20.35
-20.4261
-20.539
-20.6949
-20.8949
-21.1297
-21.3782
-21.6125
-21.8102
-21.9602
-22.0596
-22.1085
-22.1046
-22.0393
-21.8958
-21.647
-21.2558
-20.68
-19.8835
-18.8581
-17.6498
-16.3694
-15.1609
-14.1349
-13.337
-12.758
-12.3607
-12.1007
-11.9382
-11.8417
-11.7884
-11.7625
-11.7533
-11.7538
-11.7598
-11.7683
-11.7777
-11.7872
-11.796
-11.804
-11.811
-11.8172
-11.8225
-11.8269
-11.8307
-11.8339
-11.8366
-11.8388
-11.8406
-11.8421
-11.8434
-11.8444
-11.8453
-11.8459
-11.8465
-11.8469
-11.8473
-11.8476
-11.8478
-11.848
-11.8481
-11.8482
-20.2093
-20.2301
-20.2755
-20.3529
-20.472
-20.6431
-20.8708
-21.1461
-21.4421
-21.7211
-21.9551
-22.1336
-22.2576
-22.3317
-22.3565
-22.3253
-22.2199
-22.009
-21.6466
-21.0754
-20.2393
-19.1128
-17.7427
-16.2732
-14.9037
-13.7785
-12.9436
-12.3729
-12.0093
-11.7934
-11.6761
-11.6214
-11.6045
-11.6094
-11.6258
-11.6473
-11.6704
-11.6929
-11.7137
-11.7324
-11.7487
-11.7629
-11.7749
-11.7851
-11.7937
-11.801
-11.807
-11.812
-11.8161
-11.8196
-11.8224
-11.8248
-11.8267
-11.8283
-11.8296
-11.8306
-11.8315
-11.8321
-11.8327
-11.8331
-11.8335
-11.8337
-11.8339
-11.834
-20.1335
-20.1527
-20.1955
-20.2715
-20.394
-20.5785
-20.835
-21.156
-21.5071
-21.836
-22.1076
-22.313
-22.4594
-22.5573
-22.6115
-22.6174
-22.5565
-22.3938
-22.0738
-21.5212
-20.6537
-19.4185
-17.8564
-16.155
-14.5944
-13.3622
-12.4987
-11.9506
-11.6345
-11.4733
-11.4086
-11.4002
-11.4224
-11.4594
-11.5018
-11.5444
-11.5844
-11.6206
-11.6524
-11.6799
-11.7034
-11.7234
-11.7402
-11.7542
-11.766
-11.7757
-11.7838
-11.7905
-11.7961
-11.8007
-11.8045
-11.8076
-11.8101
-11.8122
-11.8139
-11.8153
-11.8164
-11.8174
-11.8181
-11.8186
-11.8191
-11.8194
-11.8197
-11.8198
-20.056
-20.0725
-20.1107
-20.1823
-20.3044
-20.4994
-20.7851
-21.158
-21.5739
-21.9589
-22.2685
-22.498
-22.6635
-22.7829
-22.8665
-22.9121
-22.9022
-22.7986
-22.5367
-22.0213
-21.136
-19.7872
-17.9973
-16.0082
-14.2208
-12.8766
-11.9983
-11.4914
-11.2388
-11.1437
-11.1387
-11.1807
-11.244
-11.3139
-11.3826
-11.446
-11.5025
-11.5518
-11.5941
-11.6301
-11.6604
-11.6858
-11.707
-11.7246
-11.7393
-11.7514
-11.7614
-11.7697
-11.7766
-11.7822
-11.7868
-11.7906
-11.7938
-11.7963
-11.7984
-11.8002
-11.8015
-11.8027
-11.8035
-11.8042
-11.8048
-11.8052
-11.8055
-11.8057
-19.9778
-19.9907
-20.022
-20.0855
-20.2026
-20.4037
-20.7182
-21.1502
-21.6441
-22.0923
-22.4391
-22.6883
-22.8682
-23.0061
-23.1181
-23.2056
-23.2526
-23.2195
-23.0337
-22.5788
-21.6967
-20.2341
-18.1744
-15.8241
-13.7676
-12.3115
-11.4391
-10.9967
-10.8257
-10.8085
-10.8699
-10.9657
-11.0714
-11.1745
-11.2691
-11.3527
-11.4251
-11.4869
-11.5392
-11.583
-11.6196
-11.6501
-11.6754
-11.6964
-11.7137
-11.728
-11.7398
-11.7495
-11.7576
-11.7642
-11.7696
-11.774
-11.7777
-11.7807
-11.7832
-11.7852
-11.7868
-11.7881
-11.7891
-11.79
-11.7906
-11.7911
-11.7914
-11.7916
-19.9002
-19.9083
-19.9304
-19.9819
-20.0882
-20.2895
-20.6307
-21.1302
-21.7197
-22.2394
-22.6212
-22.8836
-23.0718
-23.2243
-23.3632
-23.4939
-23.6032
-23.652
-23.5619
-23.1958
-22.3469
-20.7784
-18.4003
-15.5898
-13.2158
-11.6555
-10.8189
-10.4694
-10.3996
-10.4717
-10.6054
-10.7574
-10.9063
-11.0424
-11.1621
-11.2652
-11.3527
-11.4263
-11.4878
-11.5389
-11.5814
-11.6165
-11.6456
-11.6695
-11.6893
-11.7056
-11.719
-11.7301
-11.7391
-11.7466
-11.7528
-11.7578
-11.7619
-11.7653
-11.7681
-11.7704
-11.7722
-11.7737
-11.7749
-11.7758
-11.7766
-11.777
-11.7774
-11.7775
-19.8241
-19.8266
-19.8373
-19.8725
-19.9614
-20.1547
-20.5182
-21.0946
-21.8041
-22.4045
-22.8164
-23.0834
-23.2727
-23.435
-23.5987
-23.7733
-23.9491
-24.0903
-24.1165
-23.8727
-23.0978
-21.4441
-18.6934
-15.2871
-12.5413
-10.8974
-10.1374
-9.914
-9.96592
-10.138
-10.3485
-10.5583
-10.7502
-10.9184
-11.0624
-11.1838
-11.2854
-11.3699
-11.44
-11.4979
-11.5456
-11.585
-11.6174
-11.6441
-11.6661
-11.6842
-11.699
-11.7113
-11.7213
-11.7296
-11.7363
-11.7419
-11.7465
-11.7502
-11.7533
-11.7558
-11.7578
-11.7594
-11.7608
-11.7618
-11.7626
-11.7631
-11.7635
-11.7636
-19.7507
-19.7465
-19.7438
-19.7585
-19.8226
-19.9973
-20.3752
-21.0383
-21.9024
-22.593
-23.0266
-23.2869
-23.469
-23.6361
-23.8219
-24.0399
-24.2854
-24.5283
-24.6912
-24.6074
-23.9603
-22.2606
-19.0809
-14.8888
-11.7146
-10.0263
-9.39659
-9.33679
-9.53069
-9.81183
-10.1025
-10.3702
-10.6042
-10.8033
-10.9702
-11.1088
-11.2234
-11.318
-11.3958
-11.4597
-11.5123
-11.5555
-11.591
-11.6201
-11.6441
-11.6637
-11.6799
-11.6932
-11.7041
-11.713
-11.7204
-11.7264
-11.7313
-11.7354
-11.7387
-11.7414
-11.7436
-11.7454
-11.7468
-11.7479
-11.7488
-11.7494
-11.7498
-11.7499
-19.6808
-19.6694
-19.6515
-19.6417
-19.6729
-19.8158
-20.1952
-20.9541
-22.022
-22.8115
-23.2535
-23.493
-23.6587
-23.8252
-24.0302
-24.2905
-24.6072
-24.959
-25.2779
-25.3949
-24.9435
-23.2637
-19.6027
-14.355
-10.7002
-9.03315
-8.60148
-8.74584
-9.10067
-9.49792
-9.87006
-10.195
-10.4695
-10.6977
-10.8858
-11.0402
-11.1667
-11.2703
-11.3551
-11.4245
-11.4814
-11.528
-11.5662
-11.5975
-11.6232
-11.6443
-11.6616
-11.6758
-11.6874
-11.697
-11.7048
-11.7113
-11.7165
-11.7209
-11.7244
-11.7273
-11.7296
-11.7316
-11.7331
-11.7342
-11.7352
-11.7358
-11.7362
-11.7363
-19.6152
-19.5961
-19.5618
-19.5239
-19.514
-19.6092
-19.9706
-20.8308
-22.1743
-23.0679
-23.498
-23.7
-23.8397
-24.0005
-24.2215
-24.522
-24.9099
-25.3753
-25.8667
-26.2263
-26.0529
-24.495
-20.3187
-13.6259
-9.45642
-7.91254
-7.76092
-8.15099
-8.68299
-9.20065
-9.65384
-10.0339
-10.3465
-10.6017
-10.8093
-10.978
-11.1152
-11.2269
-11.3179
-11.3922
-11.4528
-11.5024
-11.543
-11.5762
-11.6034
-11.6257
-11.644
-11.659
-11.6714
-11.6814
-11.6897
-11.6965
-11.7021
-11.7067
-11.7104
-11.7135
-11.7159
-11.718
-11.7196
-11.7208
-11.7218
-11.7224
-11.7228
-11.723
-19.5547
-19.5277
-19.4762
-19.4074
-19.3484
-19.3778
-19.6928
-20.652
-22.3759
-23.3712
-23.7603
-23.9055
-24.0099
-24.1602
-24.3941
-24.7323
-25.1893
-25.7701
-26.4465
-27.0887
-27.2884
-26.0016
-21.3185
-12.6121
-7.9363
-6.66474
-6.888
-7.56357
-8.28481
-8.92404
-9.45588
-9.8879
-10.2359
-10.5156
-10.7407
-10.9221
-11.0688
-11.1876
-11.2841
-11.3626
-11.4266
-11.4787
-11.5214
-11.5563
-11.5848
-11.6082
-11.6273
-11.643
-11.6559
-11.6665
-11.6751
-11.6822
-11.6881
-11.6928
-11.6967
-11.6999
-11.7025
-11.7046
-11.7063
-11.7076
-11.7086
-11.7092
-11.7096
-11.7099
-19.4997
-19.4649
-19.3961
-19.2945
-19.1795
-19.1233
-19.3528
-20.3933
-22.6519
-23.7307
-24.0391
-24.1067
-24.1672
-24.3032
-24.547
-24.9195
-25.4422
-26.1365
-27.005
-27.9648
-28.6415
-27.8331
-22.735
-11.1808
-6.09053
-5.29831
-6.00025
-6.99594
-7.91303
-8.67152
-9.27775
-9.75769
-10.1376
-10.4392
-10.6798
-10.8724
-11.0273
-11.1524
-11.2536
-11.3357
-11.4025
-11.4569
-11.5013
-11.5376
-11.5673
-11.5915
-11.6114
-11.6277
-11.6411
-11.652
-11.661
-11.6684
-11.6744
-11.6794
-11.6834
-11.6867
-11.6894
-11.6916
-11.6934
-11.6947
-11.6958
-11.6964
-11.6968
-11.6972
-19.4505
-19.4084
-19.3226
-19.1879
-19.0116
-18.8495
-18.9421
-20.0181
-23.0392
-24.1555
-24.3311
-24.2998
-24.3095
-24.4284
-24.6795
-25.0824
-25.6658
-26.4685
-27.5296
-28.8328
-30.0926
-30.036
-24.7657
-9.13472
-3.87254
-3.83306
-5.1195
-6.46087
-7.57384
-8.44579
-9.12045
-9.64349
-10.0516
-10.3724
-10.6263
-10.8286
-10.9906
-11.1209
-11.2261
-11.3113
-11.3805
-11.4368
-11.4827
-11.5202
-11.5508
-11.5759
-11.5964
-11.6132
-11.627
-11.6382
-11.6475
-11.6551
-11.6613
-11.6664
-11.6706
-11.674
-11.6768
-11.679
-11.6808
-11.6821
-11.6832
-11.684
-11.6843
-11.6848
-19.4073
-19.3585
-19.2568
-19.0897
-18.8493
-18.5628
-18.4544
-19.4728
-23.5918
-24.6522
-24.6304
-24.4804
-24.435
-24.5352
-24.7913
-25.2208
-25.8583
-26.7611
-28.008
-29.6676
-31.6081
-32.6452
-27.6997
-6.18478
-1.24785
-2.30272
-4.27112
-5.97073
-7.27241
-8.24872
-8.98446
-9.54516
-9.97761
-10.3148
-10.5801
-10.7905
-10.9584
-11.0931
-11.2016
-11.2894
-11.3606
-11.4185
-11.4656
-11.5041
-11.5355
-11.5612
-11.5822
-11.5994
-11.6135
-11.625
-11.6345
-11.6423
-11.6487
-11.6539
-11.6581
-11.6616
-11.6645
-11.6668
-11.6686
-11.67
-11.6711
-11.6719
-11.6722
-11.6727
-19.37
-19.3154
-19.1993
-19.0022
-18.698
-18.2725
-17.8884
-18.6796
-24.3881
-25.2226
-24.9279
-24.6439
-24.542
-24.6235
-24.8829
-25.3346
-26.0189
-27.0104
-28.4292
-30.4417
-33.1383
-35.6684
-31.9568
-1.91147
1.79133
-0.757104
-3.48268
-5.53667
-7.01259
-8.08128
-8.86965
-9.46227
-9.91509
-10.2658
-10.5405
-10.7575
-10.9303
-11.0686
-11.1799
-11.2697
-11.3425
-11.4017
-11.4498
-11.4891
-11.5211
-11.5473
-11.5687
-11.5863
-11.6006
-11.6124
-11.6221
-11.63
-11.6365
-11.6418
-11.6461
-11.6497
-11.6526
-11.655
-11.6568
-11.6582
-11.6593
-11.6602
-11.6606
-11.6609
-19.3385
-19.2791
-19.1507
-18.927
-18.5626
-17.9911
-17.2519
-17.527
-25.5397
-25.8593
-25.2118
-24.7855
-24.6294
-24.6934
-24.9548
-25.4244
-26.1476
-27.2142
-28.7842
-31.1272
-34.6167
-39.0646
-38.1372
4.28561
5.20396
0.737216
-2.782
-5.16777
-6.7967
-7.94353
-8.77543
-9.39405
-9.86331
-10.2249
-10.507
-10.7294
-10.906
-11.0471
-11.1605
-11.252
-11.3261
-11.3863
-11.4352
-11.4751
-11.5076
-11.5342
-11.556
-11.5738
-11.5883
-11.6003
-11.6101
-11.6181
-11.6247
-11.6301
-11.6345
-11.6381
-11.6411
-11.6434
-11.6453
-11.6468
-11.6478
-11.6488
-11.6492
-11.6494
-19.3124
-19.2495
-19.1109
-18.8652
-18.4482
-17.7339
-16.5674
-15.8577
-27.2045
-26.54
-25.467
-24.9008
-24.6965
-24.7454
-25.0079
-25.4914
-26.245
-27.3718
-29.0665
-31.6984
-35.9614
-42.7126
-47.0876
13.2532
8.8689
2.09862
-2.19471
-4.87039
-6.62549
-7.83474
-8.70077
-9.33955
-9.82145
-10.1914
-10.4792
-10.7055
-10.885
-11.0283
-11.1434
-11.2361
-11.3112
-11.3721
-11.4216
-11.4619
-11.4948
-11.5217
-11.5437
-11.5617
-11.5765
-11.5886
-11.5985
-11.6066
-11.6132
-11.6187
-11.6231
-11.6268
-11.6298
-11.6322
-11.6341
-11.6356
-11.6365
-11.6376
-11.6381
-11.638
-19.2916
-19.2262
-19.08
-18.8175
-18.3585
-17.5177
-15.8804
-13.4531
-29.6012
-27.2196
-25.677
-24.9864
-24.7434
-24.7805
-25.0435
-25.537
-26.3128
-27.484
-29.2731
-32.1349
-37.0814
-46.3684
-59.9838
26.1669
12.542
3.23581
-1.74151
-4.64775
-6.4983
-7.75358
-8.64442
-9.29773
-9.78868
-10.1645
-10.4564
-10.6856
-10.8672
-11.012
-11.1282
-11.2218
-11.2975
-11.3589
-11.4089
-11.4495
-11.4827
-11.5098
-11.532
-11.5502
-11.565
-11.5772
-11.5872
-11.5953
-11.602
-11.6075
-11.612
-11.6157
-11.6187
-11.6211
-11.623
-11.6246
-11.6255
-11.6265
-11.6271
-11.6269
-19.2754
-19.2086
-19.0576
-18.784
-18.2961
-17.3598
-15.2701
-10.0149
-33.0289
-27.8199
-25.8255
-25.0408
-24.7709
-24.8001
-25.0633
-25.5631
-26.3531
-27.5531
-29.4044
-32.4238
-37.8866
-49.6089
-78.4318
44.6324
15.7999
4.05822
-1.43561
-4.49991
-6.41336
-7.69842
-8.60515
-9.2677
-9.76439
-10.144
-10.4384
-10.6694
-10.8523
-10.9981
-11.115
-11.2091
-11.2853
-11.347
-11.3972
-11.4381
-11.4715
-11.4987
-11.521
-11.5392
-11.5541
-11.5664
-11.5764
-11.5846
-11.5913
-11.5969
-11.6014
-11.6051
-11.6081
-11.6105
-11.6124
-11.6141
-11.615
-11.6158
-11.6166
-11.6164
-19.2638
-19.1964
-19.0431
-18.764
-18.2616
-17.2736
-14.8616
-5.14188
-37.8891
-28.2157
-25.8995
-25.0636
-24.7802
-24.8055
-25.0688
-25.5716
-26.3684
-27.5822
-29.4639
-32.5622
-38.3047
-51.7609
-104.59
70.8079
17.9693
4.49357
-1.28011
-4.42348
-6.36758
-7.66699
-8.58133
-9.24829
-9.74772
-10.1291
-10.4247
-10.6566
-10.84
-10.9863
-11.1035
-11.198
-11.2743
-11.3362
-11.3866
-11.4275
-11.461
-11.4883
-11.5106
-11.5289
-11.5438
-11.5561
-11.5661
-11.5744
-11.5811
-11.5866
-11.5912
-11.5949
-11.598
-11.6004
-11.6022
-11.604
-11.6048
-11.6056
-11.6065
-11.6063
)
;

boundaryField
{
    left
    {
        type            calculated;
        value           nonuniform List<scalar> 
32
(
-20.7471
-20.7409
-20.7288
-20.7108
-20.687
-20.6572
-20.6212
-20.5791
-20.5308
-20.4766
-20.4167
-20.3518
-20.2823
-20.2093
-20.1335
-20.056
-19.9778
-19.9002
-19.8241
-19.7507
-19.6808
-19.6152
-19.5547
-19.4997
-19.4505
-19.4073
-19.37
-19.3385
-19.3124
-19.2916
-19.2754
-19.2638
)
;
    }
    right
    {
        type            calculated;
        value           nonuniform List<scalar> 
32
(
-11.9688
-11.9664
-11.9617
-11.9551
-11.9469
-11.9374
-11.9266
-11.915
-11.9025
-11.8895
-11.876
-11.8622
-11.8482
-11.834
-11.8198
-11.8057
-11.7916
-11.7775
-11.7636
-11.7499
-11.7363
-11.723
-11.7099
-11.6972
-11.6848
-11.6727
-11.6609
-11.6494
-11.638
-11.6269
-11.6164
-11.6063
)
;
    }
    interface
    {
        type            calculated;
        value           nonuniform List<scalar> 
64
(
-19.2591
-19.1915
-19.0377
-18.7573
-18.2513
-17.2498
-14.7268
-2.28932
-40.7347
-28.3436
-25.9166
-25.0672
-24.7805
-24.8048
-25.0682
-25.5717
-26.3701
-27.5873
-29.4763
-32.594
-38.4097
-52.4625
-119.905
86.1315
18.6796
4.60726
-1.23962
-4.40245
-6.35398
-7.65685
-8.57302
-9.24104
-9.74113
-10.1229
-10.4189
-10.6509
-10.8345
-10.9809
-11.0982
-11.1927
-11.2691
-11.3311
-11.3814
-11.4224
-11.4559
-11.4832
-11.5055
-11.5238
-11.5388
-11.551
-11.5611
-11.5693
-11.5761
-11.5816
-11.5861
-11.5899
-11.5929
-11.5953
-11.5971
-11.599
-11.5998
-11.6005
-11.6015
-11.6014
)
;
    }
    bottom
    {
        type            calculated;
        value           nonuniform List<scalar> 
64
(
-20.7487
-20.7542
-20.7644
-20.7781
-20.7933
-20.8073
-20.8169
-20.8181
-20.8066
-20.7776
-20.7263
-20.6478
-20.5374
-20.3908
-20.2045
-19.9756
-19.7025
-19.3849
-19.0242
-18.6237
-18.1889
-17.727
-17.247
-16.7587
-16.2726
-15.7985
-15.3451
-14.9196
-14.5269
-14.1702
-13.8507
-13.5681
-13.3208
-13.1066
-12.9224
-12.7653
-12.6321
-12.5196
-12.4252
-12.3461
-12.2801
-12.2252
-12.1796
-12.1418
-12.1105
-12.0846
-12.0632
-12.0456
-12.0311
-12.0191
-12.0092
-12.0011
-11.9945
-11.989
-11.9846
-11.9809
-11.978
-11.9756
-11.9737
-11.9722
-11.9711
-11.9703
-11.9697
-11.9695
)
;
    }
    defaultFaces
    {
        type            empty;
    }
}


// ************************************************************************* //
