/*--------------------------------*- C++ -*----------------------------------*\
| =========                 |                                                 |
| \\      /  F ield         | OpenFOAM: The Open Source CFD Toolbox           |
|  \\    /   O peration     | Version:  5.x                                   |
|   \\  /    A nd           | Web:      www.OpenFOAM.org                      |
|    \\/     M anipulation  |                                                 |
\*---------------------------------------------------------------------------*/
FoamFile
{
    version     2.0;
    format      ascii;
    class       volScalarField;
    location    "0.6";
    object      gradTx;
}
// * * * * * * * * * * * * * * * * * * * * * * * * * * * * * * * * * * * * * //

dimensions      [0 -1 0 1 0 0 0];

internalField   nonuniform List<scalar> 
2048
(
-0.00124697
-0.00359995
-0.00549699
-0.00663579
-0.00671874
-0.00542728
-0.00248014
0.00236727
0.00930656
0.0184558
0.0298495
0.0434353
0.0590714
0.0765229
0.0954525
0.115408
0.135809
0.155944
0.174983
0.192022
0.20615
0.216552
0.222612
0.224006
0.220755
0.213224
0.202063
0.188109
0.172277
0.155453
0.138421
0.121814
0.106099
0.0915877
0.0784523
0.0667574
0.0564863
0.0475675
0.0398955
0.0333474
0.0277946
0.0231112
0.0191784
0.0158883
0.013144
0.0108608
0.00896498
0.00739344
0.00609236
0.00501622
0.00412667
0.0033915
0.00278377
0.00228093
0.00186412
0.00151759
0.00122817
0.000984864
0.000778446
0.000601112
0.000446112
0.00030746
0.000179956
5.9199e-05
-0.00380628
-0.0110096
-0.0168771
-0.0204993
-0.0209916
-0.0174104
-0.00890343
0.00527003
0.0256883
0.0527078
0.0864346
0.126715
0.173135
0.225006
0.281341
0.340816
0.401716
0.461927
0.518963
0.570086
0.612529
0.64379
0.661972
0.666074
0.656163
0.633362
0.599672
0.557665
0.510126
0.459743
0.408867
0.359383
0.312669
0.269624
0.230739
0.196178
0.165873
0.139594
0.117014
0.0977623
0.0814508
0.067703
0.0561661
0.0465193
0.0384766
0.0317875
0.0262351
0.0216337
0.0178249
0.0146752
0.012072
0.00992095
0.00814293
0.00667191
0.00545267
0.00443905
0.00359252
0.00288087
0.00227715
0.00175857
0.00130536
0.000899677
0.000525695
0.000172408
-0.00658162
-0.0190904
-0.029444
-0.0361383
-0.037709
-0.0325877
-0.0193288
0.00332902
0.03637
0.0803994
0.1356
0.201723
0.278102
0.363634
0.456746
0.555308
0.65654
0.756958
0.852399
0.938213
1.00962
1.06227
1.0928
1.09944
1.08231
1.04339
0.986215
0.91527
0.835378
0.751121
0.666452
0.584484
0.507444
0.436742
0.373105
0.316731
0.26744
0.224803
0.18825
0.157141
0.130825
0.108676
0.0901095
0.0745997
0.0616794
0.0509408
0.0420321
0.0346526
0.0285468
0.0234992
0.0193286
0.0158831
0.0130358
0.0106805
0.00872866
0.00710613
0.0057511
0.00461199
0.0036457
0.00281587
0.00209103
0.00144216
0.000840396
0.000273821
-0.00972625
-0.0282994
-0.0439654
-0.0546522
-0.0583101
-0.0527195
-0.0357936
-0.00569798
0.0389983
0.0991696
0.175076
0.266378
0.372168
0.490983
0.620739
0.758604
0.90082
1.04257
1.17795
1.30025
1.40238
1.47779
1.52136
1.53036
1.50494
1.44817
1.36542
1.26347
1.14946
1.03007
0.910935
0.79636
0.689341
0.591685
0.504239
0.427127
0.359973
0.302089
0.252613
0.210614
0.175165
0.145383
0.120459
0.0996644
0.0823612
0.0679931
0.0560826
0.0462228
0.0380692
0.0313318
0.0257671
0.0211714
0.0173747
0.0142349
0.0116333
0.00947101
0.00766533
0.00614742
0.00485978
0.00375394
0.00278862
0.00192611
0.00112015
0.000362198
-0.0133372
-0.0389377
-0.0609675
-0.0768179
-0.0838446
-0.0791276
-0.0598602
-0.023551
0.0317417
0.107186
0.203111
0.319065
0.45391
0.605872
0.772468
0.950298
1.13476
1.31976
1.49761
1.65926
1.79493
1.89534
1.95312
1.96426
1.92899
1.85173
1.74025
1.60411
1.45326
1.29672
1.14188
0.994224
0.857389
0.73342
0.623123
0.526414
0.442612
0.37069
0.309442
0.257616
0.213988
0.177419
0.146873
0.121429
0.100286
0.0827481
0.0682239
0.0562097
0.0462811
0.0380814
0.031312
0.0257238
0.0211087
0.0172932
0.0141326
0.0115061
0.00931294
0.00746946
0.00590553
0.00456199
0.0033893
0.00234494
0.00136194
0.000437038
-0.0174648
-0.0511698
-0.0807614
-0.103134
-0.115038
-0.112781
-0.0927214
-0.0515862
0.0131678
0.103028
0.218361
0.35855
0.522209
0.707309
0.911103
1.12982
1.3582
1.58901
1.81272
2.01765
2.19079
2.31936
2.39304
2.4061
2.35884
2.25753
2.113
1.93844
1.74712
1.55076
1.35861
1.17722
1.01068
0.861076
0.728974
0.613912
0.514784
0.430131
0.358349
0.297829
0.24704
0.204578
0.169186
0.13976
0.115344
0.0951182
0.0783851
0.0645559
0.0531357
0.04371
0.0359326
0.0295151
0.0242172
0.0198388
0.0162129
0.0132003
0.010685
0.008571
0.00677753
0.00523599
0.00388993
0.00269574
0.00156399
0.000498025
-0.0221177
-0.0650372
-0.103465
-0.133854
-0.152338
-0.154361
-0.135282
-0.0908687
-0.0178502
0.0856044
0.219824
0.383923
0.576213
0.794462
1.03583
1.29643
1.57065
1.85031
2.12406
2.37727
2.59298
2.75396
2.84587
2.86062
2.79856
2.6685
2.48541
2.26708
2.03086
1.79153
1.56021
1.34439
1.14835
0.973922
0.821208
0.689179
0.576162
0.48018
0.399173
0.331147
0.274251
0.226817
0.187374
0.154645
0.127532
0.105103
0.0865688
0.0712654
0.0586376
0.0482221
0.0396329
0.0325491
0.0267038
0.0218748
0.0178769
0.0145558
0.0117833
0.00945334
0.00747672
0.00577666
0.00429103
0.00297836
0.00172582
0.000545074
-0.0272657
-0.0804668
-0.129015
-0.169007
-0.19595
-0.204309
-0.188221
-0.142248
-0.0622081
0.0540884
0.206798
0.394583
0.615337
0.866663
1.14584
1.44922
1.77124
2.10311
2.43177
2.73938
3.00414
3.20304
3.3163
3.33249
3.25204
3.08724
2.85866
2.59006
2.30377
2.01794
1.74556
1.49473
1.26958
1.07136
0.899431
0.75198
0.626636
0.520812
0.431947
0.357636
0.295704
0.244225
0.201525
0.166166
0.136926
0.112772
0.0928347
0.0763896
0.062831
0.0516553
0.0424447
0.0348523
0.0285902
0.0234191
0.0191393
0.0155848
0.0126176
0.0101242
0.00800905
0.00618838
0.00459573
0.00319442
0.00184791
0.000578319
-0.0328415
-0.0972777
-0.157182
-0.20841
-0.245856
-0.262862
-0.252052
-0.206425
-0.120637
0.00787158
0.178857
0.390227
0.639264
0.92343
1.24038
1.58714
1.95875
2.34635
2.73543
3.10468
3.42654
3.67046
3.80919
3.82656
3.72309
3.51596
3.23338
2.90681
2.5646
2.22856
1.91332
1.62717
1.37363
1.15295
0.963431
0.802281
0.666288
0.552183
0.456862
0.377503
0.311605
0.256997
0.211817
0.174483
0.143664
0.118243
0.0972851
0.0800155
0.0657889
0.0540709
0.044419
0.0364671
0.0299117
0.0245007
0.0200241
0.0163066
0.0132035
0.010596
0.00838409
0.00647823
0.00480905
0.0033468
0.00193137
0.000598075
-0.0387441
-0.115187
-0.187574
-0.25168
-0.301827
-0.330079
-0.327161
-0.284014
-0.193762
-0.0534779
0.135833
0.370857
0.647972
0.964499
1.31876
1.70904
2.13165
2.57841
3.0339
3.47327
3.86209
4.16007
4.32971
4.34801
4.21557
3.95654
3.60959
3.21613
2.81159
2.42163
2.06204
1.74069
1.45988
1.21841
1.01318
0.840228
0.695372
0.574599
0.474246
0.391067
0.322253
0.265405
0.218491
0.179807
0.147929
0.121672
0.100052
0.0822543
0.0676048
0.0555468
0.0456208
0.0374473
0.0307126
0.0251562
0.020561
0.0167456
0.0135606
0.0108842
0.00861388
0.00665517
0.00493736
0.00343921
0.00197781
0.000604857
-0.0448408
-0.13382
-0.219645
-0.298238
-0.363431
-0.405857
-0.413852
-0.375607
-0.282167
-0.130251
0.0778112
0.336798
0.641757
0.989855
1.38045
1.81371
2.28813
2.79718
3.32536
3.84451
4.31228
4.67585
4.88353
4.9025
4.73343
4.41046
3.98663
3.51608
3.04247
2.59507
2.19015
1.83429
1.52784
1.26763
1.04885
0.866145
0.714294
0.588499
0.484529
0.398735
0.328019
0.269777
0.221834
0.182385
0.149932
0.12324
0.101287
0.083233
0.0683846
0.0561712
0.046123
0.0378533
0.0310427
0.0254264
0.0207834
0.0169289
0.0137108
0.0110063
0.00871195
0.00672927
0.00498791
0.003476
0.00198932
0.000599473
-0.0509728
-0.152714
-0.252706
-0.347307
-0.430026
-0.489936
-0.51238
-0.481836
-0.386456
-0.222631
0.00513035
0.288708
0.621257
0.999768
1.42506
1.89993
2.42611
2.99997
3.60721
4.21699
4.77812
5.22189
5.47707
5.49645
5.28079
4.87874
4.36307
3.80404
3.25445
2.74663
2.29613
1.90713
1.57722
1.30072
1.07078
0.880516
0.723592
0.594422
0.488226
0.400977
0.329321
0.270481
0.222164
0.182488
0.149903
0.123139
0.101152
0.0830868
0.0682408
0.0560374
0.0460031
0.0377489
0.0309544
0.0253542
0.0207264
0.016885
0.0136771
0.0109805
0.00869253
0.0067112
0.00496858
0.00346207
0.00196867
0.000583176
-0.0569594
-0.171339
-0.285935
-0.397919
-0.500753
-0.581894
-0.622979
-0.603445
-0.507326
-0.330721
-0.0816092
0.227605
0.58747
0.994817
1.45242
1.96657
2.54337
3.18364
3.87602
4.58832
5.25998
5.80248
6.11767
6.13723
5.86195
5.36178
4.73654
4.07656
3.4443
2.87388
2.37849
1.95855
1.60795
1.31799
1.0795
0.883966
0.723916
0.592995
0.485912
0.398308
0.326611
0.267905
0.219813
0.180397
0.148078
0.121567
0.0998121
0.0819533
0.0672877
0.05524
0.045339
0.0371984
0.0305007
0.024983
0.0204253
0.0166426
0.0134825
0.0108251
0.00856999
0.0066118
0.00488763
0.00340287
0.00191947
0.000557816
-0.0626059
-0.189113
-0.318398
-0.44892
-0.574517
-0.681123
-0.74588
-0.741367
-0.645645
-0.454566
-0.181529
0.154874
0.541761
0.975904
1.46264
2.01262
2.6376
3.34462
4.12752
4.95498
5.75739
6.42207
6.81398
6.83348
6.48141
5.85915
5.10358
4.3294
3.60843
2.97441
2.43596
1.98815
1.62023
1.31997
1.07571
0.877249
0.716001
0.584899
0.4782
0.391264
0.320351
0.262445
0.215114
0.176394
0.144693
0.118722
0.0974309
0.0799679
0.0656373
0.0538717
0.0442072
0.0362648
0.0297332
0.0243551
0.0199146
0.0162295
0.0131494
0.0105581
0.00835841
0.00644182
0.00475358
0.00330449
0.00184634
0.0005259
-0.0677118
-0.205423
-0.349075
-0.498975
-0.649969
-0.786798
-0.88132
-0.89682
-0.802547
-0.594169
-0.293445
0.0722921
0.485858
0.944249
1.45609
2.03731
2.70655
3.47899
4.35658
5.31217
6.26877
7.08521
7.57626
7.59548
7.14376
6.36935
5.45948
4.5575
3.74295
3.04588
2.46752
1.99583
1.61451
1.3074
1.06026
0.861218
0.70065
0.570857
0.465723
0.380392
0.311006
0.254494
0.208399
0.170754
0.139978
0.114792
0.0941657
0.0772608
0.0633971
0.0520209
0.0426807
0.0350081
0.0287011
0.0235106
0.0192271
0.0156724
0.0126992
0.0101964
0.00807136
0.00621167
0.00457514
0.00317365
0.0017548
0.000490479
-0.0720797
-0.219652
-0.376889
-0.546592
-0.725479
-0.897816
-1.02953
-1.07141
-0.979546
-0.749484
-0.41582
-0.0179676
0.421823
0.901369
1.43345
2.04016
2.74812
3.58267
4.55725
5.65359
6.79102
7.79641
8.41689
8.43563
7.85355
6.88936
5.79802
4.75502
3.84387
3.0862
2.47252
1.98184
1.59151
1.28122
1.03413
0.836804
0.678703
0.551608
0.449117
0.366231
0.299032
0.24443
0.199982
0.16374
0.134148
0.109958
0.0901648
0.0739542
0.0606678
0.0497707
0.0408276
0.0334841
0.0274504
0.0224872
0.0183932
0.0149959
0.0121519
0.00975596
0.00772168
0.00593136
0.00436095
0.0030176
0.00165092
0.00045478
-0.0755263
-0.231212
-0.400755
-0.590143
-0.799121
-1.01272
-1.19069
-1.26726
-1.17866
-0.920393
-0.546704
-0.11333
0.352014
0.84903
1.39569
2.02101
2.76055
3.6516
4.72287
5.97128
7.31908
8.55984
9.351
9.36908
8.61504
7.41423
6.11139
4.91545
3.90723
3.09366
2.45073
1.94679
1.55224
1.24254
0.998394
0.804988
0.651022
0.527888
0.429003
0.349302
0.284861
0.232616
0.190161
0.155596
0.127407
0.104387
0.0855654
0.070161
0.0575421
0.0471972
0.0387106
0.0317445
0.0260231
0.0213192
0.0174412
0.0142229
0.0115256
0.00925155
0.00732137
0.00561033
0.0041194
0.00284392
0.00154065
0.000421595
-0.0778916
-0.239574
-0.419619
-0.627915
-0.868654
-1.1296
-1.36487
-1.48718
-1.4026
-1.10663
-0.683651
-0.210826
0.279014
0.789186
1.34407
1.98016
2.74252
3.68193
4.84629
6.25549
7.8453
9.37891
10.3972
10.4145
9.43167
7.93641
6.38998
5.03181
3.92939
3.06708
2.40245
1.89167
1.49792
1.1926
0.954203
0.766775
0.618462
0.500417
0.405982
0.330102
0.268902
0.219385
0.179213
0.14655
0.119941
0.0982306
0.0804926
0.0659837
0.0541044
0.0443697
0.0363864
0.0298356
0.0244574
0.0200379
0.0163962
0.0133739
0.0108371
0.00869646
0.00688155
0.00525742
0.00385828
0.00266001
0.00142895
0.000392526
-0.0790488
-0.244298
-0.432523
-0.65816
-0.931522
-1.24596
-1.55188
-1.73487
-1.65495
-1.30768
-0.823606
-0.307119
0.205547
0.723896
1.28003
1.91829
2.69329
3.6703
4.92009
6.49469
8.35877
10.2554
11.5789
11.5952
10.3054
8.44509
6.62243
5.09689
3.90721
3.00596
2.32848
1.81783
1.43002
1.13276
0.902741
0.72317
0.581861
0.469884
0.380617
0.30909
0.251531
0.205045
0.167388
0.136806
0.111917
0.0916262
0.0750588
0.0615146
0.05043
0.0413498
0.0339056
0.027799
0.0227872
0.0186708
0.0152809
0.0124672
0.010101
0.00810265
0.00641237
0.00488085
0.0035844
0.00247263
0.00131888
0.0003673
-0.0789121
-0.245063
-0.438653
-0.679175
-0.984886
-1.35858
-1.75106
-2.01519
-1.94045
-1.52253
-0.962786
-0.398554
0.134369
0.655232
1.20525
1.83653
2.61285
3.61412
4.93702
6.67564
8.84448
11.1885
12.9251
12.9403
11.2353
8.92541
6.79565
5.10364
3.83834
2.91054
2.23019
1.72692
1.35012
1.06443
0.845197
0.675154
0.542018
0.436937
0.353432
0.286691
0.233092
0.189875
0.154912
0.126549
0.103485
0.0846959
0.0693635
0.0568349
0.0465854
0.0381921
0.0313129
0.0256712
0.0210425
0.0172426
0.0141152
0.0115191
0.00933074
0.00748072
0.00592291
0.00448818
0.00330324
0.00228715
0.00121106
0.000343444
-0.0774425
-0.241689
-0.4374
-0.689393
-1.02567
-1.46338
-1.96096
-2.33447
-2.26533
-1.74943
-1.09654
-0.481245
0.0681417
0.585178
1.12146
1.73645
2.50195
3.51179
4.89039
6.78368
9.28254
12.1728
14.4728
14.4869
12.2161
9.35757
6.89517
5.04562
3.72151
2.7819
2.10944
1.62088
1.25996
0.989044
0.782742
0.623664
0.49968
0.402172
0.324904
0.263287
0.213892
0.174122
0.141986
0.11594
0.0947771
0.0775469
0.063494
0.0520158
0.0426289
0.034944
0.0286471
0.023484
0.0192493
0.0157745
0.0129163
0.0105437
0.00853769
0.00683996
0.00542117
0.00408633
0.00301869
0.00210704
0.00110369
0.000316588
-0.0746512
-0.234149
-0.428404
-0.687486
-1.05069
-1.55525
-2.17886
-2.70098
-2.63776
-1.98532
-1.21924
-0.551194
0.00929483
0.515542
1.03047
1.61995
2.36214
3.36299
4.77468
6.80333
9.64741
13.1957
16.269
16.2819
13.2353
9.71615
6.90566
4.91752
3.55665
2.62196
1.96856
1.50184
1.16131
0.908035
0.716497
0.569579
0.455538
0.366134
0.295464
0.23922
0.194203
0.158005
0.128784
0.10512
0.0859068
0.0702719
0.0575258
0.0471188
0.0386105
0.0316466
0.0259416
0.0212648
0.0174299
0.0142847
0.0116993
0.0095531
0.00773196
0.00618844
0.00491389
0.00368154
0.00273301
0.00193342
0.000993486
0.000281552
-0.0706002
-0.222574
-0.411591
-0.672475
-1.05678
-1.628
-2.40009
-3.12546
-3.06838
-2.22526
-1.32417
-0.604475
-0.0401101
0.447866
0.934046
1.48926
2.19575
3.16877
4.58607
6.71907
9.90736
14.2341
18.3738
18.3855
14.2699
9.96952
6.81177
4.71574
3.34515
2.43348
1.81026
1.37206
1.05595
0.822771
0.647513
0.513707
0.410215
0.329305
0.265489
0.214787
0.174262
0.141711
0.115458
0.0942127
0.0769727
0.0629504
0.0515234
0.0421964
0.0345729
0.0283346
0.0232249
0.0190368
0.0156035
0.0127888
0.0104768
0.00855767
0.0069222
0.00553315
0.00440653
0.00327931
0.00244704
0.00176514
0.000877212
0.000234111
-0.0653985
-0.207246
-0.387188
-0.643835
-1.04102
-1.67428
-2.61705
-3.62184
-3.57104
-2.46139
-1.40353
-0.637457
-0.0785138
0.383367
0.833868
1.34681
2.00585
2.9317
4.32298
6.51654
10.0244
15.2488
20.8639
20.8743
15.2807
10.0798
6.59928
4.43895
3.08988
2.21989
1.6375
1.23386
0.945614
0.734545
0.576758
0.456778
0.364266
0.292114
0.235311
0.190248
0.154273
0.125403
0.102136
0.0833197
0.0680579
0.0556496
0.0455412
0.0372925
0.030552
0.0250373
0.0205208
0.0168195
0.0137859
0.0113
0.00925937
0.00756606
0.00611579
0.00488016
0.00390322
0.00288428
0.00216077
0.00159911
0.000753714
0.000173046
-0.0591966
-0.188581
-0.355726
-0.601584
-1.00102
-1.68576
-2.81799
-4.20811
-4.16365
-2.68171
-1.44856
-0.64709
-0.104968
0.3229
0.73148
1.19515
1.79606
2.65582
3.98661
6.18395
9.95484
16.1779
23.8378
23.847
16.2058
10.0034
6.25654
4.08851
2.79515
1.98526
1.4534
1.08951
0.831952
0.64455
0.505104
0.399438
0.318177
0.254928
0.205214
0.165823
0.134407
0.109216
0.0889276
0.0725278
0.0592317
0.0484253
0.0396242
0.032444
0.0265777
0.0217788
0.0178492
0.0146291
0.0119905
0.00982908
0.00805596
0.00658543
0.00531888
0.00423473
0.00340682
0.00250012
0.00187403
0.00143126
0.00062557
0.000101796
-0.0521765
-0.167097
-0.318005
-0.546342
-0.935209
-1.65342
-2.98521
-4.90743
-4.86931
-2.86833
-1.44988
-0.631221
-0.119214
0.266951
0.628251
1.03686
1.57042
2.34647
3.58119
5.7138
9.65132
16.9276
27.4216
27.4295
16.9515
9.69296
5.77617
3.66886
2.46658
1.73401
1.26113
0.941199
0.716484
0.553859
0.433322
0.342249
0.272364
0.218062
0.175436
0.141696
0.11481
0.0932645
0.0759213
0.0619083
0.0505512
0.0413233
0.0338095
0.0276807
0.0226741
0.0185791
0.0152261
0.0124787
0.0102278
0.0083848
0.00687379
0.00562159
0.00453655
0.00360146
0.00291908
0.00212927
0.00158739
0.00125762
0.000499621
2.88978e-05
-0.0445396
-0.143387
-0.275054
-0.479347
-0.843174
-1.56821
-3.09292
-5.74948
-5.71765
-2.99528
-1.3981
-0.588929
-0.121706
0.215651
0.525359
0.874461
1.33323
2.01011
3.11413
5.10468
9.06593
17.3601
31.7759
31.7825
17.3801
9.10073
5.15686
3.18755
2.11087
1.4708
1.06374
0.790961
0.600581
0.463417
0.362076
0.285689
0.227178
0.181777
0.146175
0.11802
0.0955974
0.0776394
0.0631898
0.0515188
0.0420624
0.0343806
0.0281269
0.0230267
0.0188608
0.0154538
0.0126644
0.0103789
0.00850666
0.00697427
0.00571866
0.0046792
0.0037728
0.00298436
0.0024409
0.00177284
0.00130285
0.00107557
0.00038563
-3.34613e-05
-0.0364934
-0.118075
-0.228061
-0.402416
-0.725976
-1.42204
-3.10441
-6.77205
-6.74639
-3.0257
-1.28487
-0.520838
-0.113586
0.168836
0.423786
0.7103
1.08878
1.65394
2.59584
4.3629
8.15588
17.2788
37.105
37.1103
17.2949
8.18393
4.40501
2.65514
1.73544
1.20027
0.864141
0.640636
0.485448
0.374036
0.291931
0.230159
0.182911
0.146287
0.117593
0.0949155
0.076865
0.0624144
0.0507908
0.0414049
0.0338017
0.0276263
0.0225998
0.0185008
0.0151531
0.0124154
0.0101741
0.00833776
0.00683366
0.00560303
0.00459519
0.0037619
0.00303071
0.00238689
0.00197268
0.00143052
0.00102425
0.000884624
0.000292829
-7.29714e-05
-0.0282376
-0.0917846
-0.178301
-0.317851
-0.586378
-1.20933
-2.96862
-8.02294
-8.00332
-2.90841
-1.10437
-0.429345
-0.0965903
0.126101
0.324326
0.546523
0.841231
1.28551
2.03922
3.5038
6.89162
16.4098
43.6665
43.6706
16.4221
6.91308
3.53604
2.08465
1.34801
0.926857
0.664945
0.491838
0.372117
0.286399
0.223352
0.175986
0.139794
0.111764
0.0898171
0.0724802
0.0586861
0.0476465
0.0387689
0.0316017
0.0257968
0.0210826
0.0172458
0.0141173
0.0115624
0.00947323
0.0077629
0.00636161
0.00521394
0.00427527
0.00350687
0.00287249
0.00231252
0.00181192
0.00151466
0.00110067
0.000757162
0.00068675
0.00022496
-8.22214e-05
-0.019953
-0.0651079
-0.12706
-0.228288
-0.428935
-0.929074
-2.616
-9.56215
-9.54838
-2.57376
-0.85543
-0.318713
-0.0728948
0.0868926
0.227597
0.385009
0.594398
0.912271
1.45889
2.55226
5.26824
14.3796
51.7838
51.7867
14.3883
5.2833
2.57489
1.4908
0.956201
0.654642
0.46846
0.345941
0.261444
0.201063
0.156713
0.123426
0.0980122
0.0783404
0.0629445
0.0507869
0.0411164
0.0333786
0.0271573
0.0221353
0.0180684
0.0147659
0.0120783
0.00988693
0.00809744
0.0066342
0.00543635
0.00445493
0.0036512
0.00299404
0.0024563
0.00201307
0.00161971
0.00126167
0.0010673
0.0007806
0.000508108
0.00048588
0.000175522
-6.35708e-05
-0.0117933
-0.0385891
-0.075567
-0.136502
-0.25987
-0.587702
-1.95366
-11.4643
-11.4562
-1.92878
-0.544325
-0.194933
-0.0449157
0.0505796
0.134067
0.227347
0.351656
0.541221
0.870146
1.54204
3.32049
10.6891
61.8586
61.8602
10.6942
3.32937
1.55537
0.88895
0.567124
0.387201
0.276634
0.204075
0.154122
0.11847
0.0923049
0.0726798
0.0577029
0.0461144
0.0370472
0.0298887
0.0241957
0.0196411
0.0159794
0.013024
0.0106307
0.00868747
0.00710606
0.00581672
0.00476385
0.00390296
0.00319822
0.00262081
0.00214794
0.00176145
0.00144527
0.00118514
0.000953194
0.000737645
0.000631511
0.000467046
0.000283253
0.000286914
0.000126196
-3.11774e-05
-0.00388524
-0.0127211
-0.0249521
-0.045196
-0.0866441
-0.202568
-0.85984
-13.8214
-13.8187
-0.851661
-0.188308
-0.0652941
-0.0150774
0.0165344
0.0440749
0.0748264
0.115843
0.178524
0.28776
0.513445
1.14192
4.68386
74.3856
74.3862
4.68553
1.14484
0.517826
0.293943
0.187044
0.127537
0.0910498
0.0671359
0.0506864
0.0389524
0.0303445
0.0238899
0.0189653
0.0151553
0.0121748
0.00982185
0.00795076
0.00645391
0.00525061
0.00427942
0.00349299
0.00285445
0.00233482
0.00191117
0.00156522
0.00128236
0.00105081
0.000861078
0.000705704
0.000578754
0.000474928
0.000389695
0.000313387
0.000240567
0.000208724
0.000156823
8.6652e-05
9.47788e-05
5.24144e-05
-6.61604e-06
)
;

boundaryField
{
    left
    {
        type            calculated;
        value           uniform 0;
    }
    right
    {
        type            calculated;
        value           uniform 0;
    }
    interface
    {
        type            calculated;
        value           nonuniform List<scalar> 
64
(
-0.00388524
-0.0127211
-0.0249521
-0.045196
-0.0866441
-0.202568
-0.85984
-13.8214
-13.8187
-0.851661
-0.188308
-0.0652941
-0.0150774
0.0165344
0.0440749
0.0748264
0.115843
0.178524
0.28776
0.513445
1.14192
4.68386
74.3856
74.3862
4.68553
1.14484
0.517826
0.293943
0.187044
0.127537
0.0910498
0.0671359
0.0506864
0.0389524
0.0303445
0.0238899
0.0189653
0.0151553
0.0121748
0.00982185
0.00795076
0.00645391
0.00525061
0.00427942
0.00349299
0.00285445
0.00233482
0.00191117
0.00156522
0.00128236
0.00105081
0.000861078
0.000705704
0.000578754
0.000474928
0.000389695
0.000313387
0.000240567
0.000208724
0.000156823
8.6652e-05
9.47788e-05
5.24144e-05
-6.61604e-06
)
;
    }
    bottom
    {
        type            calculated;
        value           nonuniform List<scalar> 
64
(
-0.00124697
-0.00359995
-0.00549699
-0.00663579
-0.00671874
-0.00542728
-0.00248014
0.00236727
0.00930656
0.0184558
0.0298495
0.0434353
0.0590714
0.0765229
0.0954525
0.115408
0.135809
0.155944
0.174983
0.192022
0.20615
0.216552
0.222612
0.224006
0.220755
0.213224
0.202063
0.188109
0.172277
0.155453
0.138421
0.121814
0.106099
0.0915877
0.0784523
0.0667574
0.0564863
0.0475675
0.0398955
0.0333474
0.0277946
0.0231112
0.0191784
0.0158883
0.013144
0.0108608
0.00896498
0.00739344
0.00609236
0.00501622
0.00412667
0.0033915
0.00278377
0.00228093
0.00186412
0.00151759
0.00122817
0.000984864
0.000778446
0.000601112
0.000446112
0.00030746
0.000179956
5.9199e-05
)
;
    }
    defaultFaces
    {
        type            empty;
    }
}


// ************************************************************************* //
