/*--------------------------------*- C++ -*----------------------------------*\
| =========                 |                                                 |
| \\      /  F ield         | OpenFOAM: The Open Source CFD Toolbox           |
|  \\    /   O peration     | Version:  5.x                                   |
|   \\  /    A nd           | Web:      www.OpenFOAM.org                      |
|    \\/     M anipulation  |                                                 |
\*---------------------------------------------------------------------------*/
FoamFile
{
    version     2.0;
    format      ascii;
    class       volScalarField;
    location    "0.6";
    object      T;
}
// * * * * * * * * * * * * * * * * * * * * * * * * * * * * * * * * * * * * * //

dimensions      [0 0 0 1 0 0 0];

internalField   nonuniform List<scalar> 
2048
(
9.85094
9.8509
9.85082
9.85072
9.85062
9.85051
9.85045
9.85044
9.85052
9.85073
9.8511
9.85166
9.85245
9.85351
9.85485
9.85649
9.85845
9.86073
9.86333
9.8662
9.86933
9.87264
9.87609
9.8796
9.88309
9.8865
9.88976
9.89281
9.89563
9.8982
9.90049
9.90252
9.9043
9.90584
9.90716
9.90829
9.90925
9.91006
9.91073
9.9113
9.91178
9.91217
9.9125
9.91277
9.913
9.91318
9.91333
9.91346
9.91357
9.91365
9.91372
9.91378
9.91383
9.91387
9.9139
9.91393
9.91395
9.91396
9.91398
9.91399
9.914
9.914
9.91401
9.91401
9.55937
9.55925
9.55903
9.55872
9.55839
9.55807
9.55784
9.55779
9.55801
9.55859
9.55965
9.56129
9.56361
9.5667
9.57064
9.5755
9.5813
9.58805
9.59573
9.60427
9.61355
9.62341
9.63366
9.6441
9.65448
9.6646
9.67427
9.68334
9.6917
9.69928
9.70607
9.71206
9.7173
9.72183
9.72572
9.72904
9.73185
9.73422
9.73621
9.73788
9.73927
9.74043
9.74139
9.74218
9.74284
9.74338
9.74383
9.7442
9.74451
9.74476
9.74497
9.74514
9.74528
9.74539
9.74549
9.74556
9.74562
9.74567
9.74571
9.74575
9.74577
9.74579
9.7458
9.7458
9.28068
9.28048
9.28008
9.27955
9.27895
9.27838
9.27794
9.27777
9.27804
9.27891
9.28055
9.28315
9.28686
9.29184
9.29822
9.30611
9.31557
9.32663
9.33923
9.35326
9.36855
9.38482
9.40174
9.41897
9.4361
9.45279
9.46871
9.48361
9.49731
9.50971
9.52078
9.53054
9.53905
9.5464
9.5527
9.55806
9.56259
9.56641
9.56962
9.5723
9.57453
9.57639
9.57793
9.5792
9.58026
9.58113
9.58185
9.58244
9.58293
9.58333
9.58367
9.58394
9.58416
9.58435
9.5845
9.58462
9.58472
9.5848
9.58486
9.58491
9.58495
9.58498
9.58499
9.585
9.01437
9.01407
9.01349
9.01269
9.01178
9.01087
9.01013
9.00975
9.00995
9.01097
9.01305
9.01644
9.02138
9.02807
9.03672
9.04747
9.06043
9.07562
9.09301
9.11243
9.13364
9.15626
9.17982
9.2038
9.22765
9.25083
9.2729
9.2935
9.31238
9.32942
9.34457
9.35789
9.36946
9.37943
9.38795
9.39519
9.4013
9.40644
9.41074
9.41433
9.41732
9.4198
9.42186
9.42357
9.42498
9.42614
9.4271
9.42789
9.42855
9.42908
9.42953
9.42989
9.43019
9.43043
9.43063
9.4308
9.43093
9.43104
9.43112
9.43119
9.43124
9.43127
9.4313
9.43131
8.75997
8.75955
8.75875
8.75765
8.75635
8.75503
8.75388
8.75315
8.75314
8.75415
8.75649
8.76049
8.76646
8.77468
8.7854
8.79882
8.81509
8.83428
8.85633
8.88108
8.90819
8.93717
8.96742
8.99821
9.0288
9.05849
9.08667
9.11287
9.13679
9.15828
9.17732
9.19397
9.20839
9.22076
9.23131
9.24023
9.24776
9.25407
9.25934
9.26374
9.26739
9.27042
9.27293
9.27501
9.27673
9.27815
9.27932
9.28028
9.28107
9.28172
9.28226
9.2827
9.28307
9.28336
9.28361
9.2838
9.28397
9.2841
9.2842
9.28428
9.28434
9.28439
9.28441
9.28443
8.517
8.51646
8.5154
8.51393
8.51218
8.51034
8.50866
8.50744
8.50705
8.50785
8.51026
8.51468
8.52147
8.531
8.54357
8.55947
8.57888
8.60191
8.62854
8.65856
8.69159
8.72702
8.76407
8.8018
8.83926
8.87552
8.90981
8.94155
8.97038
8.99615
9.01884
9.0386
9.05563
9.07019
9.08254
9.09297
9.10173
9.10905
9.11517
9.12025
9.12447
9.12797
9.13087
9.13326
9.13523
9.13686
9.13821
9.13931
9.14022
9.14097
9.14159
9.1421
9.14251
9.14285
9.14313
9.14336
9.14355
9.14369
9.14381
9.14391
9.14398
9.14403
9.14406
9.14408
8.28503
8.28434
8.283
8.28111
8.27882
8.27635
8.274
8.27212
8.27116
8.27156
8.27383
8.27843
8.28583
8.29644
8.31066
8.32881
8.35117
8.37789
8.40899
8.44427
8.48328
8.5253
8.56934
8.61423
8.65874
8.70169
8.74213
8.77936
8.81297
8.84282
8.86896
8.89158
8.91097
8.92746
8.94141
8.95313
8.96294
8.97113
8.97795
8.98361
8.9883
8.99218
8.99538
8.99803
9.00022
9.00202
9.0035
9.00472
9.00573
9.00656
9.00724
9.00779
9.00825
9.00863
9.00894
9.00919
9.00939
9.00956
9.00969
9.00979
9.00987
9.00992
9.00996
9.00998
8.06363
8.06278
8.06112
8.05875
8.05583
8.05262
8.04945
8.04674
8.045
8.0448
8.04669
8.05126
8.05903
8.07049
8.08611
8.1063
8.1314
8.16165
8.19712
8.23764
8.28272
8.33152
8.38282
8.43515
8.48696
8.53678
8.58344
8.62611
8.66438
8.69811
8.72744
8.75266
8.77415
8.79233
8.80763
8.82044
8.83113
8.84002
8.8474
8.85352
8.85858
8.86276
8.86621
8.86906
8.8714
8.87333
8.87493
8.87624
8.87731
8.8782
8.87893
8.87953
8.88002
8.88042
8.88075
8.88102
8.88124
8.88141
8.88155
8.88166
8.88175
8.88181
8.88185
8.88186
7.85237
7.85135
7.84933
7.84644
7.84282
7.83875
7.83461
7.83088
7.82816
7.82711
7.8284
7.8327
7.8406
7.85267
7.86945
7.89143
7.91905
7.95264
7.99238
8.03813
8.0894
8.14521
8.2041
8.26424
8.32368
8.38059
8.43355
8.48163
8.52439
8.56178
8.59403
8.62157
8.64488
8.66449
8.68091
8.6946
8.70598
8.71542
8.72324
8.7297
8.73504
8.73944
8.74307
8.74606
8.74852
8.75055
8.75221
8.75359
8.75472
8.75564
8.7564
8.75703
8.75754
8.75797
8.75831
8.75859
8.75882
8.759
8.75915
8.75927
8.75935
8.75942
8.75946
8.75948
7.65086
7.64965
7.64726
7.64379
7.6394
7.63436
7.62908
7.62413
7.62021
7.61808
7.61853
7.62232
7.63012
7.64257
7.66026
7.68378
7.71367
7.7504
7.79425
7.84521
7.90279
7.9659
8.03279
8.1012
8.16866
8.23294
8.29231
8.34574
8.39281
8.4336
8.46849
8.49804
8.52288
8.54366
8.56096
8.57532
8.58722
8.59705
8.60517
8.61187
8.61739
8.62194
8.62569
8.62877
8.63131
8.63339
8.63511
8.63652
8.63768
8.63863
8.63941
8.64006
8.64058
8.64102
8.64137
8.64166
8.64189
8.64208
8.64223
8.64235
8.64244
8.64251
8.64255
8.64257
7.4587
7.4573
7.45452
7.45043
7.4452
7.43908
7.43251
7.42614
7.42078
7.41732
7.4167
7.41976
7.42723
7.43981
7.45816
7.48295
7.51484
7.55445
7.60225
7.65837
7.72239
7.79313
7.86851
7.94574
8.02172
8.09366
8.15954
8.21824
8.26942
8.31332
8.35052
8.38176
8.40784
8.42951
8.44745
8.46228
8.47452
8.48461
8.49291
8.49975
8.50537
8.51
8.5138
8.51693
8.5195
8.52161
8.52335
8.52478
8.52595
8.52692
8.52771
8.52836
8.52889
8.52933
8.52969
8.52998
8.53022
8.53041
8.53056
8.53068
8.53077
8.53083
8.53088
8.5309
7.2755
7.27391
7.27073
7.26601
7.25988
7.25257
7.24456
7.23656
7.22951
7.22448
7.22255
7.22464
7.23157
7.24406
7.26282
7.28859
7.32219
7.36441
7.41594
7.47713
7.54772
7.62645
7.7109
7.79761
7.88267
7.96263
8.03513
8.09898
8.154
8.20068
8.23984
8.27243
8.29943
8.32172
8.34008
8.35518
8.3676
8.3778
8.38617
8.39305
8.3987
8.40334
8.40716
8.41029
8.41286
8.41497
8.41671
8.41813
8.4193
8.42026
8.42105
8.4217
8.42223
8.42267
8.42303
8.42332
8.42355
8.42374
8.4239
8.42402
8.42411
8.42417
8.42421
8.42423
7.1009
7.09912
7.09554
7.09018
7.08311
7.07453
7.06492
7.05506
7.04606
7.03921
7.03573
7.03666
7.04284
7.05502
7.07393
7.10041
7.13539
7.17989
7.23487
7.30101
7.37826
7.46539
7.55959
7.65656
7.75137
7.83975
7.91893
7.98777
8.04632
8.0954
8.13613
8.16973
8.19734
8.21998
8.23852
8.25371
8.26615
8.27633
8.28468
8.29152
8.29713
8.30172
8.3055
8.30859
8.31114
8.31322
8.31493
8.31634
8.3175
8.31844
8.31922
8.31986
8.32038
8.32081
8.32116
8.32145
8.32168
8.32187
8.32202
8.32214
8.32223
8.32229
8.32234
8.32235
6.93451
6.93256
6.9286
6.92261
6.91457
6.90465
6.89329
6.88134
6.87012
6.86117
6.85592
6.85549
6.86076
6.87242
6.89125
6.91813
6.95415
7.00056
7.05867
7.12954
7.21351
7.30946
7.4142
7.5224
7.62775
7.72494
7.81084
7.88443
7.94614
7.99719
8.03909
8.07332
8.10122
8.12395
8.14247
8.15756
8.16988
8.17994
8.18816
8.19488
8.20039
8.20489
8.20859
8.21162
8.2141
8.21614
8.21781
8.21918
8.22031
8.22123
8.22199
8.22262
8.22313
8.22354
8.22389
8.22417
8.22439
8.22458
8.22472
8.22484
8.22493
8.22499
8.22503
8.22505
6.77599
6.77388
6.76957
6.76297
6.75398
6.74266
6.72939
6.71512
6.70137
6.69004
6.6828
6.68087
6.68506
6.69605
6.71457
6.74155
6.77823
6.82613
6.88695
6.96228
7.05296
7.15817
7.27437
7.39493
7.51173
7.61817
7.71077
7.78878
7.85319
7.90575
7.94838
7.98286
8.01075
8.03331
8.0516
8.06645
8.07852
8.08834
8.09636
8.1029
8.10824
8.11262
8.1162
8.11913
8.12153
8.1235
8.12512
8.12645
8.12753
8.12843
8.12916
8.12976
8.13025
8.13066
8.13099
8.13126
8.13148
8.13165
8.1318
8.13191
8.13199
8.13205
8.13209
8.1321
6.62499
6.62273
6.61812
6.61096
6.60104
6.58828
6.57298
6.55611
6.5395
6.5255
6.51608
6.51251
6.51552
6.52569
6.54369
6.57048
6.60744
6.65636
6.7194
6.79878
6.89608
7.011
7.13971
7.27402
7.40333
7.51945
7.61862
7.70064
7.76721
7.82076
7.86366
7.89802
7.92559
7.94776
7.96563
7.98007
7.99178
8.00128
8.00902
8.01532
8.02046
8.02466
8.0281
8.03091
8.03322
8.0351
8.03665
8.03792
8.03896
8.03982
8.04052
8.04109
8.04157
8.04195
8.04227
8.04253
8.04274
8.04291
8.04304
8.04315
8.04323
8.04328
8.04332
8.04334
6.48114
6.47878
6.47392
6.46626
6.45548
6.44129
6.42383
6.40408
6.38423
6.36724
6.35546
6.35016
6.35192
6.36116
6.37845
6.40478
6.44161
6.49104
6.55572
6.63863
6.74233
6.86735
7.00982
7.15957
7.30261
7.42879
7.5343
7.61977
7.68791
7.74187
7.78458
7.81846
7.84542
7.86697
7.88425
7.89817
7.90941
7.91851
7.9259
7.93192
7.93682
7.94082
7.94409
7.94676
7.94895
7.95074
7.95221
7.95342
7.95441
7.95522
7.95588
7.95643
7.95687
7.95724
7.95754
7.95778
7.95798
7.95814
7.95827
7.95837
7.95845
7.9585
7.95854
7.95855
6.34413
6.34169
6.33664
6.32858
6.31702
6.30144
6.28172
6.25878
6.23524
6.21495
6.20066
6.19359
6.19407
6.20231
6.21874
6.24431
6.28062
6.33001
6.39568
6.48146
6.59116
6.72662
6.88425
7.05154
7.20971
7.34628
7.45772
7.54597
7.61496
7.66876
7.71081
7.74384
7.76992
7.79065
7.80719
7.82046
7.83115
7.83979
7.84679
7.85248
7.85711
7.86088
7.86396
7.86648
7.86854
7.87023
7.87161
7.87275
7.87367
7.87444
7.87506
7.87557
7.87599
7.87634
7.87662
7.87685
7.87704
7.87719
7.87731
7.8774
7.87747
7.87752
7.87756
7.87757
6.21361
6.21114
6.20598
6.19763
6.18541
6.16852
6.14647
6.12002
6.09226
6.0683
6.05139
6.04256
6.0418
6.04899
6.06442
6.08899
6.12437
6.17315
6.23906
6.32691
6.44202
6.58812
6.7625
6.94996
7.12485
7.272
7.38876
7.47895
7.54804
7.60105
7.64198
7.67382
7.69878
7.7185
7.73418
7.74672
7.75678
7.7649
7.77147
7.77679
7.78112
7.78465
7.78753
7.78988
7.79181
7.79338
7.79467
7.79573
7.79659
7.7973
7.79789
7.79836
7.79875
7.79907
7.79934
7.79955
7.79973
7.79987
7.79998
7.80007
7.80013
7.80018
7.80021
7.80022
6.08928
6.08681
6.08162
6.0731
6.06039
6.04232
6.01794
5.9876
5.95496
5.92696
5.90738
5.89688
5.89493
5.90108
5.9154
5.93874
5.9728
6.02039
6.08574
6.17467
6.29435
6.45106
6.64399
6.85497
7.04838
7.20607
7.3273
7.41844
7.48679
7.53839
7.57774
7.60808
7.63171
7.65027
7.66497
7.67668
7.68607
7.69362
7.69972
7.70467
7.70868
7.71195
7.71462
7.71679
7.71857
7.72003
7.72122
7.72219
7.72299
7.72365
7.72419
7.72463
7.72499
7.72528
7.72553
7.72573
7.72589
7.72602
7.72612
7.7262
7.72626
7.72631
7.72633
7.72634
5.97081
5.96839
5.96326
5.95472
5.94171
5.92267
5.89598
5.86139
5.82303
5.7906
5.76836
5.75633
5.75332
5.75846
5.77161
5.7935
5.82587
5.87169
5.93562
6.02451
6.14761
6.31459
6.528
6.76687
6.98072
7.14862
7.27315
7.36409
7.43082
7.48039
7.51776
7.54631
7.56841
7.58569
7.59931
7.61015
7.6188
7.62576
7.63137
7.63591
7.6396
7.6426
7.64504
7.64704
7.64866
7.65
7.65109
7.65198
7.65271
7.65331
7.65381
7.65421
7.65454
7.65481
7.65503
7.65521
7.65536
7.65548
7.65558
7.65565
7.6557
7.65574
7.65577
7.65578
5.85791
5.85558
5.8506
5.84219
5.82911
5.80936
5.78051
5.74127
5.6961
5.65884
5.63406
5.62074
5.61684
5.62103
5.63295
5.65323
5.68357
5.72705
5.78867
5.87626
6.00127
6.17774
6.41364
6.68614
6.92245
7.09975
7.22608
7.31555
7.37975
7.4267
7.46169
7.48821
7.50862
7.5245
7.53699
7.54689
7.55479
7.56113
7.56623
7.57036
7.57371
7.57643
7.57865
7.58046
7.58193
7.58314
7.58413
7.58494
7.5856
7.58615
7.58659
7.58696
7.58726
7.5875
7.5877
7.58787
7.588
7.58811
7.58819
7.58826
7.58831
7.58835
7.58837
7.58838
5.7503
5.7481
5.74335
5.73523
5.72233
5.70221
5.67146
5.62721
5.57379
5.53132
5.50425
5.48994
5.48536
5.48869
5.49935
5.51787
5.54589
5.58649
5.64492
5.72981
5.85489
6.03941
6.2997
6.61359
6.87425
7.05953
7.1858
7.27239
7.33316
7.37693
7.40921
7.4335
7.45209
7.4665
7.4778
7.48673
7.49385
7.49955
7.50414
7.50785
7.51085
7.51329
7.51528
7.5169
7.51823
7.51931
7.52019
7.52092
7.52151
7.522
7.5224
7.52272
7.52299
7.52321
7.52339
7.52354
7.52366
7.52376
7.52383
7.52389
7.52393
7.52397
7.52399
7.524
5.6477
5.64566
5.64122
5.63356
5.6211
5.60103
5.56878
5.51924
5.4556
5.40765
5.37868
5.36379
5.35876
5.36133
5.37074
5.38739
5.41283
5.45008
5.50445
5.58517
5.70809
5.89843
6.18461
6.55043
6.83693
7.02795
7.15193
7.23417
7.29064
7.33073
7.36002
7.38191
7.39857
7.41146
7.42153
7.42948
7.4358
7.44086
7.44493
7.44822
7.45088
7.45304
7.4548
7.45623
7.4574
7.45836
7.45914
7.45978
7.4603
7.46073
7.46109
7.46138
7.46161
7.46181
7.46196
7.4621
7.4622
7.46229
7.46235
7.46241
7.46244
7.46248
7.46249
7.4625
5.54985
5.548
5.54396
5.53688
5.52516
5.5056
5.47248
5.41754
5.34097
5.28743
5.25717
5.24216
5.23695
5.23888
5.24704
5.26174
5.28439
5.31786
5.36738
5.44244
5.56063
5.75353
6.06619
6.49847
6.81141
7.0049
7.12401
7.20041
7.25178
7.28776
7.31382
7.33318
7.34787
7.35918
7.36801
7.37496
7.38049
7.38491
7.38846
7.39132
7.39364
7.39552
7.39705
7.3983
7.39932
7.40015
7.40083
7.40139
7.40185
7.40222
7.40253
7.40278
7.40298
7.40315
7.40329
7.4034
7.4035
7.40357
7.40363
7.40368
7.40371
7.40374
7.40375
7.40375
5.4565
5.45487
5.45128
5.44493
5.4342
5.41571
5.38254
5.32242
5.22918
5.17025
5.13954
5.12494
5.11982
5.12122
5.12816
5.14085
5.16056
5.18993
5.23389
5.30184
5.41244
5.60344
5.94143
6.46037
6.7986
6.9901
7.10151
7.17061
7.21616
7.24769
7.27035
7.2871
7.29976
7.30949
7.31707
7.32303
7.32776
7.33154
7.33458
7.33702
7.339
7.34061
7.34192
7.34298
7.34385
7.34456
7.34515
7.34562
7.34601
7.34633
7.34659
7.34681
7.34698
7.34713
7.34724
7.34734
7.34742
7.34748
7.34753
7.34757
7.3476
7.34762
7.34764
7.34764
5.36742
5.36603
5.36294
5.35743
5.34796
5.33108
5.29895
5.23443
5.11928
5.05575
5.02568
5.01206
5.00727
5.00826
5.01401
5.02467
5.04134
5.06634
5.10415
5.16365
5.26368
5.44696
5.80618
6.43996
6.79938
6.98309
7.08378
7.14424
7.18339
7.21021
7.22935
7.24345
7.25407
7.26222
7.26855
7.27353
7.27748
7.28063
7.28316
7.2852
7.28685
7.28819
7.28927
7.29016
7.29088
7.29147
7.29196
7.29235
7.29268
7.29294
7.29316
7.29334
7.29348
7.2936
7.2937
7.29378
7.29385
7.2939
7.29394
7.29398
7.294
7.29402
7.29403
7.29403
5.28238
5.28124
5.27869
5.27411
5.26612
5.25143
5.22168
5.15441
5.01005
4.94359
4.9155
4.90344
4.89922
4.89989
4.9045
4.91313
4.92669
4.94716
4.97838
5.02828
5.11472
5.28315
5.65468
6.44268
6.81438
6.98314
7.07013
7.1208
7.1531
7.17503
7.19061
7.20204
7.21063
7.21721
7.22232
7.22633
7.22951
7.23205
7.23408
7.23572
7.23705
7.23812
7.239
7.23971
7.24029
7.24077
7.24115
7.24147
7.24173
7.24195
7.24212
7.24226
7.24238
7.24248
7.24256
7.24262
7.24267
7.24272
7.24275
7.24278
7.24279
7.24281
7.24282
7.24282
5.20119
5.2003
5.19832
5.19473
5.18838
5.17641
5.15059
5.08364
4.89988
4.83353
4.80899
4.79902
4.79557
4.796
4.79951
4.80614
4.81659
4.83243
4.85676
4.89615
4.96626
5.11152
5.47906
6.4761
6.84377
6.98929
7.0598
7.09979
7.12495
7.14191
7.15391
7.16269
7.16928
7.17432
7.17823
7.1813
7.18373
7.18567
7.18722
7.18848
7.18949
7.19031
7.19098
7.19152
7.19197
7.19233
7.19262
7.19287
7.19307
7.19323
7.19336
7.19347
7.19356
7.19363
7.19369
7.19374
7.19378
7.19382
7.19384
7.19386
7.19387
7.19389
7.1939
7.19389
5.12363
5.12301
5.1216
5.11904
5.11447
5.10564
5.08543
5.02389
4.78662
4.7255
4.70619
4.69877
4.69623
4.69649
4.69894
4.7036
4.71097
4.72218
4.73948
4.76777
4.81924
4.9324
5.2686
6.55064
6.88693
7.00028
7.05204
7.08074
7.09863
7.11062
7.11908
7.12526
7.12989
7.13343
7.13618
7.13833
7.14003
7.14139
7.14248
7.14336
7.14407
7.14464
7.14511
7.14549
7.1458
7.14606
7.14627
7.14644
7.14657
7.14669
7.14678
7.14686
7.14692
7.14697
7.14701
7.14705
7.14708
7.1471
7.14712
7.14713
7.14714
7.14715
7.14716
7.14715
5.04955
5.04918
5.04834
5.04682
5.04407
5.03869
5.02571
4.97764
4.66745
4.61964
4.60717
4.60263
4.60108
4.60122
4.60266
4.60541
4.60977
4.6164
4.62668
4.64359
4.67487
4.74736
5.0089
6.68044
6.94204
7.01463
7.04608
7.06324
7.07386
7.08096
7.08596
7.08961
7.09234
7.09442
7.09604
7.09731
7.09831
7.09911
7.09975
7.10027
7.10069
7.10102
7.1013
7.10152
7.10171
7.10186
7.10198
7.10208
7.10216
7.10223
7.10228
7.10233
7.10236
7.10239
7.10242
7.10244
7.10246
7.10247
7.10248
7.10249
7.10249
7.1025
7.1025
7.1025
4.97875
4.97863
4.97835
4.97785
4.97694
4.97514
4.97061
4.94827
4.53869
4.51643
4.51207
4.51055
4.51003
4.51008
4.51055
4.51146
4.51289
4.51508
4.51847
4.52407
4.53451
4.55975
4.68088
6.8843
7.00545
7.03073
7.04123
7.04691
7.05041
7.05275
7.0544
7.0556
7.0565
7.05718
7.05771
7.05813
7.05846
7.05872
7.05893
7.0591
7.05924
7.05935
7.05944
7.05952
7.05958
7.05963
7.05967
7.0597
7.05973
7.05975
7.05977
7.05978
7.05979
7.0598
7.05981
7.05982
7.05982
7.05983
7.05983
7.05983
7.05984
7.05984
7.05984
7.05984
)
;

boundaryField
{
    left
    {
        type            zeroGradient;
    }
    right
    {
        type            zeroGradient;
    }
    interface
    {
        type            fixedValue;
        value           nonuniform List<scalar> 
64
(
4.94416
4.94416
4.94416
4.94416
4.94416
4.94416
4.94416
4.94416
4.46553
4.46553
4.46553
4.46553
4.46553
4.46553
4.46553
4.46553
4.46553
4.46553
4.46553
4.46553
4.46553
4.46553
4.46553
7.039
7.039
7.039
7.039
7.039
7.039
7.039
7.039
7.039
7.039
7.039
7.039
7.039
7.039
7.039
7.039
7.039
7.039
7.039
7.039
7.039
7.039
7.039
7.039
7.039
7.039
7.039
7.039
7.039
7.039
7.039
7.039
7.039
7.039
7.039
7.039
7.039
7.039
7.039
7.039
7.039
)
;
    }
    bottom
    {
        type            fixedValue;
        value           uniform 10;
    }
    defaultFaces
    {
        type            empty;
    }
}


// ************************************************************************* //
