/*--------------------------------*- C++ -*----------------------------------*\
| =========                 |                                                 |
| \\      /  F ield         | OpenFOAM: The Open Source CFD Toolbox           |
|  \\    /   O peration     | Version:  5.x                                   |
|   \\  /    A nd           | Web:      www.OpenFOAM.org                      |
|    \\/     M anipulation  |                                                 |
\*---------------------------------------------------------------------------*/
FoamFile
{
    version     2.0;
    format      ascii;
    class       volScalarField;
    location    "16.8";
    object      T;
}
// * * * * * * * * * * * * * * * * * * * * * * * * * * * * * * * * * * * * * //

dimensions      [0 0 0 1 0 0 0];

internalField   nonuniform List<scalar> 
6300
(
10.0459
10.1374
10.2286
10.3191
10.4085
10.4968
10.5835
10.6685
10.7514
10.832
10.91
10.9853
11.0576
11.1268
11.1927
10.046
10.1378
10.2293
10.32
10.4098
10.4983
10.5853
10.6705
10.7536
10.8345
10.9127
10.9882
11.0607
11.13
11.196
10.0463
10.1387
10.2306
10.3219
10.4122
10.5013
10.5888
10.6745
10.7582
10.8395
10.9182
10.9941
11.0669
11.1365
11.2026
10.0467
10.1399
10.2327
10.3248
10.4159
10.5058
10.5941
10.6807
10.7651
10.8471
10.9265
11.003
11.0763
11.1463
11.2127
10.0472
10.1415
10.2354
10.3286
10.4209
10.5118
10.6013
10.6888
10.7743
10.8573
10.9376
11.015
11.089
11.1595
11.2263
10.0479
10.1436
10.2389
10.3334
10.427
10.5194
10.6102
10.6991
10.7859
10.8702
10.9518
11.0302
11.1052
11.1765
11.2438
10.0487
10.1461
10.243
10.3392
10.4345
10.5285
10.6209
10.7115
10.8
10.8859
10.969
11.0488
11.125
11.1973
11.2653
10.0497
10.1489
10.2478
10.3459
10.4431
10.5391
10.6335
10.7261
10.8165
10.9044
10.9893
11.071
11.1488
11.2224
11.2913
10.0508
10.1522
10.2532
10.3536
10.453
10.5512
10.6479
10.7428
10.8355
10.9257
11.013
11.0969
11.1768
11.2521
11.3223
10.052
10.1559
10.2594
10.3622
10.4641
10.5648
10.6641
10.7616
10.857
10.95
11.0401
11.1268
11.2093
11.287
11.3589
10.0533
10.1599
10.2661
10.3717
10.4763
10.5799
10.682
10.7824
10.8809
10.9771
11.0705
11.1607
11.2467
11.3276
11.4021
10.0548
10.1643
10.2735
10.382
10.4897
10.5963
10.7016
10.8053
10.9071
11.0069
11.1042
11.1986
11.2892
11.3747
11.453
10.0564
10.1691
10.2815
10.3932
10.5042
10.614
10.7227
10.8298
10.9354
11.0391
11.1408
11.2402
11.3367
11.4288
11.5137
10.0581
10.1743
10.2901
10.4053
10.5196
10.633
10.7452
10.856
10.9654
11.0733
11.1797
11.2848
11.3885
11.4901
11.5865
10.06
10.1798
10.2992
10.4181
10.5361
10.6532
10.7691
10.8836
10.9969
11.1088
11.2199
11.3307
11.4423
11.5565
11.6739
11.2501
11.3
11.3475
11.3927
11.4356
11.4764
11.515
11.5517
11.5866
11.6197
11.6512
11.6814
11.7102
11.738
11.7647
11.7907
11.8161
11.8409
11.8654
11.8897
11.9139
11.9382
11.9627
11.9875
12.0126
12.0382
12.0644
12.0912
12.1187
12.1468
12.1756
12.2051
12.2353
12.2661
12.2974
12.3293
12.3617
12.3944
12.4274
12.4606
12.4938
12.527
12.5599
12.5925
12.6246
12.656
12.6866
12.7162
12.7446
12.7718
12.7975
12.8216
12.8439
12.8642
12.8823
12.8981
12.9112
12.9214
12.9286
12.9323
12.9324
12.9285
12.9202
12.9074
12.8895
12.8662
12.8371
12.8016
12.7593
12.7097
12.6521
12.5858
12.5103
12.4248
12.3285
12.2206
12.1004
11.967
11.8194
11.657
11.4788
11.2839
11.0715
10.841
10.5917
10.3229
10.0344
9.72576
9.39699
9.04816
11.2534
11.3033
11.3507
11.3959
11.4387
11.4793
11.5178
11.5543
11.589
11.6219
11.6532
11.6831
11.7117
11.7393
11.7658
11.7916
11.8167
11.8413
11.8656
11.8897
11.9138
11.9379
11.9622
11.9868
12.0118
12.0374
12.0635
12.0902
12.1176
12.1457
12.1745
12.2041
12.2343
12.2651
12.2966
12.3286
12.361
12.3939
12.4271
12.4604
12.4938
12.5272
12.5603
12.5931
12.6254
12.6571
12.6879
12.7177
12.7464
12.7738
12.7997
12.824
12.8466
12.8672
12.8856
12.9017
12.9152
12.9258
12.9333
12.9375
12.938
12.9345
12.9268
12.9145
12.8971
12.8745
12.846
12.8113
12.7698
12.721
12.6643
12.5991
12.5246
12.4401
12.345
12.2383
12.1193
11.9871
11.8408
11.6796
11.5026
11.3089
11.0976
10.868
10.6195
10.3513
10.0632
9.75467
9.42576
9.07652
11.2601
11.3099
11.3573
11.4023
11.4449
11.4853
11.5234
11.5596
11.5938
11.6263
11.6572
11.6867
11.7148
11.7419
11.768
11.7933
11.818
11.8422
11.8661
11.8898
11.9134
11.9372
11.9612
11.9855
12.0103
12.0356
12.0615
12.0881
12.1154
12.1435
12.1724
12.202
12.2323
12.2633
12.2949
12.3271
12.3598
12.3929
12.4263
12.46
12.4938
12.5276
12.5611
12.5944
12.6271
12.6592
12.6905
12.7207
12.7499
12.7777
12.8041
12.8289
12.852
12.8732
12.8923
12.909
12.9232
12.9345
12.9428
12.9478
12.9492
12.9466
12.9399
12.9286
12.9124
12.891
12.8638
12.8306
12.7907
12.7436
12.6888
12.6255
12.5531
12.4708
12.3779
12.2736
12.157
12.0273
11.8836
11.7249
11.5503
11.359
11.1499
10.9223
10.6754
10.4085
10.1211
9.81288
9.48369
9.13362
11.2703
11.3201
11.3673
11.412
11.4543
11.4942
11.5319
11.5675
11.6011
11.633
11.6632
11.692
11.7194
11.7458
11.7712
11.7958
11.8198
11.8434
11.8667
11.8898
11.9129
11.9361
11.9596
11.9835
12.0078
12.0328
12.0585
12.0849
12.1121
12.1402
12.169
12.1987
12.2292
12.2604
12.2922
12.3247
12.3578
12.3913
12.4252
12.4594
12.4937
12.5281
12.5623
12.5963
12.6297
12.6625
12.6944
12.7253
12.7551
12.7836
12.8107
12.8362
12.8601
12.8821
12.9021
12.9198
12.9351
12.9475
12.957
12.9632
12.9658
12.9647
12.9593
12.9496
12.9351
12.9155
12.8904
12.8593
12.8218
12.7773
12.7252
12.6649
12.5956
12.5167
12.4272
12.3265
12.2136
12.0877
11.9478
11.7929
11.6222
11.4344
11.2288
11.0043
10.7599
10.495
10.2089
9.90117
9.5716
9.22026
11.2841
11.3338
11.3809
11.4253
11.4671
11.5064
11.5434
11.5782
11.611
11.6419
11.6712
11.699
11.7256
11.751
11.7755
11.7992
11.8223
11.845
11.8674
11.8897
11.912
11.9345
11.9573
11.9806
12.0045
12.029
12.0543
12.0805
12.1075
12.1355
12.1644
12.1943
12.2249
12.2564
12.2886
12.3215
12.355
12.389
12.4235
12.4584
12.4935
12.5287
12.5639
12.5987
12.6331
12.6668
12.6996
12.7314
12.7621
12.7914
12.8194
12.8459
12.8707
12.8939
12.9151
12.9341
12.9508
12.9647
12.9758
12.9836
12.9879
12.9885
12.985
12.9773
12.965
12.9478
12.9253
12.8972
12.8629
12.8218
12.7734
12.7171
12.652
12.5774
12.4926
12.3967
12.2888
12.168
12.0333
11.8838
11.7182
11.5356
11.3348
11.1146
10.874
10.612
10.3278
10.0208
9.69076
9.33768
11.3017
11.3514
11.3982
11.4422
11.4833
11.5218
11.5579
11.5917
11.6234
11.6532
11.6813
11.7079
11.7332
11.7575
11.7808
11.8033
11.8253
11.8469
11.8683
11.8895
11.9109
11.9324
11.9544
11.9769
12
12.024
12.0488
12.0746
12.1015
12.1295
12.1585
12.1885
12.2195
12.2513
12.284
12.3173
12.3514
12.386
12.4212
12.4569
12.493
12.5294
12.5657
12.6018
12.6374
12.6723
12.7063
12.7391
12.7708
12.8011
12.8301
12.8577
12.8838
12.9083
12.931
12.9518
12.9702
12.9861
12.9991
13.0089
13.0153
13.018
13.0168
13.0115
13.0018
12.9876
12.9684
12.9438
12.9135
12.8767
12.833
12.7817
12.7219
12.6529
12.5739
12.484
12.3824
12.2681
12.1402
11.9975
11.8388
11.6629
11.4685
11.2542
11.0187
10.7607
10.4793
10.1735
9.84301
9.48769
11.3235
11.3732
11.4197
11.463
11.5033
11.5408
11.5757
11.6081
11.6384
11.6668
11.6934
11.7186
11.7424
11.7652
11.7871
11.8083
11.8289
11.8491
11.8692
11.8892
11.9093
11.9297
11.9506
11.9721
11.9944
12.0176
12.0418
12.0672
12.0939
12.1218
12.151
12.1813
12.2127
12.245
12.2782
12.3121
12.3467
12.3821
12.4181
12.4549
12.4922
12.5299
12.5678
12.6055
12.6427
12.6791
12.7144
12.7485
12.7812
12.8126
12.8427
12.8715
12.899
12.9251
12.9497
12.9725
12.9932
13.0114
13.0268
13.039
13.0478
13.053
13.0544
13.0518
13.0452
13.0343
13.0189
12.9987
12.9731
12.9416
12.9036
12.8582
12.8048
12.7426
12.6706
12.5881
12.4942
12.3879
12.2682
12.134
11.984
11.8168
11.6307
11.4242
11.1956
10.9432
10.6657
10.3618
10.0309
9.67275
11.3499
11.3995
11.4455
11.4881
11.5273
11.5635
11.5968
11.6276
11.6562
11.6828
11.7077
11.731
11.7531
11.7742
11.7944
11.8139
11.8329
11.8515
11.87
11.8886
11.9072
11.9263
11.9458
11.9661
11.9873
12.0096
12.033
12.0579
12.0843
12.1122
12.1417
12.1725
12.2044
12.2374
12.2712
12.3057
12.341
12.377
12.4139
12.4518
12.4906
12.5301
12.57
12.6098
12.6491
12.6873
12.7242
12.7596
12.7934
12.8259
12.857
12.8871
12.9161
12.9441
12.9709
12.9963
13.0197
13.0408
13.059
13.0739
13.0854
13.0932
13.0974
13.0979
13.0946
13.0875
13.0764
13.061
13.041
13.0157
12.9844
12.9463
12.9005
12.8461
12.7824
12.7085
12.6236
12.5268
12.417
12.2932
12.1539
11.9976
11.8223
11.626
11.4066
11.1619
10.8899
10.5888
10.2577
9.8962
11.3814
11.4309
11.4764
11.5179
11.5557
11.5901
11.6216
11.6503
11.6768
11.7012
11.724
11.7452
11.7653
11.7843
11.8025
11.8201
11.8373
11.8541
11.8708
11.8876
11.9046
11.922
11.94
11.9588
11.9786
11.9997
12.0222
12.0464
12.0725
12.1004
12.1303
12.1618
12.1947
12.2285
12.2631
12.2982
12.334
12.3706
12.4083
12.4474
12.4879
12.5296
12.5721
12.6148
12.6568
12.6973
12.736
12.7728
12.8076
12.8409
12.8729
12.904
12.9346
12.9646
12.9941
13.0226
13.0495
13.0741
13.0956
13.1137
13.1281
13.1387
13.1457
13.1492
13.1493
13.1462
13.1398
13.13
13.1164
13.0984
13.075
13.0453
13.0083
12.963
12.9086
12.8445
12.7699
12.6841
12.586
12.4746
12.3483
12.2055
12.0439
11.861
11.6539
11.4198
11.1557
10.8591
10.5284
10.1626
11.4187
11.4683
11.5129
11.553
11.5889
11.6211
11.65
11.6763
11.7002
11.7221
11.7423
11.7611
11.7788
11.7956
11.8116
11.827
11.842
11.8568
11.8715
11.8863
11.9013
11.9168
11.9329
11.9499
11.968
11.9876
12.0089
12.0322
12.0578
12.0859
12.1164
12.1491
12.1834
12.2186
12.254
12.2897
12.3257
12.3625
12.4007
12.4408
12.4832
12.5278
12.5741
12.6208
12.6664
12.7099
12.7506
12.7885
12.824
12.8575
12.8899
12.9217
12.9536
12.9858
13.0185
13.0511
13.0825
13.1116
13.1372
13.1587
13.176
13.1893
13.1989
13.2052
13.2086
13.2095
13.208
13.2043
13.1981
13.1886
13.1746
13.1548
13.1278
13.0927
13.0488
12.9956
12.9324
12.8589
12.7741
12.6771
12.5665
12.4403
12.296
12.1306
11.9401
11.7206
11.468
11.1786
10.8492
10.4784
11.4631
11.5125
11.556
11.5941
11.6273
11.6566
11.6824
11.7055
11.7263
11.7452
11.7626
11.7786
11.7937
11.8078
11.8213
11.8344
11.847
11.8595
11.8719
11.8845
11.8973
11.9105
11.9245
11.9393
11.9554
11.973
11.9925
12.0145
12.0394
12.0676
12.0993
12.1341
12.1709
12.2081
12.2447
12.2805
12.3161
12.3523
12.3902
12.4309
12.4753
12.5236
12.5752
12.6281
12.6792
12.7264
12.7692
12.8077
12.8429
12.8758
12.9075
12.9392
12.9719
13.0064
13.043
13.0811
13.1189
13.154
13.1844
13.2096
13.2296
13.2451
13.2567
13.2652
13.2714
13.2759
13.2794
13.2822
13.2843
13.285
13.2825
13.2745
13.259
13.2351
13.2023
13.1606
13.1098
13.0497
12.9797
12.8992
12.8069
12.7009
12.5786
12.436
12.268
12.069
11.8334
11.5554
11.2296
10.8528
11.516
11.5653
11.6069
11.6419
11.6715
11.6968
11.7188
11.738
11.7551
11.7706
11.7846
11.7976
11.8096
11.821
11.8318
11.8421
11.8523
11.8622
11.8722
11.8822
11.8925
11.9033
11.9146
11.9269
11.9404
11.9554
11.9726
11.9926
12.0162
12.0443
12.0777
12.1162
12.1577
12.1984
12.2363
12.2716
12.3055
12.3396
12.3756
12.4157
12.4615
12.5145
12.5744
12.6378
12.6973
12.7493
12.7937
12.8317
12.865
12.8956
12.9251
12.9552
12.9875
13.0238
13.0651
13.1113
13.1592
13.2029
13.2392
13.2678
13.2897
13.3063
13.3188
13.3285
13.3365
13.3438
13.3516
13.3609
13.3725
13.3858
13.3983
13.4047
13.4021
13.3899
13.3686
13.3386
13.3005
13.2544
13.2004
13.138
13.0667
12.985
12.8904
12.7779
12.6402
12.4701
12.2598
12.0007
11.6834
11.2998
11.5803
11.629
11.6673
11.6975
11.7218
11.7419
11.7589
11.7735
11.7864
11.7978
11.8082
11.8177
11.8265
11.8348
11.8427
11.8503
11.8576
11.8649
11.8721
11.8795
11.8871
11.895
11.9035
11.9127
11.923
11.9347
11.9486
11.9653
11.9864
12.0134
12.0487
12.0937
12.1457
12.1925
12.2316
12.2646
12.2945
12.3238
12.3553
12.3919
12.4372
12.4953
12.5687
12.6529
12.726
12.7832
12.8273
12.8621
12.8911
12.9168
12.9417
12.9677
12.9975
13.0338
13.0802
13.1387
13.2055
13.2623
13.3049
13.3355
13.3574
13.3732
13.3849
13.3941
13.4023
13.4109
13.4214
13.4363
13.4579
13.4878
13.5227
13.5476
13.5588
13.5579
13.5471
13.5283
13.5025
13.4705
13.4329
13.3897
13.3414
13.2877
13.2276
13.1558
13.0591
12.9287
12.7564
12.5299
12.2323
11.8436
11.6615
11.7078
11.7391
11.7614
11.7782
11.7914
11.8023
11.8115
11.8195
11.8266
11.8329
11.8388
11.8442
11.8492
11.854
11.8586
11.8631
11.8675
11.8719
11.8764
11.881
11.8859
11.8911
11.8969
11.9034
11.911
11.9202
11.9319
11.9478
11.9706
12.0056
12.0609
12.1412
12.1978
12.2353
12.2622
12.2842
12.305
12.3276
12.3556
12.3946
12.4538
12.5475
12.6839
12.7774
12.836
12.8741
12.9009
12.9215
12.9393
12.9563
12.9749
12.9977
13.0294
13.0776
13.1542
13.2663
13.3418
13.3877
13.4158
13.4337
13.4457
13.4544
13.4612
13.4675
13.4748
13.485
13.5018
13.5311
13.5825
13.6616
13.7099
13.7329
13.74
13.7372
13.7277
13.7132
13.6948
13.673
13.6488
13.6234
13.5996
13.5814
13.5697
13.526
13.4477
13.3307
13.1616
12.912
12.5324
11.774
11.8081
11.824
11.8332
11.8395
11.8442
11.848
11.8511
11.8539
11.8563
11.8584
11.8604
11.8622
11.8639
11.8655
11.867
11.8685
11.87
11.8715
11.873
11.8746
11.8762
11.878
11.88
11.8822
11.8848
11.8881
11.8925
11.899
11.9101
11.9332
11.9921
12.171
12.2302
12.2542
12.2668
12.2755
12.2833
12.2919
12.3035
12.3227
12.3624
12.4646
12.7767
12.8788
12.9183
12.9372
12.9483
12.9561
12.9626
12.9688
12.9757
12.9852
13.0009
13.0338
13.1187
13.3794
13.4639
13.496
13.5105
13.5183
13.523
13.5263
13.5288
13.5313
13.5343
13.5392
13.5489
13.5723
13.6374
13.8444
13.9085
13.9297
13.9362
13.9367
13.9341
13.9295
13.9236
13.9166
13.9093
13.9032
13.9031
13.9255
14.0297
14.0428
14.0223
13.98
13.909
13.7788
13.4916
8.64271
8.1727
7.67617
7.15461
6.60977
6.04357
5.45808
4.85542
4.23774
3.60716
2.96579
2.31567
1.65882
0.997193
0.332714
8.67032
8.19914
7.70112
7.17781
6.63104
6.0628
5.47519
4.8704
4.25059
3.61792
2.9745
2.32238
1.66358
1.00003
0.333658
8.7259
8.25231
7.75125
7.2244
6.67372
6.10132
5.50943
4.90033
4.27624
3.63938
2.99187
2.33576
1.67306
1.00569
0.335538
8.81018
8.33287
7.82709
7.29476
6.73803
6.15925
5.56083
4.94518
4.31463
3.67145
3.01779
2.35571
1.68719
1.01412
0.338339
8.92433
8.44179
7.92941
7.38942
6.82431
6.23676
5.62941
5.00487
4.36561
3.71395
3.0521
2.38208
1.70585
1.02524
0.342034
9.06999
8.58047
8.05926
7.5091
6.93298
6.33398
5.71512
5.07923
4.42893
3.76663
3.09452
2.41464
1.72886
1.03895
0.346587
9.24941
8.75072
8.21799
7.65465
7.06444
6.45101
5.8178
5.16794
4.5042
3.82906
3.14469
2.45308
1.756
1.0551
0.351948
9.46558
8.95493
8.40721
7.82701
7.21903
6.58774
5.93707
5.27046
4.59083
3.90066
3.20208
2.49695
1.78692
1.07349
0.35805
9.72253
9.1961
8.62883
8.02704
7.39688
6.74375
6.07222
5.38595
4.68795
3.98063
3.26599
2.5457
1.82123
1.09387
0.364809
10.0257
9.47799
8.88486
8.25536
7.59759
6.91812
6.22201
5.51312
4.79433
4.06788
3.3355
2.59861
1.85841
1.11593
0.372124
10.3826
9.80521
9.17717
8.51187
7.81992
7.10903
6.38454
5.65012
4.90833
4.161
3.40948
2.65481
1.89785
1.13932
0.379873
10.8039
10.1829
9.50663
8.79491
8.06112
7.31347
6.55691
5.79442
5.02782
4.25827
3.48657
2.71328
1.93883
1.1636
0.387918
11.3052
10.6159
9.87138
9.09994
8.31607
7.52673
6.73514
5.94276
5.15019
4.35765
3.56521
2.77287
1.98058
1.18834
0.39611
11.9083
11.1038
10.263
9.41731
8.5764
7.74214
6.9141
6.09123
5.27247
4.45689
3.64373
2.83236
2.02227
1.21304
0.404292
12.6348
11.6281
10.6592
9.72983
8.82998
7.95126
7.0878
6.23551
5.3915
4.55366
3.72041
2.89054
2.06308
1.23723
0.41231
10.0617
10.1851
10.3081
10.4305
10.5521
10.6727
10.7921
10.9102
11.0268
11.1423
11.2569
11.3718
11.4893
11.6145
11.7615
10.0634
10.1902
10.3166
10.4424
10.5674
10.6913
10.8139
10.9352
11.0549
11.1732
11.2904
11.4075
11.5266
11.6518
11.7909
10.0652
10.1955
10.3255
10.4548
10.5833
10.7107
10.8368
10.9612
11.084
11.2048
11.3239
11.4417
11.5595
11.6796
11.8053
10.0671
10.2011
10.3348
10.4679
10.6
10.7311
10.8607
10.9885
11.1143
11.2376
11.3583
11.476
11.5908
11.7034
11.8152
10.069
10.207
10.3445
10.4815
10.6175
10.7524
10.8857
11.0171
11.1462
11.2723
11.3946
11.5121
11.6236
11.7278
11.8247
10.0711
10.2131
10.3547
10.4957
10.6358
10.7748
10.9121
11.0474
11.1802
11.3095
11.4343
11.5525
11.6614
11.7571
11.8369
10.0732
10.2194
10.3653
10.5106
10.655
10.7982
10.9398
11.0795
11.2165
11.3499
11.4784
11.5993
11.7082
11.7975
11.8567
10.0754
10.226
10.3763
10.526
10.6749
10.8227
10.969
11.1133
11.2552
11.3938
11.5277
11.6544
11.7687
11.8587
11.8973
10.0776
10.2328
10.3877
10.542
10.6956
10.8482
10.9994
11.1489
11.2962
11.4409
11.5819
11.7181
11.846
11.9555
12.0009
10.08
10.2399
10.3995
10.5586
10.717
10.8746
11.0309
11.1859
11.3391
11.4904
11.6396
11.7873
11.9362
12.0967
12.3159
10.0824
10.2471
10.4115
10.5756
10.739
10.9017
11.0635
11.224
11.3833
11.5413
11.6983
11.8558
12.0182
12.1972
12.4209
10.0848
10.2544
10.4239
10.5929
10.7616
10.9295
11.0968
11.2631
11.4284
11.5927
11.7565
11.9208
12.0886
12.2664
12.4649
10.0873
10.262
10.4364
10.6106
10.7845
10.9579
11.1307
11.3028
11.4741
11.6446
11.8143
11.9833
12.1521
12.3212
12.4913
10.0899
10.2696
10.4491
10.6286
10.8077
10.9866
11.165
11.343
11.5204
11.697
11.8725
12.046
12.2153
12.3753
12.517
10.0924
10.2772
10.462
10.6466
10.8312
11.0155
11.1997
11.3836
11.5671
11.7501
11.932
12.1115
12.2849
12.442
12.5581
10.095
10.2849
10.4749
10.6648
10.8547
11.0446
11.2345
11.4243
11.6142
11.8039
11.9932
12.1813
12.3658
12.5371
12.6539
10.0975
10.2926
10.4878
10.683
10.8782
11.0737
11.2693
11.4651
11.6613
11.8578
12.0551
12.2536
12.4556
12.67
12.9379
10.1001
10.3003
10.5006
10.701
10.9017
11.1026
11.3039
11.5056
11.708
11.9113
12.116
12.3234
12.5368
12.7657
13.0341
10.1026
10.3079
10.5133
10.7189
10.9249
11.1312
11.3381
11.5456
11.7541
11.9638
12.1751
12.389
12.6072
12.834
13.0763
10.1051
10.3154
10.5259
10.7366
10.9478
11.1594
11.3718
11.585
11.7993
12.015
12.2323
12.4514
12.6717
12.8914
13.1054
10.1076
10.3228
10.5383
10.754
10.9703
11.1871
11.4048
11.6236
11.8436
12.0651
12.2883
12.5128
12.7365
12.9526
13.1418
10.11
10.3301
10.5504
10.7711
10.9923
11.2142
11.4371
11.6612
11.8867
12.114
12.3433
12.5747
12.8067
13.0324
13.219
10.1124
10.3372
10.5622
10.7877
11.0138
11.2406
11.4685
11.6977
11.9285
12.1614
12.3969
12.636
12.881
13.1392
13.4424
10.1147
10.3441
10.5738
10.8039
11.0347
11.2663
11.499
11.7331
11.9689
12.2069
12.4479
12.6932
12.9462
13.2148
13.5177
10.1169
10.3508
10.585
10.8197
11.055
11.2912
11.5285
11.7673
12.0077
12.2503
12.4957
12.745
13.0005
13.2664
13.5495
10.1191
10.3574
10.5959
10.8349
11.0747
11.3153
11.557
11.8002
12.0449
12.2917
12.5407
12.7925
13.0475
13.306
13.5683
10.1212
10.3637
10.6065
10.8497
11.0937
11.3385
11.5845
11.8319
12.0808
12.3314
12.5838
12.8377
13.0918
13.343
13.5854
10.1232
10.3698
10.6166
10.864
11.112
11.361
11.6111
11.8624
12.1153
12.3698
12.6258
12.8827
13.1381
13.386
13.6111
10.1252
10.3757
10.6265
10.8777
11.1297
11.3826
11.6366
11.8919
12.1487
12.4071
12.6672
12.9285
13.1896
13.4448
13.6689
10.1271
10.3814
10.6359
10.891
11.1468
11.4035
11.6612
11.9203
12.1809
12.4432
12.7075
12.9744
13.2451
13.525
13.8383
10.1289
10.3868
10.645
10.9037
11.1632
11.4235
11.6849
11.9476
12.2119
12.4779
12.7461
13.0175
13.2941
13.582
13.8954
10.1307
10.3921
10.6538
10.916
11.1789
11.4427
11.7076
11.9738
12.2415
12.5109
12.7825
13.0568
13.3353
13.6212
13.9196
10.1323
10.3971
10.6621
10.9277
11.194
11.4611
11.7294
11.9989
12.2699
12.5425
12.8168
13.093
13.3713
13.6516
13.934
10.1339
10.4019
10.6701
10.9389
11.2084
11.4788
11.7502
12.023
12.2971
12.5727
12.8497
13.1278
13.4057
13.6806
13.9476
10.1355
10.4065
10.6778
10.9496
11.2222
11.4956
11.7702
12.046
12.3232
12.6019
12.8819
13.1626
13.442
13.7149
13.9685
10.1369
10.4108
10.6851
10.9598
11.2353
11.5117
11.7892
12.068
12.3483
12.6301
12.9135
13.1982
13.4829
13.7626
14.0164
10.1383
10.415
10.6919
10.9695
11.2477
11.5269
11.8072
12.0889
12.3722
12.6572
12.9442
13.2337
13.527
13.8283
14.158
10.1396
10.4188
10.6984
10.9786
11.2594
11.5413
11.8243
12.1087
12.3948
12.6827
12.973
13.2666
13.5653
13.8742
14.2052
10.1408
10.4225
10.7046
10.9871
11.2705
11.5548
11.8404
12.1273
12.416
12.7066
12.9996
13.2958
13.5965
13.9047
14.2246
10.1419
10.4259
10.7103
10.9952
11.2808
11.5675
11.8554
12.1447
12.4357
12.7287
13.0239
13.3216
13.6225
13.927
14.2354
10.143
10.4291
10.7156
11.0026
11.2904
11.5793
11.8694
12.1609
12.4541
12.7492
13.0462
13.3453
13.6458
13.9465
14.2444
10.144
10.4321
10.7205
11.0095
11.2993
11.5901
11.8823
12.1758
12.4711
12.7682
13.0672
13.3678
13.669
13.9679
14.2569
10.1449
10.4347
10.725
11.0158
11.3074
11.6001
11.8941
12.1896
12.4868
12.7858
13.0869
13.3898
13.6937
13.996
14.2843
10.1457
10.4372
10.729
11.0215
11.3148
11.6091
11.9048
12.2021
12.5011
12.8021
13.1052
13.4109
13.7196
14.0336
14.3639
10.1464
10.4393
10.7326
11.0265
11.3213
11.6172
11.9144
12.2133
12.5139
12.8167
13.1218
13.4298
13.7416
14.0598
14.3906
10.147
10.4412
10.7358
11.031
11.3271
11.6243
11.9229
12.2231
12.5253
12.8296
13.1363
13.446
13.7591
14.0771
14.4017
10.1476
10.4428
10.7385
11.0348
11.332
11.6304
11.9302
12.2316
12.5351
12.8407
13.1488
13.4596
13.7732
14.0897
14.408
10.148
10.4442
10.7408
11.038
11.3361
11.6354
11.9362
12.2387
12.5432
12.85
13.1592
13.4711
13.7853
14.1008
14.4144
10.1484
10.4452
10.7425
11.0405
11.3393
11.6394
11.941
12.2444
12.5498
12.8575
13.1678
13.4808
13.7964
14.1133
14.426
10.1486
10.446
10.7438
11.0423
11.3417
11.6424
11.9446
12.2485
12.5546
12.8632
13.1744
13.4887
13.8065
14.1284
14.4587
10.1488
10.4465
10.7446
11.0434
11.3432
11.6442
11.9468
12.2512
12.5578
12.8669
13.1789
13.4942
13.8135
14.1377
14.4691
10.1488
10.4467
10.7449
11.0439
11.3438
11.6449
11.9477
12.2523
12.5591
12.8685
13.1809
13.4968
13.8169
14.142
14.4725
10.1488
10.4466
10.7447
11.0436
11.3434
11.6445
11.9472
12.2517
12.5585
12.8679
13.1804
13.4964
13.8168
14.1422
14.4729
10.1487
10.4462
10.744
11.0426
11.3422
11.643
11.9453
12.2496
12.5561
12.8651
13.1773
13.493
13.8131
14.1388
14.471
10.1484
10.4454
10.7429
11.041
11.34
11.6403
11.9422
12.2458
12.5517
12.8602
13.1715
13.4864
13.8055
14.1306
14.4652
10.1481
10.4445
10.7412
11.0386
11.337
11.6365
11.9376
12.2405
12.5456
12.8531
13.1633
13.4767
13.7937
14.1157
14.4491
10.1477
10.4432
10.739
11.0356
11.333
11.6317
11.9318
12.2337
12.5376
12.844
13.1529
13.4645
13.7784
14.0928
14.3996
10.1472
10.4416
10.7364
11.0319
11.3282
11.6257
11.9247
12.2253
12.528
12.833
13.1405
13.4505
13.7627
14.0749
14.3823
10.1465
10.4398
10.7333
11.0275
11.3226
11.6187
11.9163
12.2155
12.5167
12.8202
13.1262
13.4351
13.7467
14.0604
14.374
10.1458
10.4377
10.7298
11.0226
11.3161
11.6107
11.9067
12.2043
12.5037
12.8055
13.1099
13.4176
13.7293
14.0457
14.3672
10.1451
10.4353
10.7259
11.017
11.3089
11.6018
11.896
12.1916
12.4891
12.7888
13.0913
13.3973
13.7084
14.0274
14.3582
10.1442
10.4327
10.7215
11.0109
11.3009
11.5919
11.8841
12.1777
12.4729
12.7702
13.0701
13.3733
13.682
14.0007
14.3407
10.1433
10.4299
10.7168
11.0042
11.2923
11.5812
11.8712
12.1625
12.4553
12.7498
13.0464
13.3455
13.6484
13.9593
14.2969
10.1423
10.4269
10.7118
10.9971
11.283
11.5697
11.8574
12.1462
12.4363
12.7278
13.0208
13.315
13.6093
13.899
14.1644
10.1412
10.4237
10.7064
10.9895
11.2732
11.5575
11.8427
12.129
12.4163
12.7048
12.9944
13.2844
13.5732
13.8557
14.1198
10.1401
10.4203
10.7007
10.9815
11.2628
11.5447
11.8273
12.1109
12.3954
12.681
12.9675
13.2547
13.5413
13.8249
14.1007
10.1389
10.4168
10.6948
10.9732
11.252
11.5313
11.8113
12.092
12.3737
12.6564
12.9401
13.2251
13.5115
13.7994
14.0886
10.1377
10.4131
10.6887
10.9645
11.2407
11.5174
11.7946
12.0725
12.3512
12.6309
12.9118
13.1946
13.4806
13.7728
14.0758
10.1364
10.4093
10.6823
10.9556
11.2291
11.503
11.7775
12.0524
12.328
12.6045
12.8821
13.1617
13.4454
13.7385
14.0543
10.1351
10.4054
10.6758
10.9464
11.2172
11.4883
11.7599
12.0318
12.3042
12.5772
12.851
13.126
13.4034
13.6883
14.0029
10.1338
10.4014
10.6692
10.937
11.2051
11.4733
11.7419
12.0108
12.2799
12.5494
12.819
13.0884
13.3563
13.6175
13.8495
10.1325
10.3974
10.6624
10.9275
11.1927
11.4581
11.7237
11.9894
12.2553
12.5213
12.787
13.0518
13.3136
13.5668
13.7979
10.1311
10.3933
10.6555
10.9178
11.1802
11.4427
11.7053
11.968
12.2307
12.4933
12.7557
13.0173
13.2767
13.5313
13.7759
10.1297
10.3891
10.6486
10.9081
11.1676
11.4272
11.6868
11.9465
12.206
12.4655
12.7248
12.984
13.2433
13.5026
13.7622
10.1283
10.385
10.6416
10.8983
11.155
11.4117
11.6683
11.9249
12.1813
12.4376
12.6939
12.9508
13.2096
13.4736
13.7483
10.1269
10.3808
10.6346
10.8885
11.1423
11.3961
11.6498
11.9034
12.1567
12.4097
12.6626
12.9161
13.1722
13.4371
13.7253
10.1255
10.3766
10.6276
10.8786
11.1296
11.3806
11.6314
11.882
12.1321
12.3818
12.6308
12.8794
13.1288
13.3843
13.6705
10.1241
10.3723
10.6206
10.8688
11.117
11.3651
11.6131
11.8608
12.1079
12.3543
12.5992
12.842
13.0809
13.3103
13.5063
10.1227
10.3681
10.6135
10.8589
11.1044
11.3497
11.595
11.8399
12.0843
12.3276
12.5691
12.8074
13.0395
13.2592
13.4522
10.1213
10.3638
10.6064
10.849
11.0917
11.3344
11.577
11.8194
12.0612
12.3021
12.5411
12.7769
13.0068
13.2266
13.4308
10.1198
10.3595
10.5993
10.8391
11.0791
11.3191
11.5592
11.7992
12.0389
12.2778
12.5154
12.7503
12.9809
13.2048
13.4203
10.1184
10.3552
10.5921
10.8291
11.0663
11.3037
11.5413
11.7791
12.0169
12.2545
12.4914
12.7267
12.9596
13.1888
13.4138
10.1169
10.3508
10.5848
10.8189
11.0534
11.2881
11.5233
11.759
11.9951
12.2316
12.4683
12.7049
12.9408
13.1755
13.4088
10.1154
10.3463
10.5773
10.8085
11.0402
11.2723
11.505
11.7385
11.9729
12.2084
12.4452
12.6833
12.9227
13.1632
13.4044
10.1139
10.3417
10.5696
10.7979
11.0266
11.2559
11.486
11.7173
11.9499
12.1844
12.4212
12.6608
12.9038
13.1503
13.3997
10.1123
10.3369
10.5618
10.7869
11.0126
11.239
11.4663
11.695
11.9256
12.1587
12.3951
12.636
12.8824
13.1353
13.3942
10.1107
10.3321
10.5537
10.7756
10.998
11.2213
11.4456
11.6714
11.8995
12.1305
12.3659
12.6071
12.8565
13.116
13.3865
10.109
10.3271
10.5453
10.7639
10.983
11.2028
11.4238
11.6463
11.8712
12.0994
12.3324
12.5726
12.8233
13.0891
13.3743
10.1073
10.3219
10.5367
10.7518
10.9673
11.1835
11.4008
11.6195
11.8405
12.0648
12.294
12.5308
12.7796
13.0485
13.3508
10.1055
10.3166
10.5279
10.7393
10.9511
11.1635
11.3767
11.5912
11.8075
12.0267
12.2502
12.4805
12.722
12.9845
13.2952
13.3665
12.074
10.986
9.98915
9.04297
8.12889
7.23671
6.36012
5.4949
4.63811
3.78757
2.94164
2.09899
1.25855
0.419378
13.5978
12.3373
11.2198
10.1896
9.21422
8.2751
7.36121
6.46544
5.58301
4.7105
3.84541
2.98578
2.13009
1.27704
0.425513
13.6941
12.501
11.3928
10.352
9.3602
8.40375
7.47306
6.56146
5.66418
4.77771
3.89941
3.02718
2.15934
1.29446
0.431299
13.7425
12.6058
11.5188
10.4802
9.48158
8.51443
7.57159
6.64747
5.73779
4.83922
3.94916
3.0655
2.18651
1.31068
0.436692
13.7708
12.6759
11.6113
10.5805
9.58104
8.60817
7.65706
6.72341
5.80364
4.89479
3.99444
3.10057
2.21146
1.32561
0.441663
13.7892
12.7251
11.6801
10.659
9.66194
8.68674
7.73034
6.78966
5.86185
4.94441
4.03518
3.13231
2.23414
1.33922
0.446198
13.8021
12.7608
11.7322
10.7207
9.72761
8.75217
7.79265
6.84692
5.91281
4.98829
4.07149
3.16075
2.25455
1.35149
0.450294
13.8116
12.7875
11.7723
10.7696
9.78094
8.80649
7.84533
6.89605
5.95707
5.02676
4.10356
3.18602
2.27275
1.36247
0.453962
13.8187
12.808
11.8036
10.8085
9.82435
8.85152
7.88968
6.93798
5.99526
5.06025
4.13169
3.20829
2.28886
1.37221
0.457221
13.8243
12.824
11.8284
10.8399
9.85979
8.88883
7.92694
6.97361
6.02803
5.08924
4.15618
3.2278
2.30302
1.38079
0.460096
13.8287
12.8367
11.8483
10.8652
9.88883
8.91978
7.9582
7.00381
6.05605
5.1142
4.1774
3.24477
2.31538
1.38831
0.462615
13.8321
12.8469
11.8643
10.8858
9.91269
8.94547
7.98439
7.02933
6.07992
5.1356
4.1957
3.25947
2.32613
1.39485
0.46481
13.8349
12.8551
11.8772
10.9027
9.93237
8.96683
8.00634
7.05089
6.10021
5.1539
4.21142
3.27215
2.33542
1.40051
0.466714
13.8372
12.8617
11.8878
10.9166
9.94863
8.9846
8.02474
7.06906
6.11742
5.1695
4.22488
3.28304
2.34342
1.4054
0.468359
13.8391
12.8672
11.8966
10.928
9.96212
8.99942
8.04016
7.08438
6.13199
5.18277
4.23636
3.29236
2.35028
1.4096
0.469773
13.8406
12.8717
11.9037
10.9374
9.97332
9.01179
8.05309
7.09728
6.14432
5.19404
4.24615
3.30033
2.35616
1.41321
0.470987
13.8419
12.8754
11.9097
10.9453
9.98265
9.02213
8.06394
7.10815
6.15475
5.2036
4.25448
3.30713
2.36119
1.41629
0.472025
13.8429
12.8785
11.9146
10.9518
9.99044
9.03079
8.07306
7.11732
6.16356
5.2117
4.26156
3.31291
2.36547
1.41892
0.472912
13.8438
12.881
11.9187
10.9573
9.99696
9.03805
8.08072
7.12504
6.17101
5.21856
4.26757
3.31783
2.36912
1.42116
0.473669
13.8445
12.8832
11.9222
10.9618
10.0024
9.04415
8.08717
7.13156
6.17731
5.22438
4.27267
3.32201
2.37222
1.42307
0.474314
13.8451
12.8849
11.925
10.9656
10.007
9.04929
8.09262
7.13707
6.18265
5.22932
4.277
3.32557
2.37487
1.4247
0.474863
13.8456
12.8864
11.9275
10.9689
10.0109
9.05362
8.09722
7.14173
6.18717
5.23351
4.28069
3.3286
2.37712
1.42609
0.475332
13.846
12.8877
11.9295
10.9716
10.0142
9.0573
8.10113
7.1457
6.19102
5.23709
4.28384
3.33119
2.37905
1.42728
0.475733
13.8464
12.8888
11.9312
10.9739
10.0169
9.06043
8.10446
7.14908
6.19431
5.24014
4.28653
3.33341
2.3807
1.42829
0.476077
13.8467
12.8897
11.9327
10.9759
10.0193
9.06311
8.10731
7.15199
6.19714
5.24277
4.28884
3.33531
2.38212
1.42917
0.476373
13.847
12.8905
11.934
10.9776
10.0214
9.06542
8.10978
7.1545
6.19958
5.24504
4.29084
3.33697
2.38335
1.42993
0.476629
13.8472
12.8912
11.9351
10.9791
10.0232
9.06745
8.11194
7.1567
6.20172
5.24703
4.2926
3.33841
2.38443
1.43059
0.476854
13.8474
12.8918
11.9361
10.9804
10.0248
9.06925
8.11386
7.15864
6.20362
5.24879
4.29415
3.33969
2.38538
1.43118
0.477053
13.8476
12.8924
11.937
10.9816
10.0262
9.07087
8.11559
7.1604
6.20533
5.25038
4.29555
3.34085
2.38624
1.43171
0.477232
13.8478
12.8929
11.9379
10.9827
10.0276
9.07237
8.11718
7.16202
6.2069
5.25184
4.29684
3.34191
2.38703
1.4322
0.477396
13.848
12.8934
11.9387
10.9838
10.0288
9.0738
8.1187
7.16356
6.20839
5.25322
4.29805
3.3429
2.38777
1.43265
0.477549
13.8481
12.8939
11.9394
10.9849
10.0301
9.0752
8.12018
7.16505
6.20983
5.25455
4.29921
3.34385
2.38848
1.43309
0.477697
13.8483
12.8944
11.9403
10.9859
10.0314
9.07662
8.12167
7.16655
6.21127
5.25587
4.30037
3.3448
2.38917
1.43352
0.477841
13.8485
12.8949
11.9411
10.9871
10.0327
9.0781
8.12322
7.16809
6.21274
5.25722
4.30154
3.34575
2.38988
1.43395
0.477987
13.8487
12.8955
11.9421
10.9883
10.0342
9.07969
8.12487
7.16973
6.2143
5.25863
4.30276
3.34674
2.3906
1.43439
0.478136
13.8489
12.8962
11.9431
10.9897
10.0358
9.08146
8.12668
7.1715
6.21597
5.26013
4.30405
3.34778
2.39137
1.43486