/*--------------------------------*- C++ -*----------------------------------*\
| =========                 |                                                 |
| \\      /  F ield         | OpenFOAM: The Open Source CFD Toolbox           |
|  \\    /   O peration     | Version:  5.x                                   |
|   \\  /    A nd           | Web:      www.OpenFOAM.org                      |
|    \\/     M anipulation  |                                                 |
\*---------------------------------------------------------------------------*/
FoamFile
{
    version     2.0;
    format      ascii;
    class       volScalarField;
    location    "11.4";
    object      T;
}
// * * * * * * * * * * * * * * * * * * * * * * * * * * * * * * * * * * * * * //

dimensions      [0 0 0 1 0 0 0];

internalField   nonuniform List<scalar> 
6300
(
10.4534
11.3587
12.2601
13.1547
14.0398
14.9129
15.7712
16.612
17.4327
18.2309
19.004
19.7498
20.4664
21.152
21.8053
10.4547
11.3627
12.2667
13.1639
14.0518
14.9275
15.7884
16.6317
17.455
18.2555
19.0308
19.7786
20.4969
21.1838
21.838
10.4573
11.3706
12.2799
13.1825
14.0756
14.9566
15.8228
16.6713
17.4996
18.3049
19.0847
19.8365
20.5582
21.2478
21.9038
10.4613
11.3825
12.2998
13.2103
14.1114
15.0004
15.8745
16.7309
17.5668
18.3795
19.1661
19.9242
20.6511
21.3449
22.0036
10.4666
11.3984
12.3262
13.2474
14.1592
15.0588
15.9436
16.8106
17.6569
18.4796
19.2758
20.0424
20.7768
21.4764
22.1391
10.4732
11.4182
12.3592
13.2937
14.2188
15.132
16.0302
16.9107
17.7703
18.606
19.4144
20.1924
20.9366
21.6441
22.3123
10.481
11.4418
12.3987
13.3491
14.2903
15.2197
16.1343
17.0312
17.9073
18.7591
19.5831
20.3756
21.1327
21.8507
22.5261
10.4902
11.4693
12.4446
13.4135
14.3736
15.3219
16.2559
17.1723
18.0681
18.9396
19.7829
20.5938
21.3674
22.0991
22.7843
10.5005
11.5004
12.4966
13.4867
14.4682
15.4384
16.3946
17.3338
18.2528
19.1479
20.0148
20.8486
21.6436
22.3935
23.0919
10.5121
11.5352
12.5547
13.5684
14.5739
15.5686
16.5499
17.5151
18.461
19.3838
20.2793
21.1418
21.9644
22.7387
23.4556
10.5248
11.5733
12.6185
13.6582
14.6901
15.7119
16.7211
17.7154
18.6917
19.6468
20.5762
21.4742
22.3328
23.1408
23.8845
10.5386
11.6147
12.6878
13.7556
14.8161
15.8674
16.9071
17.9332
18.9434
19.9349
20.904
21.8456
22.7511
23.6068
24.3916
10.5534
11.6592
12.7621
13.8601
14.9514
16.034
17.1064
18.1667
19.2133
20.2448
21.259
22.2525
23.2187
24.1428
24.9952
10.5691
11.7065
12.8411
13.9712
15.0949
16.2108
17.3173
18.4133
19.4981
20.5715
21.634
22.6863
23.7276
24.7501
25.7211
10.5858
11.7565
12.9246
14.0883
15.2461
16.3966
17.5384
18.6708
19.7938
20.9086
22.0186
23.1303
24.2549
25.408
26.5943
22.3737
22.8671
23.3372
23.7841
24.2083
24.6106
24.9918
25.353
25.6953
26.02
26.3286
26.6225
26.9031
27.172
27.4307
27.6808
27.9235
28.1606
28.3932
28.6228
28.8507
29.0781
29.3062
29.5359
29.7682
30.0039
30.2438
30.4883
30.7379
30.9928
31.2532
31.5189
31.7899
32.0659
32.3465
32.6313
32.9197
33.2112
33.5051
33.8007
34.0971
34.3934
34.6888
34.9822
35.2728
35.5594
35.8413
36.1174
36.3871
36.6495
36.9038
37.1494
37.3855
37.6114
37.8264
38.0295
38.22
38.3969
38.5594
38.7066
38.8373
38.9508
39.0459
39.1216
39.1768
39.2103
39.2207
39.2065
39.1663
39.0983
39.0006
38.8712
38.708
38.5087
38.271
37.9924
37.6705
37.3027
36.8864
36.419
35.8981
35.321
34.6855
33.9894
33.2308
32.4083
31.5206
30.5671
29.5479
28.4632
22.4067
22.9001
23.3698
23.8161
24.2393
24.6403
25.02
25.3794
25.7198
26.0426
26.349
26.6407
26.9192
27.1859
27.4424
27.6903
27.931
28.166
28.3967
28.6244
28.8506
29.0763
29.3028
29.5312
29.7623
29.9971
30.2361
30.4801
30.7293
30.984
31.2444
31.5104
31.7817
32.0582
32.3394
32.6249
32.9142
33.2067
33.5016
33.7983
34.096
34.3937
34.6904
34.9853
35.2772
35.5652
35.8483
36.1256
36.3964
36.6598
36.9152
37.1618
37.399
37.626
37.8421
38.0464
38.2382
38.4165
38.5803
38.7288
38.861
38.9759
39.0725
39.1499
39.2068
39.2421
39.2546
39.2428
39.2051
39.1397
39.0449
38.9186
38.7586
38.5627
38.3285
38.0535
37.7353
37.3712
36.9587
36.495
35.9776
35.404
34.7716
34.0782
33.3219
32.5009
31.6142
30.6609
29.6409
28.5548
22.4733
22.9666
23.4356
23.8804
24.3017
24.7
25.0766
25.4325
25.7691
26.0877
26.3899
26.6773
26.9513
27.2136
27.4658
27.7094
27.9459
28.1768
28.4035
28.6275
28.8501
29.0725
29.296
29.5216
29.7503
29.983
30.2205
30.4632
30.7117
30.9661
31.2266
31.493
31.7651
32.0426
32.3251
32.6121
32.9031
33.1975
33.4945
33.7936
34.0937
34.3941
34.6937
34.9914
35.2861
35.5767
35.8624
36.1421
36.415
36.6805
36.9379
37.1865
37.4258
37.655
37.8734
38.0802
38.2745
38.4554
38.6219
38.7732
38.9082
39.0259
39.1256
39.2061
39.2665
39.3056
39.3222
39.3149
39.2822
39.2223
39.1333
39.0131
38.8596
38.6705
38.4433
38.1756
37.8648
37.5083
37.1033
36.6471
36.137
35.5703
34.9443
34.2565
33.5048
32.6873
31.8025
30.8496
29.8284
28.7391
22.5744
23.0677
23.5355
23.9782
24.3962
24.7905
25.1623
25.5127
25.8434
26.1558
26.4515
26.7322
26.9995
27.2552
27.5007
27.7378
27.9679
28.1926
28.4134
28.6317
28.8489
29.0663
29.2851
29.5065
29.7316
29.9612
30.1962
30.4372
30.6846
30.9386
31.1992
31.4664
31.7397
32.0189
32.3033
32.5925
32.886
33.1832
33.4835
33.7861
34.0901
34.3946
34.6985
35.0006
35.2996
35.5944
35.8838
36.167
36.4432
36.7117
36.972
37.2235
37.4659
37.6983
37.9202
38.1307
38.3288
38.5137
38.6843
38.8397
38.9788
39.1008
39.2048
39.2901
39.3555
39.4002
39.4229
39.4224
39.3972
39.3454
39.2651
39.1543
39.0106
38.8318
38.6153
38.3585
38.059
37.7138
37.3203
36.8756
36.3767
35.8207
35.2046
34.5257
33.7814
32.9694
32.0879
31.1357
30.1126
29.0187
22.7115
23.2049
23.6711
24.1106
24.5242
24.9128
25.2778
25.6207
25.9432
26.247
26.5339
26.8056
27.0638
27.3104
27.547
27.7753
27.9969
28.2133
28.4261
28.6367
28.8466
29.0571
29.2696
29.4853
29.7053
29.9308
30.1624
30.401
30.6469
30.9005
31.1615
31.4298
31.705
31.9864
32.2735
32.5658
32.8626
33.1635
33.468
33.7753
34.0846
34.3949
34.7048
35.013
35.318
35.6184
35.913
36.2008
36.4811
36.7534
37.0174
37.2726
37.5188
37.7555
37.9821
38.1975
38.401
38.5913
38.7674
38.9282
39.0727
39.2002
39.3099
39.4011
39.473
39.5249
39.5557
39.5642
39.5489
39.5081
39.4396
39.3414
39.211
39.046
38.8438
38.6018
38.3174
37.9877
37.6098
37.1808
36.6974
36.1564
35.5543
34.888
34.1543
33.3503
32.4738
31.5231
30.4976
29.3974
22.8871
23.3804
23.8445
24.2798
24.6873
25.0683
25.4244
25.7575
26.0693
26.3619
26.6373
26.8974
27.1441
27.3792
27.6045
27.8217
28.0324
28.2383
28.4409
28.6418
28.8424
29.0442
29.2485
29.4569
29.6704
29.8904
30.1177
30.3532
30.5974
30.8505
31.1123
31.3824
31.6602
31.9447
32.2353
32.5313
32.8322
33.1377
33.4473
33.7605
34.0767
34.3945
34.7125
35.029
35.3419
35.6497
35.9508
36.2442
36.5294
36.806
37.074
37.3334
37.5843
37.8262
38.0585
38.2805
38.4908
38.6881
38.8711
39.0387
39.1899
39.3239
39.4402
39.5385
39.6181
39.6787
39.7193
39.739
39.7362
39.7091
39.6557
39.5734
39.4599
39.3124
39.1283
38.9049
38.6396
38.3296
37.9718
37.563
37.0999
36.5786
35.9954
35.3462
34.6271
33.8346
32.9654
32.0173
30.989
29.8807
23.104
23.5974
24.0586
24.4884
24.888
25.259
25.6036
25.9239
26.2222
26.5008
26.762
27.0078
27.2402
27.4613
27.6728
27.8765
28.0741
28.2672
28.4575
28.6464
28.8356
29.0266
29.2209
29.42
29.6254
29.8384
30.0603
30.2919
30.5341
30.7869
31.0502
31.3231
31.6045
31.8932
32.1882
32.4887
32.7942
33.1047
33.4202
33.7405
34.0651
34.3926
34.7213
35.0487
35.3722
35.6894
35.9984
36.2984
36.5887
36.8696
37.1417
37.4054
37.6612
37.9092
38.1487
38.3788
38.5979
38.8041
38.9958
39.1715
39.3303
39.4717
39.5953
39.7012
39.7894
39.8597
39.9117
39.9446
39.9569
39.9468
39.9118
39.8492
39.7563
39.63
39.4679
39.2671
39.025
38.7389
38.4058
38.0223
37.5847
37.0888
36.5301
35.9037
35.2046
34.4279
33.5694
32.6257
31.5948
30.4763
23.3665
23.8599
24.3174
24.7398
25.1289
25.4871
25.8169
26.1212
26.4027
26.6642
26.908
27.1365
27.3519
27.5563
27.7514
27.9392
28.1213
28.2994
28.475
28.6498
28.8253
29.0033
29.1853
29.3731
29.5684
29.7727
29.9877
30.2146
30.4544
30.7074
30.9731
31.2504
31.5373
31.8318
32.1322
32.4376
32.7479
33.0634
33.3851
33.7133
34.048
34.388
34.7308
35.0728
35.4102
35.7395
36.0581
36.365
36.6603
36.9448
37.22
37.4875
37.7483
38.003
38.2513
38.4917
38.7221
38.9397
39.1421
39.3274
39.4946
39.6436
39.7745
39.8881
39.985
40.0657
40.1304
40.1785
40.2087
40.2189
40.2062
40.1674
40.0991
39.9981
39.8617
39.6873
39.4725
39.2146
38.911
38.5581
38.1521
37.6882
37.1612
36.5648
35.8926
35.138
34.295
33.3586
32.3255
31.1947
23.6801
24.1736
24.6259
25.0384
25.4138
25.7552
26.0663
26.3506
26.6115
26.852
27.0751
27.2833
27.4787
27.6637
27.8399
28.0093
28.1735
28.3341
28.4928
28.6511
28.8107
28.9733
29.1406
29.3147
29.4973
29.6908
29.897
30.1178
30.3548
30.6085
30.8785
31.1627
31.4581
31.7608
32.0681
32.3786
32.6929
33.0124
33.3393
33.6757
34.0223
34.3783
34.7402
35.1025
35.4589
35.8036
36.1334
36.4473
36.7461
37.0322
37.3084
37.5778
37.8428
38.1048
38.3639
38.6179
38.8634
39.0959
39.3116
39.5079
39.6839
39.84
39.9774
40.0976
40.2025
40.2935
40.3715
40.4366
40.4878
40.5225
40.537
40.5268
40.4876
40.4159
40.3089
40.1644
39.9805
39.755
39.4856
39.1691
38.8014
38.3774
37.8907
37.3337
36.6978
35.9742
35.154
34.2297
33.1958
32.05
24.0523
24.546
24.9911
25.3899
25.7467
26.0662
26.3534
26.6129
26.8486
27.0643
27.263
27.4474
27.62
27.7827
27.9374
28.086
28.2299
28.3709
28.5103
28.6497
28.7909
28.9355
29.0854
29.2428
29.4099
29.5895
29.7842
29.9969
30.2301
30.4853
30.7623
31.0582
31.3671
31.6822
31.9981
32.3133
32.6292
32.9495
33.279
33.6222
33.9821
34.3588
34.7477
35.1397
35.523
35.8882
36.2306
36.5499
36.849
37.1324
37.4054
37.6732
37.9403
38.2098
38.4823
38.7551
39.022
39.2751
39.5076
39.7163
39.9006
40.0621
40.2035
40.328
40.4387
40.5386
40.6298
40.7136
40.7893
40.8538
40.9019
40.9265
40.9216
40.8831
40.8087
40.6969
40.5469
40.3574
40.1268
39.8525
39.5306
39.1556
38.7202
38.2149
37.6283
36.9481
36.1617
35.2575
34.2259
33.0623
24.494
24.9879
25.422
25.8012
26.1324
26.4231
26.6798
26.9084
27.1139
27.3002
27.4706
27.6279
27.7745
27.9122
28.043
28.1684
28.2899
28.4089
28.5267
28.645
28.7652
28.8891
29.0185
29.1559
29.3038
29.4654
29.6446
29.8456
30.0727
30.3298
30.618
30.9338
31.2665
31.6012
31.9282
32.2458
32.5581
32.8723
33.1978
33.5434
33.9166
34.3205
34.7498
35.1883
35.6119
36.0043
36.3597
36.6805
36.9733
37.2464
37.5086
37.7682
38.033
38.309
38.5989
38.8994
39.1994
39.4823
39.7367
39.9584
40.1487
40.3117
40.4526
40.5767
40.6891
40.7946
40.8975
41.0008
41.1052
41.2076
41.2991
41.3672
41.4025
41.4008
41.3608
41.2831
41.1686
41.0176
40.8296
40.603
40.3347
40.0194
39.6491
39.2118
38.6923
38.0736
37.338
36.4673
35.4448
34.2602
25.0218
25.5151
25.9313
26.2808
26.5759
26.8279
27.0458
27.2366
27.406
27.5581
27.6963
27.8231
27.9408
28.0511
28.1556
28.2556
28.3526
28.4475
28.5418
28.6366
28.7334
28.8337
28.9394
29.0528
29.1769
29.3152
29.4727
29.6555
29.8713
30.1284
30.4331
30.7839
31.162
31.5302
31.871
32.1851
32.4829
32.7781
33.0864
33.4237
33.8059
34.2443
34.7375
35.2569
35.7448
36.1724
36.5374
36.8501
37.1246
37.3749
37.6141
37.8545
38.1083
38.387
38.6989
39.0431
39.3999
39.7294
40.0115
40.2444
40.4348
40.5919
40.7246
40.8408
40.948
41.0531
41.1632
41.2849
41.4229
41.5756
41.7286
41.8536
41.9356
41.972
41.9657
41.921
41.8414
41.7296
41.5865
41.4122
41.2051
40.9612
40.6729
40.3258
39.8977
39.3663
38.7077
37.8943
36.8961
35.6883
25.6636
26.1525
26.5357
26.8379
27.0809
27.2811
27.4498
27.595
27.7221
27.8353
27.9373
28.0306
28.1168
28.1974
28.2736
28.3465
28.4171
28.4864
28.5552
28.6246
28.6956
28.7697
28.8484
28.9337
29.0284
29.1364
29.2633
29.417
29.6096
29.8576
30.181
30.5936
31.0707
31.4977
31.851
32.147
32.4101
32.6642
32.932
33.2384
33.6129
34.0883
34.6864
35.3697
35.9634
36.4295
36.7892
37.0735
37.3096
37.5182
37.7165
37.9202
38.1466
38.4159
38.7511
39.1672
39.6384
40.0434
40.3559
40.5901
40.7674
40.9057
41.0187
41.1167
41.2085
41.3031
41.4107
41.544
41.7179
41.9417
42.197
42.4003
42.5329
42.6032
42.6245
42.6075
42.5594
42.485
42.387
42.2672
42.1268
41.9657
41.7801
41.5549
41.2505
40.8408
40.2989
39.5861
38.648
37.422
26.4757
26.9415
27.2561
27.4793
27.6467
27.7787
27.8869
27.9784
28.0576
28.1275
28.1903
28.2474
28.3
28.3491
28.3955
28.4399
28.4828
28.5249
28.5668
28.6092
28.6527
28.6982
28.7468
28.8
28.8599
28.9297
29.0142
29.1218
29.2672
29.477
29.7995
30.3095
31.0506
31.5702
31.9126
32.1551
32.3495
32.5292
32.7208
32.9541
33.2736
33.7544
34.5114
35.6104
36.3643
36.8389
37.148
37.3653
37.5328
37.6752
37.8098
37.9521
38.1216
38.3487
38.6853
39.2107
39.9708
40.4893
40.8116
41.0165
41.1547
41.2547
41.333
41.3999
41.4637
41.5329
41.6195
41.7435
41.9395
42.2611
42.7387
43.0477
43.2183
43.3035
43.337
43.3372
43.314
43.2729
43.2174
43.1506
43.0769
43.0038
42.9431
42.8967
42.7535
42.5043
42.1347
41.6011
40.8133
39.614
27.604
27.9473
28.1075
28.2
28.2627
28.3097
28.3473
28.3787
28.4056
28.4293
28.4505
28.4697
28.4874
28.5039
28.5195
28.5344
28.5488
28.5629
28.577
28.5912
28.6059
28.6212
28.6377
28.6558
28.6764
28.7007
28.7309
28.7712
28.8309
28.9335
29.1469
29.6917
31.3486
31.8967
32.1172
32.2314
32.3089
32.3762
32.4487
32.5444
32.7008
33.0219
33.8425
36.3468
37.1664
37.4852
37.6378
37.7276
37.7907
37.8422
37.8907
37.9436
38.0124
38.1226
38.3462
38.9151
40.6497
41.2162
41.4349
41.5375
41.5955
41.6337
41.6623
41.6863
41.7096
41.7361
41.7732
41.8379
41.979
42.3542
43.5218
43.8927
44.0252
44.0769
44.096
44.0991
44.0928
44.08
44.0625
44.0425
44.0246
44.0227
44.0837
44.3767
44.4075
44.3397
44.2053
43.9809
43.5694
42.6609
27.1994
25.7309
24.1763
22.5408
20.8301
19.0504
17.2085
15.3112
13.3654
11.3781
9.35599
7.30571
5.23373
3.14636
1.04981
27.2884
25.8159
24.2565
22.6153
20.8983
19.112
17.2633
15.3591
13.4065
11.4125
9.38384
7.32717
5.24894
3.15544
1.05282
27.4675
25.987
24.4176
22.7648
21.0352
19.2355
17.3729
15.4549
13.4886
11.4811
9.43937
7.36993
5.27924
3.17352
1.05883
27.739
26.246
24.6611
22.9905
21.2413
19.421
17.5375
15.5984
13.6114
11.5837
9.52225
7.4337
5.3244
3.20045
1.06778
28.1064
26.5961
24.9896
23.2941
21.5178
19.6692
17.7569
15.7894
13.7744
11.7196
9.63191
7.51798
5.38403
3.23599
1.07959
28.5749
27.0415
25.4061
23.6776
21.8658
19.9804
18.0311
16.0272
13.9768
11.8879
9.76749
7.62202
5.45756
3.27979
1.09413
29.1514
27.5878
25.9148
24.1438
22.2865
20.3547
18.3595
16.3107
14.2174
12.0874
9.92777
7.74479
5.54422
3.33136
1.11125
29.8453
28.2424
26.5208
24.6953
22.7809
20.7918
18.7406
16.6383
14.4941
12.3161
10.1111
7.8849
5.64297
3.39008
1.13074
30.669
29.0146
27.2299
25.3349
23.3493
21.2903
19.1723
17.0071
14.8043
12.5714
10.3151
8.04053
5.7525
3.45514
1.15231
31.6396
29.9162
28.0482
26.0644
23.9904
21.847
19.6505
17.413
15.1438
12.8499
10.5369
8.20939
5.87115
3.52555
1.17566
32.7805
30.9614
28.9814
26.883
24.6998
22.4562
20.1691
17.8501
15.5075
13.147
10.7729
8.38868
5.99696
3.60016
1.20038
34.1252
32.1663
30.0321
27.7856
25.4689
23.1081
20.7187
18.3103
15.8885
13.4572
11.0188
8.57514
6.12767
3.67761
1.22604
35.7223
33.5455
31.1941
28.7574
26.2813
23.7877
21.2868
18.7831
16.2786
13.774
11.2695
8.76512
6.26078
3.75647
1.25216
37.6409
35.098
32.4403
29.7677
27.1102
24.4738
21.8568
19.2561
16.6683
14.0903
11.5198
8.95474
6.39366
3.8352
1.27824
39.9486
36.7642
33.7002
30.7619
27.9172
25.1395
22.41
19.7157
17.0474
14.3986
11.7641
9.14013
6.5237
3.9123
1.30379
10.6018
11.8046
13.0049
14.201
15.3913
16.5745
17.7493
18.915
20.0719
21.2217
22.3692
23.525
24.7114
25.98
27.4716
10.617
11.8501
13.0807
14.3073
15.5282
16.7419
17.9471
19.1429
20.3293
21.5074
22.6817
23.8619
25.069
26.3445
27.763
10.6327
11.8972
13.1593
14.4174
15.6698
16.9149
18.1511
19.3772
20.592
21.7955
22.9896
24.1798
25.3787
26.6091
27.9021
10.6489
11.9459
13.2406
14.5313
15.8163
17.0938
18.362
19.6188
20.8622
22.0898
23.2998
24.4913
25.6658
26.8298
27.9948
10.6657
11.9963
13.3246
14.649
15.9678
17.279
18.5805
19.8696
21.1429
22.396
23.6225
24.814
25.9597
27.0492
28.0812
10.683
12.0481
13.4112
14.7704
16.1243
17.4707
18.8073
20.131
21.4374
22.7201
23.969
25.168
26.2922
27.3079
28.1886
10.7007
12.1015
13.5002
14.8955
16.2857
17.669
19.0428
20.4041
21.748
23.0673
24.3497
25.5736
26.6996
27.6597
28.3613
10.7189
12.1561
13.5916
15.024
16.4519
17.8735
19.2868
20.6888
22.0753
23.4396
24.7706
26.0465
27.2216
28.1904
28.7149
10.7375
12.2119
13.6849
15.1554
16.6221
18.0837
19.5384
20.984
22.4175
23.8347
25.2292
26.589
27.8863
29.0291
29.6175
10.7563
12.2687
13.7799
15.2892
16.7957
18.2983
19.7959
21.2872
22.7706
24.2452
25.7113
27.1744
28.6576
30.2523
32.3668
10.7755
12.3261
13.8761
15.4248
16.9717
18.5162
20.0576
21.5954
23.1296
24.6612
26.195
27.7453
29.3508
31.1137
33.2785
10.7947
12.384
13.973
15.5615
17.1492
18.7359
20.3215
21.9059
23.4898
25.0751
26.6668
28.2772
29.9342
31.6955
33.6536
10.814
12.4421
14.0702
15.6986
17.3272
18.9562
20.5858
22.2163
23.8486
25.484
27.1251
28.7762
30.4445
32.1398
33.8697
10.8333
12.5
14.1672
15.8353
17.5046
19.1757
20.849
22.5252
24.2048
25.8886
27.5758
29.2626
30.9355
32.5595
34.0684
10.8524
12.5574
14.2634
15.9709
17.6807
19.3934
21.11
22.8312
24.5578
26.2901
28.0262
29.758
31.4597
33.0583
34.3723
10.8713
12.6142
14.3584
16.1048
17.8544
19.6082
21.3673
23.133
24.9064
26.6886
28.4791
30.2737
32.0547
33.7539
35.0682
10.8898
12.67
14.4518
16.2364
18.025
19.8189
21.6197
23.4289
25.2485
27.0807
28.9286
30.7981
32.706
34.716
37.1226
10.908
12.7245
14.543
16.3649
18.1916
20.0247
21.8659
23.7173
25.5813
27.4613
29.3624
31.2952
33.2856
35.4019
37.8157
10.9256
12.7776
14.6318
16.4899
18.3535
20.2244
22.1046
23.9964
25.9026
27.8267
29.7736
31.7517
33.7769
35.8806
38.1147
10.9427
12.829
14.7179
16.6109
18.5101
20.4173
22.3348
24.2651
26.211
28.1757
30.1626
32.1749
34.2129
36.2678
38.3103
10.9593
12.8787
14.8008
16.7275
18.6608
20.6028
22.5559
24.5226
26.5058
28.5086
30.5333
32.5795
34.6365
36.6628
38.541
10.9751
12.9263
14.8804
16.8393
18.8052
20.7803
22.767
24.7681
26.7865
28.8257
30.8884
32.9759
35.0805
37.16
39.0132
10.9903
12.9719
14.9564
16.9461
18.9429
20.9493
22.9677
25.001
27.0524
29.1258
31.2258
33.3596
35.5411
37.8134
40.3655
11.0047
13.0153
15.0288
17.0476
19.0738
21.1096
23.1577
25.2209
27.3026
29.4067
31.5391
33.7095
35.9379
38.2715
40.8211
11.0185
13.0564
15.0975
17.1438
19.1976
21.2611
23.3369
25.4276
27.5365
29.6674
31.8253
34.0184
36.2608
38.5789
41.0113
11.0314
13.0953
15.1624
17.2346
19.3143
21.4037
23.5051
25.6212
27.7547
29.9086
32.0864
34.2922
36.5305
38.8058
41.1188
11.0437
13.132
15.2234
17.3201
19.4241
21.5376
23.6629
25.8022
27.9581
30.1327
32.3275
34.5426
36.7735
39.0058
41.2101
11.0551
13.1664
15.2808
17.4002
19.5269
21.6629
23.8103
25.9713
28.148
30.342
32.5538
34.7814
37.0147
39.2243
41.3365
11.0659
13.1986
15.3344
17.4752
19.623
21.7799
23.9479
26.1291
28.3253
30.5382
32.7686
35.0154
37.2716
39.5095
41.6094
11.0759
13.2286
15.3843
17.545
19.7125
21.8888
24.076
26.2759
28.4905
30.7216
32.9712
35.242
37.5404
39.8896
42.3995
11.0852
13.2565
15.4307
17.6097
19.7955
21.9899
24.1948
26.4121
28.6436
30.8916
33.1584
35.4488
37.7729
40.1572
42.6658
11.0938
13.2823
15.4736
17.6696
19.8723
22.0833
24.3045
26.5378
28.7849
31.0477
33.3286
35.6313
37.9629
40.3375
42.7773
11.1017
13.306
15.513
17.7247
19.9429
22.1692
24.4055
26.6534
28.9146
31.1907
33.4829
35.7929
38.1221
40.4717
42.8409
11.1089
13.3277
15.5491
17.7751
20.0075
22.2478
24.4979
26.7593
29.0335
31.3217
33.6242
35.9404
38.2663
40.5915
42.8962
11.1155
13.3474
15.5819
17.8209
20.0662
22.3193
24.582
26.8558
29.1422
31.442
33.7554
36.0804
38.4101
40.7244
42.975
11.1214
13.3651
15.6114
17.8622
20.1191
22.3838
24.658
26.9432
29.2409
31.5522
33.8777
36.2165
38.5637
40.9008
43.1492
11.1267
13.3809
15.6377
17.8989
20.1662
22.4413
24.7258
27.0213
29.3295
31.6519
33.99
36.3458
38.7235
41.1378
43.6592
11.1313
13.3948
15.6608
17.9313
20.2077
22.4919
24.7855
27.0902
29.4078
31.74
34.0893
36.4592
38.8569
41.2996
43.8279
11.1353
13.4067
15.6808
17.9591
20.2435
22.5356
24.8371
27.1497
29.4752
31.8157
34.1736
36.5524
38.9581
41.4009
43.8944
11.1387
13.4168
15.6976
17.9826
20.2736
22.5723
24.8804
27.1996
29.5317
31.8787
34.2426
36.6262
39.0328
41.466
43.9266
11.1414
13.425
15.7112
18.0017
20.2981
22.6022
24.9156
27.2401
29.5773
31.9292
34.2973
36.6833
39.0882
41.5111
43.9465
11.1435
13.4314
15.7218
18.0164
20.317
22.6252
24.9427
27.2712
29.6123
31.9677
34.3387
36.7264
39.1302
41.5465
43.9644
11.145
13.4358
15.7292
18.0268
20.3303
22.6414
24.9617
27.2929
29.6367
31.9947
34.368
36.7576
39.1628
41.5797
43.9929
11.1459
13.4385
15.7336
18.0329
20.3381
22.6508
24.9727
27.3055
29.6508
32.0102
34.3852
36.777
39.1864
41.6145
44.0683
11.1461
13.4392
15.7349
18.0347
20.3403
22.6534
24.9757
27.3089
29.6545
32.0144
34.3901
36.7834
39.1962
41.6306
44.0901
11.1458
13.4382
15.7331
18.0321
20.337
22.6493
24.9708
27.303
29.6478
32.0069
34.3821
36.7756
39.19
41.6284
44.0925
11.1448
13.4353
15.7283
18.0253
20.3282
22.6385
24.9578
27.288
29.6306
31.9875
34.3606
36.7524
39.1663
41.6075
44.082
11.1433
13.4306
15.7204
18.0143
20.314
22.621
24.937
27.2638
29.6029
31.9562
34.3254
36.713
39.1227
41.5626
44.0513
11.1411
13.4241
15.7096
17.9991
20.2943
22.5968
24.9083
27.2305
29.5649
31.9132
34.2769
36.6576
39.0573
41.4829
43.9674
11.1383
13.4158
15.6958
17.9797
20.2693
22.5661
24.8718
27.1881
29.5166
31.8588
34.2159
36.588
38.9732
41.3613
43.711
11.135
13.4058
15.679
17.9561
20.2389
22.5288
24.8276
27.1369
29.4583
31.7935
34.1436
36.5088
38.8861
41.2656
43.621
11.1311
13.394
15.6593
17.9285
20.2032
22.485
24.7756
27.0767
29.39
31.7173
34.0603
36.4202
38.7968
41.1858
43.5763
11.1266
13.3805
15.6368
17.8969
20.1623
22.4348
24.7159
27.0075
29.3113
31.6295
33.9646
36.3194
38.6979
41.104
43.5392
11.1215
13.3654
15.6114
17.8612
20.1163
22.3782
24.6486
26.9293
29.2221
31.5295
33.8544
36.2015
38.579
41.0013
43.489
11.1159
13.3486
15.5833
17.8217
20.0653
22.3154
24.5738
26.8421
29.1223
31.4166
33.7281
36.0618
38.4281
40.8522
43.3929
11.1098
13.3302
15.5526
17.7785
20.0093
22.2465
24.4916
26.7463
29.0122
31.2913
33.5857
35.8986
38.2364
40.6213
43.154
11.1032
13.3103
15.5193
17.7316
19.9487
22.1718
24.4024
26.6421
28.8924
31.1547
33.43
35.7174
38.0113
40.2868
42.4349
11.0961
13.2889
15.4836
17.6813
19.8835
22.0915
24.3065
26.5301
28.7638
31.0086
33.265
35.5311
37.7982
40.0399
42.1899
11.0885
13.2661
15.4455
17.6278
19.8142
22.0059
24.2043
26.4108
28.6268
30.8538
33.0928
35.3435
37.6019
39.8558
42.0798
11.0805
13.2421
15.4053
17.5712
19.7408
21.9154
24.0961
26.2844
28.4818
30.6901
32.9117
35.1497
37.4081
39.6918
42.003
11.0721
13.2169
15.3631
17.5117
19.6637
21.8202
23.9823
26.1513
28.3287
30.5167
32.7187
34.941
37.1961
39.5079
41.9136
11.0634
13.1906
15.3191
17.4497
19.5833
21.7209
23.8634
26.0118
28.1677
30.333
32.511
34.709
36.9438
39.2581
41.7531
11.0543
13.1633
15.2735
17.3854
19.5
21.6179
23.7399
25.8669
27.9998
30.1399
32.2889
34.4507
36.6357
38.8819
41.3605
11.045
13.1352
15.2264
17.3191
19.414
21.5116
23.6125
25.7173
27.8265
29.94
32.0574
34.1757
36.2843
38.3437
40.179
11.0354
13.1064
15.1782
17.2512
19.3259
21.4028
23.4822
25.5644
27.6495
29.737
31.8248
33.9067
35.9665
37.9604
39.7836
11.0256
13.077
15.129
17.1819
19.2361
21.2919
23.3495
25.4091
27.4706
29.5333
31.5955
33.6526
35.6936
37.6949
39.6169
11.0157
13.0471
15.079
17.1116
19.145
21.1795
23.2151
25.2521
27.2903
29.3295
31.3693
33.4091
35.4477
37.4837
39.5158
11.0056
13.0169
15.0285
17.0404
19.0529
21.0659
23.0796
25.0938
27.1088
29.1247
31.1426
33.1658
35.2031
37.2747
39.4163
10.9955
12.9864
14.9775
16.9687
18.9601
20.9517
22.9432
24.9348
26.9263
28.9181
30.9117
32.9122
34.9339
37.0163
39.2565
10.9853
12.9558
14.9263
16.8968
18.8671
20.8371
22.8066
24.7754
26.7431
28.7097
30.6756
32.6433
34.6219
36.6476
38.8829
10.9751
12.9251
14.8751
16.8248
18.774
20.7226
22.6702
24.6163
26.5603
28.5014
30.4378
32.3662
34.2766
36.1327
37.7732
10.9648
12.8945
14.8239
16.7529
18.6812
20.6086
22.5345
24.4583
26.3792
28.2958
30.2051
32.1012
33.9684
35.767
37.4007
10.9547
12.8639
14.7729
16.6813
18.5889
20.4953
22.3999
24.3021
26.2008
28.0947
29.9812
31.8556
33.7074
35.5152
37.2436
10.9445
12.8335
14.7221
16.6102
18.4973
20.383
22.2668
24.1479
26.0254
27.8982
29.7653
31.6251
33.4764
35.3179
37.1494
10.9344
12.8032
14.6717
16.5395
18.4064
20.2719
22.1352
23.9958
25.8528
27.7055
29.5539
31.4001
33.2517
35.1269
37.059
10.9244
12.7731
14.6215
16.4694
18.3163
20.1619
22.0054
23.846
25.6828
27.5153
29.3435
31.171
33.01
34.8959
36.9166
10.9144
12.7432
14.5717
16.3998
18.2271
20.0531
21.8772
23.6984
25.5156
27.3276
29.1332
30.9333
32.7351
34.5707
36.5859
10.9045
12.7133
14.5221
16.3305
18.1385
19.9454
21.7507
23.5533
25.3518
27.1438
28.9263
30.6941
32.4364
34.1202
35.604
10.8945
12.6835
14.4725
16.2616
18.0504
19.8387
21.6259
23.4109
25.192
26.9663
28.7293
30.4721
32.1777
33.808
35.2786
10.8845
12.6536
14.4229
16.1926
17.9625
19.7326
21.5023
23.2708
25.0365
26.7965
28.5457
30.2756
31.9709
33.6064
35.1486
10.8744
12.6235
14.373
16.1232
17.8743
19.6264
21.3793
23.1325
24.8847
26.6336
28.3752
30.1026
31.8052
33.4689
35.0832
10.8643
12.593
14.3225
16.0531
17.7853
19.5195
21.2559
22.9945
24.7348
26.4756
28.2142
29.9465
31.6659
33.3654
35.0416
10.8539
12.562
14.2711
15.9818
17.6948
19.4109
21.1307
22.8551
24.5843
26.3186
28.0573
29.7988
31.5401
33.2777
35.0091
10.8433
12.5303
14.2184
15.9087
17.602
19.2994
21.0022
22.7119
24.43
26.1582
27.8981
29.6508
31.4165
33.1937
34.9789
10.8324
12.4976
14.1643
15.8334
17.5061
19.184
20.8687
22.5626
24.2684
25.9894
27.7297
29.4934
31.2843
33.1036
34.9465
10.8212
12.464
14.1084
15.7554
17.4066
19.0636
20.7287
22.4048
24.0958
25.8069
27.5445
29.3167
31.1321
32.9967
34.9069
10.8096
12.4292
14.0505
15.6745
17.3028
18.9374
20.5808
22.2364
23.9091
25.6056
27.335
29.1097
30.9453
32.8576
34.8517
10.7976
12.3933
13.9906
15.5905
17.1946
18.8049
20.4241
22.0559
23.7056
25.3811
27.0936
28.8599
30.7047
32.6614
34.7626
10.7853
12.3563
13.9287
15.5034
17.0819
18.6661
20.2584
21.8626
23.484
25.1306
26.8145
28.5553
30.3859
32.3644
34.5903
10.7727
12.3184
13.8651
15.4136
16.9652
18.5214
20.0842
21.6571
23.2446
24.8538
26.4956
28.188
29.964
31.8953
34.1818
42.2696
38.1799
34.7387
31.5864
28.5948
25.7048
22.884
20.1124
17.3767
14.6675
11.978
9.3029
6.6381
3.98022
1.32631
43.0034
39.0158
35.4814
32.2237
29.1394
26.17
23.2802
20.4477
17.6572
14.8981
12.1622
9.44351
6.73716
4.03911
1.34585
43.3091
39.5359
36.0311
32.7398
29.6037
26.5792
23.6361
20.7533
17.9156
15.1121
12.3341
9.57533
6.8303
4.09459
1.36427
43.4626
39.8687
36.4318
33.1474
29.9897
26.9313
23.9496
21.027
18.1499
15.3079
12.4925
9.69735
6.91682
4.14624
1.38145
43.5525
40.0916
36.7255
33.4664
30.3059
27.2294
24.2215
21.2686
18.3595
15.4847
12.6367
9.80898
6.99626
4.19378
1.39727
43.611
40.2477
36.9442
33.7159
30.5632
27.4793
24.4546
21.4794
18.5447
15.6426
12.7663
9.90999
7.06844
4.23709
1.41171
43.6521
40.3611
37.1098
33.9121
30.772
27.6874
24.6528
21.6616
18.7068
15.7822
12.8819
10.0005
7.13338
4.27615
1.42474
43.6821
40.4462
37.2374
34.0674
30.9416
27.8602
24.8204
21.8178
18.8476
15.9046
12.9839
10.0809
7.1913
4.31108
1.43641
43.7049
40.5114
37.337
34.1914
31.0796
28.0033
24.9614
21.9512
18.9691
16.0111
13.0733
10.1517
7.24254
4.34206
1.44678
43.7225
40.5622
37.4158
34.2909
31.1923
28.122
25.0799
22.0645
19.0733
16.1033
13.1512
10.2138
7.28755
4.36935
1.45592
43.7364
40.6025
37.4788
34.3714
31.2845
28.2203
25.1792
22.1604
19.1623
16.1826
13.2187
10.2677
7.32685
4.39322
1.46392
43.7475
40.6348
37.5296
34.4369
31.3603
28.3019
25.2624
22.2415
19.2381
16.2506
13.2768
10.3144
7.36096
4.41399
1.4709
43.7564
40.6608
37.5708
34.4905
31.4228
28.3697
25.332
22.3099
19.3025
16.3087
13.3267
10.3546
7.39044
4.43197
1.47694
43.7636
40.6819
37.6044
34.5344
31.4744
28.426
25.3903
22.3675
19.3571
16.3581
13.3693
10.3891
7.41579
4.44746
1.48215
43.7695
40.6992
37.632
34.5706
31.517
28.4729
25.4391
22.416
19.4032
16.4001
13.4056
10.4186
7.43751
4.46075
1.48662
43.7743
40.7134
37.6547
34.6004
31.5524
28.512
25.48
22.4567
19.4421
16.4356
13.4365
10.4438
7.45607
4.47212
1.49045
43.7783
40.7251
37.6734
34.6251
31.5818
28.5445
25.5141
22.4909
19.4749
16.4657
13.4627
10.4651
7.47186
4.48181
1.49371
43.7816
40.7347
37.6889
34.6456
31.6062
28.5717
25.5427
22.5196
19.5025
16.4911
13.4849
10.4832
7.48525
4.49003
1.49649
43.7843
40.7427
37.7017
34.6626
31.6265
28.5943
25.5665
22.5436
19.5256
16.5124
13.5035
10.4985
7.49659
4.497
1.49884
43.7865
40.7493
37.7123
34.6766
31.6433
28.6131
25.5864
22.5637
19.545
16.5303
13.5192
10.5114
7.50614
4.50288
1.50082
43.7883
40.7547
37.721
34.6883
31.6573
28.6287
25.6029
22.5804
19.5612
16.5453
13.5324
10.5222
7.51416
4.50781
1.50249
43.7899
40.7592
37.7282
34.6979
31.6688
28.6416
25.6167
22.5943
19.5747
16.5578
13.5434
10.5312
7.52087
4.51194
1.50388
43.7911
40.7628
37.7342
34.7058
31.6783
28.6522
25.628
22.6058
19.5859
16.5681
13.5525
10.5387
7.52644
4.51537
1.50504
43.7921
40.7658
37.739
34.7122
31.6861
28.661
25.6373
22.6152
19.595
16.5766
13.5599
10.5448
7.53102
4.5182
1.506
43.7929
40.7683
37.7429
34.7174
31.6923
28.668
25.6448
22.6229
19.6024
16.5835
13.566
10.5498
7.53476
4.5205
1.50677
43.7936
40.7702
37.746
34.7216
31.6973
28.6736
25.6507
22.6289
19.6084
16.589
13.5709
10.5538
7.53774
4.52235
1.5074
43.7941
40.7717
37.7484
34.7248
31.7012
28.6779
25.6554
22.6337
19.613
16.5933
13.5747
10.557
7.54006
4.52378
1.50788
43.7945
40.7728
37.7502
34.7271
31.704
28.6811
25.6588
22.6371
19.6164
16.5965
13.5775
10.5593
7.54179
4.52485
1.50824
43.7947
40.7735
37.7513
34.7287
31.7059
28.6833
25.6611
22.6395
19.6187
16.5986
13.5794
10.5609
7.54298
4.52558
1.50849
43.7948
40.7739
37.752
34.7296
31.707
28.6845
25.6624
22.6408
19.62
16.5999
13.5805
10.5618
7.54365
4.526
1.50863
43.7949
40.774
37.7521
34.7297
31.7072
28.6848
25.6627
22.6412
19.6203
16.6002
13.5808
10.562
7.54385
4.52612
1.50867
43.7948
40.7737
37.7517
34.7292
31.7066
28.6841
25.662
22.6405
19.6197
16.5996
13.5803
10.5616
7.54356
4.52595
1.50862
43.7946
40.7731
37.7508
34.728
31.7051
28.6825
25.6603
22.6388
19.6181
16.5981
13.579
10.5606
7.54279
4.52548
1.50846
43.7943
40.7722
37.7492
34.726
31.7027
28.6798
25.6575
22.636
19.6154
16.5957
13.5769
10.5589
7.54153
4.5247
1.5082
43.7938
40.7708
37.7471
34.7231
31.6993
28.6761
25.6536
22.6321
19.6117
16.5923
13.5739
10.5565
7.53974
4.5236
1.50783
43.7932
40.769
37.7442
34.7193
31.6948
28.6711
25.6484
22.627
19.6067
16.5878
13.57
10.5533
7.53739
4.52216
1.50734