/*--------------------------------*- C++ -*----------------------------------*\
| =========                 |                                                 |
| \\      /  F ield         | OpenFOAM: The Open Source CFD Toolbox           |
|  \\    /   O peration     | Version:  5.x                                   |
|   \\  /    A nd           | Web:      www.OpenFOAM.org                      |
|    \\/     M anipulation  |                                                 |
\*---------------------------------------------------------------------------*/
FoamFile
{
    version     2.0;
    format      ascii;
    class       volScalarField;
    location    "6.9";
    object      T;
}
// * * * * * * * * * * * * * * * * * * * * * * * * * * * * * * * * * * * * * //

dimensions      [0 0 0 1 0 0 0];

internalField   nonuniform List<scalar> 
6300
(
13.0673
19.193
25.292
31.3465
37.3384
43.2499
49.0627
54.7588
60.3204
65.7299
70.9704
76.0261
80.8827
85.5277
89.9512
13.076
19.2193
25.3359
31.408
37.4177
43.347
49.1776
54.8915
60.4703
65.8964
71.1525
76.2224
81.0912
85.7459
90.1763
13.0935
19.2718
25.4235
31.531
37.5763
43.5413
49.4077
55.157
60.7708
66.2305
71.5182
76.6169
81.5105
86.1852
90.6297
13.1197
19.3504
25.5548
31.7153
37.814
43.8328
49.7532
55.5563
61.223
66.7341
72.0704
77.2134
82.1457
86.8515
91.318
13.1545
19.4548
25.7293
31.9604
38.1305
44.2213
50.2141
56.0899
61.8286
67.4099
72.8132
78.0178
83.004
87.7536
92.2514
13.1977
19.5847
25.9464
32.2657
38.5249
44.7061
50.7905
56.7585
62.5893
68.2613
73.7519
79.0378
84.0958
88.9043
93.4442
13.2492
19.7396
26.2053
32.6299
38.9961
45.2863
51.4816
57.5621
63.5065
69.2916
74.8925
80.2825
85.434
90.32
94.916
13.3088
19.9185
26.5047
33.0515
39.5422
45.9597
52.2856
58.4999
64.5807
70.5036
76.2411
81.7626
87.0345
92.0221
96.6926
13.376
20.1205
26.8429
33.528
40.1603
46.7233
53.1993
59.569
65.8104
71.8984
77.803
83.4891
88.9158
94.0376
98.8086
13.4504
20.3443
27.2176
34.0565
40.8464
47.5722
54.2175
60.7642
67.1913
73.4737
79.5803
85.4719
91.0987
96.4003
101.31
13.5314
20.5881
27.6261
34.6328
41.5952
48.4999
55.3324
62.0768
68.7143
75.222
81.5697
87.7161
93.6031
99.1511
104.26
13.6186
20.8501
28.0651
35.2523
42.4005
49.4982
56.5336
63.4939
70.3645
77.1274
83.7574
90.2164
96.4429
102.337
107.748
13.7111
21.1283
28.5311
35.9097
43.2548
50.5571
57.8079
64.9984
72.1199
79.1627
86.1128
92.9457
99.6111
106.002
111.904
13.8083
21.4206
29.0204
36.5995
44.1504
51.6659
59.1403
66.5694
73.9514
81.2876
88.5821
95.8391
103.05
110.152
116.908
13.9095
21.7249
29.5295
37.3166
45.0798
52.8141
60.516
68.1851
75.826
83.451
91.0854
98.7749
106.594
114.643
122.938
93.7964
97.1309
100.304
103.315
106.169
108.868
111.419
113.828
116.102
118.25
120.281
122.203
124.027
125.762
127.418
129.005
130.53
132.005
133.437
134.835
136.206
137.559
138.9
140.236
141.572
142.913
144.263
145.626
147.003
148.397
149.808
151.236
152.68
154.138
155.609
157.091
158.58
160.075
161.57
163.064
164.552
166.03
167.494
168.939
170.361
171.756
173.12
174.448
175.738
176.985
178.188
179.342
180.445
181.494
182.485
183.415
184.281
185.079
185.805
186.454
187.024
187.508
187.904
188.205
188.407
188.505
188.492
188.361
188.105
187.716
187.185
186.503
185.66
184.646
183.448
182.056
180.458
178.643
176.597
174.309
171.766
168.959
165.874
162.503
158.837
154.868
150.592
146.005
141.108
135.902
94.025
97.3602
100.531
103.539
106.387
109.078
111.62
114.017
116.279
118.414
120.432
122.34
124.15
125.872
127.514
129.086
130.599
132.061
133.481
134.867
136.228
137.571
138.903
140.23
141.559
142.894
144.239
145.599
146.974
148.367
149.778
151.207
152.653
154.114
155.588
157.074
158.567
160.066
161.567
163.066
164.56
166.044
167.514
168.966
170.394
171.795
173.164
174.497
175.792
177.044
178.251
179.409
180.516
181.57
182.566
183.501
184.373
185.176
185.908
186.563
187.139
187.63
188.032
188.341
188.551
188.658
188.654
188.534
188.29
187.913
187.396
186.729
185.901
184.902
183.721
182.346
180.766
178.967
176.939
174.668
172.143
169.351
166.281
162.923
159.266
155.305
151.033
146.447
141.546
136.334
94.4853
97.8221
100.99
103.99
106.825
109.5
112.022
114.397
116.635
118.744
120.734
122.614
124.396
126.09
127.704
129.249
130.736
132.172
133.567
134.93
136.269
137.592
138.906
140.217
141.531
142.854
144.19
145.543
146.914
148.305
149.716
151.147
152.597
154.064
155.545
157.038
158.541
160.049
161.56
163.07
164.575
166.072
167.555
169.019
170.46
171.872
173.253
174.596
175.9
177.161
178.376
179.543
180.659
181.721
182.727
183.673
184.555
185.37
186.113
186.78
187.368
187.872
188.288
188.612
188.838
188.962
188.977
188.878
188.658
188.307
187.817
187.179
186.381
185.414
184.267
182.926
181.38
179.617
177.624
175.389
172.897
170.137
167.097
163.765
160.13
156.185
151.922
147.337
142.43
137.203
95.1845
98.5235
101.686
104.673
107.489
110.139
112.63
114.971
117.171
119.24
121.188
123.026
124.765
126.416
127.988
129.493
130.939
132.337
133.695
135.023
136.329
137.621
138.907
140.193
141.486
142.79
144.112
145.454
146.818
148.207
149.619
151.055
152.512
153.987
155.479
156.984
158.499
160.021
161.547
163.074
164.598
166.113
167.615
169.099
170.56
171.99
173.387
174.746
176.064
177.337
178.564
179.743
180.872
181.948
182.968
183.929
184.828
185.659
186.42
187.106
187.712
188.235
188.671
189.015
189.265
189.415
189.459
189.392
189.206
188.893
188.445
187.85
187.099
186.181
185.083
183.794
182.301
180.592
178.653
176.471
174.032
171.322
168.328
165.037
161.436
157.516
153.268
148.686
143.77
138.52
96.1331
99.4754
102.63
105.6
108.388
111.003
113.451
115.744
117.891
119.904
121.795
123.576
125.257
126.85
128.365
129.815
131.207
132.553
133.862
135.143
136.404
137.654
138.902
140.154
141.417
142.697
143.999
145.327
146.683
148.069
149.484
150.926
152.393
153.882
155.388
156.909
158.441
159.981
161.528
163.077
164.625
166.166
167.696
169.208
170.695
172.151
173.57
174.949
176.284
177.573
178.815
180.009
181.154
182.247
183.287
184.269
185.19
186.044
186.829
187.538
188.168
188.716
189.177
189.549
189.829
190.012
190.094
190.069
189.93
189.669
189.276
188.74
188.052
187.198
186.168
184.949
183.527
181.891
180.025
177.916
175.55
172.91
169.981
166.748
163.196
159.313
155.088
150.513
145.585
140.305
97.3467
100.693
103.838
106.783
109.534
112.1
114.492
116.72
118.799
120.74
122.558
124.263
125.87
127.39
128.833
130.212
131.537
132.817
134.063
135.284
136.489
137.686
138.885
140.093
141.317
142.565
143.842
145.153
146.499
147.883
149.303
150.756
152.238
153.744
155.27
156.811
158.364
159.927
161.498
163.075
164.654
166.23
167.797
169.346
170.868
172.357
173.805
175.208
176.563
177.87
179.129
180.34
181.503
182.617
183.681
184.69
185.64
186.524
187.339
188.077
188.737
189.313
189.805
190.21
190.525
190.749
190.877
190.904
190.824
190.627
190.304
189.844
189.235
188.464
187.519
186.388
185.056
183.512
181.741
179.727
177.455
174.907
172.066
168.912
165.428
161.598
157.406
152.842
147.901
142.583
98.8461
102.198
105.328
108.24
110.942
113.445
115.762
117.909
119.9
121.75
123.475
125.089
126.604
128.033
129.389
130.683
131.925
133.126
134.295
135.443
136.579
137.711
138.849
140.002
141.179
142.386
143.632
144.92
146.256
147.639
149.068
150.538
152.042
153.573
155.123
156.689
158.266
159.855
161.454
163.064
164.682
166.302
167.917
169.514
171.084
172.614
174.097
175.528
176.905
178.23
179.504
180.732
181.915
183.054
184.147
185.19
186.176
187.098
187.95
188.724
189.417
190.027
190.551
190.991
191.347
191.616
191.797
191.887
191.877
191.76
191.524
191.156
190.644
189.974
189.132
188.107
186.886
185.454
183.799
181.904
179.751
177.321
174.594
171.546
168.154
164.396
160.254
155.71
150.755
145.389
100.659
104.018
107.129
109.996
112.632
115.052
117.274
119.316
121.198
122.936
124.549
126.05
127.456
128.778
130.03
131.223
132.367
133.474
134.553
135.614
136.667
137.721
138.787
139.873
140.99
142.147
143.353
144.615
145.938
147.323
148.768
150.264
151.801
153.367
154.949
156.543
158.146
159.76
161.389
163.035
164.699
166.375
168.053
169.718
171.35
172.934
174.459
175.92
177.317
178.655
179.941
181.182
182.384
183.549
184.678
185.764
186.797
187.768
188.665
189.481
190.211
190.854
191.413
191.888
192.284
192.603
192.844
193.004
193.079
193.057
192.926
192.67
192.273
191.722
191.003
190.103
189.01
187.713
186.196
184.445
182.439
180.159
177.577
174.668
171.4
167.745
163.673
159.163
154.197
148.773
102.825
106.193
109.275
112.081
114.629
116.94
119.039
120.951
122.697
124.299
125.776
127.145
128.422
129.619
130.75
131.827
132.859
133.857
134.832
135.792
136.748
137.71
138.688
139.694
140.738
141.832
142.988
144.217
145.525
146.917
148.388
149.927
151.514
153.129
154.753
156.378
158.004
159.638
161.292
162.974
164.691
166.44
168.204
169.96
171.678
173.332
174.906
176.396
177.807
179.149
180.435
181.681
182.897
184.091
185.263
186.406
187.503
188.537
189.491
190.354
191.122
191.798
192.386
192.893
193.327
193.694
193.998
194.239
194.412
194.504
194.5
194.378
194.119
193.706
193.127
192.369
191.423
190.28
188.925
187.344
185.518
183.422
181.027
178.299
175.199
171.686
167.72
163.265
158.296
152.801
105.396
108.773
111.814
114.533
116.961
119.129
121.071
122.818
124.398
125.837
127.154
128.369
129.496
130.551
131.545
132.489
133.394
134.269
135.125
135.971
136.815
137.67
138.545
139.453
140.407
141.422
142.514
143.697
144.986
146.389
147.904
149.513
151.183
152.872
154.55
156.206
157.844
159.483
161.146
162.858
164.633
166.474
168.361
170.252
172.092
173.837
175.467
176.98
178.389
179.715
180.982
182.216
183.437
184.658
185.885
187.105
188.293
189.414
190.44
191.356
192.161
192.861
193.468
193.996
194.459
194.869
195.237
195.566
195.853
196.085
196.236
196.277
196.179
195.924
195.499
194.898
194.115
193.143
191.973
190.591
188.978
187.109
184.95
182.459
179.585
176.273
172.464
168.103
163.145
157.567
108.446
111.835
114.81
117.403
119.662
121.638
123.377
124.92
126.3
127.544
128.675
129.712
130.671
131.564
132.405
133.202
133.965
134.705
135.428
136.144
136.863
137.594
138.349
139.14
139.983
140.897
141.901
143.019
144.277
145.695
147.278
149.005
150.816
152.625
154.374
156.051
157.676
159.285
160.925
162.642
164.474
166.436
168.506
170.609
172.634
174.503
176.19
177.706
179.083
180.358
181.572
182.763
183.967
185.211
186.508
187.844
189.173
190.421
191.54
192.512
193.342
194.05
194.656
195.186
195.66
196.1
196.524
196.945
197.366
197.773
198.126
198.368
198.46
198.378
198.119
197.683
197.072
196.285
195.319
194.163
192.801
191.207
189.346
187.164
184.597
181.569
177.997
173.794
168.881
163.207
112.093
115.49
118.351
120.748
122.766
124.483
125.962
127.252
128.391
129.409
130.327
131.164
131.934
132.65
133.321
133.958
134.567
135.157
135.735
136.309
136.887
137.479
138.094
138.747
139.454
140.234
141.117
142.136
143.333
144.756
146.439
148.372
150.448
152.457
154.296
155.967
157.524
159.038
160.588
162.256
164.119
166.235
168.597
171.074
173.395
175.424
177.153
178.628
179.916
181.082
182.186
183.285
184.433
185.681
187.068
188.589
190.16
191.607
192.845
193.864
194.695
195.377
195.949
196.447
196.903
197.346
197.807
198.317
198.894
199.532
200.166
200.671
200.981
201.082
200.987
200.713
200.274
199.679
198.931
198.024
196.949
195.685
194.195
192.418
190.267
187.642
184.431
180.502
175.708
169.929
116.531
119.912
122.555
124.633
126.299
127.666
128.814
129.797
130.653
131.411
132.089
132.705
133.27
133.793
134.283
134.747
135.191
135.621
136.043
136.463
136.887
137.323
137.781
138.271
138.811
139.42
140.131
140.989
142.06
143.437
145.234
147.525
150.171
152.526
154.453
156.042
157.426
158.731
160.075
161.582
163.396
165.672
168.518
171.756
174.567
176.773
178.472
179.812
180.919
181.889
182.802
183.729
184.747
185.946
187.426
189.254
191.317
193.09
194.457
195.48
196.253
196.854
197.343
197.764
198.156
198.558
199.015
199.583
200.327
201.288
202.385
203.248
203.795
204.061
204.105
203.973
203.694
203.288
202.763
202.122
201.364
200.48
199.448
198.206
196.611
194.552
191.894
188.448
183.947
178.091
122.156
125.39
127.568
129.107
130.257
131.161
131.898
132.518
133.052
133.52
133.938
134.315
134.66
134.979
135.278
135.56
135.83
136.091
136.348
136.604
136.864
137.132
137.414
137.72
138.061
138.454
138.928
139.529
140.339
141.509
143.309
146.161
150.31
153.204
155.092
156.407
157.436
158.361
159.321
160.461
161.998
164.285
167.865
173.048
176.605
178.844
180.303
181.326
182.11
182.772
183.39
184.035
184.794
185.799
187.276
189.573
192.887
195.149
196.556
197.45
198.052
198.487
198.826
199.114
199.387
199.683
200.055
200.59
201.44
202.843
204.932
206.275
207.004
207.353
207.47
207.435
207.291
207.06
206.754
206.381
205.952
205.482
204.999
204.493
203.619
202.316
200.487
197.905
194.132
188.418
129.99
132.382
133.495
134.135
134.567
134.889
135.145
135.358
135.539
135.698
135.839
135.966
136.082
136.19
136.29
136.385
136.475
136.563
136.649
136.735
136.823
136.913
137.009
137.113
137.23
137.367
137.536
137.761
138.095
138.669
139.865
142.926
152.247
155.323
156.551
157.176
157.589
157.937
158.299
158.765
159.512
161.031
164.896
176.675
180.532
182.034
182.753
183.176
183.471
183.71
183.933
184.172
184.478
184.964
185.941
188.419
195.966
198.432
199.385
199.833
200.085
200.251
200.375
200.479
200.579
200.692
200.853
201.134
201.752
203.402
208.547
210.177
210.754
210.972
211.046
211.048
211.006
210.932
210.833
210.715
210.59
210.498
210.573
211.304
211.236
210.832
210.156
209.07
207.106
202.79
129.842
122.808
115.368
107.547
99.3706
90.8693
82.0745
73.0186
63.7342
54.2539
44.6095
34.8322
24.9526
15.0005
5.00495
130.262
123.209
115.746
107.898
99.6921
91.1597
82.3327
73.2444
63.9279
54.416
44.7407
34.9334
25.0243
15.0432
5.01918
131.106
124.015
116.505
108.602
100.337
91.7413
82.8495
73.6959
64.3148
54.7395
45.0025
35.135
25.1672
15.1285
5.04751
132.385
125.236
117.653
109.666
101.308
92.6159
83.625
74.3724
64.8936
55.223
45.3932
35.4356
25.3801
15.2554
5.0897
134.117
126.885
119.201
111.096
102.611
93.7855
84.6594
75.2724
65.662
55.8635
45.9101
35.8328
25.6611
15.423
5.14536
136.324
128.984
121.163
112.904
104.251
95.252
85.9517
76.3932
66.6162
56.6571
46.5492
36.3233
26.0078
15.6295
5.21393
139.041
131.558
123.56
115.1
106.234
97.0163
87.4992
77.7298
67.7502
57.5975
47.3049
36.9021
26.4163
15.8726
5.29464
142.309
134.642
126.416
117.7
108.564
99.0765
89.2959
79.274
69.0548
58.6757
48.1689
37.5627
26.8819
16.1494
5.3865
146.189
138.28
129.757
120.714
111.243
101.426
91.3308
81.0127
70.5168
59.8794
49.1309
38.2965
27.3983
16.4562
5.48824
150.76
142.527
133.613
124.151
114.264
104.05
93.5852
82.9264
72.1177
61.1924
50.1769
39.0927
27.9578
16.7882
5.59831
156.133
147.451
138.01
128.01
117.609
106.922
96.03
84.9873
73.8326
62.5933
51.2898
39.9381
28.5511
17.14
5.71489
162.467
153.129
142.963
132.265
121.235
109.996
98.6219
87.1572
75.6294
64.0562
52.4493
40.8175
29.1676
17.5053
5.8359
169.992
159.63
148.441
136.847
125.066
113.201
101.301
89.3872
77.4692
65.5504
53.6318
41.7135
29.7953
17.8772
5.95909
179.038
166.952
154.319
141.613
128.976
116.437
103.99
91.6184
79.307
67.0421
54.8121
42.6079
30.4221
18.2486
6.0821
189.93
174.816
160.265
146.304
132.784
119.578
106.599
93.7862
81.0958
68.4964
55.9647
43.4825
31.0356
18.6123
6.20263
14.0055
22.0133
30.0117
37.9947
45.957
53.8945
61.805
69.6898
77.5563
85.4226
93.3266
101.344
109.628
118.529
129.014
14.0948
22.2817
30.46
38.6246
46.7706
54.8941
62.9931
71.0687
79.1274
87.1866
95.2829
103.49
111.955
120.959
131.005
14.186
22.5555
30.9174
39.2667
47.5987
55.9095
64.196
72.4573
80.6962
88.9225
97.1595
105.456
113.905
122.662
131.923
14.2789
22.8344
31.3829
39.9198
48.4405
56.9403
65.4148
73.8597
82.2716
90.6485
98.9923
107.313
115.636
124.012
132.501
14.3733
23.1177
31.8559
40.5834
49.2956
57.9873
66.6524
75.2832
83.8691
92.3951
100.838
109.165
117.329
125.28
133.001
14.4689
23.405
32.3356
41.2567
50.1638
59.0515
67.9122
76.7358
85.5061
94.1967
102.763
111.127
119.166
126.703
133.59
14.5657
23.6958
32.8213
41.9389
51.0445
60.1327
69.1962
78.2235
87.1962
96.0823
104.824
113.313
121.349
128.574
134.501
14.6634
23.9893
33.3118
42.6284
51.9359
61.2298
70.5036
79.7472
88.9442
98.0657
107.058
115.811
124.09
131.345
136.336
14.7618
24.2847
33.8058
43.3235
52.8357
62.3393
71.8301
81.3013
90.7424
100.137
109.454
118.636
127.539
135.683
140.994
14.8604
24.581
34.3015
44.0214
53.74
63.4563
73.1685
82.8742
92.571
102.258
111.941
121.652
131.511
141.984
155.166
14.9589
24.8771
34.7969
44.7192
54.6448
64.5746
74.5095
84.4512
94.404
104.379
114.406
124.563
135.052
146.4
159.856
15.0569
25.1717
35.2899
45.4137
55.5455
65.6878
75.8439
86.0183
96.2191
106.462
116.778
127.239
137.995
149.348
161.769
15.1539
25.4636
35.7783
46.1017
56.4375
66.7899
77.1636
87.5651
98.0029
108.49
119.047
129.707
140.519
151.549
162.844
15.2497
25.7514
36.26
46.7801
57.3168
67.8755
78.4623
89.0844
99.7499
110.467
121.242
132.065
142.888
153.563
163.791
15.3438
26.0342
36.733
47.446
58.1794
68.9399
79.7345
90.5713
101.458
112.402
123.399
134.42
145.356
155.882
165.182
15.4358
26.3107
37.1954
48.0968
59.022
69.9788
80.9755
92.0212
103.125
114.296
125.536
136.831
148.105
159.05
168.308
15.5254
26.5799
37.6455
48.73
59.8414
70.9884
82.1805
93.4282
104.743
116.139
127.633
139.254
151.077
163.385
177.481
15.6123
26.8409
38.0818
49.3434
60.6346
71.965
83.3449
94.7861
106.303
117.911
129.638
141.532
153.709
166.473
180.581
15.6962
27.093
38.503
49.9352
61.3993
72.9054
84.4647
96.0897
107.795
119.598
131.524
143.611
155.93
168.623
181.918
15.777
27.3355
38.908
50.5039
62.1334
73.8071
85.5367
97.3351
109.217
121.198
133.295
145.524
157.888
170.351
182.786
15.8544
27.5679
39.2959
51.0483
62.8354
74.6683
86.559
98.5204
110.567
122.713
134.971
147.339
159.773
172.094
183.795
15.9283
27.7898
39.6662
51.5674
63.5042
75.4877
87.53
99.6443
111.845
124.148
136.566
149.105
161.732
174.264
185.835
15.9987
28.0011
40.0183
52.0608
64.1391
76.2644
88.4488
100.706
113.05
125.499
138.075
150.806
163.752
177.098
191.65
16.0655
28.2014
40.3523
52.5283
64.7399
76.9982
89.3152
101.704
114.18
126.76
139.471
152.353
165.492
179.088
193.614
16.1287
28.391
40.6681
52.9699
65.3067
77.6895
90.1296
102.64
115.234
127.928
140.745
153.719
166.91
180.428
194.438
16.1884
28.5699
40.9659
53.386
65.8403
78.3391
90.8933
103.514
116.215
129.007
141.907
154.931
168.096
181.422
194.907
16.2446
28.7384
41.2461
53.7773
66.3415
78.9485
91.6085
104.332
117.129
130.009
142.98
156.04
169.168
182.3
195.307
16.2974
28.8966
41.5094
54.1446
66.8115
79.5193
92.2775
105.095
117.982
130.945
143.987
157.097
170.232
183.262
195.862
16.3469
29.0451
41.7562
54.4887
67.2515
80.0533
92.9028
105.809
118.78
131.823
144.943
158.134
171.366
184.517
197.062
16.3934
29.1842
41.9873
54.8108
67.663
80.5522
93.4866
106.475
119.525
132.645
145.845
159.138
172.551
186.188
200.532
16.4368
29.3142
42.2033
55.1118
68.0474
81.0179
94.031
107.095
120.218
133.409
146.681
160.054
173.577
187.365
201.702
16.4774
29.4358
42.4052
55.3928
68.406
81.452
94.5381
107.672
120.86
134.113
147.442
160.863
174.413
188.156
202.19
16.5153
29.5492
42.5935
55.655
68.7404
81.8565
95.0099
108.207
121.456
134.762
148.134
161.58
175.111
188.739
202.466
16.5506
29.655
42.7691
55.8993
69.0519
82.2331
95.449
108.705
122.008
135.362
148.771
162.233
175.738
189.25
202.697
16.5835
29.7537
42.9328
56.127
69.3421
82.5837
95.8575
109.169
122.522
135.921
149.367
162.854
176.355
189.801
203.011
16.6142
29.8455
43.0852
56.339
69.6122
82.9102
96.2379
109.6
123.001
136.445
149.932
163.459
177.008
190.511
203.678
16.6428
29.931
43.2271
56.5363
69.8637
83.214
96.592
110.002
123.449
136.935
150.465
164.045
177.688
191.45
205.596
16.6694
30.0106
43.3591
56.7199
70.0976
83.4968
96.9216
110.376
123.865
137.391
150.961
164.583
178.281
192.117
206.248
16.6941
30.0845
43.4818
56.8906
70.3152
83.7597
97.2282
110.724
124.252
137.814
151.416
165.064
178.773
192.576
206.526
16.717
30.1531
43.5958
57.0491
70.5173
84.0041
97.5133
111.048
124.612
138.207
151.836
165.498
179.196
192.928
206.691
16.7383
30.2168
43.7015
57.1962
70.7048
84.231
97.7782
111.349
124.947
138.574
152.228
165.905
179.591
193.256
206.842
16.7579
30.2758
43.7993
57.3324
70.8786
84.4414
98.0241
111.63
125.26
138.918
152.6
166.3
179.997
193.632
207.067
16.7761
30.3302
43.8898
57.4583
71.0393
84.6361
98.2519
111.89
125.552
139.241
152.956
166.695
180.442
194.144
207.575
16.7929
30.3804
43.9731
57.5744
71.1875
84.8157
98.4621
112.13
125.822
139.542
153.292
167.079
180.913
194.839
209.066
16.8083
30.4266
44.0497
57.681
71.3236
84.9806
98.6552
112.351
126.07
139.818
153.6
167.426
181.316
195.321
209.563
16.8224
30.4688
44.1198
57.7786
71.4481
85.1313
98.8315
112.552
126.296
140.068
153.874
167.724
181.634
195.634
209.764
16.8353
30.5073
44.1837
57.8674
71.5614
85.2684
98.9915
112.734
126.499
140.29
154.114
167.976
181.886
195.851
209.871
16.8469
30.5422
44.2416
57.948
71.664
85.3923
99.1358
112.897
126.68
140.487
154.323
168.192
182.094
196.026
209.957
16.8575
30.5737
44.2939
58.0206
71.7563
85.5037
99.2652
113.043
126.841
140.661
154.506
168.379
182.278
196.195
210.082
16.8669
30.602
44.3408
58.0857
71.839
85.6032
99.3805
113.173
126.984
140.814
154.667
168.543
182.446
196.382
210.384
16.8753
30.6272
44.3825
58.1436
71.9126
85.6916
99.4828
113.288
127.109
140.948
154.806
168.685
182.586
196.516
210.494
16.8828
30.6495
44.4194
58.1947
71.9774
85.7695
99.5727
113.389
127.22
141.066
154.928
168.807
182.701
196.613
210.546
16.8893
30.6689
44.4516
58.2394
72.0341
85.8375
99.6513
113.477
127.316
141.168
155.034
168.913
182.8
196.691
210.58
16.8949
30.6858
44.4795
58.278
72.083
85.8962
99.7191
113.553
127.399
141.258
155.128
169.008
182.891
196.766
210.614
16.8997
30.7001
44.5031
58.3107
72.1244
85.9459
99.7767
113.618
127.471
141.336
155.212
169.097
182.983
196.853
210.669
16.9037
30.7119
44.5227
58.3378
72.1588
85.9871
99.8244
113.672
127.531
141.402
155.286
169.18
183.081
196.973
210.795
16.9068
30.7214
44.5384
58.3595
72.1862
86.02
99.8624
113.715
127.579
141.456
155.347
169.255
183.181
197.137
211.173
16.9093
30.7286
44.5503
58.3759
72.2068
86.0447
99.8908
113.747
127.615
141.496
155.394
169.311
183.256
197.24
211.293
16.9109
30.7336
44.5585
58.3871
72.221
86.0613
99.9097
113.768
127.637
141.521
155.422
169.345
183.298
197.29
211.332
16.9119
30.7365
44.5632
58.3935
72.2287
86.0701
99.9192
113.778
127.647
141.53
155.43
169.353
183.306
197.3
211.34
16.9122
30.7372
44.5644
58.3949
72.2302
86.0714
99.9197
113.777
127.644
141.523
155.419
169.335
183.282
197.272
211.322
16.9118
30.736
44.5622
58.3918
72.2257
86.0653
99.9114
113.765
127.628
141.502
155.388
169.292
183.222
197.198
211.264
16.9107
30.7328
44.5568
58.384
72.2155
86.0523
99.8951
113.745
127.602
141.467
155.341
169.226
183.125
197.055
211.093
16.909
30.7276
44.5481
58.3718
72.1998
86.0327
99.8712
113.716
127.566
141.422
155.282
169.144
183.001
196.832
210.554
16.9066
30.7204
44.5362
58.3553
72.1786
86.0068
99.8403
113.679
127.523
141.37
155.218
169.061
182.89
196.679
210.38
16.9035
30.7112
44.521
58.3343
72.152
85.9748
99.8029
113.636
127.473
141.313
155.152
168.984
182.799
196.583
210.313
16.8997
30.6999
44.5024
58.3088
72.1199
85.9366
99.759
113.587
127.419
141.253
155.086
168.912
182.725
196.517
210.279
16.8951
30.6863
44.4802
58.2783
72.082
85.892
99.7085
113.531
127.359
141.189
155.019
168.845
182.661
196.465
210.256
16.8897
30.6702
44.4539
58.2425
72.0377
85.8403
99.6507
113.469
127.293
141.121
154.951
168.778
182.6
196.415
210.232
16.8833
30.6513
44.423
58.2007
71.9861
85.7806
99.5848
113.398
127.22
141.049
154.88
168.71
182.537
196.358
210.189
16.8759
30.6291
44.3869
58.1518
71.9262
85.7117
99.5092
113.319
127.14
140.969
154.804
168.64
182.471
196.289
210.076
16.8671
30.6032
44.3446
58.0948
71.8565
85.6318
99.4222
113.228
127.049
140.882
154.723
168.568
182.408
196.235
210.035
16.8569
30.5728
44.2953
58.0282
71.7751
85.5389
99.3214
113.124
126.945
140.783
154.635
168.493
182.349
196.193
210.015
16.8449
30.5373
44.2375
57.9503
71.68
85.4303
99.2038
113.002
126.825
140.672
154.537
168.414
182.292
196.159
210.004
16.8309
30.4958
44.1698
57.8589
71.5684
85.3028
99.0658
112.86
126.686
140.543
154.426
168.328
182.237
196.135
210.001
16.8145
30.4471
44.0906
57.7518
71.4373
85.1528
98.9031
112.692
126.521
140.39
154.296
168.231
182.182
196.126
210.02
16.7954
30.3903
43.9979
57.6263
71.2832
84.9758
98.7104
112.492
126.324
140.208
154.141
168.118
182.127
196.145
210.106
16.7731
30.324
43.8896
57.4792
71.1021
84.767
98.4818
112.253
126.087
139.986
153.95
167.976
182.059
196.197
210.425
16.7471
30.247
43.7634
57.3074
70.8897
84.5208
98.2106
111.968
125.801
139.715
153.711
167.789
181.946
196.179
210.498
16.7172
30.1577
43.6169
57.1072
70.6411
84.231
97.889
111.627
125.455
139.381
153.41
167.542
181.774
196.095
210.491
16.6826
30.0548
43.4476
56.8751
70.3515
83.8912
97.5089
111.219
125.036
138.97
153.031
167.22
181.533
195.953
210.449
16.6431
29.9369
43.2532
56.6074
70.0156
83.4944
97.0612
110.734
124.53
138.467
152.557
166.807
181.212
195.75
210.381
16.5982
29.8026
43.0311
56.3006
69.6285
83.0338
96.5367
110.159
123.924
137.853
151.967
166.28
180.791
195.477
210.286
16.5475
29.6508
42.7796
55.9514
69.1855
82.5027
95.926
109.482
123.198
137.106
151.235
165.61
180.241
195.111
210.157
16.4907
29.4808
42.4969
55.5574
68.6826
81.8949
95.2203
108.689
122.335
136.2
150.325
164.755
179.52
194.617
209.978
16.4278
29.292
42.1821
55.1169
68.117
81.206
94.4119
107.768
121.317
135.107
149.2
163.662
178.561
193.932
209.72
16.3587
29.0844
41.8352
54.6294
67.4874
80.4332
93.4957
106.711
120.126
133.801
147.812
162.261
177.268
192.949
209.324
16.2837
28.8587
41.4571
54.096
66.7947
79.5765
92.47
105.512
118.752
132.255
146.115
160.466
175.5
191.478
208.644
16.2031
28.6161
41.0498
53.5193
66.0422
78.6396
91.338
104.172
117.189
130.457
144.072
158.19
173.071
189.174
207.286
16.1176
28.3585
40.6164
52.904
65.2359
77.6299
90.1085
102.702
115.45
128.412
141.674
155.38
169.788
185.468
204.02
200.902
181.504
165.168
150.196
135.981
122.245
108.836
95.6581
82.6494
69.7654
56.974
44.2504
31.5753
18.9327
6.30887
204.37
185.452
168.675
153.204
138.552
124.441
110.706
97.2402
83.973
70.8531
57.843
44.9138
32.0427
19.2106
6.40108
205.815
187.909
171.271
155.641
140.743
126.372
112.385
98.6823
85.1923
71.8629
58.6544
45.5358
32.4822
19.4724
6.48803
206.54
189.48
173.163
157.565
142.565
128.034
113.865
99.9742
86.298
72.7869
59.4018
46.1116
32.8904
19.7161
6.56906
206.964
190.533
174.55
159.071
144.058
129.442
115.148
101.115
87.2871
73.6216
60.082
46.6385
33.2654
19.9405
6.64375
207.241
191.27
175.582
160.249
145.273
130.621
116.249
102.11
88.1614
74.367
60.6941
47.1153
33.6061
20.1449
6.71188
207.434
191.806
176.364
161.176
146.259
131.604
117.185
102.97
88.9269
75.0261
61.2396
47.5426
33.9127
20.3293
6.77342
207.576
192.207
176.967
161.909
147.06
132.419
117.976
103.707
89.5916
75.6039
61.7213
47.9221
34.1861
20.4943
6.82853
207.684
192.515
177.437
162.494
147.711
133.096
118.642
104.337
90.1651
76.107
62.1437
48.2567
34.4281
20.6406
6.87749
207.767
192.756
177.809
162.965
148.244
133.656
119.201
104.872
90.6574
76.5423
62.5117
48.5497
34.6408
20.7695
6.92067
207.833
192.946
178.107
163.345
148.679
134.121
119.67
105.326
91.0781
76.9172
62.8304
48.8046
34.8265
20.8823
6.95851
207.885
193.098
178.347
163.655
149.038
134.506
120.064
105.709
91.4366
77.2386
63.1052
49.0254
34.9878
20.9805
6.99148
207.927
193.221
178.542
163.908
149.333
134.827
120.393
106.033
91.7413
77.5134
63.3412
49.2158
35.1273
21.0656
7.02007
207.961
193.322
178.701
164.116
149.577
135.094
120.67
106.305
91.9996
77.7476
63.5432
49.3793
35.2475
21.139
7.04475
207.989
193.404
178.832
164.287
149.78
135.316
120.901
106.535
92.2184
77.9467
63.7157
49.5192
35.3506
21.2021
7.06599
208.012
193.471
178.94
164.429
149.948
135.502
121.095
106.729
92.4034
78.1158
63.8626
49.6388
35.4388
21.2562
7.0842
208.031
193.526
179.029
164.547
150.088
135.657
121.258
106.892
92.5597
78.2592
63.9875
49.7407
35.5141
21.3024
7.09977
208.047
193.573
179.103
164.645
150.205
135.787
121.394
107.029
92.6918
78.3806
64.0935
49.8274
35.5783
21.3418
7.11307
208.06
193.611
179.164
164.726
150.302
135.895
121.509
107.145
92.8033
78.4834
64.1835
49.901
35.6329
21.3754
7.12439
208.07
193.643
179.216
164.795
150.384
135.987
121.606
107.242
92.8975
78.5704
64.2598
49.9636
35.6793
21.404
7.13403
208.08
193.669
179.259
164.852
150.452
136.063
121.687
107.325
92.9772
78.6441
64.3244
50.0167
35.7188
21.4282
7.14223
208.087
193.692
179.295
164.9
150.51
136.128
121.755
107.394
93.0445
78.7065
64.3793
50.0618
35.7523
21.4489
7.14921
208.093
193.711
179.325
164.94
150.558
136.182
121.813
107.453
93.1016
78.7594
64.4259
50.1001
35.7809
21.4665
7.15515
208.099
193.726
179.351
164.974
150.599
136.228
121.862
107.503
93.1501
78.8045
64.4656
50.1328
35.8052
21.4815
7.16022
208.103
193.74
179.372
165.003
150.634
136.268
121.904
107.545
93.1914
78.8429
64.4994
50.1607
35.826
21.4943
7.16455
208.107
193.751
179.391
165.028
150.664
136.301
121.94
107.582
93.2268
78.8758
64.5285
50.1847
35.8438
21.5053
7.16827
208.111
193.761
179.407
165.049
150.69
136.33
121.971
107.613
93.2574
78.9042
64.5536
50.2054
35.8593
21.5148
7.17149
208.114
193.77
179.421
165.068
150.712
136.355
121.998
107.64
93.284
78.929
64.5755
50.2234
35.8727
21.5231
7.17429
208.116
193.777
179.433
165.084
150.732
136.377
122.021
107.664
93.3075
78.9508
64.5947
50.2393
35.8845
21.5304
7.17676
208.118
193.784
179.444
165.099
150.75
136.397
122.042
107.686
93.3285
78.9704
64.612
50.2535
35.8951
21.537
7.17897
208.121
193.79
179.454
165.112
150.766
136.415
122.062
107.706
93.3477
78.9882
64.6277
50.2664
35.9048
21.5429
7.18098
208.123
193.796
179.464
165.125
150.781
136.433
122.08
107.724
93.3657
79.0049
64.6423
50.2785
35.9137
21.5484
7.18284
208.125
193.802
179.473
165.138
150.796
136.449
122.098
107.742
93.3829
79.0208
64.6563
50.2899
35.9222
21.5537
7.18461
208.127
193.808
179.483
165.15
150.811
136.466
122.115
107.76
93.3999
79.0364
64.67
50.3011
35.9306
21.5588
7.18633
208.129
193.814
179.493
165.163
150.827
136.483
122.133
107.778
93.4171
79.0523
64.6838
50.3124
35.9389
21.5639
7.18805
208.131
193.821
179.503
165.177
150.843
136.502
122.152
107.797
93.4351
79.0686
64.698
50.3239
35.9474
21.5691
7.18981
208.134
193.829
179.516
165.193
150.862