/*--------------------------------*- C++ -*----------------------------------*\
| =========                 |                                                 |
| \\      /  F ield         | OpenFOAM: The Open Source CFD Toolbox           |
|  \\    /   O peration     | Version:  5.x                                   |
|   \\  /    A nd           | Web:      www.OpenFOAM.org                      |
|    \\/     M anipulation  |                                                 |
\*---------------------------------------------------------------------------*/
FoamFile
{
    version     2.0;
    format      ascii;
    class       volScalarField;
    location    "15.6";
    object      gradTx;
}
// * * * * * * * * * * * * * * * * * * * * * * * * * * * * * * * * * * * * * //

dimensions      [0 -1 0 1 0 0 0];

internalField   nonuniform List<scalar> 
6300
(
14.7884
14.7437
14.6544
14.5206
14.3423
14.1199
13.8538
13.5448
13.1942
12.8038
12.3762
11.915
11.4246
10.9106
10.3796
14.8324
14.7878
14.6984
14.5644
14.3859
14.163
13.8961
13.5859
13.2335
12.8405
12.4094
11.9436
11.4476
10.9271
10.3887
14.9206
14.8759
14.7864
14.6522
14.4733
14.2495
13.9812
13.6687
13.3128
12.9148
12.4768
12.002
11.4948
10.961
10.4075
15.0528
15.0081
14.9186
14.7842
14.6048
14.38
14.1099
13.7943
13.4335
13.0284
12.5805
12.0924
11.5682
11.0139
10.4371
15.2291
15.1844
15.0951
14.9607
14.781
14.5554
14.2834
13.9645
13.5982
13.1844
12.7238
12.2183
11.6713
11.0889
10.4793
15.4494
15.405
15.3159
15.182
15.0024
14.7766
14.5034
14.1815
13.8097
13.3867
12.9116
12.3851
11.8095
11.1905
10.5373
15.7135
15.6694
15.5811
15.4481
15.2696
15.0446
14.7714
14.448
14.0719
13.6404
13.1505
12.6004
11.9907
11.3257
10.6158
16.021
15.9776
15.8904
15.7591
15.5828
15.36
15.0889
14.7665
14.3891
13.9518
13.4489
12.8749
12.2265
11.5055
10.7222
16.3713
16.3287
16.2433
16.1146
15.9417
15.7233
15.4571
15.1396
14.7657
14.3283
13.8178
13.2233
12.5346
11.7469
10.869
16.7635
16.722
16.6388
16.5135
16.3456
16.1337
15.8759
15.5683
15.2052
14.7772
14.2703
13.6655
12.9409
12.0782
11.0776
17.1966
17.1563
17.0756
16.9545
16.7927
16.5896
16.3437
16.0521
15.7091
15.3044
14.8199
14.2269
13.4847
12.547
11.3875
17.6694
17.6303
17.5522
17.4355
17.2805
17.0875
16.8565
16.5865
16.2741
15.9107
15.4774
14.937
14.2233
13.2373
11.8779
18.1805
18.1425
18.0668
17.9542
17.8056
17.6227
17.4076
17.1626
16.8894
16.5862
16.2415
15.8198
15.2336
14.3006
12.7275
18.7289
18.6917
18.6177
18.508
18.3643
18.1894
17.9879
17.7663
17.534
17.3025
17.0819
16.8664
16.5901
16.0034
14.3997
19.3137
19.2769
19.2036
19.0951
18.9534
18.7821
18.5875
18.3799
18.1769
18.0073
17.9166
17.9732
18.2564
18.7224
18.3141
9.88462
9.4326
8.98365
8.54239
8.1132
7.70008
7.30661
6.93583
6.59022
6.27175
5.98189
5.72163
5.49159
5.29203
5.12295
4.98406
4.87488
4.79475
4.74279
4.71795
4.71897
4.74437
4.79243
4.86117
4.94834
5.05142
5.16767
5.29414
5.4278
5.56557
5.70446
5.84163
5.97447
6.10059
6.21777
6.32396
6.41712
6.49519
6.55606
6.59761
6.61776
6.61467
6.58682
6.53319
6.45326
6.347
6.21474
6.05695
5.87406
5.66622
5.43313
5.17398
4.88747
4.57188
4.2252
3.84537
3.43032
2.97815
2.48709
1.9554
1.3813
0.762688
0.097039
-0.618792
-1.38864
-2.21706
-3.10923
-4.07087
-5.10803
-6.2269
-7.43362
-8.73412
-10.134
-11.6385
-13.2523
-14.9796
-16.8239
-18.788
-20.8734
-23.0803
-25.4068
-27.8489
-30.3995
-33.0484
-35.7818
-38.5825
-41.43
-44.3008
-47.1694
-50.0092
9.8865
9.42776
8.97221
8.52466
8.0897
7.67148
7.27364
6.89928
6.55086
6.2303
5.939
5.67787
5.44746
5.24794
5.07925
4.94106
4.83286
4.75398
4.70354
4.68051
4.68366
4.71155
4.76246
4.83444
4.92522
5.03226
5.15273
5.28358
5.42165
5.56373
5.70669
5.84763
5.98392
6.11319
6.23336
6.34246
6.43858
6.51968
6.58362
6.62813
6.65096
6.65003
6.62368
6.57079
6.4909
6.38418
6.25121
6.09282
5.90973
5.70231
5.47039
5.21313
4.92911
4.61639
4.27273
3.89585
3.48356
3.03396
2.54538
2.01632
1.44522
0.830275
0.169163
-0.541129
-1.30442
-2.12534
-3.00927
-3.96218
-4.99041
-6.10042
-7.29857
-8.59098
-9.98335
-11.481
-13.0887
-14.8109
-16.6513
-18.613
-20.6982
-22.9076
-25.2402
-27.6923
-30.2575
-32.9261
-35.6844
-38.5147
-41.3958
-44.3033
-47.2102
-50.0884
9.89049
9.41798
8.94887
8.48847
8.04176
7.6132
7.20659
6.82508
6.4711
6.14646
5.8524
5.58966
5.3586
5.15925
4.99141
4.85466
4.74845
4.67205
4.62463
4.60519
4.61256
4.64536
4.70196
4.78043
4.8785
4.99355
5.12262
5.26242
5.40952
5.56038
5.71161
5.86011
6.00321
6.13866
6.26461
6.37942
6.48139
6.56863
6.63889
6.68961
6.71809
6.72173
6.69846
6.64698
6.56692
6.45886
6.32403
6.164
5.98017
5.77344
5.54387
5.29059
5.01185
4.70521
4.36789
3.99708
3.59034
3.14571
2.6618
2.13758
1.57212
0.964192
0.31197
-0.387274
-1.13731
-1.94297
-2.81006
-3.7451
-4.75506
-5.84701
-7.02779
-8.30384
-9.68107
-11.1649
-12.7602
-14.4717
-16.3037
-18.2601
-20.344
-22.5575
-24.9009
-27.3723
-29.9664
-32.6743
-35.4826
-38.3731
-41.3231
-44.306
-47.2919
-50.249
9.89696
9.40289
8.91261
8.43223
7.96738
7.52298
7.10311
6.71094
6.34883
6.01834
5.72045
5.45559
5.22384
5.02497
4.85858
4.7241
4.62089
4.54821
4.50524
4.49107
4.50464
4.54472
4.60978
4.698
4.80713
4.93446
5.07682
5.23056
5.39173
5.55626
5.72022
5.88014
6.03326
6.17755
6.31167
6.43458
6.54515
6.64175
6.72203
6.78286
6.82068
6.83191
6.8136
6.76403
6.68299
6.5718
6.43288
6.26917
6.08334
5.8772
5.65123
5.40446
5.13451
4.83799
4.51102
4.14985
3.75145
3.31383
2.83607
2.31806
1.76
1.16175
0.52235
-0.160403
-0.890204
-1.67225
-2.51306
-3.42019
-4.4017
-5.46569
-6.61982
-7.87099
-9.22527
-10.6881
-12.2643
-13.959
-15.777
-17.7233
-19.8028
-22.0198
-24.3771
-26.8752
-29.5111
-32.2776
-35.1618
-38.1451
-41.2026
-44.3038
-47.414
-50.4959
9.9066
9.38198
8.86176
8.35329
7.86323
7.39715
6.95944
6.55327
6.18075
5.84305
5.54069
5.27363
5.0415
4.84372
4.67958
4.54832
4.44917
4.38138
4.34419
4.33681
4.35839
4.40789
4.48407
4.58526
4.70934
4.85354
5.01442
5.18779
5.36891
5.55274
5.73441
5.90975
6.07576
6.23085
6.37462
6.50727
6.62877
6.73813
6.83288
6.90899
6.96129
6.98433
6.97349
6.92612
6.84221
6.72437
6.57717
6.40593
6.2155
6.00924
5.78831
5.55146
5.29519
5.01438
4.70316
4.35602
3.96884
3.53953
3.0681
2.55606
2.00557
1.4184
0.79503
0.134094
-0.567982
-1.31698
-2.12066
-2.98823
-3.92961
-4.95461
-6.07212
-7.28963
-8.61318
-10.0477
-11.5979
-13.2685
-15.0652
-16.9944
-19.0636
-21.2799
-23.6503
-26.1791
-28.8674
-31.7108
-34.698
-37.8098
-41.0184
-44.288
-47.5763
-50.837
9.92048
9.35438
8.79361
8.24751
7.72421
7.23018
6.77008
6.34691
5.96226
5.61667
5.30987
5.04115
4.80951
4.61384
4.45305
4.32611
4.23212
4.17032
4.14003
4.14069
4.17173
4.2325
4.32213
4.43938
4.58238
4.74843
4.93381
5.13364
5.34195
5.55211
5.75749
5.95253
6.13374
6.30021
6.45334
6.59573
6.72959
6.85526
6.97029
7.06912
7.14377
7.18526
7.1857
7.14055
7.04999
6.91896
6.7558
6.57003
6.37019
6.16214
5.94806
5.72616
5.49099
5.23434
4.94679
4.61961
4.24667
3.82571
3.35839
2.84923
2.3038
1.727
1.12167
0.487707
-0.178295
-0.883077
-1.63635
-2.45004
-3.33716
-4.31034
-5.38043
-6.55557
-7.84119
-9.2409
-10.7579
-12.3964
-14.1623
-16.064
-18.1119
-20.3181
-22.6949
-25.2531
-28
-30.9365
-34.0543
-37.3345
-40.7458
-44.2448
-47.7779
-51.2848
9.94033
9.3187
8.70398
8.10856
7.54273
7.01403
6.52725
6.08481
5.68732
5.33418
5.02402
4.75508
4.52551
4.33354
4.17758
4.05627
3.96856
3.91369
3.89115
3.90065
3.94208
4.01536
4.12027
4.25624
4.42203
4.6153
4.83221
5.06706
5.31214
5.55813
5.79522
6.01501
6.21269
6.3885
6.54727
6.69623
6.84192
6.98746
7.13073
7.2638
7.37373
7.44498
7.46329
7.42009
7.31574
7.15952
6.96669
6.75412
6.53644
6.32344
6.11881
5.91974
5.71747
5.49857
5.24727
4.94887
4.59344
4.17841
3.70875
3.19444
2.64703
2.07654
1.48938
0.887324
0.267119
-0.379448
-1.06512
-1.80619
-2.62083
-3.52656
-4.5375
-5.66244
-6.90487
-8.26508
-9.74298
-11.3406
-13.0638
-14.9228
-16.9322
-19.1104
-21.4778
-24.0551
-26.8594
-29.9005
-33.1764
-36.67
-40.3462
-44.1517
-48.0164
-51.8583
9.96883
9.27267
8.58617
7.92665
7.30744
6.7372
6.22026
5.75768
5.34828
4.9896
4.67859
4.41212
4.18721
4.00123
3.85202
3.73787
3.65756
3.61035
3.59595
3.61448
3.66642
3.7525
3.8735
4.03
4.22192
4.44792
4.70459
4.98555
5.2808
5.57674
5.85762
6.10907
6.3229
6.50106
6.65507
6.80116
6.95418
7.12262
7.30557
7.49151
7.65909
7.78064
7.82912
7.7874
7.65586
7.4525
7.20572
6.94529
6.69564
6.47243
6.28126
6.11767
5.96766
5.80919
5.61532
5.36004
5.02577
4.60957
4.12318
3.5871
3.02331
2.44989
1.87837
1.31292
0.750362
0.180373
-0.414198
-1.05649
-1.7734
-2.59133
-3.53047
-4.60013
-5.79895
-7.11975
-8.55554
-10.104
-11.7697
-13.5649
-15.5094
-17.6298
-19.9583
-22.5298
-25.3773
-28.5259
-31.9847
-35.7418
-39.7598
-43.9729
-48.2871
-52.5862
10.0104
9.21233
8.42916
7.68634
7.00134
6.3833
5.83472
5.35371
4.93594
4.57612
4.26884
4.00913
3.79265
3.61583
3.47583
3.37059
3.29875
3.25962
3.25318
3.28005
3.34146
3.4392
3.57546
3.75259
3.97258
4.23621
4.54178
4.88325
5.24827
5.61679
5.96218
6.25703
6.48424
6.64813
6.77398
6.89586
7.04398
7.23659
7.47579
7.74533
8.0104
8.22121
8.32451
8.28374
8.09909
7.8077
7.46412
7.12063
6.8165
6.57498
6.40371
6.29574
6.22978
6.1705
6.07157
5.88468
5.57585
5.14158
4.60893
4.01947
3.41327
2.82032
2.25846
1.7342
1.24415
0.775461
0.30532
-0.199442
-0.780573
-1.48165
-2.33553
-3.35189
-4.51741
-5.80881
-7.20584
-8.69843
-10.2889
-11.9918
-13.833
-15.8494
-18.0887
-20.6066
-23.4616
-26.704
-30.363
-34.4377
-38.8919
-43.6478
-48.5788
-53.5134
10.0727
9.13011
8.21367
7.36247
6.59859
5.92919
5.3517
4.85844
4.43995
4.08677
3.79042
3.54372
3.34085
3.17723
3.04945
2.95509
2.8927
2.86167
2.8623
2.89574
2.96406
3.07029
3.21843
3.41331
3.66021
3.96395
4.32709
4.74686
5.21048
5.68992
6.13929
6.50214
6.73649
6.84971
6.89833
6.95249
7.06943
7.28322
7.602
8.0053
8.43948
8.81627
9.02703
8.98693
8.69568
8.23773
7.72209
7.239
6.84698
6.57611
6.43472
6.41305
6.48197
6.58865
6.65422
6.58467
6.3063
5.81502
5.17628
4.47575
3.78394
3.14586
2.58424
2.10606
1.70705
1.37249
1.07456
0.767456
0.384861
-0.152013
-0.906715
-1.88889
-3.05463
-4.3458
-5.71849
-7.15184
-8.64627
-10.2195
-11.904
-13.7481
-15.8176
-18.1978
-20.9877
-24.2819
-28.1424
-32.5864
-37.5891
-43.0697
-48.8645
-54.7114
10.169
9.01
7.9039
6.91257
6.05951
5.34255
4.74721
4.25539
3.84976
3.51543
3.24034
3.01506
2.83238
2.68692
2.57481
2.49345
2.44135
2.41804
2.42407
2.46108
2.53193
2.64091
2.79397
2.99899
3.26585
3.60597
4.0307
4.54712
5.14968
5.80611
6.44074
6.93203
7.1629
7.14407
7.01443
6.91842
6.95515
7.17839
7.60621
8.22049
8.9509
9.65005
10.0904
10.0514
9.532
8.75052
7.93285
7.22596
6.70274
6.39053
6.29312
6.39962
6.67955
7.06572
7.43117
7.58507
7.34308
6.70055
5.83236
4.91924
4.07708
3.36112
2.78971
2.3638
2.07697
1.91666
1.85688
1.84293
1.77233
1.49118
0.84957
-0.161652
-1.41129
-2.76542
-4.14378
-5.51724
-6.89013
-8.28661
-9.74532
-11.322
-13.0991
-15.1987
-17.7872
-21.0441
-25.081
-29.9303
-35.5975
-42.0387
-49.0744
-56.2991
10.3251
8.81345
7.42853
6.26323
5.3241
4.58041
3.99333
3.52799
3.1567
2.85861
2.6184
2.42493
2.27019
2.14846
2.05578
1.98958
1.94844
1.93205
1.94112
1.97759
2.04481
2.14794
2.29456
2.4955
2.76585
3.12603
3.60209
4.22315
5.01112
5.95345
6.94837
7.73664
7.94861
7.59769
7.08186
6.69292
6.57197
6.77865
7.34161
8.2681
9.50695
10.8561
11.8437
11.8075
10.7453
9.31507
7.98379
6.94808
6.25435
5.89531
5.85763
6.13618
6.72386
7.57234
8.51245
9.15527
8.95633
7.91077
6.55293
5.26029
4.18824
3.36802
2.7855
2.42108
2.26457
2.3159
2.57304
2.99983
3.46283
3.65328
3.13796
1.9088
0.382454
-1.15023
-2.57619
-3.88347
-5.09999
-6.26413
-7.41665
-8.60716
-9.91587
-11.4955
-13.6239
-16.683
-20.8494
-26.096
-32.4908
-40.1507
-49.0117
-58.4843
10.5947
8.43397
6.63658
5.28794
4.30715
3.5927
3.06405
2.66505
2.35811
2.11833
1.92902
1.77894
1.66038
1.56809
1.49855
1.44952
1.41984
1.4093
1.41865
1.44975
1.50589
1.59225
1.71685
1.89196
2.13638
2.47909
2.96455
3.65868
4.65008
6.02481
7.75331
9.37082
9.54452
8.2885
6.96626
6.08122
5.7168
5.8656
6.55326
7.8656
9.9038
12.5824
15.0708
15.0403
12.4881
9.7368
7.6088
6.1775
5.32381
4.93714
4.96653
5.42734
6.39234
7.94671
10.0215
11.9372
11.7883
9.57033
7.17934
5.28347
3.93664
3.03249
2.46709
2.17884
2.15275
2.41863
3.04477
4.10441
5.54562
6.83149
6.45408
4.40701
2.18519
0.31122
-1.17953
-2.38038
-3.38526
-4.25833
-5.03321
-5.72205
-6.34243
-7.00209
-8.12012
-10.7273
-15.0619
-20.6077
-27.562
-36.5327
-48.0675
-61.6607
11.0995
7.53096
5.19828
3.78277
2.90643
2.33723
1.94796
1.6694
1.46273
1.30525
1.1831
1.08748
1.01268
0.95491
0.911703
0.881533
0.863618
0.857848
0.864791
0.885821
0.923372
0.981422
1.06636
1.18854
1.36526
1.62651
2.02638
2.66598
3.73685
5.58652
8.71775
13.0837
13.1988
9.07435
6.22084
4.71958
4.12233
4.17637
4.86511
6.41756
9.37813
14.582
21.9246
21.9039
14.5171
9.26066
6.23021
4.57488
3.72057
3.37963
3.45397
3.99228
5.21188
7.57137
11.7592
17.6919
17.5994
11.4786
7.0925
4.51577
3.04741
2.209
1.74947
1.55897
1.62038
2.00246
2.89212
4.65935
7.85184
12.4046
12.1742
7.15666
3.4869
1.2207
-0.20038
-1.1595
-1.86036
-2.39392
-2.77365
-2.93548
-2.71239
-1.84859
-0.471922
-2.28395
-7.53032
-13.0909
-19.7293
-29.2218
-44.1583
-66.6435
12.127
4.84799
2.43894
1.50104
1.06335
0.822566
0.672366
0.57016
0.496462
0.441259
0.398907
0.366004
0.340403
0.320718
0.306053
0.295865
0.289877
0.288055
0.290614
0.298059
0.3113
0.331845
0.362179
0.406516
0.472378
0.574249
0.742933
1.05216
1.70199
3.30256
7.90384
22.9173
22.9577
8.02959
3.52793
2.05599
1.58982
1.57302
1.93303
2.94159
5.62174
13.5011
39.381
39.3736
13.4777
5.5788
2.8712
1.81865
1.3779
1.22401
1.27314
1.57601
2.38979
4.56289
10.984
32.122
32.0906
10.8887
4.39983
2.15186
1.25094
0.839835
0.644337
0.57628
0.626168
0.855286
1.47563
3.16173
8.19904
24.8648
24.7873
7.96525
2.76732
0.913117
0.113493
-0.310548
-0.576361
-0.751015
-0.827842
-0.703193
-0.00500588
2.56634
11.7679
11.1048
0.453883
-4.02208
-7.78641
-14.0714
-29.3784
-75.2248
-53.0643
-56.2852
-59.3462
-62.214
-64.8628
-67.2744
-69.4376
-71.3474
-73.0033
-74.4082
-75.5667
-76.4846
-77.1673
-77.6196
-77.8449
-53.1837
-56.4442
-59.5385
-62.4321
-65.099
-67.5217
-69.69
-71.6002
-73.2533
-74.6533
-75.8063
-76.7186
-77.3966
-77.8454
-78.0689
-53.4271
-56.7688
-59.9305
-62.8758
-65.5785
-68.0223
-70.1995
-72.1092
-73.7552
-75.1445
-76.2852
-77.1858
-77.8538
-78.2955
-78.5152
-53.804
-57.2725
-60.5381
-63.5613
-66.316
-68.7885
-70.9754
-72.8806
-74.5128
-75.883
-77.0031
-77.8843
-78.5361
-78.9663
-79.18
-54.3309
-57.9781
-61.3872
-64.5144
-67.3347
-69.8394
-72.032
-73.9241
-75.5312
-76.8706
-77.9589
-78.8109
-79.4389
-79.8523
-80.0574
-55.033
-58.9209
-62.5173
-65.7734
-68.668
-71.2012
-73.3881
-75.2512
-76.8162
-78.1082
-79.1499
-79.9604
-80.5551
-80.9453
-81.1386
-55.9493
-60.1546
-63.9867
-67.393
-70.3614
-72.9084
-75.0667
-76.8754
-78.3731
-79.595
-80.5708
-81.3245
-81.8746
-82.2341
-82.4118
-57.1403
-61.7604
-65.8808
-69.4495
-72.4752
-75.0031
-77.0938
-78.8092
-80.2046
-81.3267
-82.2127
-82.8912
-83.3832
-83.7036
-83.8615
-58.7025
-63.8651
-68.3256
-72.0479
-75.0856
-77.5339
-79.4952
-81.0615
-82.3081
-83.2933
-84.061
-84.6431
-85.0624
-85.3342
-85.4678
-60.7965
-66.6707
-71.5078
-75.3297
-78.2843
-80.5506
-82.2904
-83.6323
-84.6715
-85.476
-86.0934
-86.5566
-86.8879
-87.1017
-87.2065
-63.7064
-70.5125
-75.7041
-79.4777
-82.1701
-84.0927
-85.4825
-86.5046
-87.2682
-87.8442
-88.2786
-88.6009
-88.8297
-88.9767
-89.0487
-67.98
-75.9676
-81.3171
-84.7057
-86.8241
-88.166
-89.0413
-89.6341
-90.051
-90.3527
-90.5747
-90.7371
-90.8519
-90.9256
-90.9617
-74.8059
-84.0597
-88.8896
-91.203
-92.2533
-92.7044
-92.8813
-92.9385
-92.9473
-92.9395
-92.9287
-92.9198
-92.9139
-92.9107
-92.9094
-87.182
-96.5745
-98.9772
-98.9621
-98.2802
-97.5153
-96.8398
-96.2899
-95.8586
-95.5277
-95.2793
-95.098
-94.972
-94.8926
-94.8543
-114.147
-116.077
-111.481
-107.387
-104.388
-102.235
-100.672
-99.5215
-98.6677
-98.0319
-97.5612
-97.2195
-96.982
-96.8321
-96.7596
19.8829
19.8459
19.7724
19.6631
19.5199
19.3462
19.1482
18.9374
18.7351
18.5802
18.5461
18.7795
19.6154
22.0156
29.6303
20.4255
20.3882
20.3137
20.2025
20.0555
19.8752
19.6661
19.4378
19.2091
19.0167
18.9321
19.0936
19.7639
21.3877
24.2507
20.9935
20.9557
20.8799
20.766
20.6138
20.4236
20.1969
19.938
19.6573
19.3777
19.1465
19.0539
19.2497
19.8987
20.867
21.5871
21.549
21.4721
21.3557
21.1979
20.9968
20.7494
20.4527
20.1042
19.7048
19.2642
18.8133
18.4201
18.1875
18.1635
22.2067
22.1685
22.0913
21.9733
21.8116
21.6014
21.3355
21.0027
20.5861
20.0599
19.3883
18.5319
17.4786
16.331
15.4513
22.8522
22.8146
22.7382
22.6208
22.4583
22.2441
21.9673
21.6104
21.1435
20.5154
19.6403
18.3868
16.6022
14.2878
12.1363
23.5233
23.4869
23.4131
23.299
23.1403
22.9294
22.6542
22.2939
21.8122
21.1418
20.1547
18.6098
16.0931
12.1311
7.33533
24.219
24.1847
24.1151
24.0076
23.8579
23.6588
23.3994
23.0611
22.6114
21.9876
21.0557
19.5072
16.5873
10.5532
-0.787853
24.9378
24.9065
24.8429
24.7449
24.6089
24.4294
24.1986
23.905
23.5311
23.0464
22.3845
21.3566
19.2433
12.6605
-16.7783
25.6776
25.65
25.594
25.508
25.3894
25.2349
25.0407
24.8041
24.5273
24.2274
23.9668
23.9592
25.0026
30.6397
59.4889
26.436
26.4126
26.3653
26.293
26.1941
26.0671
25.9114
25.7305
25.539
25.3803
25.3726
25.8312
27.5711
32.4986
43.1077
27.21
27.1912
27.1533
27.0957
27.0176
26.9183
26.7987
26.6636
26.5274
26.4276
26.4539
26.8129
27.9252
30.4109
34.1044
27.9962
27.9823
27.9544
27.912
27.8549
27.7828
27.696
27.5967
27.4901
27.3863
27.3035
27.2707
27.3246
27.4838
27.6764
28.7914
28.7825
28.7647
28.7378
28.7018
28.6565
28.6012
28.5343
28.4501
28.3297
28.1174
27.6676
26.6499
24.5329
21.393
29.592
29.5882
29.5805
29.5692
29.5545
29.5362
29.5134
29.483
29.4345
29.3361
29.0956
28.458
26.7379
22.2917
12.9399
30.3946
30.3957
30.3981
30.4023
30.4088
30.418
30.43
30.4436
30.453
30.4401
30.3487
29.9994
28.7183
23.4564
-1.99629
31.1956
31.2015
31.2137
31.233
31.2602
31.2969
31.3447
31.4062
31.4864
31.5977
31.78
32.1871
33.4622
38.642
63.9847
31.9917
32.0022
32.0237
32.0572
32.1043
32.1671
32.2487
32.355
32.4976
32.7049
33.0544
33.7712
35.4934
39.8245
48.9959
32.7797
32.7944
32.8245
32.8713
32.9366
33.023
33.1347
33.2777
33.4631
33.7124
34.0726
34.6564
35.7117
37.6448
40.3889
33.5565
33.5751
33.613
33.6716
33.7531
33.8605
33.9978
34.1702
34.3837
34.6416
34.9346
35.2132
35.3195
34.9009
33.7005
34.3197
34.3416
34.3863
34.4552
34.5507
34.6761
34.8354
35.0333
35.2726
35.5455
35.8056
35.8888
35.2906
32.6989
26.1916
35.0667
35.0915
35.1418
35.2194
35.3266
35.467
35.6451
35.8667
36.1375
36.457
36.7984
37.0368
36.645
33.2153
14.177
35.7956
35.8227
35.8776
35.9621
36.0785
36.2306
36.4235
36.6651
36.9678
37.3522
37.8617
38.6215
40.108
44.5701
64.274
36.5048
36.5336
36.5921
36.6816
36.8046
36.9647
37.1669
37.4202
37.7404
38.1594
38.7501
39.7006
41.5033
45.3391
52.7494
37.193
37.2231
37.284
37.377
37.504
37.6682
37.8738
38.128
38.4437
38.846
39.3875
40.1871
41.4854
43.6248
46.3852
37.8594
37.8904
37.9527
38.0477
38.1766
38.3417
38.5456
38.792
39.0862
39.4346
39.8447
40.3261
40.8822
41.4782
41.9527
38.5034
38.5348
38.598
38.6937
38.8231
38.987
39.1866
39.422
39.6902
39.9792
40.2513
40.4122
40.2502
39.4149
37.8643
39.1246
39.1562
39.2197
39.3155
39.4443
39.6064
39.8016
40.0281
40.2791
40.534
40.734
40.7217
40.0844
37.8474
32.7139
39.7228
39.7544
39.8179
39.9134
40.0413
40.2016
40.3937
40.6161
40.8644
41.1258
41.3629
41.4643
41.0282
38.2905
24.0136
40.2981
40.3297
40.3929
40.4879
40.6147
40.7733
40.9634
41.1851
41.4399
41.7331
42.0849
42.579
43.5692
46.7459
61.2556
40.8504
40.8819
40.9448
41.0392
41.165
41.3219
41.5099
41.7302
41.9878
42.2982
42.707
43.3482
44.5906
47.3299
52.7476
41.3799
41.4113
41.4739
41.5677
41.6924
41.8476
42.0327
42.2484
42.4983
42.7938
43.1664
43.6989
44.5712
46.0526
48.0177
41.8866
41.9179
41.9803
42.0737
42.1976
42.3511
42.5329
42.7418
42.9762
43.2344
43.5136
43.8126
44.1276
44.4383
44.6683
42.3706
42.4018
42.4642
42.5575
42.681
42.8335
43.0131
43.2163
43.4367
43.6589
43.846
43.9141
43.6856
42.8788
41.4946
42.8317
42.8631
42.9257
43.0192
43.143
43.2958
43.4755
43.678
43.8951
44.1066
44.2597
44.2206
43.6439
41.7192
37.3757
43.27
43.3016
43.3647
43.4589
43.5837
43.7382
43.9206
44.1284
44.3566
44.5933
44.8057
44.8994
44.5369
42.2384
30.2565
43.6854
43.7172
43.7809
43.8762
44.0026
44.1597
44.3467
44.5635
44.8114
45.0954
45.4329
45.8939
46.7731
49.4811
61.6787
44.0775
44.1097
44.1742
44.2707
44.3991
44.5591
44.7508
44.9759
45.2402
45.5589
45.973
46.597
47.7378
50.1327
54.742
44.4461
44.4788
44.5441
44.642
44.7724
44.935
45.1302
45.3601
45.6303
45.9548
46.366
46.9402
47.8303
49.2453
51.0231
44.7909
44.8241
44.8904
44.9897
45.122
45.2868
45.4843
45.7151
45.9817
46.289
46.6447
47.0629
47.5568
48.1047
48.5555
45.1115
45.1452
45.2126
45.3135
45.4477
45.6147
45.8138
46.0442
46.3041
46.5881
46.8786
47.132
47.2444
47.0304
46.4178
45.4077
45.442
45.5104
45.613
45.7493
45.9187
46.1201
46.3515
46.6089
46.8811
47.1371
47.2979
47.1573
46.2318
43.8715
45.6789
45.7138
45.7835
45.8879
46.0267
46.1992
46.4042
46.6398
46.9025
47.1838
47.4605
47.672
47.614
46.4285
39.7032
45.9248
45.9604
46.0314
46.1379
46.2795
46.4557
46.6655
46.9081
47.1824
47.4881
47.828
48.232
48.8522
50.4711
57.4168
46.1449
46.1811
46.2536
46.3623
46.507
46.6873
46.9027
47.1531
47.4397
47.767
48.1498
48.6407
49.3954
50.8134
53.4358
46.3387
46.3756
46.4496
46.5605
46.7084
46.893
47.1141
47.3719
47.6678
48.0057
48.3953
48.865
49.4767
50.318
51.2933
46.5057
46.5433
46.6187
46.7319
46.883
47.072
47.2987
47.5631
47.8659
48.207
48.5839
48.9896
49.3971
49.7283
49.8455
46.6454
46.6837
46.7605
46.8758
47.0301
47.2233
47.4554
47.7266
48.0365
48.382
48.7513
49.1116
49.3691
49.286
48.4965
46.7574
46.7963
46.8743
46.9917
47.1488
47.346
47.5837
47.8621
48.1813
48.5388
48.9235
49.304
49.5762
49.3331
46.6166
46.8412
46.8806
46.9596
47.0787
47.2384
47.4392
47.6821
47.9681
48.2987
48.6753
49.0973
49.5705
50.1397
51.0968
54.227
46.8965
46.9362
47.016
47.1364
47.298
47.5018
47.7491
48.0418
48.3834
48.7785
49.2342
49.7691
50.4325
51.3501
52.6694
46.923
46.963
47.0432
47.1642
47.3271
47.5328
47.783
48.0805
48.43
48.8382
49.3148
49.8772
50.5472
51.3232
52.0457
46.9206
46.9606
47.0408
47.1619
47.325
47.5313
47.7826
48.0821
48.4348
48.8487
49.3346
49.9095
50.5868
51.3322
51.9414
46.8894
46.9291
47.0089
47.1294
47.2917
47.497
47.7473
48.0454
48.3964
48.8077
49.2912
49.8696
50.5777
51.4346
52.2777
46.8294
46.8687
46.9475
47.0667
47.2271
47.4301
47.6772
47.971
48.315
48.715
49.1805
49.7385
50.4638
51.5454
53.2172
46.7411
46.7796
46.857
46.9741
47.1317
47.331
47.5734
47.8604
48.194
48.5753
49.0042
49.4901
50.1009
51.2451
55.3351
46.6248
46.6624
46.738
46.8522
47.0061
47.2006
47.437
47.7163
48.0389
48.4009
48.7869
49.154
49.3662
48.898
45.1837
46.4813
46.5177
46.5909
46.7017
46.8509
47.0396
47.2693
47.5411
47.8555
48.2083
48.5814
48.9242
49.1026
48.8038
47.5976
46.3113
46.3463
46.4167
46.5233
46.6669
46.8488
47.0708
47.3352
47.6446
48.0002
48.3956
48.8075
49.1688
49.3387
49.1913
46.1158
46.1492
46.2164
46.3179
46.4549
46.6288
46.8415
47.0968
47.4007
47.7628
48.1969
48.7249
49.3663
50.0929
50.7
45.896
45.9276
45.991
46.0869
46.2162
46.3802
46.5812
46.8235
47.1155
47.4738
47.9319
48.5624
49.5033
50.9289
52.6475
45.6532
45.6827
45.742
45.8315
45.9519
46.1045
46.2908
46.5146
46.7834
47.1141
47.5457
48.1833
49.3022
51.5602
55.8059
45.3888
45.4161
45.4708
45.5534
45.6642
45.8038
45.973
46.1732
46.4076
46.6826
47.0152
47.4688
48.3085
50.8098
61.93
45.1043
45.1293
45.1793
45.2546
45.3552
45.4812
45.6321
45.8069
46.0026
46.2097
46.3992
46.4853
46.1596
44.073
33.174
44.8014
44.824
44.8692
44.937
45.0274
45.1399
45.2733
45.425
45.5889
45.7476
45.8539
45.7865
45.232
43.4549
39.4855
44.4817
44.5018
44.5422
44.6027
44.683
44.7826
44.9002
45.0336
45.178
45.3204
45.4278
45.4251
45.1522
44.3582
43.0572
44.1468
44.1646
44.2002
44.2534
44.324
44.4113
44.5147
44.6336
44.7675
44.9159
45.077
45.2501
45.4329
45.6124
45.742
43.7985
43.814
43.8449
43.891
43.952
44.0275
44.1171
44.2219
44.3461
44.5013
44.7167
45.0674
45.7146
46.9
48.5333
43.4383
43.4516
43.478
43.5172
43.5689
43.6324
43.7076
43.7958
43.9024
44.0432
44.261
44.6779
45.6212
47.8756
52.4753
43.0678
43.079
43.1011
43.1337
43.1762
43.2278
43.2877
43.3558
43.4342
43.5303
43.6659
43.9217
44.6159
47.2214
59.6279
42.6886
42.6977
42.7158
42.7422
42.7761
42.8161
42.8606
42.9074
42.953
42.9884
42.9861
42.8601
42.282
39.7598
27.3805
42.3018
42.3092
42.3237
42.3445
42.3705
42.4
42.4306
42.4589
42.4781
42.4713
42.391
42.1116
41.2968
39.1424
34.5842
41.9089
41.9148
41.9262
41.9421
41.9613
41.9817
42.0009
42.0156
42.0206
42.0036
41.9331
41.7337
41.2407
40.1935
38.6381
41.5109
41.5155
41.5244
41.5364
41.55
41.5629
41.5729
41.578
41.5774
41.5718
41.5634
41.5589
41.5681
41.5963
41.6276
41.1085
41.1124
41.1195
41.1286
41.1379
41.1448
41.147
41.1434
41.137
41.1406
41.1897
41.3736
41.8811
42.9961
44.6545
40.7024
40.7059
40.7121
40.7197
40.7263
40.7287
40.7239
40.7097
40.6888
40.6765
40.7212
40.9627
41.7709
44.0175
48.8485
40.2928
40.2965
40.3029
40.3105
40.3163
40.3164
40.3059
40.2795
40.2338
40.1715
40.1149
40.1572
40.6605
43.2431
56.4129
39.8797
39.8841
39.892
39.9014
39.9091
39.9102
39.8976
39.8618
39.7896
39.6611
39.4388
39.0306
38.1049
35.1155
21.6683
39.4625
39.4683
39.4789
39.4925
39.5054
39.5122
39.5042
39.4683
39.3838
39.2146
38.8905
38.2626
36.9811
34.2493
29.0704
39.0403
39.0481
39.063
39.083
39.1049
39.1232
39.1289
39.1076
39.036
38.8744
38.552
37.9475
36.8633
35.0816
32.8908
38.6117
38.6221
38.6424
38.6711
38.7058
38.7417
38.771
38.7808
38.7501
38.6444
38.4084
37.9646
37.2286
36.1973
35.2046
38.1749
38.1883
38.215
38.2542
38.3047
38.3635
38.4254
38.4811
38.5154
38.5036
38.4081
38.1838
37.7977
37.2851
36.8438
37.7278
37.7444
37.7778
37.8285
37.8967
37.982
38.0828
38.1953
38.3121
38.4197
38.496
38.5144
38.4536
38.3224
38.1912
37.2682
37.2878
37.3278
37.3897
37.4757
37.5885
37.7308
37.9055
38.1143
38.3562
38.623
38.8991
39.1572
39.3586
39.4622
36.7941
36.8162
36.8616
36.9332
37.0351
37.1731
37.3551
37.5909
37.893
38.2741
38.7425
39.2953
39.8989
40.4617
40.8198
36.3037
36.3273
36.3764
36.4547
36.5683
36.7261
36.9407
37.2295
37.6161
38.13
38.8023
39.6552
40.6678
41.706
42.4407
35.796
35.8199
35.8699
35.9507
36.0698
36.2385
36.4736
36.7991
37.25
37.8746
38.7354
39.9033
41.4175
43.16
44.5863
35.2708
35.2935
35.3412
35.4191
35.5357
35.7037
35.9424
36.2808
36.7626
37.454
38.4542
39.9101
42.0073
44.8325
47.7369
34.729
34.7487
34.7906
34.8598
34.9648
35.1186
35.3409
35.6619
36.129
36.8178
37.8553
39.4704
42.0904
46.4487
52.9189
34.1725
34.1877
34.2202
34.2747
34.359
34.4847
34.6696
34.9407
35.3406
35.9382
36.8541
38.3321
40.9649
46.5972
62.6084
-188.85
-139.935
-122.482
-114.104
-109.211
-106.019
-103.804
-102.211
-101.041
-100.174
-99.5333
-99.0674
-98.743
-98.5378
-98.4384
-159.666
-139.775
-126.178
-117.789
-112.412
-108.78
-106.219
-104.361
-102.988
-101.964
-101.203
-100.648
-100.26
-100.014
-99.8946
-144.312
-135.242
-126.256
-119.38
-114.401
-110.795
-108.146
-106.174
-104.69
-103.57
-102.729
-102.112
-101.678
-101.401
-101.267
-135.273
-130.649
-124.868
-119.654
-115.434
-112.143
-109.603
-107.646
-106.138
-104.98
-104.1
-103.447
-102.984
-102.689
-102.545
-129.46
-126.86
-123.084
-119.237
-115.821
-112.968
-110.654
-108.805
-107.342
-106.195
-105.311
-104.648
-104.175
-103.87
-103.722
-125.471
-123.885
-121.347
-118.521
-115.815
-113.418
-111.381
-109.695
-108.324
-107.227
-106.368
-105.716
-105.247
-104.943
-104.794
-122.599
-121.569
-119.81
-117.718
-115.594
-113.615
-111.864
-110.365
-109.114
-108.093
-107.281
-106.656
-106.202
-105.907
-105.762
-120.46
-119.758
-118.503
-116.937
-115.271
-113.654
-112.17
-110.862
-109.744
-108.813
-108.061
-107.476
-107.047
-106.767
-106.628
-118.825
-118.329
-117.412
-116.224
-114.914
-113.597
-112.352
-111.226
-110.242
-109.408
-108.724
-108.186
-107.788
-107.526
-107.396
-117.551
-117.191
-116.507
-115.595
-114.56
-113.49
-112.452
-111.491
-110.635
-109.898
-109.284
-108.797
-108.434
-108.193
-108.074
-116.544
-116.278
-115.758
-115.051
-114.228
-113.358
-112.496
-111.682
-110.944
-110.299
-109.756
-109.32
-108.993
-108.775
-108.667
-115.738
-115.539
-115.14
-114.585
-113.928
-113.22
-112.505
-111.819
-111.188
-110.629
-110.153
-109.767
-109.476
-109.281
-109.183
-115.088
-114.937
-114.627
-114.19
-113.663
-113.086
-112.494
-111.918
-111.38
-110.899
-110.485
-110.147
-109.89
-109.718
-109.631
-114.559
-114.445
-114.202
-113.855
-113.431
-112.96
-112.47
-111.988
-111.533
-111.121
-110.763
-110.47
-110.245
-110.093
-110.017
-114.126
-114.04
-113.85
-113.573
-113.23
-112.845
-112.441
-112.038
-111.654
-111.303
-110.997
-110.743
-110.548
-110.416
-110.35
-113.77
-113.705
-113.556
-113.335
-113.058
-112.743
-112.409
-112.073
-111.75
-111.453
-111.192
-110.974
-110.806
-110.692
-110.634
-113.476
-113.428
-113.311
-113.134
-112.91
-112.653
-112.377
-112.098
-111.828
-111.577
-111.356
-111.17
-111.026
-110.928
-110.878
-113.232
-113.198
-113.106
-112.965
-112.784
-112.574
-112.348
-112.116
-111.891
-111.68
-111.493
-111.335
-111.213
-111.129
-111.087
-113.03
-113.006
-112.935
-112.823
-112.677
-112.506
-112.32
-112.129
-111.942
-111.766
-111.608
-111.475
-111.371
-111.3
-111.264
-112.86
-112.845
-112.791
-112.702
-112.585
-112.447
-112.295
-112.138
-111.983
-111.837
-111.705
-111.594
-111.506
-111.446
-111.416
-112.718
-112.71
-112.67
-112.601
-112.508
-112.396
-112.273
-112.144
-112.017
-111.896
-111.787
-111.694
-111.621
-111.571
-111.545
-112.598
-112.596
-112.567
-112.514
-112.441
-112.353
-112.253
-112.149
-112.045
-111.946
-111.856
-111.779
-111.719
-111.677
-111.656
-112.497
-112.5
-112.48
-112.441
-112.385
-112.315
-112.236
-112.152
-112.069
-111.988
-111.915
-111.852
-111.802
-111.768
-111.751
-112.411
-112.418
-112.406
-112.378
-112.336
-112.282
-112.221
-112.155
-112.088
-112.024
-111.965
-111.914
-111.874
-111.847
-111.832
-112.336
-112.347
-112.342
-112.324
-112.294
-112.254
-112.207
-112.157
-112.105
-112.055
-112.009
-111.968
-111.936
-111.914
-111.903
-112.272
-112.285
-112.286
-112.276
-112.257
-112.229
-112.195
-112.158
-112.12
-112.082
-112.046
-112.015
-111.991
-111.974
-111.965
-112.215
-112.231
-112.237
-112.235
-112.224
-112.207
-112.185
-112.159
-112.132
-112.105
-112.08
-112.057
-112.039
-112.026
-112.019
-112.164
-112.182
-112.193
-112.197
-112.195
-112.188
-112.176
-112.161
-112.144