/*--------------------------------*- C++ -*----------------------------------*\
| =========                 |                                                 |
| \\      /  F ield         | OpenFOAM: The Open Source CFD Toolbox           |
|  \\    /   O peration     | Version:  5.x                                   |
|   \\  /    A nd           | Web:      www.OpenFOAM.org                      |
|    \\/     M anipulation  |                                                 |
\*---------------------------------------------------------------------------*/
FoamFile
{
    version     2.0;
    format      ascii;
    class       volScalarField;
    location    "15.6";
    object      gradTy;
}
// * * * * * * * * * * * * * * * * * * * * * * * * * * * * * * * * * * * * * //

dimensions      [0 -1 0 1 0 0 0];

internalField   nonuniform List<scalar> 
6300
(
1007.41
1022.21
1036.94
1051.56
1066.03
1080.29
1094.31
1108.04
1121.44
1134.47
1147.09
1159.25
1170.94
1182.13
1192.78
0.0330462
0.0991307
0.165176
0.231114
0.296812
0.362039
0.426426
0.489423
0.550267
0.607944
0.661187
0.708501
0.74825
0.778785
0.798632
0.0550853
0.165254
0.275401
0.385445
0.4952
0.604321
0.712238
0.818083
0.920613
1.01815
1.10854
1.18921
1.25728
1.30979
1.34409
0.0771244
0.231397
0.385721
0.54005
0.694201
0.847781
1.00009
1.15003
1.29592
1.43546
1.56558
1.68249
1.78182
1.85899
1.90974
0.099134
0.297478
0.496024
0.694816
0.89375
1.09248
1.2903
1.48597
1.67755
1.86215
2.03578
2.1933
2.32849
2.43458
2.50506
0.121065
0.363346
0.606059
0.84941
1.09347
1.33805
1.58261
1.82597
2.06609
2.29973
2.52204
2.72636
2.90417
3.04568
3.141
0.142841
0.428772
0.715436
1.00327
1.29262
1.58361
1.87606
2.16914
2.46107
2.74856
3.02622
3.28582
3.51606
3.70285
3.83106
0.164362
0.493446
0.823613
1.15559
1.49007
1.82767
2.1688
2.51338
2.86038
3.20715
3.54831
3.87453
4.17125
4.41843
4.59249
0.185516
0.557019
0.929954
1.30535
1.68434
2.06815
2.45804
2.8551
3.25983
3.6712
4.08522
4.49257
4.87578
5.20691
5.44856
0.206195
0.619141
1.0338
1.45148
1.87374
2.30247
2.74
3.18907
3.6525
4.13247
4.6286
5.13454
5.63218
6.08465
6.43228
0.226311
0.679526
1.1346
1.59299
2.0566
2.52791
3.01035
3.50853
4.02849
4.57738
5.16199
5.78456
6.43351
7.06697
7.59258
0.245824
0.738036
1.23202
1.72925
2.23168
2.74214
3.26483
3.80609
4.37539
4.98637
5.6572
6.40797
7.25007
8.15689
9.00361
0.264764
0.794747
1.32616
1.86023
2.39865
2.94404
3.50061
4.07544
4.6804
5.33531
6.07221
6.93979
8.00164
9.30664
10.7677
0.28324
0.849995
1.41761
1.9868
2.55858
3.13464
3.71801
4.31449
4.93527
5.60201
6.35632
7.27711
8.50977
10.2999
12.9316
0.301432
0.904356
1.50744
2.11071
2.71415
3.3178
3.92214
4.52904
5.14396
5.78092
6.47373
7.30231
8.46013
10.4511
14.7717
1202.05
1210.1
1217.77
1225.06
1231.99
1238.57
1244.8
1250.72
1256.33
1261.67
1266.75
1271.6
1276.25
1280.72
1285.03
1289.22
1293.3
1297.31
1301.26
1305.18
1309.09
1313.02
1316.97
1320.98
1325.05
1329.21
1333.45
1337.81
1342.27
1346.85
1351.54
1356.36
1361.29
1366.32
1371.46
1376.7
1382.02
1387.41
1392.86
1398.36
1403.89
1409.42
1414.94
1420.43
1425.86
1431.21
1436.47
1441.6
1446.59
1451.42
1456.07
1460.51
1464.72
1468.69
1472.38
1475.77
1478.83
1481.53
1483.84
1485.73
1487.15
1488.08
1488.48
1488.3
1487.51
1486.06
1483.89
1480.96
1477.2
1472.54
1466.93
1460.27
1452.49
1443.5
1433.22
1421.55
1408.4
1393.66
1377.23
1359.01
1338.91
1316.81
1292.62
1266.26
1237.64
1206.71
1173.4
1137.68
1099.56
1059.03
0.806018
0.804198
0.793831
0.775209
0.748899
0.715683
0.676492
0.632329
0.584201
0.533064
0.479793
0.425158
0.369818
0.314331
0.259163
0.204715
0.151335
0.0993509
0.0490874
0.000886563
-0.044877
-0.087787
-0.127385
-0.16318
-0.194672
-0.221381
-0.242898
-0.258926
-0.269329
-0.27416
-0.273656
-0.268201
-0.258255
-0.244256
-0.226528
-0.205222
-0.180314
-0.151662
-0.119113
-0.082637
-0.0424399
0.000966729
0.0467795
0.094
0.1416
0.188715
0.234813
0.279797
0.324024
0.368226
0.413377
0.460511
0.51055
0.564158
0.621663
0.68306
0.748094
0.81641
0.887728
0.962005
1.03954
1.12102
1.20746
1.30013
1.40039
1.50958
1.6288
1.75889
1.90028
2.05303
2.21686
2.39122
2.57543
2.76867
2.9701
3.17871
3.39327
3.61216
3.83317
4.05334
4.26884
4.47494
4.66602
4.83581
4.9777
5.08516
5.15226
5.17422
5.14792
5.07221
1.35697
1.35398
1.33625
1.30432
1.25922
1.20238
1.13547
1.06027
0.978527
0.891907
0.801895
0.709782
0.616659
0.523433
0.430851
0.339542
0.250054
0.162896
0.078577
-0.00235579
-0.0792924
-0.15154
-0.218318
-0.278775
-0.33202
-0.377188
-0.413518
-0.440445
-0.457702
-0.465376
-0.463923
-0.454102
-0.436831
-0.412984
-0.383194
-0.347719
-0.306426
-0.258906
-0.204699
-0.143569
-0.0757566
-0.00213284
0.0758082
0.156141
0.236846
0.316215
0.393197
0.467609
0.540156
0.612284
0.685893
0.762987
0.845329
0.93415
1.03
1.13272
1.24167
1.35596
1.47489
1.5982
1.72634
1.86051
2.00257
2.15483
2.31984
2.50001
2.69741
2.91352
3.14907
3.40411
3.67801
3.96973
4.278
4.60147
4.93877
5.28843
5.64866
6.01702
6.3901
6.76318
7.12994
7.48237
7.81085
8.1044
8.3513
8.53983
8.65927
8.70088
8.65887
8.53106
1.92904
1.92491
1.89905
1.85232
1.78639
1.70354
1.60636
1.49758
1.37985
1.25562
1.12701
0.995857
0.863652
0.731613
0.600715
0.47176
0.345432
0.222367
0.10321
-0.0113315
-0.120437
-0.223142
-0.318326
-0.404723
-0.480969
-0.545692
-0.597642
-0.635858
-0.659841
-0.6697
-0.666205
-0.650699
-0.624845
-0.59024
-0.548017
-0.498565
-0.441476
-0.375753
-0.300229
-0.2141
-0.117417
-0.0114257
0.101416
0.217764
0.334035
0.447169
0.555297
0.658116
0.756903
0.85422
0.9534
1.05792
1.17079
1.29404
1.42843
1.57344
1.72755
1.88885
2.05573
2.22743
2.40446
2.58864
2.78296
2.99119
3.21744
3.46563
3.73909
4.04013
4.36982
4.72801
5.11349
5.5244
5.95866
6.41431
6.88961
7.38291
7.8923
8.41504
8.947
9.48206
10.0116
10.5243
11.0059
11.4401
11.8089
12.0939
12.2783
12.3479
12.2933
12.1108
2.53232
2.52714
2.49189
2.42797
2.33796
2.22533
2.09396
1.94781
1.7906
1.62567
1.45587
1.28352
1.1105
0.938247
0.767889
0.600305
0.43623
0.276337
0.121325
-0.0280006
-0.170657
-0.30543
-0.430839
-0.545134
-0.646352
-0.732425
-0.801378
-0.851595
-0.882145
-0.893078
-0.885605
-0.862021
-0.825281
-0.778286
-0.723071
-0.660229
-0.58878
-0.506533
-0.410855
-0.299647
-0.172304
-0.0304028
0.122152
0.279679
0.435919
0.585507
0.725219
0.854602
0.975936
1.09365
1.21339
1.341
1.48148
1.63807
1.81177
2.00122
2.20324
2.4139
2.62981
2.84917
3.07245
3.30235
3.5435
3.80178
4.08359
4.39504
4.74123
5.12563
5.54969
6.01275
6.51248
7.04558
7.60866
8.19898
8.81463
9.45433
10.1168
10.7999
11.4995
12.209
12.9176
13.6108
14.2694
14.8701
15.387
15.793
16.0625
16.1737
16.1117
15.8705
3.17866
3.17253
3.12592
3.04105
2.92198
2.77396
2.60271
2.4138
2.21232
2.00262
1.78826
1.57206
1.35614
1.14207
0.930985
0.723726
0.52094
0.323217
0.131197
-0.0543207
-0.232272
-0.401241
-0.559386
-0.704405
-0.833567
-0.943832
-1.03211
-1.09567
-1.13271
-1.14297
-1.12822
-1.0923
-1.0405
-0.978188
-0.909131
-0.834316
-0.751662
-0.656689
-0.543887
-0.408476
-0.248208
-0.0647776
0.135666
0.343383
0.547308
0.737989
0.90993
1.06259
1.20009
1.33004
1.46193
1.60546
1.76884
1.95736
2.17232
2.41078
2.66637
2.93128
3.19876
3.46515
3.73075
3.9997
4.2792
4.57832
4.90689
5.27424
5.68817
6.15386
6.6732
7.24451
7.86324
8.52336
9.21923
9.94695
10.7048
11.4927
12.3114
13.1605
14.0377
14.9366
15.8457
16.747
17.6158
18.4204
19.1244
19.6884
20.0743
20.2486
20.1879
19.8819
3.88299
3.87607
3.81491
3.70321
3.54752
3.3559
3.1367
2.89772
2.64568
2.38606
2.12312
1.86
1.59893
1.34142
1.08843
0.840563
0.598228
0.361761
0.131588
-0.0916433
-0.306921
-0.51273
-0.706918
-0.88659
-1.04807
-1.18697
-1.29849
-1.37799
-1.4219
-1.42895
-1.40138
-1.34551
-1.27093
-1.18787
-1.10355
-1.01976
-0.932361
-0.832601
-0.709565
-0.553202
-0.357579
-0.123774
0.138578
0.412407
0.677619
0.917302
1.12224
1.29224
1.43495
1.56345
1.69352
1.84111
2.01978
2.23834
2.49881
2.79544
3.11583
3.44469
3.76905
4.08202
4.38394
4.6816
4.98635
5.31219
5.67403
6.08607
6.56024
7.10453
7.72153
8.40766
9.15403
9.9493
10.7836
11.6512
12.5512
13.4865
14.4615
15.4804
16.5442
17.6492
18.7844
19.9296
21.0539
22.1152
23.0627
23.8399
24.3899
24.6615
24.6165
24.2371
4.66508
4.65751
4.57644
4.42849
4.22459
3.97733
3.69898
3.40023
3.08973
2.77408
2.45801
2.14477
1.83639
1.53405
1.2383
0.949266
0.6669
0.391087
0.121838
-0.140555
-0.395333
-0.641073
-0.875464
-1.09508
-1.29517
-1.46962
-1.61108
-1.71164
-1.76425
-1.76487
-1.71536
-1.62573
-1.51368
-1.39944
-1.29732
-1.21052
-1.13096
-1.04214
-0.923347
-0.75459
-0.522072
-0.224037
0.124789
0.493652
0.844495
1.14644
1.38464
1.56097
1.69006
1.79435
1.89968
2.03177
2.21301
2.45869
2.77295
3.14561
3.5528
3.96429
4.35544
4.71445
5.04297
5.35298
5.66279
5.99388
6.36852
6.80807
7.33095
7.9501
8.6699
9.48365
10.374
11.3186
12.2995
13.3082
14.3463
15.4225
16.5482
17.7349
18.9907
20.3176
21.7081
23.1418
24.5818
25.9733
27.2455
28.3178
29.1058
29.5297
29.5257
29.061
5.55285
5.54456
5.43405
5.23414
4.96391
4.64343
4.29057
3.91962
3.5412
3.16268
2.78884
2.42253
2.06518
1.71723
1.37851
1.04842
0.726191
0.411031
0.102294
-0.200341
-0.496658
-0.785647
-1.06517
-1.33154
-1.57907
-1.79963
-1.98239
-2.11421
-2.1813
-2.17282
-2.08698
-1.93809
-1.75942
-1.59344
-1.46888
-1.39072
-1.34277
-1.29468
-1.20893
-1.04765
-0.780772
-0.397317
0.0822492
0.60094
1.08186
1.46746
1.73621
1.89776
1.98098
2.02388
2.06738
2.15177
2.31353
2.58036
2.96308
3.44611
3.98361
4.51321
4.98814
5.3908
5.72868
6.02466
6.30866
6.61288
6.96961
7.41012
7.96304
8.65075
9.483
10.4493
11.5158
12.6358
13.7751
14.9227
16.0868
17.2869
18.5469
19.8897
21.3347
22.8942
24.5695
26.3447
28.1795
30.0028
31.7161
33.2047
34.3456
35.0137
35.0982
34.5325
6.58886
6.57863
6.42025
6.14091
5.77544
5.35605
4.90815
4.44979
3.99288
3.54464
3.10897
2.68755
2.28058
1.88732
1.50648
1.13646
0.77553
0.421964
0.0742124
-0.26896
-0.60826
-0.943568
-1.2735
-1.59481
-1.9015
-2.18375
-2.4267
-2.60966
-2.70682
-2.69181
-2.54905
-2.29301
-1.98655
-1.72746
-1.57327
-1.52708
-1.55447
-1.60111
-1.60297
-1.49242
-1.20701
-0.708666
-0.0163108
0.762926
1.45678
1.95702
2.24246
2.34763
2.33024
2.25283
2.17652
2.16068
2.26309
2.53549
3.0091
3.66848
4.42609
5.14117
5.72523
6.1607
6.47504
6.71387
6.9257
7.15659
7.45037
7.8506
8.40136
9.14357
10.1033
11.271
12.5807
13.9252
15.2392
16.5137
17.7754
19.0654
20.4264
21.8977
23.514
25.3041
27.2869
29.4621
31.7935
34.1908
36.5101
38.5925
40.2662
41.3378
41.6071
40.9248
7.84436
7.82585
7.58047
7.17157
6.66444
6.10951
5.54045
4.97754
4.43175
3.90816
3.40828
2.93148
2.47596
2.03927
1.61865
1.21121
0.814052
0.424334
0.0393627
-0.343316
-0.725758
-1.10936
-1.49438
-1.87925
-2.25923
-2.62455
-2.95749
-3.22871
-3.39391
-3.39484
-3.1743
-2.72061
-2.14555
-1.71051
-1.52223
-1.55757
-1.73855
-1.97212
-2.15902
-2.18911
-1.94002
-1.29956
-0.240164
1.04766
2.11027
2.75566
3.00805
2.97374
2.76561
2.47989
2.19829
1.99897
1.96756
2.20054
2.7873
3.74906
4.92947
5.95742
6.67592
7.10463
7.32971
7.44155
7.51484
7.60927
7.77736
8.07387
8.56353
9.32261
10.4238
11.8876
13.5949
15.2581
16.7597
18.1224
19.4226
20.741
22.1463
23.6962
25.4424
27.4357
29.7265
32.3538
35.3117
38.4903
41.6441
44.5678
47.0529
48.8164
49.4854
48.6937
9.45582
9.39945
8.9758
8.34336
7.62194
6.88306
6.16374
5.48044
4.83845
4.2374
3.6742
3.14464
2.6441
2.16797
1.71175
1.27109
0.841805
0.41983
0.00118924
-0.418018
-0.841582
-1.27306
-1.71546
-2.17065
-2.63799
-3.11188
-3.57706
-4.00034
-4.31743
-4.41668
-4.13518
-3.32287
-2.10285
-1.33819
-1.14915
-1.37833
-1.84682
-2.41029
-2.94081
-3.28775
-3.23655
-2.49366
-0.792937
1.65667
3.36445
4.12008
4.18636
3.85003
3.31264
2.70092
2.10149
1.59542
1.29126
1.35608
2.02542
3.5147
5.65223
7.21908
8.04371
8.34156
8.34724
8.22453
8.07338
7.95568
7.91925
8.01883
8.33756
9.00874
10.2221
12.1532
14.6724
16.8236
18.4796
19.8206
21.0435
22.2909
23.6575
25.2116
27.0144
29.1383
31.681
34.7688
38.5115
42.8247
47.1089
51.1739
54.8777
57.8701
59.466
58.7092
11.7401
11.5014
10.6713
9.64289
8.60426
7.62817
6.73494
5.9237
5.18612
4.51206
3.89165
3.31597
2.77711
2.26805
1.78248
1.31465
0.859114
0.410628
-0.0360514
-0.486315
-0.945862
-1.42085
-1.91796
-2.44435
-3.0071
-3.61151
-4.2567
-4.9246
-5.55434
-5.98649
-5.86011
-4.512
-1.40422
-0.136805
-0.173675
-0.85432
-1.81812
-2.89569
-3.98668
-4.95944
-5.5288
-5.0668
-2.4239
3.334
5.98976
6.47715
5.94443
5.01584
3.96677
2.90435
1.87036
0.901297
0.0837842
-0.35868
0.0829784
2.34696
7.19681
9.54953
10.17
9.99917
9.54961
9.04848
8.58376
8.18512
7.86534
7.64829
7.60414
7.91419
8.98707
11.5717
16.2798
19.1019
20.653
21.6889
22.6288
23.6688
24.8988
26.3685
28.1239
30.2376
32.8503
36.2405
40.8894
47.2005
52.8887
58.2997
63.7262
68.9343
72.8336
72.9788
15.6403
14.4548
12.6519
10.9568
9.49618
8.25362
7.18774
6.26054
5.442
4.70917
4.04444
3.43407
2.867
2.33409
1.82752
1.34034
0.866141
0.398708
-0.0682277
-0.541321
-1.02797
-1.53681
-2.07831
-2.66571
-3.31618
-4.05237
-4.90355
-5.90372
-7.07565
-8.36045
-9.34419
-8.235
1.94451
2.94266
1.72875
0.0773851
-1.62561
-3.36176
-5.20276
-7.21195
-9.30611
-10.7803
-8.54051
9.47817
11.7372
10.3029
8.27222
6.35487
4.63985
3.06661
1.54557
-0.0112185
-1.66387
-3.34667
-4.48372
-2.5446
12.3369
14.374
13.4355
12.0577
10.8258
9.81961
8.99863
8.30065
7.66316
7.0285
6.36037
5.72088
5.57481
7.93206
20.6026
23.2098
23.5678
23.6949
24.0693
24.7724
25.7942
27.1132
28.717
30.6176
32.8994
35.8988
40.873
52.4722
59.0664
65.402
72.8878
81.8817
91.6056
97.4559
24.7928
18.2969
14.477
11.9325
10.0738
8.62436
7.44062
6.44075
5.57432
4.80809
4.11889
3.48975
2.90765
2.36218
1.84463
1.34739
0.863468
0.386141
-0.0914517
-0.576696
-1.07802
-1.60559
-2.17241
-2.79604
-3.50162
-4.3274
-5.33558
-6.63517
-8.43404
-11.1675
-15.8416
-25.0189
18.5144
9.20749
4.26113
1.08351
-1.38518
-3.67661
-6.17633
-9.34173
-13.9756
-21.8416
-37.3782
38.3159
22.8029
14.987
10.4367
7.40245
5.10874
3.15373
1.27237
-0.785524
-3.36788
-7.12026
-13.4798
-26.0729
35.9728
23.4828
17.3334
13.9059
11.777
10.3239
9.2363
8.32907
7.45693
6.45695
5.07547
2.81716
-1.4421
-10.5586
39.4162
30.5562
26.8146
25.3444
25.0364
25.4168
26.2614
27.4474
28.8822
30.4486
31.9144
32.7131
31.3163
64.9501
65.6159
70.8471
79.8767
93.7769
115.954
155.057
1011.86
957.075
899.126
838.19
774.48
708.229
639.684
569.101
496.736
422.844
347.675
271.471
194.471
116.907
39.0064
4.93569
4.72189
4.45211
4.13755
3.79025
3.42178
3.04229
2.6599
2.28055
1.90803
1.54426
1.18957
0.843112
0.50312
0.167238
8.29811
7.93192
7.4699
6.9323
6.34063
5.71528
5.07376
4.42986
3.79338
3.17038
2.56368
1.97349
1.398
0.833968
0.277166
11.7725
11.2377
10.5632
9.78108
8.92468
8.02492
7.10761
6.1924
5.29272
4.41641
3.56658
2.74268
1.94142
1.15756
0.384617
15.4126
14.6832
13.7641
12.704
11.552
10.3521
9.13933
7.9394
6.76872
5.63595
4.54353
3.48921
2.4674
1.47022
0.488346
19.2822
18.318
17.1058
15.7185
14.2271
12.6918
11.1581
9.65707
8.20677
6.81513
5.48236
4.20321
2.96874
1.76756
0.586883
23.4614
22.2003
20.622
18.8368
16.9459
15.0295
13.144
11.3238
9.58607
7.93539
6.36755
4.87254
3.43674
2.04439
0.678503
28.055
26.3992
24.3445
22.0603
19.6897
17.3361
15.0642
12.9077
10.8781
8.97273
7.17986
5.48262
3.86129
2.29475
0.761238
33.2067
30.9968
28.2964
25.3699
22.4163
19.5607
16.8687
14.3642
12.0456
9.89737
7.89645
6.01673
4.23102
2.51206
0.832941
39.1218
36.0849
32.4744
28.7064
25.0446
21.6219
18.4858
15.6346
13.0427
10.6745
8.4917
6.45678
4.53396
2.68952
0.891401
46.106
41.7454
36.8091
31.9361
27.433
23.3963
19.8176
16.6454
13.8158
11.2659
8.93899
6.78465
4.75847
2.82064
0.934534
54.6269
47.9809
41.0797
34.7954
29.3544
24.7122
20.7427
17.3134
14.3088
11.6343
9.21354
6.98426
4.8946
2.89999
0.960623
65.3398
54.4712
44.7329
36.811
30.4766
25.355
21.1273
17.5564
14.4715
11.7488
9.29648
7.04415
4.93562
2.92408
0.968579
78.5867
59.83
46.5692
37.2385
30.3855
25.1035
20.8548
17.3131
14.2717
11.5927
9.17932
6.96015
4.87959
2.89208
0.958185
90.0045
59.6917
44.4749
35.1874
28.7228
23.8184
19.8749
16.5692
13.7092
11.1707
8.86784
6.73747
4.73047
2.80643
0.930257
0.318041
0.954005
1.58953
2.224
2.85633
3.48473
4.10649
4.71799
5.31521
5.89568
6.46398
7.04556
7.72051
8.70629
10.5596
0.333218
0.999443
1.66489
2.32851
2.98841
3.64122
4.28135
4.89972
5.48205
6.00637
6.43911
6.72688
6.76835
6.28801
4.22804
0.348536
1.0454
1.74147
2.43556
3.12532
3.80643
4.4712
5.10633
5.68903
6.18052
6.51478
6.57904
6.17831
4.96654
2.33808
0.363988
1.09189
1.8194
2.54556
3.26817
3.98289
4.68151
5.34918
5.95919
6.46372
6.77777
6.75391
6.1514
4.62866
1.87009
0.37948
1.13864
1.89823
2.65795
3.41644
4.17041
4.91319
5.63193
6.30244
6.87901
7.2752
7.33044
6.76341
5.14889
2.08374
0.394827
1.18506
1.97693
2.77115
3.56775
4.3656
5.16141
5.94804
6.71081
7.41938
8.00913
8.33897
8.1026
6.67638
3.06282
0.409762
1.23032
2.05396
2.88262
3.71812
4.56207
5.41584
6.28054
7.15666
8.0421
8.92324
9.74057
10.2678
9.72267
5.78634
0.423969
1.27342
2.12745
2.98929
3.86254
4.7516
5.66252
6.60493
7.59589
8.66765
9.88134
11.3434
13.1775
15.1237
13.8127
0.437117
1.31331
2.19547
3.08797
3.99591
4.92582
5.88716
6.89538
7.9788
9.19445
10.6666
12.6877
16.0089
22.7861
40.1127
0.448894
1.34902
2.25627
3.17587
4.11392
5.07809
6.07908
7.13341
8.26967
9.54289
11.0704
13.1287
16.44
23.122
40.2457
0.45904
1.37974
2.30843
3.25089
4.21369
5.20468
6.23379
7.31434
8.46518
9.71448
11.1054
12.6991
14.5298
16.2061
14.2553
0.467354
1.40488
2.35097
3.31171
4.29379
5.30467
6.35263
7.44625
8.59209
9.78748
10.9993
12.1045
12.7266
11.8086
6.70894
0.4737
1.42404
2.38327
3.35764
4.3538
5.37878
6.4396
7.54168
8.68437
9.84883
10.967
11.845
11.9926
10.3147
4.93892
0.477997
1.43698
2.405
3.38836
4.39367
5.42787
6.49776
7.60873
8.76129
9.94208
11.101
12.0926
12.5258
11.3887
6.29515
0.480208
1.44361
2.41602
3.40374
4.41339
5.45204
6.52721
7.6467
8.8184
10.0503
11.3509
12.7278
14.1491
15.2098
12.8573
0.480338
1.44393
2.41637
3.40381
4.41285
5.45072
6.52572
7.64821
8.83352
10.1105
11.5475
13.3318
16.0224
21.4009
35.6428
0.478429
1.43809
2.40624
3.38881
4.39218
5.42347
6.49106
7.6059
8.78476
10.0594
11.5025
13.3062
16.0287
21.4363
35.6705
0.474562
1.42632
2.38604
3.35929
4.35203
5.37087
6.42342
7.51891
8.66928
9.89097
11.2069
12.6421
14.17
15.3415
12.9734
0.468857
1.40898
2.35639
3.31615
4.29365
5.29473
6.32579
7.39361
8.50406
9.65691
10.8281
11.9132
12.5585
11.7045
6.65006
0.461468
1.38655
2.31811
3.26063
4.2188
5.19764
6.20247
7.23851
8.30915
9.40987
10.5089
11.4895
11.9878
10.9841
6.05272
0.452578
1.35959
2.27218
3.19416
4.1295
5.08239
6.05732
7.0592
8.09316
9.16378
10.2716
11.4003
12.4599
12.991
10.4372
0.442391
1.32871
2.21966
3.11834
4.02792
4.9517
5.89332
6.85743
7.85152
8.89161
10.0196
11.3589
13.2988
17.1398
27.5442
0.431125
1.2946
2.16173
3.03489
3.91639
4.8085
5.71356
6.63466
7.57776
8.55818
9.62058
10.9002
12.8172
16.7302
27.3658
0.419001
1.25792
2.09955
2.94557
3.79741
4.65618
5.5225
6.39646
7.27791
8.16763
9.07044
9.99865
10.9491
11.6516
9.81486
0.406229
1.21933
2.03429
2.85214
3.67354
4.49851
5.32599
6.15289
6.97214
7.76783
8.50244
9.08138
9.25299
8.33613
4.6199
0.393003
1.17941
1.96697
2.75618
3.5471
4.339
5.12975
5.91447
6.68255
7.41026
8.04233
8.44676
8.31254
6.96447
3.26065
0.379486
1.13868
1.89846
2.65897
3.4199
4.1802
4.93758
5.68746
6.42082
7.11892
7.74011
8.18601
8.21483
7.22858
3.8579
0.365807
1.09751
1.82941
2.56141
3.29306
4.02334
4.75049
5.47179
6.18344
6.88083
7.55941
8.21473
8.82183
9.14839
7.47249
0.352058
1.05618
1.76025
2.46405
3.16709
3.86856
4.56736
5.2627
5.95584
6.65564
7.39467
8.27676
9.62344
12.4586
20.3015
0.3383
1.01486
1.69123
2.36715
3.04215
3.71553
4.38653
5.055
5.72347
6.40308
7.13041
8.01599
9.39116
12.2909
20.2384
0.324566
0.973637
1.62249
2.27085
2.91827
3.56406
4.20734
4.84718
5.48323
6.11723
6.75608
7.41503
8.09996
8.61742
7.26805
0.310866
0.932549
1.55405
2.17515
2.79545
3.41427
4.03044
4.64187
5.24429
5.82788
6.36764
6.79587
6.92488
6.2402
3.45496
0.297193
0.891564
1.48586
2.07997
2.67361
3.26624
3.85675
4.44271
5.0183
5.56885
6.0565
6.38433
6.31473
5.32155
2.50616
0.283524
0.850607
1.41778
1.98506
2.5524
3.1196
3.68613
4.25064
4.80957
5.35337
5.85621
6.24863
6.3458
5.66819
3.08297
0.269825
0.809568
1.34959
1.89008
2.43125
2.97336
3.51683
4.06235
4.61126
5.16621
5.73244
6.31785
6.91478
7.33944
6.14631
0.256056
0.768318
1.28104
1.79458
2.30938
2.82612
3.34603
3.87162
4.40864
4.97112
5.59522
6.37893
7.60322
10.134
16.9175
0.242177
0.726731
1.2119
1.69816
2.18611
2.67661
3.17119
3.67285
4.18825
4.73314
5.34703
6.13392
7.38422
9.97502
16.8574
0.228153
0.6847
1.14198
1.60054
2.06101
2.52421
2.99136
3.46447
3.94727
4.44714
4.97858
5.56697
6.23413
6.83561
5.95111
0.213956
0.642142
1.07115
1.50156
1.93398
2.36903
2.80732
3.24926
3.69436
4.13914
4.57045
4.94519
5.12952
4.72796
2.69592
0.199566
0.598997
0.999331
1.40116
1.80507
2.21153
2.62068
3.03177
3.44158
3.84039
4.20152
4.45551
4.43168
3.75248
1.77386
0.184962
0.555214
0.926443
1.29929
1.67436
2.05212
2.43265
2.81511
3.19637
3.56772
3.90688
4.15866
4.18885
3.67931
1.9414
0.170128
0.510738
0.852411
1.19586
1.54176
1.89073
2.24321
2.59921
2.95797
3.31733
3.67282
4.01561
4.32074
4.45907
3.59843
0.155044
0.465514
0.777132
1.09068
1.40698
1.72687
2.05127
2.38134
2.7191
3.06957
3.44748
3.89865
4.56837
5.93247
9.65551
0.139693
0.419482
0.700493
0.983584
1.26968
1.55984
1.85535
2.15807
2.47135
2.80268
3.17119
3.62983
4.33367
5.7676
9.59555
0.124059
0.372593
0.622396
0.874375
1.12954
1.38906
1.65438
1.92741
2.21102
2.50991
2.83222
3.19067
3.59186
3.94009
3.40811
0.108132
0.324815
0.542774
0.762936
0.986346
1.21422
1.448
1.68936
1.94002
2.20081
2.46811
2.72173
2.88675
2.72374
1.58465
0.0919134
0.276144
0.461612
0.649227
0.840034
1.03526
1.23633
1.44481
1.66195
1.88716
2.11343
2.31427
2.40938
2.18517
1.17103
0.075412
0.226608
0.378948
0.533289
0.690638
0.852211
1.01949
1.19422
1.37822
1.57272
1.77636
1.98018
2.15371
2.19512
1.67954
0.0586507
0.176273
0.294886
0.415252
0.538294
0.665183
0.79745
0.937156
1.08718
1.25189
1.43913
1.6671
1.98972
2.59182
4.16265
0.0416655
0.125245
0.2096
0.295347
0.383267
0.474405
0.570227
0.672908
0.785919
0.915393
1.07356
1.28825
1.63161
2.31574
4.05195
0.0245066
0.0736766
0.123343
0.173927
0.225996
0.280361
0.338225
0.401467
0.47321
0.558954
0.668713
0.820023
1.03682
1.30899
1.30852
0.00723824
0.0217617
0.0364469
0.0514719
0.0671274
0.0838814
0.102477
0.124111
0.150765
0.185831
0.234993
0.306294
0.403567
0.491535
0.382125
-0.010063
-0.030266
-0.0506861
-0.0714219
-0.0925055
-0.11388
-0.135384
-0.15674
-0.177528
-0.197085
-0.214109
-0.225481
-0.223239
-0.188862
-0.0895296
-0.0273107
-0.0821427
-0.137599
-0.194073
-0.251934
-0.311549
-0.373347
-0.437983
-0.506676
-0.581756
-0.667135
-0.766705
-0.872361
-0.914363
-0.616549
-0.0444117
-0.133585
-0.223802
-0.315756
-0.41014
-0.507697
-0.609331
-0.7164
-0.831377
-0.959265
-1.1103
-1.30369
-1.56567
-1.87583
-1.79306
-0.0612694
-0.184298
-0.308796
-0.435745
-0.566135
-0.701003
-0.841529
-0.989312
-1.14709
-1.32068
-1.52402
-1.79301
-2.22549
-3.11012
-5.40241
-0.0777856
-0.233988
-0.392083
-0.553336
-0.71901
-0.890367
-1.06867
-1.25526
-1.45181
-1.66141
-1.89213
-2.16875
-2.57127
-3.36682
-5.50084
-0.0938623
-0.282358
-0.473169
-0.667845
-0.867923
-1.07489
-1.29004
-1.51426
-1.74743
-1.98744
-2.22832
-2.45701
-2.64407
-2.69395
-2.11515
-0.109402
-0.329115
-0.551563
-0.778589
-1.01204
-1.2537
-1.50509
-1.76702
-2.03828
-2.31281
-2.57293
-2.77413
-2.81208
-2.45761
-1.26519
-0.124308
-0.373966
-0.626768
-0.884857
-1.15043
-1.42571
-1.71281
-2.01325
-2.3268
-2.64813
-2.95841
-3.20457
-3.25253
-2.80313
-1.34435
-0.138487
-0.416627
-0.698289
-0.98591
-1.28206
-1.5895
-1.91121
-2.25035
-2.60988
-2.99107
-3.38836
-3.77258
-4.0383
-3.84956
-2.27758
-0.151854
-0.456833
-0.765659
-1.08102
-1.40583
-1.74334
-2.09746
-2.47324
-2.87786
-3.32277
-3.8273
-4.4228
-5.13956
-5.8565
-5.28242
-0.164337
-0.49436
-0.828475
-1.16956
-1.52074
-1.88561
-2.26864
-2.67604
-3.11782
-3.61299
-4.20298
-4.98872
-6.24061
-8.75983
-15.2252
-0.175878
-0.529036
-0.886437
-1.25105
-1.6261
-2.01523
-2.42285
-2.8549
-3.32063
-3.83728
-4.44264
-5.23083
-6.46142
-8.92262
-15.2873
-0.186444
-0.560755
-0.939371
-1.32528
-1.72167
-2.13197
-2.56005
-3.0103
-3.488
-3.9999
-4.55524
-5.1656
-5.82748
-6.37445
-5.48533
-0.196017
-0.589473
-0.98722
-1.39221
-1.80752
-2.23633
-2.68179
-3.14657
-3.63155
-4.13227
-4.62954
-5.06449
-5.27322
-4.82342
-2.6843
-0.2046
-0.615199
-1.03002
-1.45195
-1.88397
-2.32908
-2.79006
-3.26875
-3.76408
-4.26695
-4.74703
-5.12034
-5.17617
-4.44542
-2.1259
-0.212208
-0.637982
-1.06786
-1.50466
-1.9513
-2.41077
-2.88598
-3.3793
-3.8913
-4.41737
-4.93856
-5.39657
-5.62525
-5.17065
-2.90933
-0.218868
-0.657904
-1.10087
-1.5505
-2.00967
-2.48147
-2.96926
-3.47682
-4.00868
-4.57108
-5.17384
-5.83196
-6.54869
-7.15043
-6.16307
-0.224621
-0.675082
-1.12924
-1.58969
-2.05923
-2.54101
-3.03875
-3.55738
-4.10477
-4.69666
-5.37056
-6.22655
-7.55187
-10.2336
-17.2908
-0.229523
-0.689681
-1.15321
-1.62253
-2.10026
-2.58942
-3.09366
-3.61788
-4.16989
-4.7652
-5.44072
-6.29508
-7.61293
-10.278
-17.3077
-0.23365
-0.701921
-1.17316
-1.64949
-2.1333
-2.6273
-3.13464
-3.65899
-4.20484
-4.77795
-5.38657
-6.04162
-6.73826
-7.29119
-6.21789
-0.237097
-0.71209
-1.18953
-1.67123
-2.15923
-2.65587
-3.16372
-3.68511
-4.22077
-4.76595
-5.30007
-5.75914
-5.96326
-5.43357
-3.01856
-0.239984
-0.720544
-1.20293
-1.68856
-2.1791
-2.6766
-3.18333
-3.70123
-4.22999
-4.76154
-5.26558
-5.65358
-5.69772
-4.8851
-2.33454
-0.242456
-0.727713
-1.21406
-1.70243
-2.19411
-2.69088
-3.19512
-3.70973
-4.23717
-4.77612
-5.31155
-5.78671
-6.02704
-5.54342
-3.12166
-0.244685
-0.734109
-1.22375
-1.71398
-2.20554
-2.6999
-3.19964
-3.70925
-4.23628
-4.79306
-5.39925
-6.08282
-6.85897
-7.54756
-6.56256
-0.246872
-0.740338
-1.23302
-1.72456
-2.215
-2.70511
-3.19722
-3.69661
-4.21464
-4.77558
-5.4331
-6.31451
-7.75157
-10.7137
-18.434
-0.249247
-0.7471
-1.24304
-1.73587
-2.22462
-2.70889
-3.18967
-3.67092
-4.16312
-4.69093
-5.31136
-6.16022
-7.58489
-10.5755
-18.3775
-0.252063
-0.755172
-1.2552
-1.74998
-2.2373
-2.71504
-3.18172
-3.63755
-4.08678
-4.54187
-5.03087
-5.60593
-6.3306
-7.09582
-6.3712
-0.255578
-0.765369
-1.27097
-1.76924
-2.25658
-2.72882
-3.18121
-3.60869
-4.00627
-4.36917
-4.69051
-4.94761
-5.04803
-4.65061
-2.71048
-0.260034
-0.778461
-1.2918
-1.79605
-2.28631
-2.75631
-3.19793
-3.60052
-3.94974
-4.22525
-4.39464
-4.398
-4.11108
-3.27663
-1.46696
-0.265622
-0.795072
-1.3189
-1.83253
-2.33004
-2.80345
-3.2417
-3.62931
-3.94431
-4.15492
-4.21399
-4.04986
-3.55426
-2.57982
-1.00412
-0.272449
-0.815567
-1.35306
-1.88017
-2.39047
-2.87494
-3.32055
-3.70845
-4.0113
-4.18974
-4.18822
-3.93182
-3.32989
-2.30048
-0.841651
-0.280505
-0.839951
-1.3944
-1.93942
-2.46879
-2.97334
-3.4394
-3.84657
-4.16459
-4.34944
-4.33934
-4.05366
-3.4023
-2.31929
-0.835048
-0.289639
-0.867787
-1.44225
-2.00951
-2.5643
-3.09841
-3.59908
-4.0465
-4.41026
-4.64443
-4.68172
-4.42935
-3.77437
-2.61667
-0.957492
-0.29955
-0.898163
-1.49506
-2.08822
-2.6741
-3.24663
-3.79564
-4.30443
-4.74582
-5.07601
-5.22514
-5.0845
-4.49546
-3.26223
-1.25756
-0.309793
-0.929708
-1.55044
-2.17194
-2.79311
-3.4111
-4.02005
-4.60905
-5.15848
-5.63321
-5.96962
-6.05092
-5.66378
-4.44344
-1.91204
-0.319801
-0.960663
-1.60525
-2.25583
-2.91428
-3.58179
-4.25822
-4.94103
-5.62287
-6.2863
-6.89109
-7.34249
-7.41057
-6.535
-3.46414
-0.328925
-0.989011
-1.65586
-2.3342
-3.02911
-3.74619
-4.49186
-5.27355
-6.09989
-6.97994
-7.9189
-8.90004
-9.81249
-10.151
-7.69479
-0.336491
-1.01264
-1.69846
-2.40103
-3.12847
-3.89069
-4.70038
-5.57491
-6.5394
-7.63245
-8.91725
-10.5051
-12.6126
-15.7075
-20.9068
63.4598
47.3631
37.6253
30.9271
25.8758
21.8247
18.435
15.5091
12.9209
10.5842
8.43618
6.42888
4.52353
2.68739
0.891404
23.1951
30.2508
28.8269
25.7212
22.4948
19.4932
16.7643
14.2829
12.0093
9.90488
7.93505
6.06964
4.28202
2.54818
0.845924
10.2455
19.0268
21.1962
20.5987
18.9573
16.9723
14.9216
12.9122
10.9802
9.13202
7.36132
5.65633
4.00312
2.38703
0.793205
5.42774
12.3941
15.4866
16.201
15.6583
14.4967
13.0501
11.4875
9.8927
8.30527
6.74189
5.207
3.69841
2.21039
0.735328
3.31063
8.45152
11.4282
12.6763
12.7888
12.2189
11.259
10.0852
8.79997
7.46172
6.10262
4.73934
3.37937
2.02474
0.674383
2.22151
6.01174
8.57026
9.93987
10.3931
10.2118
9.61636
8.76006
7.74396
6.63259
5.4662
4.26935
3.05658
1.8361
0.612327
1.58567
4.42725
6.53782
7.83978
8.43778
8.49228
8.15473
7.5458
6.75404
5.84159
4.85087
3.81039
2.73912
1.64972
0.55088
1.17883
3.35036
5.06685
6.22848
6.85982
7.04489
6.88147
6.45843
5.84788
5.10488
4.27004
3.37276
2.43423
1.46989
0.491453
0.901241
2.58942
3.98116
4.98535
5.59171
5.83942
5.78843
5.5012
5.03363
4.4319
3.73253
2.96375
2.14723
1.29982
0.435126
0.703018
2.03432
3.16454
4.01842
4.5726
4.84131
4.85937
4.66917
4.31249
3.82667
3.24319
2.58786
1.88165
1.14174
0.382655
0.556687
1.61883
2.5398
3.25957
3.7517
4.01719
4.07491
3.95268
3.681
3.28922
2.8037
2.24728
1.63946
0.996974
0.3345
0.445927
1.30135
2.05475
2.65878
3.08813
3.33733
3.41535
3.33994
3.13288
2.81683
2.41341
1.94237
1.42134
0.866071
0.290871
0.360458
1.05471
1.67342
2.17924
2.54964
2.7763
2.86232
2.81858
2.66041
2.40508
2.07007
1.67215
1.22697
0.749001
0.251783
0.2935
0.860525
1.37045
1.79374
2.11093
2.3129
2.39937
2.37665
2.25539
2.04863
1.77038
1.43473
1.05535
0.645294
0.217099
0.240411
0.705976
1.12764
1.48188
1.75222
1.9297
2.01221
2.00312
1.90972
1.74181
1.51054
1.22767
0.905007
0.554178
0.186581
0.197916
0.581905
0.931648
1.22828
1.45797
1.61242
1.68865
1.68812
1.61577
1.47895
1.28653
1.04824
0.774215
0.4747
0.159926
0.163642
0.481608
0.772523
1.02116
1.21595
1.34946
1.41836
1.42298
1.36659
1.25469
1.09435
0.893609
0.661114
0.405814
0.136797
0.135837
0.400093
0.642747
0.851433
1.01648
1.13134
1.1927
1.20019
1.15593
1.06406
0.930208
0.76102
0.563844
0.346449
0.116844
0.11318
0.333576
0.536552
0.712001
0.851833
0.950368
1.00445
1.01331
0.978318
0.902583
0.790593
0.647858
0.480609
0.295559
0.0997239
0.094665
0.279152
0.449467
0.597295
0.71586
0.800257
0.847579
0.85688
0.828991
0.76627
0.672321
0.551712
0.409728
0.252157
0.0851115
0.0795117
0.234568
0.377994
0.502905
0.603608
0.675881
0.717107
0.726267
0.703842
0.651634
0.572554
0.470403
0.349669
0.215331
0.0727048
0.0671124
0.198057
0.319373
0.425319
0.511091
0.57306
0.608893
0.617578
0.599368
0.555652