/*--------------------------------*- C++ -*----------------------------------*\
| =========                 |                                                 |
| \\      /  F ield         | OpenFOAM: The Open Source CFD Toolbox           |
|  \\    /   O peration     | Version:  5.x                                   |
|   \\  /    A nd           | Web:      www.OpenFOAM.org                      |
|    \\/     M anipulation  |                                                 |
\*---------------------------------------------------------------------------*/
FoamFile
{
    version     2.0;
    format      ascii;
    class       volScalarField;
    location    "2.8";
    object      T;
}
// * * * * * * * * * * * * * * * * * * * * * * * * * * * * * * * * * * * * * //

dimensions      [0 0 0 1 0 0 0];

internalField   nonuniform List<scalar> 
6300
(
34.7064
84.0496
133.183
181.967
230.259
277.914
324.789
370.735
415.606
459.257
501.546
542.339
581.511
618.953
654.576
34.7744
84.254
133.525
182.448
230.88
278.677
325.695
371.785
416.799
460.588
503.009
543.923
583.202
620.732
656.419
34.9101
84.6618
134.207
183.407
232.12
280.203
327.508
373.887
419.188
463.258
505.946
547.106
586.602
624.311
660.131
35.1128
85.2709
135.226
184.841
233.975
282.486
330.226
377.043
422.78
467.278
510.376
551.917
591.749
629.737
665.764
35.3813
86.078
136.577
186.743
236.439
285.523
333.846
381.253
427.583
472.666
516.33
558.399
598.702
637.081
673.4
35.7138
87.078
138.251
189.103
239.5
289.301
338.359
386.515
433.603
479.443
523.843
566.608
607.538
646.442
683.153
36.1079
88.2637
140.238
191.907
243.141
293.804
343.75
392.821
440.843
487.625
532.958
576.614
618.357
657.951
695.181
36.5605
89.6255
142.521
195.132
247.336
299.004
349.994
400.149
449.293
497.224
543.712
588.494
631.284
671.779
709.693
37.0672
91.1509
145.081
198.752
252.052
304.862
357.049
408.461
458.925
508.232
556.133
602.327
646.461
688.142
726.969
37.6229
92.8241
147.891
202.729
257.242
311.323
364.853
417.695
469.683
520.612
570.222
618.177
664.047
707.31
747.386
38.2213
94.6264
150.918
207.019
262.847
318.314
373.321
427.753
481.466
534.275
585.928
636.069
684.194
729.614
771.465
38.8553
96.5362
154.127
211.568
268.796
325.744
382.34
438.5
494.12
549.058
603.105
655.931
706.997
755.435
799.947
39.5171
98.5295
157.477
216.316
275.005
333.503
391.768
449.757
507.421
564.693
621.461
677.506
732.376
785.128
833.908
40.1986
100.582
160.924
221.2
281.388
341.473
401.444
461.307
521.078
580.793
640.495
700.208
759.821
818.736
874.877
40.8919
102.669
164.427
226.157
287.857
349.531
411.203
472.917
534.757
596.864
659.472
722.959
787.908
855.058
924.38
685.499
712.275
737.702
761.783
784.532
805.978
826.159
845.12
862.918
879.614
895.273
909.964
923.756
936.722
948.931
960.452
971.353
981.699
991.553
1000.97
1010.02
1018.74
1027.18
1035.39
1043.4
1051.26
1058.99
1066.62
1074.16
1081.63
1089.03
1096.38
1103.68
1110.91
1118.08
1125.17
1132.19
1139.11
1145.92
1152.62
1159.19
1165.61
1171.86
1177.94
1183.82
1189.48
1194.92
1200.11
1205.04
1209.7
1214.07
1218.14
1221.9
1225.33
1228.41
1231.14
1233.5
1235.46
1237
1238.1
1238.75
1238.91
1238.55
1237.66
1236.2
1234.13
1231.42
1228.02
1223.91
1219.02
1213.3
1206.7
1199.16
1190.62
1181.01
1170.25
1158.29
1145.03
1130.42
1114.37
1096.81
1077.66
1056.87
1034.35
1010.07
983.971
956.022
926.204
894.513
860.962
687.379
714.168
739.59
763.648
786.357
807.747
827.857
846.738
864.447
881.047
896.607
911.195
924.885
937.748
949.857
961.28
972.087
982.342
992.11
1001.45
1010.42
1019.07
1027.44
1035.6
1043.56
1051.38
1059.07
1066.67
1074.19
1081.64
1089.04
1096.39
1103.69
1110.93
1118.11
1125.22
1132.25
1139.18
1146.02
1152.74
1159.33
1165.77
1172.05
1178.15
1184.05
1189.74
1195.19
1200.4
1205.35
1210.03
1214.42
1218.51
1222.29
1225.74
1228.85
1231.61
1233.99
1235.98
1237.55
1238.69
1239.37
1239.57
1239.25
1238.4
1236.99
1234.97
1232.32
1228.99
1224.94
1220.13
1214.49
1207.98
1200.53
1192.09
1182.57
1171.92
1160.07
1146.92
1132.42
1116.48
1099.02
1079.98
1059.27
1036.84
1012.62
986.571
958.652
928.842
897.136
863.544
691.165
717.983
743.394
767.403
790.028
811.303
831.271
849.988
867.515
883.921
899.278
913.66
927.142
939.799
951.705
962.932
973.549
983.623
993.217
1002.39
1011.21
1019.72
1027.97
1036
1043.87
1051.6
1059.22
1066.76
1074.24
1081.67
1089.06
1096.41
1103.71
1110.97
1118.17
1125.3
1132.36
1139.34
1146.21
1152.97
1159.6
1166.09
1172.42
1178.57
1184.52
1190.25
1195.75
1201
1205.99
1210.7
1215.13
1219.26
1223.08
1226.57
1229.73
1232.54
1234.97
1237.02
1238.65
1239.86
1240.61
1240.88
1240.65
1239.89
1238.57
1236.66
1234.12
1230.92
1227.01
1222.35
1216.87
1210.53
1203.27
1195.02
1185.71
1175.27
1163.62
1150.7
1136.42
1120.69
1103.45
1084.61
1064.09
1041.83
1017.75
991.802
963.946
934.154
902.416
868.744
696.912
723.774
749.167
773.099
795.592
816.685
836.431
854.892
872.138
888.245
903.292
917.358
930.524
942.868
954.468
965.397
975.726
985.526
994.86
1003.79
1012.38
1020.67
1028.73
1036.59
1044.3
1051.9
1059.42
1066.88
1074.3
1081.69
1089.06
1096.41
1103.73
1111.01
1118.25
1125.43
1132.53
1139.56
1146.49
1153.31
1160.01
1166.57
1172.97
1179.19
1185.22
1191.02
1196.59
1201.9
1206.95
1211.71
1216.19
1220.38
1224.25
1227.81
1231.04
1233.92
1236.44
1238.57
1240.3
1241.6
1242.46
1242.84
1242.73
1242.1
1240.92
1239.17
1236.81
1233.79
1230.09
1225.65
1220.42
1214.34
1207.35
1199.39
1190.39
1180.27
1168.95
1156.36
1142.42
1127.03
1110.12
1091.59
1071.37
1049.36
1025.5
999.719
971.965
942.206
910.425
876.631
704.708
731.629
756.994
780.813
803.116
823.952
843.384
861.486
878.341
894.035
908.655
922.29
935.026
946.945
958.13
968.658
978.602
988.032
997.015
1005.62
1013.89
1021.9
1029.7
1037.32
1044.83
1052.25
1059.62
1066.97
1074.32
1081.66
1089.02
1096.38
1103.73
1111.05
1118.34
1125.58
1132.75
1139.84
1146.85
1153.75
1160.54
1167.2
1173.7
1180.03
1186.16
1192.06
1197.72
1203.11
1208.23
1213.06
1217.61
1221.86
1225.81
1229.45
1232.77
1235.75
1238.38
1240.63
1242.48
1243.92
1244.91
1245.44
1245.49
1245.02
1244.03
1242.48
1240.34
1237.58
1234.16
1230.02
1225.11
1219.38
1212.77
1205.2
1196.6
1186.91
1176.04
1163.9
1150.42
1135.49
1119.04
1100.95
1081.14
1059.5
1035.95
1010.41
982.813
953.108
921.274
887.315
714.676
741.674
766.996
790.657
812.698
833.183
852.193
869.818
886.157
901.309
915.376
928.454
940.637
952.015
962.674
972.693
982.149
991.113
999.655
1007.84
1015.72
1023.37
1030.83
1038.16
1045.4
1052.6
1059.79
1067.01
1074.26
1081.56
1088.9
1096.29
1103.69
1111.08
1118.44
1125.75
1133
1140.18
1147.27
1154.28
1161.19
1167.97
1174.62
1181.09
1187.35
1193.38
1199.15
1204.64
1209.84
1214.75
1219.37
1223.7
1227.73
1231.47
1234.9
1238.01
1240.78
1243.18
1245.19
1246.79
1247.95
1248.66
1248.89
1248.63
1247.86
1246.56
1244.7
1242.25
1239.17
1235.41
1230.91
1225.62
1219.48
1212.4
1204.33
1195.18
1184.87
1173.31
1160.42
1146.09
1130.23
1112.72
1093.46
1072.32
1049.21
1024
996.629
967.015
935.124
900.953
726.986
754.08
779.336
802.778
824.464
844.482
862.936
879.942
895.619
910.085
923.456
935.841
947.342
958.056
968.071
977.472
986.335
994.736
1002.74
1010.42
1017.83
1025.03
1032.09
1039.05
1045.97
1052.89
1059.86
1066.91
1074.06
1081.31
1088.67
1096.1
1103.58
1111.07
1118.53
1125.94
1133.28
1140.56
1147.76
1154.88
1161.93
1168.88
1175.71
1182.36
1188.81
1195
1200.9
1206.51
1211.8
1216.78
1221.47
1225.88
1230
1233.85
1237.42
1240.69
1243.63
1246.22
1248.42
1250.21
1251.57
1252.48
1252.92
1252.9
1252.38
1251.37
1249.84
1247.75
1245.08
1241.78
1237.78
1233.03
1227.45
1220.98
1213.53
1205.04
1195.41
1184.57
1172.41
1158.84
1143.73
1126.96
1108.41
1087.93
1065.39
1040.66
1013.61
984.14
952.197
917.764
741.868
769.08
794.234
817.37
838.577
857.975
875.706
891.918
906.761
920.375
932.893
944.436
955.116
965.036
974.287
982.956
991.121
998.857
1006.23
1013.31
1020.16
1026.84
1033.41
1039.93
1046.46
1053.05
1059.75
1066.6
1073.63
1080.85
1088.24
1095.77
1103.39
1111.02
1118.62
1126.15
1133.6
1140.96
1148.27
1155.53
1162.74
1169.9
1176.96
1183.87
1190.55
1196.95
1203.02
1208.74
1214.12
1219.17
1223.91
1228.38
1232.6
1236.57
1240.3
1243.76
1246.92
1249.73
1252.17
1254.18
1255.76
1256.89
1257.56
1257.78
1257.55
1256.85
1255.68
1254.02
1251.83
1249.06
1245.66
1241.54
1236.63
1230.87
1224.17
1216.45
1207.64
1197.65
1186.38
1173.71
1159.53
1143.7
1126.06
1106.44
1084.68
1060.59
1034
1004.77
972.794
938.045
759.634
786.989
811.983
834.685
855.234
873.807
890.599
905.805
919.609
932.179
943.667
954.207
963.919
972.909
981.273
989.096
996.457
1003.43
1010.08
1016.47
1022.67
1028.74
1034.74
1040.73
1046.79
1052.97
1059.34
1065.96
1072.85
1080.05
1087.54
1095.25
1103.1
1110.96
1118.75
1126.41
1133.95
1141.39
1148.77
1156.15
1163.56
1170.98
1178.36
1185.62
1192.63
1199.3
1205.56
1211.4
1216.84
1221.91
1226.67
1231.17
1235.46
1239.56
1243.48
1247.18
1250.62
1253.72
1256.43
1258.7
1260.51
1261.87
1262.77
1263.24
1263.29
1262.93
1262.17
1260.98
1259.34
1257.2
1254.48
1251.1
1246.98
1242.03
1236.19
1229.37
1221.5
1212.5
1202.27
1190.7
1177.65
1162.97
1146.48
1127.98
1107.25
1084.05
1058.13
1029.28
997.327
962.201
780.717
808.242
832.973
855.042
874.675
892.142
907.714
921.647
934.168
945.475
955.738
965.102
973.692
981.616
988.968
995.832
1002.28
1008.39
1014.22
1019.83
1025.29
1030.66
1035.99
1041.37
1046.87
1052.55
1058.51
1064.83
1071.57
1078.78
1086.44
1094.47
1102.7
1110.92
1118.97
1126.78
1134.37
1141.81
1149.21
1156.67
1164.28
1172.03
1179.88
1187.65
1195.13
1202.15
1208.63
1214.56
1220
1225.02
1229.73
1234.2
1238.52
1242.74
1246.89
1250.91
1254.73
1258.21
1261.25
1263.8
1265.85
1267.42
1268.53
1269.23
1269.55
1269.53
1269.18
1268.51
1267.49
1266.08
1264.17
1261.66
1258.44
1254.42
1249.53
1243.72
1236.92
1229.05
1220.02
1209.73
1198.03
1184.76
1169.72
1152.66
1133.31
1111.34
1086.42
1058.19
1026.37
990.801
805.743
833.459
857.737
878.845
897.175
913.14
927.124
939.456
950.409
960.208
969.036
977.043
984.355
991.076
997.295
1003.09
1008.53
1013.68
1018.6
1023.35
1027.97
1032.54
1037.12
1041.78
1046.59
1051.66
1057.1
1063.01
1069.54
1076.77
1084.74
1093.33
1102.25
1111.06
1119.47
1127.39
1134.92
1142.22
1149.48
1156.92
1164.7
1172.89
1181.43
1190.01
1198.21
1205.71
1212.41
1218.37
1223.69
1228.53
1233.04
1237.36
1241.64
1245.97
1250.39
1254.87
1259.24
1263.24
1266.7
1269.55
1271.81
1273.54
1274.81
1275.68
1276.23
1276.51
1276.57
1276.45
1276.14
1275.59
1274.66
1273.17
1270.97
1267.97
1264.14
1259.42
1253.79
1247.18
1239.52
1230.71
1220.61
1209.04
1195.79
1180.57
1163.06
1142.83
1119.39
1092.2
1060.74
1024.67
835.673
863.566
887.005
906.586
923.013
936.925
948.846
959.181
968.242
976.268
983.444
989.915
995.797
1001.19
1006.16
1010.79
1015.13
1019.24
1023.16
1026.95
1030.66
1034.34
1038.06
1041.87
1045.88
1050.18
1054.91
1060.25
1066.41
1073.62
1082.05
1091.65
1101.88
1111.7
1120.57
1128.51
1135.74
1142.59
1149.43
1156.6
1164.44
1173.18
1182.83
1192.86
1202.21
1210.33
1217.2
1223
1227.99
1232.42
1236.53
1240.53
1244.61
1248.97
1253.74
1258.91
1264.19
1268.97
1272.94
1276.07
1278.47
1280.26
1281.57
1282.52
1283.21
1283.73
1284.16
1284.59
1285.07
1285.56
1285.87
1285.61
1284.56
1282.67
1279.93
1276.36
1271.98
1266.75
1260.61
1253.48
1245.22
1235.67
1224.6
1211.72
1196.65
1178.87
1157.7
1132.28
1101.68
1065.1
872.143
900.022
921.766
938.802
952.403
963.51
972.781
980.67
987.495
993.481
998.795
1003.56
1007.88
1011.82
1015.45
1018.82
1021.99
1024.98
1027.84
1030.6
1033.32
1036.02
1038.77
1041.62
1044.66
1047.99
1051.77
1056.23
1061.7
1068.64
1077.61
1088.98
1102.05
1113.61
1122.97
1130.56
1137.01
1142.92
1148.82
1155.25
1162.79
1172.1
1183.61
1196.63
1207.89
1216.7
1223.45
1228.72
1233.02
1236.72
1240.11
1243.48
1247.11
1251.3
1256.43
1262.72
1269.79
1275.79
1280.31
1283.58
1285.91
1287.58
1288.78
1289.67
1290.36
1290.99
1291.67
1292.57
1293.89
1295.72
1297.83
1299.12
1299.3
1298.49
1296.82
1294.42
1291.32
1287.54
1283.06
1277.79
1271.63
1264.42
1255.95
1245.93
1234.05
1219.72
1202.05
1179.77
1151.15
1114.29
918.456
945.247
963.235
975.895
985.313
992.667
998.634
1003.62
1007.88
1011.59
1014.86
1017.78
1020.42
1022.83
1025.04
1027.09
1029.01
1030.83
1032.57
1034.25
1035.91
1037.57
1039.26
1041.03
1042.94
1045.07
1047.58
1050.68
1054.8
1060.67
1069.63
1083.78
1104.32
1118.6
1127.84
1134.17
1139
1143.19
1147.38
1152.2
1158.53
1167.79
1182.14
1202.83
1217.03
1225.96
1231.75
1235.78
1238.83
1241.36
1243.66
1246
1248.7
1252.22
1257.36
1265.34
1276.85
1284.65
1289.41
1292.35
1294.23
1295.49
1296.36
1297.01
1297.55
1298.08
1298.78
1299.89
1301.87
1305.42
1310.91
1314.11
1315.4
1315.46
1314.71
1313.38
1311.56
1309.28
1306.55
1303.3
1299.47
1294.91
1289.42
1282.77
1274.92
1265.3
1252.96
1236.28
1212.43
1176.71
983.172
1003.08
1012.3
1017.58
1021.12
1023.75
1025.82
1027.54
1028.99
1030.24
1031.35
1032.34
1033.22
1034.03
1034.77
1035.46
1036.11
1036.72
1037.3
1037.87
1038.43
1038.98
1039.56
1040.16
1040.81
1041.55
1042.44
1043.6
1045.29
1048.15
1054.1
1069.29
1115.55
1130.78
1136.83
1139.86
1141.81
1143.39
1144.97
1146.92
1149.96
1156.06
1171.47
1218.32
1233.67
1239.65
1242.51
1244.18
1245.33
1246.24
1247.07
1247.94
1249.03
1250.73
1254.14
1262.79
1289.19
1297.79
1301.07
1302.57
1303.38
1303.87
1304.2
1304.44
1304.64
1304.87
1305.21
1305.88
1307.53
1312.21
1327.22
1331.78
1333.2
1333.52
1333.37
1332.96
1332.37
1331.61
1330.69
1329.59
1328.27
1326.65
1324.52
1321.24
1318.24
1314.72
1310.05
1303.05
1290.73
1263.97
822.04
777.014
729.534
679.738
627.788
573.863
518.152
460.851
402.159
342.271
281.383
219.684
157.36
94.5922
31.5601
824.553
779.419
731.802
681.848
629.723
575.612
519.709
462.214
403.328
343.25
282.176
220.295
157.793
94.8507
31.646
829.611
784.256
736.363
686.086
633.605
579.116
522.824
464.937
405.663
345.204
283.757
221.513
158.656
95.3658
31.8172
837.279
791.582
743.259
692.483
639.453
584.385
527.5
469.018
409.156
348.123
286.117
223.329
159.943
96.1332
32.0722
847.659
801.485
752.561
701.089
647.299
591.434
533.738
474.449
413.796
351.992
289.24
225.73
161.642
97.1461
32.4088
860.897
814.087
764.361
711.967
657.178
600.276
541.534
481.215
419.558
356.786
293.103
228.695
163.738
98.3947
32.8234
877.193
829.551
778.782
725.195
669.129
610.917
550.874
489.286
426.408
362.469
297.67
232.195
166.208
99.8654
33.3117
896.814
848.092
795.968
740.856
683.182
623.35
561.723
498.615
434.293
368.987
302.896
236.19
169.025
101.54
33.8675
920.12
869.979
816.093
759.031
699.348
637.539
574.018
509.124
443.133
376.268
308.715
240.631
172.15
103.397
34.4833
947.602
895.556
839.341
779.776
717.595
653.397
587.648
520.699
452.819
384.213
315.046
245.45
175.538
105.407
35.1498
979.943
925.242
865.887
803.088
737.813
670.766
602.439
533.171
463.199
392.695
321.786
250.571
179.131
107.538
35.856
1018.12
959.525
895.82
828.823
759.755
689.372
618.132
546.312
474.083
401.557
328.81
255.899
182.867
109.752
36.5893
1063.58
998.852
928.986
856.576
782.962
708.79
634.365
559.826
485.233
410.614
335.978
261.331
186.673
112.007
37.3362
1118.39
1043.25
964.635
885.478
806.675
728.416
650.672
573.356
496.379
419.66
343.137
266.755
190.474
114.259
38.0823
1184.62
1091.06
1000.76
913.97
829.792
747.48
666.508
586.512
507.233
428.485
350.13
272.062
194.197
116.466
38.8137
41.5315
104.594
167.654
230.716
293.79
356.899
420.082
483.414
547.016
611.097
676.018
742.427
811.585
886.303
974.446
42.1122
106.34
170.579
234.842
299.147
363.527
428.032
492.745
557.801
623.423
689.993
758.179
829.205
905.34
990.569
42.6889
108.074
173.48
238.927
304.438
370.051
435.817
501.815
568.166
635.061
702.809
771.921
843.234
918.015
997.67
43.2593
109.787
176.345
242.955
309.645
376.451
443.42
510.615
578.125
646.075
714.644
784.096
854.81
927.256
1001.74
43.8215
111.476
179.166
246.917
314.757
382.72
450.844
519.172
587.752
656.627
725.829
795.355
865.141
935.035
1004.83
44.3741
113.135
181.936
250.805
319.769
388.859
458.105
527.531
597.144
666.92
736.752
806.395
875.353
942.83
1008
44.916
114.762
184.652
254.614
324.679
394.873
465.22
535.733
606.397
677.14
747.772
817.869
886.548
952.179
1012.43
45.4462
116.354
187.309
258.342
329.483
400.761
472.198
543.805
615.565
687.403
759.129
830.286
899.816
965.216
1020.84
45.9639
117.908
189.903
261.982
334.177
406.52
479.037
551.746
624.649
697.713
770.843
843.794
915.907
984.993
1041.71
46.4682
119.423
192.431
265.53
338.754
412.139
485.72
559.527
633.591
707.945
782.645
857.843
934.056
1013.31
1104.8
46.9583
120.894
194.888
268.978
343.203
417.605
492.223
567.104
642.303
717.903
794.064
871.146
950.051
1033.08
1125.69
47.4334
122.321
197.269
272.32
347.516
422.9
498.522
574.435
650.707
727.44
804.806
883.144
963.143
1046.14
1134.16
47.8926
123.699
199.57
275.549
351.681
428.013
504.596
581.49
658.762
736.503
814.837
893.949
974.11
1055.66
1138.81
48.3353
125.028
201.788
278.66
355.691
432.931
510.433
588.256
666.463
745.12
824.29
903.986
984.07
1064.02
1142.69
48.7609
126.306
203.919
281.648
359.54
437.648
516.025
594.729
673.82
753.35
833.342
913.713
994.079
1073.23
1148.07
49.169
127.53
205.961
284.509
363.224
442.158
521.367
600.908
680.842
761.225
842.092
923.405
1004.89
1085.38
1159.8
49.5592
128.701
207.913
287.243
366.741
446.459
526.454
606.787
687.523
768.731
850.496
932.938
1016.34
1101.71
1193.84
49.9315
129.818
209.774
289.847
370.088
450.548
531.285
612.361
693.844
775.817
858.393
941.765
1026.37
1113.31
1205.36
50.286
130.881
211.544
292.323
373.266
454.425
535.857
617.624
699.795
782.451
865.699
949.697
1034.73
1121.32
1210.31
50.623
131.891
213.225
294.672
376.277
458.093
540.174
622.581
705.379
788.641
872.446
956.871
1041.96
1127.62
1213.44
50.9429
132.85
214.82
296.897
379.126
461.557
544.242
627.239
710.61
794.419
878.725
963.544
1048.75
1133.76
1216.9
51.2465
133.759
216.331
299.004
381.819
464.824
548.069
631.609
715.505
799.818
884.611
969.911
1055.62
1141.14
1223.63
51.5346
134.622
217.764
300.998
384.364
467.905
551.668
635.706
720.078
804.85
890.105
975.95
1062.58
1150.58
1242.53
51.8083
135.441
219.123
302.887
386.771
470.811
555.053
639.544
724.341
809.513
895.152
981.402
1068.55
1157.23
1248.96
52.0689
136.221
220.415
304.681
389.051
473.557
558.239
643.141
728.313
813.816
899.735
986.192
1073.4
1161.71
1251.67
52.318
136.966
221.648
306.391
391.218
476.161
561.25
646.523
732.022
817.796
903.905
990.42
1077.43
1165.01
1253.2
52.5571
137.68
222.83
308.027
393.289
478.641
564.108
649.72
735.508
821.508
907.754
994.264
1081.01
1167.85
1254.45
52.7881
138.37
223.971
309.603
395.281
481.021
566.841
652.765
738.815
825.014
911.381
997.902
1084.48
1170.8
1256.04
53.0129
139.042
225.08
311.134
397.212
483.322
569.478
655.694
741.985
828.368
914.86
1001.45
1088.09
1174.46
1259.25
53.2337
139.701
226.168
312.634
399.101
485.571
572.049
658.541
745.057
831.611
918.226
1004.94
1091.83
1179.17
1268.21
53.4526
140.354
227.246
314.12
400.971
487.793
574.583
661.341
748.068
834.775
921.485
1008.25
1095.2
1182.65
1271.35
53.672
141.009
228.326
315.608
402.842
490.015
577.115
664.132
751.06
837.9
924.665
1011.39
1098.18
1185.21
1272.78
53.894
141.672
229.419
317.114
404.737
492.265
579.677
666.955
754.079
841.038
927.826
1014.45
1100.94
1187.35
1273.72
54.121
142.35
230.537
318.656
406.678
494.571
582.306
669.853
757.178
844.255
931.057
1017.56
1103.72
1189.46
1274.61
54.3553
143.049
231.693
320.251
408.688
496.964
585.04
672.871
760.415
847.624
934.454
1020.85
1106.74
1191.91
1275.89
54.5989
143.777
232.896
321.915
410.79
499.473
587.914
676.058
763.846
851.215
938.106
1024.46
1110.2
1195.15
1278.47
54.8539
144.54
234.159
323.663
413.004
502.125
590.966
679.459
767.53
855.098
942.087
1028.43
1114.15
1199.48
1285.5
55.122
145.342
235.488
325.51
415.349
504.946
594.229
683.119
771.525
859.342
946.465
1032.8
1118.33
1203.25
1288.3
55.4045
146.188
236.893
327.465
417.843
507.959
597.735
687.081
775.888
864.025
951.342
1037.67
1122.86
1206.89
1290.04
55.7024
147.081
238.378
329.538
420.496
511.181
601.509
691.382
780.675
869.234
956.857
1043.28
1128.15
1211.08
1291.85
56.0163
148.022
239.947
331.734
423.317
514.624
605.569
696.048
785.931
875.045
963.156
1049.91
1134.73
1216.69
1294.57
56.3462
149.013
241.6
334.052
426.306
518.289
609.918
701.09
791.676
881.507
970.346
1057.82
1143.23
1225.08
1299.99
56.6914
150.05
243.334
336.49
429.459
522.173
614.552
706.501
797.902
888.607
978.43
1067.1
1154.15
1238.22
1313.55
57.051
151.131
245.143
339.039
432.765
526.259
619.45
712.252
804.564
896.271
987.256
1077.46
1167.07
1257.35
1354.37
57.4234
152.251
247.02
341.687
436.207
530.526
624.582
718.302
811.6
904.382
996.568
1088.16
1179.46
1271.72
1368.46
57.8063
153.403
248.952
344.418
439.764
534.945
629.911
724.603
818.946
912.855
1006.23
1098.99
1191.12
1282.89
1375.16
58.1974
154.58
250.928
347.213
443.408
539.481
635.394
731.102
826.545
921.641
1016.27
1110.19
1202.95
1293.64
1380.69
58.5937
155.774
252.931
350.05
447.111
544.096
640.981
737.74
834.333
930.699
1026.72
1122.12
1216.15
1306.82
1389.09
58.9924
156.974
254.947
352.905
450.84
548.747
646.618
744.447
842.225
939.938
1037.55
1134.93
1231.62
1325.74
1408.71
59.39
158.172
256.959
355.754
454.562
553.389
652.245
751.144
850.11
949.188
1048.47
1148.15
1248.78
1352.32
1467.28
59.7835
159.357
258.949
358.572
458.242
557.977
657.801
757.747
857.864
958.238
1059.04
1160.62
1263.85
1370.87
1486.72
60.1697
160.52
260.901
361.336
461.849
562.47
663.232
764.183
865.384
966.931
1068.99
1171.88
1276.21
1383.19
1494.67
60.5456
161.651
262.8
364.024
465.354
566.828
668.492
770.397
872.608
975.207
1078.31
1182.05
1286.64
1392.29
1499.11
60.9085
162.743
264.633
366.614
468.728
571.021
673.542
776.349
879.506
983.073
1087.1
1191.56
1296.24
1400.48
1502.97
61.2557
163.788
266.385
369.09
471.951
575.019
678.351
782.011
886.062
990.559
1095.52
1200.84
1306.06
1409.81
1508.62
61.585
164.779
268.046
371.435
475
578.797
682.892
787.353
892.251
997.658
1103.62
1210.11
1316.82
1422.46
1521.34
61.8946
165.71
269.605
373.635
477.857
582.335
687.137
792.34
898.032
1004.31
1111.29
1219.15
1328.23
1439.7
1558.85
62.1827
166.576
271.056
375.679
480.508
585.611
691.06
796.941
903.349
1010.41
1118.28
1227.25
1337.9
1451.53
1571.25
62.448
167.374
272.39
377.557
482.94
588.61
694.643
801.126
908.16
1015.87
1124.44
1234.13
1345.4
1459.05
1576.17
62.6895
168.099
273.602
379.262
485.145
591.322
697.871
804.879
912.444
1020.68
1129.75
1239.82
1351.16
1464.06
1578.64
62.9064
168.751
274.69
380.79
487.116
593.74
700.739
808.197
916.205
1024.86
1134.28
1244.56
1355.77
1467.82
1580.31
63.0983
169.327
275.651
382.137
488.851
595.863
703.248
811.086
919.459
1028.45
1138.15
1248.58
1359.71
1471.18
1582.07
63.265
169.827
276.485
383.304
490.35
597.691
705.401
813.554
922.227
1031.5
1141.43
1252.05
1363.31
1474.86
1585.25
63.4065
170.251
277.191
384.291
491.615
599.23
707.206
815.615
924.528
1034.02
1144.16
1255.01
1366.64
1479.27
1593.91
63.5228
170.6
277.771
385.1
492.649
600.483
708.67
817.278
926.375
1036.03
1146.33
1257.35
1369.21
1482.17
1596.8
63.6144
170.874
278.227
385.734
493.457
601.458
709.803
818.554
927.779
1037.54
1147.93
1259.02
1370.94
1483.84
1597.88
63.6816
171.075
278.56
386.196
494.043
602.162
710.613
819.456
928.754
1038.57
1148.97
1260.05
1371.91
1484.64
1598.28
63.7246
171.204
278.773
386.49
494.414
602.601
711.111
819.997
929.317
1039.13
1149.49
1260.47
1372.18
1484.74
1598.24
63.744
171.262
278.868
386.619
494.573
602.785
711.308
820.193
929.489
1039.24
1149.5
1260.32
1371.79
1484.1
1597.65
63.74
171.249
278.846
386.587
494.528
602.72
711.215
820.059
929.293
1038.95
1149.06
1259.65
1370.75
1482.51
1595.7
63.7128
171.168
278.71
386.396
494.28
602.413
710.842
819.611
928.752
1038.29
1148.23
1258.56
1369.19
1479.83
1589.44
63.6625
171.017
278.46
386.047
493.833
601.868
710.197
818.86
927.885
1037.29
1147.07
1257.19
1367.54
1477.81
1587.33
63.5888
170.797
278.094
385.54
493.187
601.086
709.283
817.814
926.706
1035.97
1145.62
1255.61
1365.86
1476.22
1586.37
63.4914
170.506
277.613
384.872
492.34
600.068
708.1
816.475
925.218
1034.34
1143.86
1253.77
1364.06
1474.7
1585.66
63.3696
170.142
277.011
384.04
491.288
598.807
706.644
814.838
923.415
1032.39
1141.78
1251.6
1361.92
1472.9
1584.8
63.2223
169.702
276.285
383.037
490.021
597.295
704.906
812.894
921.287
1030.1
1139.34
1249.03
1359.27
1470.38
1583.23
63.0482
169.182
275.427
381.854
488.53
595.518
702.87
810.629
918.822
1027.46
1136.52
1246.01
1355.94
1466.58
1579.44
62.8457
168.577
274.429
380.478
486.798
593.458
700.517
808.023
916.005
1024.46
1133.36
1242.62
1352.05
1461.16
1568.19
62.6126
167.882
273.281
378.895
484.806
591.091
697.82
805.048
912.811
1021.11
1129.9
1239.06
1348.32
1457.11
1564.32
62.3468
167.088
271.97
377.087
482.53
588.387
694.741
801.662
909.199
1017.37
1126.13
1235.37
1344.84
1454.1
1562.6
62.0456
166.188
270.483
375.034
479.943
585.311
691.236
797.81
905.104
1013.16
1121.98
1231.46
1341.43
1451.57
1561.52
61.7064
165.174
268.806
372.715
477.013
581.819
687.249
793.419
900.436
1008.38
1117.3
1227.16
1337.84
1449.09
1560.59
61.3268
164.038
266.925
370.107
473.709
577.865
682.714
788.403
895.079
1002.88
1111.92
1222.24
1333.79
1446.37
1559.62
60.9044
162.774
264.826
367.189
469.998
573.402
677.564
782.664
888.899
996.473
1105.59
1216.4
1328.96
1443.13
1558.47
60.4377
161.375
262.499
363.943
465.852
568.385
671.73
776.101
881.747
988.951
1098.03
1209.28
1322.95
1439.01
1556.98
59.9257
159.839
259.938
360.359
461.248
562.779
665.153
768.616
873.47
980.083
1088.9
1200.45
1315.21
1433.5
1554.91
59.3687
158.165
257.143
356.431
456.179
556.56
657.788
760.13
863.93
969.636
1077.84
1189.31
1304.98
1425.75
1551.79
58.7684
156.36
254.119
352.168
450.648
549.727
649.619
750.597
853.026
957.409
1064.46
1175.2
1291.13
1414.26
1546.5
58.1277
154.431
250.882
347.589
444.678
542.305
640.666
740.02
840.725
943.286
1048.46
1157.44
1272.24
1396.39
1535.99
57.4514
152.394
247.456
342.728
438.315
534.348
630.992
728.472
827.095
927.303
1029.77
1135.59
1246.78
1367.72
1510.78
1251.69
1131.83
1030.61
937.634
849.222
763.683
680.091
597.878
516.665
436.189
356.258
276.724
197.473
118.412
39.4587
1272.88
1155.91
1051.96
955.938
864.852
777.025
691.451
607.488
524.705
442.796
361.536
280.753
200.312
120.099
40.0187
1281.7
1170.89
1067.77
970.766
878.181
788.769
701.661
616.253
532.114
448.931
366.466
284.533
202.982
121.69
40.547
1286.12
1180.47
1079.29
982.479
889.267
798.877
710.659
624.107
538.836
454.548
371.01
288.033
205.464
123.172
41.0396
1288.71
1186.88
1087.74
991.646
898.354
807.44
718.466
631.044
544.852
459.625
375.147
291.237
207.744
124.536
41.4939
1290.39
1191.37
1094.03
998.82
905.748
814.62
725.163
637.099
550.172
464.16
378.871
294.138
209.818
125.78
41.9085
1291.57
1194.63
1098.8
1004.46
911.752
820.603
730.861
642.335
554.833
468.174
382.192
296.74
211.684
126.903
42.2832
1292.44
1197.08
1102.47
1008.93
916.631
825.572
735.68
646.83
558.883
471.695
385.128
299.054
213.351
127.908
42.6191
1293.09
1198.96
1105.34
1012.5
920.605
829.695
739.742
650.67
562.381
474.763
387.705
301.095
214.827
128.801
42.9179
1293.6
1200.42
1107.61
1015.37
923.853
833.115
743.157
653.938
565.387
477.422
389.952
302.885
216.127
129.589
43.1817
1294
1201.59
1109.43
1017.7
926.518
835.956
746.027
656.711
567.961
479.716
391.903
304.445
217.264
130.279
43.4134
1294.32
1202.52
1110.9
1019.59
928.712
838.319
748.438
659.061
570.159
481.687
393.589
305.8
218.254
130.882
43.6158
1294.58
1203.28
1112.09
1021.15
930.527
840.29
750.464
661.051
572.033
483.378
395.042
306.972
219.113
131.406
43.7919
1294.79
1203.89
1113.08
1022.43
932.034
841.937
752.169
662.737
573.63
484.826
396.291
307.984
219.857
131.861
43.9447
1294.96
1204.4
1113.89
1023.49
933.29
843.319
753.607
664.166
574.991
486.066
397.365
308.856
220.499
132.254
44.077
1295.11
1204.82
1114.56
1024.38
934.343
844.481
754.823
665.38
576.152
487.128
398.288
309.607
221.054
132.594
44.1916
1295.23
1205.17
1115.12
1025.13
935.229
845.465
755.856
666.416
577.145
488.039
399.083
310.256
221.533
132.888
44.2908
1295.33
1205.47
1115.6
1025.76
935.981
846.301
756.738
667.302
577.999
488.825
399.769
310.817
221.949
133.144
44.377
1295.41
1205.72
1116.01
1026.3
936.625
847.019
757.496
668.067
578.737
489.506
400.366
311.306
222.312
133.367
44.4523
1295.49
1205.94
1116.35
1026.76
937.181
847.64
758.154
668.733
579.382
490.101
400.888
311.735
222.631
133.563
44.5184
1295.55
1206.13
1116.66
1027.16
937.668
848.186
758.733
669.319
579.95
490.628
401.351
312.115
222.913
133.737
44.5772
1295.61
1206.3
1116.93
1027.53
938.102
848.673
759.251
669.845
580.46
491.101
401.767
312.458
223.168
133.894
44.6302
1295.66
1206.45
1117.18
1027.85
938.497
849.117
759.723
670.324
580.926
491.534
402.149
312.771
223.402
134.038
44.6789
1295.71
1206.59
1117.41
1028.16
938.866
849.531
760.165
670.773
581.363
491.939
402.506
313.066
223.621
134.173
44.7246
1295.75
1206.73
1117.63
1028.46
939.221
849.929
760.589
671.204
581.782
492.329
402.849
313.349
223.832
134.303
44.7685
1295.8
1206.86
1117.85
1028.75
939.571
850.324
761.008
671.631
582.197
492.714
403.189
313.629
224.04
134.432
44.812
1295.85
1207
1118.07
1029.04
939.93
850.726
761.437
672.066
582.62
493.107
403.535
313.913
224.252
134.563
44.8561
1295.9
1207.15
1118.3
1029.36
940.307
851.149
761.887
672.522
583.063
493.518
403.897
314.211
224.474
134.699
44.9022
1295.95
1207.31
1118.56
1029.7
940.716
851.607
762.372
673.014
583.54
493.96
404.285
314.53
224.711
134.845
44.9515
1296.01
1207.48
1118.85
1030.08
941.168
852.113
762.908
673.556
584.064
494.444
404.71
314.878
224.97
135.005
45.0053
1296.08
1207.69
1119.17
1030.51
941.681
852.684
763.511
674.164
584.651
494.985
405.183
315.266
225.257
135.181
45.065
1296.16
1207.92
1119.54
1031
942.269
853.338
764.2
674.856
585.317
495.597
405.718
315.703
225.581
135.38
45.132
1296.25
1208.19
1119.98
1031.58
942.955
854.098
764.996
675.653
586.081
496.297
406.328
316.201
225.948
135.606
45.208
1296.36
1208.52
1120.5
1032.26
943.762
854.987
765.925
676.579
586.964
497.104
407.028
316.77
226.368
135.863
45.2946
1296.49
1208.9
1121.12
1033.07
944.719
856.037
767.015
677.66
587.991
498.037
407.835
317.424
226.85
136.157
45.3937
1296.66
1209.38
1121.87
1034.05
945.863
857.284
768.301
678.927
589.187
499.119
408.767
318.178
227.403
136.495
45.5071
1296.85
1209.95
1122.78
1035.23
947.237
858.77