/*--------------------------------*- C++ -*----------------------------------*\
| =========                 |                                                 |
| \\      /  F ield         | OpenFOAM: The Open Source CFD Toolbox           |
|  \\    /   O peration     | Version:  5.x                                   |
|   \\  /    A nd           | Web:      www.OpenFOAM.org                      |
|    \\/     M anipulation  |                                                 |
\*---------------------------------------------------------------------------*/
FoamFile
{
    version     2.0;
    format      ascii;
    class       volScalarField;
    location    "6.4";
    object      gradTx;
}
// * * * * * * * * * * * * * * * * * * * * * * * * * * * * * * * * * * * * * //

dimensions      [0 -1 0 1 0 0 0];

internalField   nonuniform List<scalar> 
6300
(
771.894
769.663
765.196
758.482
749.507
738.262
724.739
708.949
690.92
670.715
648.437
624.24
598.338
571.005
542.574
774.087
771.862
767.406
760.705
751.742
740.502
726.972
711.152
693.063
672.755
650.324
625.915
599.739
572.074
543.263
778.467
776.255
771.822
765.152
756.219
744.996
731.459
715.59
697.39
676.887
654.156
629.327
602.601
574.261
544.671
785.02
782.831
778.44
771.824
762.948
751.769
738.243
722.325
703.984
683.215
660.055
634.605
607.048
577.672
546.87
793.724
791.57
787.245
780.718
771.941
760.854
747.382
731.447
712.973
691.901
668.213
641.957
613.285
582.479
549.976
804.544
802.44
798.214
791.824
783.209
772.285
758.948
743.073
724.525
703.17
678.906
651.695
621.624
588.955
554.174
817.428
815.395
811.307
805.116
796.746
786.092
773.014
757.336
738.847
717.315
692.511
664.261
632.53
597.515
559.749
832.304
830.366
826.465
820.548
812.53
802.285
789.643
774.372
756.177
734.696
709.526
680.277
646.687
608.797
567.152
849.078
847.26
843.599
838.042
830.499
820.838
808.862
794.295
776.755
755.731
730.586
700.6
665.112
623.804
577.113
867.629
865.956
862.589
857.48
850.548
841.664
830.633
817.153
800.777
780.849
756.451
726.39
689.324
644.162
590.876
887.81
886.305
883.279
878.699
872.506
864.598
854.811
842.867
828.312
810.398
787.94
759.15
721.598
672.614
610.702
909.455
908.132
905.481
901.49
896.135
889.37
881.102
871.151
859.163
844.451
825.723
800.636
765.269
713.962
641.088
932.379
931.243
928.979
925.601
921.132
915.6
909.033
901.429
892.695
882.481
869.824
852.364
824.844
776.839
692.061
956.394
955.439
953.547
950.759
947.146
942.821
937.955
932.793
927.662
922.912
918.686
914.11
904.861
876.448
789.448
981.319
980.525
978.964
976.696
973.826
970.537
967.126
964.081
962.201
962.776
967.855
980.481
1004
1034.6
1011.98
515.898
491.378
466.872
442.624
418.867
395.813
373.652
352.544
332.618
313.977
296.692
280.811
266.359
253.343
241.754
231.567
222.749
215.257
209.038
204.031
200.167
197.369
195.549
194.612
194.452
194.955
195.999
197.459
199.206
201.115
203.069
204.959
206.694
208.193
209.393
210.239
210.688
210.697
210.227
209.241
207.703
205.584
202.864
199.535
195.604
191.09
186.025
180.446
174.388
167.884
160.954
153.607
145.839
137.635
128.973
119.826
110.167
99.9692
89.2107
77.8698
65.9243
53.3472
40.1041
26.1501
11.4276
-4.1332
-20.6136
-38.1037
-56.699
-76.4969
-97.5923
-120.075
-144.028
-169.523
-196.626
-225.387
-255.848
-288.036
-321.959
-357.603
-394.929
-433.861
-474.287
-516.045
-558.93
-602.684
-647.003
-691.543
-735.93
-779.774
516.209
491.335
466.479
441.897
417.833
394.509
372.118
350.823
330.754
312.008
294.656
278.739
264.279
251.278
239.721
229.585
220.831
213.415
207.283
202.376
198.624
195.951
194.269
193.484
193.489
194.167
195.393
197.037
198.964
201.044
203.151
205.177
207.024
208.616
209.893
210.805
211.313
211.378
210.963
210.028
208.532
206.443
203.734
200.395
196.435
191.878
186.76
181.128
175.026
168.492
161.549
154.208
146.462
138.292
129.669
120.561
110.939
100.775
90.0475
78.7394
66.8328
54.3059
41.1283
27.2574
12.6362
-2.80686
-19.1568
-36.5085
-54.9632
-74.6234
-95.5886
-117.952
-141.798
-167.201
-194.226
-222.928
-253.35
-285.524
-319.464
-355.166
-392.597
-431.693
-472.346
-514.402
-557.655
-601.844
-646.656
-691.734
-736.682
-781.087
516.843
491.242
465.668
440.403
415.715
391.842
368.988
347.321
326.967
308.019
290.538
274.556
260.086
247.119
235.634
225.599
216.975
209.711
203.756
199.048
195.519
193.095
191.691
191.211
191.548
192.581
194.178
196.198
198.495
200.923
203.345
205.641
207.713
209.487
210.909
211.946
212.567
212.744
212.441
211.613
210.21
208.186
205.502
202.145
198.121
193.465
188.231
182.482
176.282
169.682
162.714
155.388
147.692
139.596
131.058
122.035
112.488
102.389
91.719
80.4696
68.6339
56.2015
43.1513
29.4461
15.03
-0.172562
-16.2545
-33.3216
-51.4873
-70.8655
-91.5654
-113.687
-137.317
-162.534
-189.403
-217.981
-248.317
-280.454
-314.418
-350.221
-387.851
-427.262
-468.362
-511.011
-555.006
-600.08
-645.901
-692.08
-738.181
-783.744
517.83
491.088
464.387
438.057
412.402
387.688
364.134
341.91
321.14
301.903
284.246
268.185
253.715
240.813
229.447
219.574
211.147
204.116
198.424
194.012
190.815
188.763
187.774
187.754
188.596
190.174
192.346
194.954
197.829
200.802
203.712
206.421
208.824
210.854
212.474
213.676
214.453
214.794
214.667
214.018
212.777
210.87
208.236
204.846
200.709
195.878
190.435
184.48
178.108
171.395
164.389
157.097
149.495
141.532
133.142
124.259
114.83
104.822
94.2236
83.0425
71.2933
58.9863
46.1174
32.6594
18.5577
3.72995
-11.9307
-28.5495
-46.261
-65.1995
-85.4898
-107.241
-130.546
-155.48
-182.108
-210.49
-240.681
-272.738
-306.708
-342.63
-380.525
-420.377
-462.129
-505.66
-550.78
-597.214
-644.604
-692.51
-740.428
-787.814
519.217
490.851
462.551
434.717
407.713
381.843
357.345
334.39
313.088
293.499
275.643
259.511
245.073
232.286
221.098
211.456
203.302
196.582
191.238
187.216
184.455
182.892
182.452
183.048
184.575
186.904
189.878
193.316
197.015
200.764
204.361
207.634
210.466
212.8
214.636
216.008
216.96
217.51
217.637
217.268
216.295
214.592
212.052
208.615
204.292
199.166
193.372
187.072
180.418
173.528
166.469
159.247
151.813
144.078
135.932
127.268
118.004
108.102
97.5655
86.4322
74.7547
62.5799
49.9321
36.8002
23.132
8.83382
-6.22464
-22.2005
-39.264
-57.5822
-77.3046
-98.5531
-121.421
-145.977
-172.278
-200.382
-230.349
-262.252
-296.171
-332.185
-370.361
-410.739
-453.311
-498
-544.637
-592.947
-642.536
-692.893
-743.408
-793.409
521.078
490.495
460.018
430.161
401.371
374.004
348.317
324.472
302.553
282.584
264.544
248.385
234.043
221.443
210.514
201.183
193.384
187.055
182.143
178.595
176.363
175.394
175.63
176.995
179.393
182.696
186.734
191.294
196.122
200.938
205.466
209.474
212.817
215.456
217.455
218.939
220.037
220.829
221.311
221.381
220.855
219.513
217.151
213.653
209.025
203.407
197.031
190.166
183.061
175.9
168.779
161.696
154.56
147.214
139.466
131.136
122.095
112.293
101.765
90.604
78.931
66.8542
54.4437
41.7136
28.6145
15.0341
0.804792
-14.2825
-30.4565
-47.9384
-66.9165
-87.5276
-109.857
-133.952
-159.845
-187.579
-217.217
-248.852
-282.603
-318.609
-357.009
-397.924
-441.426
-487.511
-536.061
-586.813
-639.334
-693.018
-747.099
-800.701
523.529
489.96
456.57
424.047
392.96
363.728
336.618
311.763
289.195
268.876
250.723
234.632
220.49
208.187
197.619
188.695
181.338
175.481
171.073
168.072
166.443
166.155
167.172
169.446
172.902
177.422
182.83
188.878
195.237
201.518
207.311
212.266
216.172
219.024
221.008
222.417
223.545
224.587
225.57
226.342
226.585
225.893
223.88
220.308
215.178
208.734
201.389
193.601
185.779
178.209
171.029
164.216
157.605
150.922
143.834
136.025
127.277
117.528
106.872
95.512
83.6873
71.6082
59.4153
47.1585
34.7906
22.1704
9.07169
-4.79723
-19.7619
-36.1363
-54.1719
-74.0225
-95.7439
-119.329
-144.754
-172.026
-201.199
-232.391
-265.776
-301.571
-340.02
-381.364
-425.802
-473.452
-524.291
-578.104
-634.431
-692.543
-751.445
-809.948
526.747
489.143
451.853
415.842
381.857
350.38
321.656
295.746
272.585
252.035
233.92
218.06
204.28
192.421
182.347
173.944
167.123
161.814
157.971
155.565
154.585
155.028
156.898
160.189
164.87
170.861
177.999
186.005
194.457
202.791
210.357
216.557
221.036
223.835
225.378
226.291
227.171
228.419
230.127
232.055
233.652
234.167
232.846
229.2
223.213
215.353
206.376
197.079
188.126
179.953
172.744
166.439
160.751
155.21
149.236
142.262
133.899
124.065
112.99
101.088
88.8086
76.5252
64.4786
52.7633
41.3308
29.9966
18.4493
6.26825
-7.03465
-21.9384
-38.8093
-57.8183
-78.9418
-102.048
-126.998
-153.724
-182.263
-212.761
-245.464
-280.697
-318.848
-360.329
-405.534
-454.779
-508.217
-565.748
-626.932
-690.9
-756.333
-821.539
531.013
487.849
445.27
404.702
367.124
333.05
302.628
275.758
252.205
231.673
213.86
198.483
185.292
174.075
164.659
156.908
150.721
146.028
142.791
140.999
140.67
141.841
144.572
148.924
154.946
162.641
171.909
182.482
193.841
205.162
215.362
223.319
228.312
230.446
230.649
230.201
230.261
231.578
234.361
238.237
242.27
245.075
245.153
241.455
233.938
223.574
211.815
200.057
189.345
180.303
173.154
167.768
163.679
160.118
156.073
150.495
142.635
132.388
120.295
107.204
93.9345
81.1003
69.0641
57.9608
47.7297
38.1306
28.7407
18.951
8.00023
-4.90461
-20.3642
-38.5645
-59.2802
-82.104
-106.676
-132.804
-160.498
-189.947
-221.494
-255.61
-292.866
-333.914
-379.432
-430.049
-486.223
-548.11
-615.396
-687.117
-761.514
-836.07
536.786
485.688
435.774
389.238
347.324
310.445
278.47
250.982
227.461
207.385
190.282
175.749
163.453
153.127
144.566
137.614
132.161
128.14
125.523
124.322
124.586
126.403
129.903
135.245
142.608
152.148
163.934
177.821
193.269
209.139
223.586
234.343
239.693
239.83
236.848
233.371
231.533
232.617
237.01
244.187
252.647
259.901
262.889
259.202
248.756
233.796
217.248
201.519
188.153
177.92
171.022
167.221
165.845
165.716
165.115
162.01
154.804
143.367
129.036
113.574
98.4318
84.5246
72.3054
61.9022
53.2188
45.9637
39.6086
33.3073
25.8508
15.8105
2.03062
-15.6847
-36.578
-59.6383
-84.1055
-109.623
-136.195
-164.1
-193.816
-225.987
-261.411
-301.045
-345.97
-397.295
-455.984
-522.671
-597.445
-679.453
-766.431
-854.493
544.859
481.8
421.391
367.098
320.255
280.761
247.833
220.479
197.743
178.805
162.994
149.784
138.767
129.632
122.15
116.153
111.532
108.223
106.212
105.53
106.258
108.538
112.576
118.653
127.127
138.415
152.927
170.903
192.083
215.158
237.116
253.141
258.573
253.695
243.752
234.171
228.589
228.884
235.638
248.281
264.752
280.862
290.228
286.674
270.063
246.299
221.491
199.575
182.442
170.727
164.426
163.178
166.21
171.991
177.758
179.426
173.06
158.511
139.401
119.483
101.148
85.5164
72.9303
63.3662
56.6509
52.5007
50.3995
49.328
47.4233
41.9123
30.0948
11.7744
-10.7515
-35.1421
-60.0178
-84.9151
-109.966
-135.638
-162.595
-191.666
-223.881
-260.543
-303.275
-353.921
-414.204
-485.565
-569.051
-664.603
-769.76
-878.393
556.707
474.07
398.176
334.215
282.587
241.614
209.163
183.317
162.55
145.712
131.954
120.655
111.363
103.752
97.5878
92.7073
89.0069
86.4335
84.9825
84.7004
85.6925
88.1371
92.3074
98.6028
107.588
120.034
136.926
159.364
188.161
222.776
259.179
287.186
292.287
274.841
250.126
229.205
217.172
215.844
225.779
246.854
277.367
311.523
336.164
332.938
301.66
260.297
221.564
190.736
168.925
155.733
150.548
152.969
162.61
178.28
196.298
208.404
203.097
180.217
150.928
123.107
99.9701
82.1211
69.2025
60.7272
56.389
56.0868
59.7077
66.5489
74.1895
77.0963
67.5245
45.2911
17.763
-9.94372
-35.8946
-59.9808
-82.8369
-105.316
-128.32
-152.808
-179.937
-211.287
-249.171
-296.652
-356.452
-430.978
-523.258
-635.893
-768.053
-910.616
575.333
456.606
357.758
283.558
229.562
190.179
160.968
138.83
121.692
108.178
97.3653
88.6279
81.5342
75.7847
71.1723
67.5579
64.8552
63.0235
62.0659
62.0326
63.0313
65.247
68.9748
74.6749
83.062
95.2454
112.932
138.663
175.853
227.809
293.32
354.206
358.454
306.446
251.028
211.43
190.331
186.575
199.869
231.828
284.725
355.874
422.218
419.584
347.769
270.497
210.249
168.904
142.993
129.201
125.716
132.357
150.323
181.183
223.347
262.452
258.435
211.147
160.337
119.984
91.1752
71.6238
59.0752
52.1298
50.3148
54.0233
64.3782
82.6182
107.772
130.249
123.187
86.4334
46.5364
12.7288
-14.4533
-36.8135
-56.2452
-74.235
-91.8983
-110.142
-129.902
-152.613
-181.231
-221.631
-277.478
-350.805
-448.133
-579.038
-751.33
-956.713
607.426
410.499
281.829
203.789
155.483
124.089
102.581
87.1354
75.6091
66.7477
59.784
54.2301
49.7656
46.1759
43.3165
41.0923
39.4461
38.3522
37.8157
37.8758
38.615
40.1768
42.7991
46.8747
53.0659
62.5274
77.351
101.455
142.276
213.315
334.108
502.771
505.617
342.949
229.138
167.008
138.512
132.747
147.076
186.643
265.792
407.132
607.584
605.838
401.726
256.172
171.71
124.839
99.606
87.8237
86.2959
95.4353
119.463
167.806
254.792
378.589
376.075
247.143
154.683
100.233
69.0479
51.0412
40.8779
36.1438
36.286
42.3884
57.6934
88.7307
145.207
225.938
221.603
132.102
66.5414
25.8623
0.0467259
-17.8601
-31.726
-43.6192
-54.6362
-65.2851
-75.6113
-85.422
-96.3126
-124.355
-173.319
-236.056
-324.637
-462.563
-686.93
-1028.64
668.443
266.081
132.979
81.1949
57.0439
43.7576
35.4585
29.7932
25.6854
22.5817
20.1698
18.2608
16.7349
15.5133
14.5439
13.7928
13.2398
12.8763
12.7046
12.7396
13.0123
13.5776
14.5287
16.026
18.3584
22.0856
28.4019
40.1722
65.1781
127.167
305.948
890.093
891.099
309.083
132.821
74.144
53.9539
49.9776
57.9347
84.4519
157.295
373.256
1084.09
1083.48
371.346
153.864
79.0333
49.6102
36.8472
31.6774
31.5127
37.0712
53.5863
98.7777
233.222
676.603
675.747
230.612
94.2889
46.9807
27.9414
19.163
14.8619
13.1353
13.674
17.5013
28.3532
58.209
147.714
444.118
442.656
143.293
50.7172
17.5926
3.15941
-4.7239
-10.0454
-14.2623
-17.9005
-20.8888
-22.0574
-16.6697
13.3131
3.05947
-49.3181
-84.0775
-130.068
-221.589
-453.526
-1153.26
-826.851
-876.408
-923.445
-967.473
-1008.11
-1045.1
-1078.27
-1107.54
-1132.93
-1154.46
-1172.22
-1186.29
-1196.76
-1203.7
-1207.15
-828.754
-878.891
-926.416
-970.822
-1011.73
-1048.87
-1082.11
-1111.39
-1136.73
-1158.19
-1175.86
-1189.85
-1200.24
-1207.13
-1210.55
-832.622
-883.951
-932.466
-977.631
-1019.06
-1056.51
-1089.87
-1119.14
-1144.36
-1165.66
-1183.14
-1196.95
-1207.19
-1213.96
-1217.33
-838.599
-891.787
-941.829
-988.137
-1030.33
-1068.19
-1101.69
-1130.87
-1155.88
-1176.88
-1194.05
-1207.56
-1217.56
-1224.15
-1227.43
-846.918
-902.733
-954.885
-1002.72
-1045.87
-1084.2
-1117.77
-1146.74
-1171.37
-1191.89
-1208.58
-1221.64
-1231.27
-1237.61
-1240.76
-857.943
-917.304
-972.217
-1021.95
-1066.19
-1104.93
-1138.39
-1166.92
-1190.89
-1210.7
-1226.67
-1239.1
-1248.23
-1254.22
-1257.18
-872.235
-936.282
-994.685
-1046.64
-1091.96
-1130.89
-1163.9
-1191.59
-1214.54
-1233.28
-1248.25
-1259.82
-1268.27
-1273.79
-1276.52
-890.664
-960.866
-1023.56
-1077.93
-1124.09
-1162.71
-1194.69
-1220.95
-1242.35
-1259.58
-1273.19
-1283.62
-1291.18
-1296.11
-1298.54
-914.623
-992.922
-1060.71
-1117.38
-1163.71
-1201.12
-1231.13
-1255.14
-1274.28
-1289.43
-1301.25
-1310.22
-1316.68
-1320.87
-1322.93
-946.445
-1035.45
-1108.93
-1167.12
-1212.2
-1246.87
-1273.54
-1294.15
-1310.15
-1322.56
-1332.1
-1339.27
-1344.4
-1347.72
-1349.34
-990.297
-1093.46
-1172.39
-1229.92
-1271.07
-1300.56
-1321.95
-1337.73
-1349.55
-1358.51
-1365.28
-1370.31
-1373.89
-1376.19
-1377.32
-1054.34
-1175.67
-1257.2
-1309.03
-1341.57
-1362.3
-1375.91
-1385.2
-1391.78
-1396.58
-1400.13
-1402.74
-1404.6
-1405.78
-1406.37
-1156.48
-1297.64
-1371.66
-1407.38
-1423.82
-1431.09
-1434.15
-1435.33
-1435.72
-1435.83
-1435.86
-1435.88
-1435.9
-1435.93
-1435.94
-1342.31
-1486.7
-1524.36
-1524.94
-1515.18
-1504.05
-1494.2
-1486.18
-1479.9
-1475.12
-1471.55
-1468.95
-1467.16
-1466.02
-1465.48
-1749.81
-1782.44
-1714.09
-1652.77
-1607.86
-1575.66
-1552.34
-1535.22
-1522.54
-1513.13
-1506.19
-1501.17
-1497.68
-1495.48
-1494.41
1004.85
1004.18
1002.87
1000.98
998.624
996.01
993.485
991.652
991.57
995.147
1005.96
1031.29
1088.33
1228.31
1650.19
1026.68
1026.1
1024.97
1023.34
1021.31
1019.07
1016.93
1015.47
1015.7
1019.52
1030.49
1055.43
1107.36
1208.61
1372.48
1048.88
1048.37
1047.38
1045.94
1044.12
1042.03
1039.88
1038.07
1037.3
1038.88
1045.27
1060.79
1092.11
1145.37
1209.07
1071.39
1070.95
1070.08
1068.78
1067.07
1064.98
1062.56
1059.91
1057.22
1054.88
1053.68
1055.14
1061.59
1074.83
1090.4
1094.17
1093.79
1093.03
1091.86
1090.25
1088.13
1085.37
1081.75
1076.87
1070.04
1060.21
1045.98
1026.3
1002.65
983.049
1117.18
1116.87
1116.23
1115.22
1113.75
1111.68
1108.74
1104.43
1097.83
1087.26
1069.76
1040.57
993.746
927.61
862.592
1140.37
1140.14
1139.65
1138.85
1137.63
1135.8
1133.03
1128.66
1121.51
1109.25
1087.38
1047.39
974.561
851.761
697.494
1163.68
1163.55
1163.25
1162.73
1161.89
1160.54
1158.37
1154.8
1148.7
1137.87
1117.56
1076.96
990.05
797.731
425.782
1187.06
1187.03
1186.96
1186.8
1186.46
1185.82
1184.66
1182.64
1179.15
1173.02
1161.8
1138.64
1078.71
868.413
-103.704
1210.42
1210.52
1210.7
1210.94
1211.2
1211.41
1211.52
1211.48
1211.37
1211.68
1214.3
1225.81
1271.75
1468.1
2430.42
1233.67
1233.9
1234.36
1235.04
1235.93
1237.04
1238.44
1240.32
1243.25
1248.7
1260.57
1289.04
1360.31
1535.83
1895.23
1256.72
1257.09
1257.83
1258.94
1260.46
1262.43
1264.98
1268.41
1273.34
1281.22
1295.28
1322.49
1376.43
1475.8
1610.21
1279.48
1279.98
1280.99
1282.53
1284.63
1287.37
1290.88
1295.4
1301.34
1309.41
1320.81
1337.33
1360.95
1391.39
1419.12
1301.86
1302.48
1303.75
1305.67
1308.31
1311.73
1316.04
1321.37
1327.82
1335.23
1342.73
1347.21
1340.7
1308.81
1247.89
1323.76
1324.5
1326
1328.28
1331.41
1335.44
1340.46
1346.53
1353.57
1360.97
1366.71
1364.67
1338.04
1246.34
1034.94
1345.11
1345.95
1347.66
1350.27
1353.83
1358.41
1364.11
1370.99
1379.01
1387.81
1396.04
1399.17
1380.53
1266.95
675.793
1365.83
1366.76
1368.66
1371.55
1375.49
1380.56
1386.89
1394.6
1403.87
1415
1428.86
1448.73
1488.91
1619.17
2218.62
1385.86
1386.87
1388.92
1392.05
1396.31
1401.81
1408.67
1417.09
1427.39
1440.25
1457.47
1484.15
1534.7
1645.5
1866.48
1405.14
1406.22
1408.4
1411.71
1416.23
1422.06
1429.33
1438.24
1449.09
1462.43
1479.47
1502.94
1538.59
1595.26
1668.42
1423.64
1424.76
1427.03
1430.49
1435.2
1441.26
1448.8
1457.99
1469
1481.99
1496.97
1513.21
1527.84
1533.54
1521.8
1441.31
1442.47
1444.8
1448.35
1453.18
1459.39
1467.09
1476.43
1487.48
1500.14
1513.54
1524.54
1523.25
1483.86
1367.68
1458.14
1459.32
1461.68
1465.27
1470.16
1476.43
1484.21
1493.63
1504.81
1517.7
1531.75
1544.36
1545.06
1487.48
1133.51
1474.12
1475.29
1477.66
1481.25
1486.13
1492.38
1500.14
1509.57
1520.89
1534.43
1550.91
1572.4
1607.28
1696.89
2070.55
1489.24
1490.4
1492.73
1496.28
1501.09
1507.25
1514.87
1524.15
1535.37
1549.07
1566.55
1591.09
1631.46
1708.99
1851.36
1503.51
1504.65
1506.93
1510.38
1515.07
1521.04
1528.41
1537.34
1548.07
1561.04
1577.23
1598.74
1629.78
1676.01
1731.69
1516.96
1518.05
1520.26
1523.59
1528.09
1533.81
1540.83
1549.24
1559.16
1570.72
1584.16
1599.73
1617.51
1636.42
1651.34
1529.6
1530.65
1532.75
1535.94
1540.22
1545.64
1552.24
1560.05
1569.05
1579.07
1589.57
1599.13
1604.41
1599.56
1582.01
1541.46
1542.46
1544.46
1547.47
1551.51
1556.6
1562.77
1569.99
1578.19
1587.02
1595.58
1601.45
1598.3
1571.46
1501.16
1552.6
1553.53
1555.41
1558.24
1562.02
1566.77
1572.51
1579.22
1586.83
1595.1
1603.43
1609.98
1608.6
1573.49
1372.16
1563.04
1563.91
1565.66
1568.29
1571.8
1576.21
1581.53
1587.78
1594.96
1603.11
1612.45
1623.96
1642.29
1690.89
1899.18
1572.83
1573.64
1575.25
1577.68
1580.91
1584.97
1589.86
1595.64
1602.37
1610.25
1619.92
1633.16
1654.91
1697.35
1776.34
1582.02
1582.76
1584.23
1586.45
1589.4
1593.09
1597.54
1602.79
1608.91
1616.1
1624.86
1636.39
1653.12
1678.37
1709.04
1590.65
1591.32
1592.66
1594.66
1597.32
1600.64
1604.63
1609.29
1614.67
1620.8
1627.83
1635.96
1645.36
1655.57
1663.69
1598.77
1599.37
1600.57
1602.36
1604.73
1607.68
1611.19
1615.26
1619.85
1624.84
1629.99
1634.61
1637.01
1634.17
1624.66
1606.43
1606.96
1608.02
1609.61
1611.7
1614.28
1617.33
1620.82
1624.68
1628.72
1632.48
1634.73
1632.24
1617.35
1579.7
1613.67
1614.14
1615.07
1616.45
1618.27
1620.5
1623.12
1626.09
1629.35
1632.74
1635.96
1638.11
1636.03
1616.3
1509.26
1620.54
1620.95
1621.76
1622.95
1624.5
1626.4
1628.61
1631.11
1633.86
1636.84
1640.15
1644.37
1652.05
1675.82
1784.27
1627.09
1627.44
1628.12
1629.14
1630.45
1632.03
1633.86
1635.91
1638.16
1640.65
1643.67
1648.17
1656.85
1676.49
1716.15
1633.35
1633.64
1634.22
1635.07
1636.15
1637.45
1638.92
1640.53
1642.24
1644.05
1646.13
1649
1653.98
1663.22
1676.23
1639.36
1639.6
1640.08
1640.78
1641.66
1642.69
1643.83
1645.03
1646.19
1647.22
1647.98
1648.33
1648.12
1647.28
1646.01
1645.15
1645.36
1645.75
1646.31
1647.01
1647.81
1648.67
1649.5
1650.2
1650.52
1650.07
1648
1642.65
1631.6
1615.58
1650.77
1650.93
1651.24
1651.69
1652.24
1652.85
1653.47
1654.03
1654.4
1654.3
1653.23
1649.9
1641.1
1619.31
1574.7
1656.22
1656.35
1656.6
1656.95
1657.37
1657.83
1658.28
1658.66
1658.87
1658.73
1657.91
1655.55
1648.53
1622.83
1503.52
1661.54
1661.64
1661.83
1662.1
1662.42
1662.76
1663.08
1663.35
1663.52
1663.57
1663.63
1664.39
1668.87
1691.32
1807.46
1666.74
1666.82
1666.97
1667.17
1667.41
1667.66
1667.88
1668.06
1668.2
1668.35
1668.81
1670.6
1676.69
1694.7
1735.42
1671.84
1671.9
1672.02
1672.17
1672.34
1672.51
1672.66
1672.77
1672.83
1672.86
1673.03
1673.77
1676.19
1682.27
1692.34
1676.85
1676.9
1676.98
1677.1
1677.22
1677.33
1677.42
1677.46
1677.42
1677.24
1676.79
1675.73
1673.09
1667.03
1656.93
1681.78
1681.82
1681.89
1681.97
1682.06
1682.12
1682.16
1682.15
1682.05
1681.75
1680.95
1678.73
1672.31
1654.56
1615.2
1686.64
1686.67
1686.72
1686.79
1686.85
1686.89
1686.89
1686.86
1686.77
1686.55
1686.04
1684.59
1679.36
1657.03
1546.83
1691.43
1691.46
1691.5
1691.55
1691.59
1691.62
1691.61
1691.57
1691.52
1691.5
1691.75
1693.03
1698.23
1720.49
1830.01
1696.16
1696.18
1696.22
1696.27
1696.3
1696.31
1696.29
1696.24
1696.18
1696.2
1696.69
1698.71
1705.19
1723.3
1762.59
1700.83
1700.85
1700.89
1700.94
1700.97
1700.98
1700.95
1700.87
1700.73
1700.54
1700.52
1701.22
1704.04
1711.36
1723.16
1705.43
1705.45
1705.5
1705.56
1705.61
1705.63
1705.6
1705.5
1705.24
1704.73
1703.79
1702.21
1699.71
1696.24
1692.66
1709.96
1709.99
1710.05
1710.13
1710.2
1710.25
1710.26
1710.17
1709.88
1709.14
1707.47
1703.79
1696
1681.14
1660.41
1714.43
1714.47
1714.54
1714.64
1714.75
1714.85
1714.93
1714.95
1714.78
1714.16
1712.48
1708.17
1697.17
1670.05
1614.5
1718.81
1718.86
1718.96
1719.09
1719.24
1719.42
1719.61
1719.79
1719.92
1719.86
1719.28
1717.13
1709.48
1678.65
1530.75
1723.12
1723.18
1723.29
1723.46
1723.67
1723.93
1724.24
1724.63
1725.14
1725.86
1727.11
1729.86
1737.85
1768.5
1915.31
1727.33
1727.4
1727.54
1727.74
1728.01
1728.34
1728.76
1729.33
1730.15
1731.45
1733.86
1738.88
1750.42
1777.62
1832.3
1731.45
1731.53
1731.69
1731.93
1732.24
1732.63
1733.13
1733.8
1734.76
1736.22
1738.73
1743.33
1752.06
1767.61
1788.03
1735.46
1735.55
1735.73
1736
1736.35
1736.79
1737.33
1738.03
1738.95
1740.22
1742.08
1744.87
1748.92
1754.16
1758.7
1739.35
1739.45
1739.66
1739.96
1740.35
1740.81
1741.37
1742.04
1742.84
1743.76
1744.75
1745.46
1744.9
1741.13
1733.3
1743.11
1743.23
1743.47
1743.8
1744.23
1744.72
1745.29
1745.92
1746.58
1747.2
1747.55
1746.87
1743.05
1730.88
1703.23
1746.74
1746.88
1747.15
1747.52
1747.99
1748.53
1749.11
1749.71
1750.3
1750.78
1751
1750.41
1746.94
1731.33
1654.73
1750.23
1750.39
1750.69
1751.12
1751.65
1752.24
1752.86
1753.46
1754.02
1754.48
1754.96
1755.9
1759.22
1774.08
1849.13
1753.55
1753.73
1754.09
1754.6
1755.21
1755.88
1756.56
1757.2
1757.73
1758.13
1758.55
1759.66
1763.44
1774.96
1801.15
1756.69
1756.91
1757.33
1757.93
1758.66
1759.45
1760.24
1760.95
1761.47
1761.69
1761.62
1761.5
1762.22
1765.59
1772.18
1759.62
1759.89
1760.4
1761.12
1762
1762.96
1763.93
1764.78
1765.35
1765.41
1764.65
1762.7
1759.12
1753.92
1748.6
1762.32
1762.64
1763.25
1764.13
1765.21
1766.42
1767.64
1768.75
1769.53
1769.63
1768.47
1764.95
1757.09
1742.28
1722.14
1764.74
1765.12
1765.87
1766.95
1768.28
1769.79
1771.38
1772.89
1774.11
1774.66
1773.86
1770.16
1759.83
1734.29
1682.51
1766.83
1767.3
1768.21
1769.52
1771.16
1773.06
1775.11
1777.18
1779.09
1780.58
1781.2
1779.91
1773.07
1744.47
1607.76
1768.55
1769.11
1770.2
1771.79
1773.8
1776.16
1778.76
1781.52
1784.3
1787.02
1789.82
1793.46
1801.35
1829.65
1964.8
1769.83
1770.49
1771.8
1773.7
1776.14
1779.02
1782.27
1785.78
1789.48
1793.36
1797.8
1803.99
1815.41
1840.57
1890.69
1770.59
1771.37
1772.92
1775.18
1778.09
1781.57
1785.53
1789.85
1794.45
1799.26
1804.49
1810.82
1819.85
1834.09
1852.25
1770.75
1771.66
1773.47
1776.14
1779.59
1783.73
1788.47
1793.68
1799.19
1804.81
1810.37
1815.7
1820.62
1824.82
1827.3
1770.21
1771.28
1773.38
1776.49
1780.53
1785.42
1791.04
1797.24
1803.79
1810.34
1816.34
1820.79
1821.84
1816.67
1804.95
1768.89
1770.11
1772.53
1776.12
1780.81
1786.53
1793.15
1800.5
1808.33
1816.18
1823.31
1828.18
1827.29
1813.01
1775.36
1766.66
1768.05
1770.81
1774.92
1780.32
1786.95
1794.68
1803.38
1812.77
1822.45
1831.8
1839.5
1841.99
1825.51
1720.51
1763.4
1764.97
1768.09
1772.76
1778.92
1786.53
1795.5
1805.71
1816.93
1828.9
1841.36
1854.37
1869.81
1899.4
2010.39
1759.01
1760.76
1764.25
1769.48
1776.44
1785.1
1795.4
1807.26
1820.51
1834.95
1850.48
1867.47
1887.74
1916.7
1961.52
1753.34
1755.27
1759.13
1764.94
1772.72
1782.46
1794.17
1807.79
1823.19
1840.16
1858.52
1878.22
1899.56
1922.9
1944.68
1746.28
1748.38
1752.59
1758.97
1767.55
1778.4
1791.55
1807.02
1824.7
1844.34
1865.57
1887.76
1909.92
1930.13
1943.87
1737.71
1739.96
1744.5
1751.4
1760.75
1772.67
1787.28
1804.65
1824.77
1847.36
1871.89
1897.26
1921.56
1941.78
1953.52
1727.51
1729.89
1734.71
1742.05
1752.09
1765
1781.01
1800.33
1823.04
1848.98
1877.56
1907.41
1935.97
1959.25
1972.24
1715.61
1718.08
1723.09
1730.78
1741.36
1755.12
1772.4
1793.59
1818.99
1848.68
1882.28
1918.4
1953.97
1983.79
2000.89
1701.94
1704.45
1709.55
1717.43
1728.36
1742.72
1761.02
1783.86
1811.89
1845.61
1885.19
1929.68
1975.91
2017.09
2042.34
1686.47
1688.95
1694.03
1701.9
1712.91
1727.53
1746.43
1770.48
1800.74
1838.42
1884.63
1939.68
2001.29
2061.36
2102.24
1669.21
1671.6
1676.5
1684.13
1694.88
1709.3
1728.21
1752.72
1784.38
1825.22
1877.87
1945.04
2027.65
2118.9
2191.44
1650.24
1652.46
1657.01
1664.13
1674.23
1687.89
1706.03
1729.95
1761.57
1803.76
1860.95
1939.62
2047.95
2189.36
2331.92
1629.68
1631.64
1635.67
1642.01
1651.03
1663.32
1679.79
1701.77
1731.33
1771.83
1829.05
1913.51
2045.2
2258.93
2572.3
1607.7
1609.33
1612.68
1617.95
1625.49
1635.8
1649.66
1668.26
1693.44
1728.23
1778.16
1854.55
1985.42
2259.21
3031.2
-2889.61
-2146.04
-1881.48
-1754.86
-1681.1
-1633.12
-1599.9
-1576.04
-1558.57
-1545.66
-1536.13
-1529.23
-1524.42
-1521.38
-1519.91
-2445.84
-2143.89
-1937.8
-1810.91
-1729.75
-1675.04
-1636.57
-1608.69
-1588.12
-1572.83
-1561.49
-1553.23
-1547.46
-1543.8
-1542.02
-2212.42
-2075.1
-1939.08
-1835.14
-1759.98
-1705.65
-1665.83
-1636.21
-1613.97
-1597.21
-1584.67
-1575.46
-1568.99
-1564.87
-1562.87
-2075.03
-2005.34
-1918.03
-1839.34
-1775.7
-1726.14
-1687.96
-1658.57
-1635.96
-1618.63
-1605.48
-1595.73
-1588.84
-1584.43
-1582.28
-1986.7
-1947.77
-1890.95
-1833.02
-1781.59
-1738.68
-1703.93
-1676.18
-1654.24
-1637.09
-1623.88
-1613.98
-1606.92
-1602.38
-1600.15
-1926.07
-1902.57
-1864.57
-1822.14
-1781.51
-1745.52
-1714.97
-1689.7
-1669.17
-1652.77
-1639.94
-1630.2
-1623.2
-1618.67
-1616.44
-1882.44
-1867.39
-1841.22
-1809.96
-1778.16
-1748.52
-1722.31
-1699.88
-1681.18
-1665.93
-1653.8
-1644.48
-1637.72
-1633.32
-1631.15
-1849.93
-1839.87
-1821.37
-1798.09
-1773.25
-1749.11
-1726.96
-1707.43
-1690.74
-1676.86
-1665.66
-1656.94
-1650.56
-1646.38
-1644.31
-1825.08
-1818.15
-1804.78
-1787.26
-1767.82
-1748.25
-1729.74
-1712.97
-1698.31
-1685.9
-1675.73
-1667.73
-1661.82
-1657.92
-1655.98
-1805.73
-1800.87
-1791.03
-1777.7
-1762.44
-1746.62
-1731.24
-1716.99
-1704.28
-1693.34
-1684.25
-1677.02
-1671.63
-1668.06
-1666.28
-1790.42
-1786.98
-1779.66
-1769.43
-1757.4
-1744.62
-1731.91
-1719.89
-1708.98
-1699.44
-1691.42
-1684.97
-1680.13
-1676.9
-1675.29
-1778.17
-1775.75
-1770.25
-1762.35
-1752.84
-1742.52
-1732.06
-1721.98
-1712.68
-1704.45
-1697.44
-1691.76
-1687.46
-1684.59
-1683.14
-1768.28
-1766.6
-1762.46
-1756.34
-1748.8
-1740.47
-1731.88
-1723.47
-1715.61
-1708.56
-1702.5
-1697.54
-1693.77
-1691.23
-1689.95
-1760.24
-1759.11
-1756
-1751.25
-1745.28
-1738.56
-1731.52
-1724.53
-1717.92
-1711.93
-1706.73
-1702.45
-1699.16
-1696.94
-1695.83
-1753.66
-1752.95
-1750.63
-1746.95
-1742.22
-1736.82
-1731.07
-1725.29
-1719.76
-1714.7
-1710.28
-1706.6
-1703.77
-1701.85
-1700.88
-1748.24
-1747.86
-1746.16
-1743.33
-1739.6
-1735.26
-1730.59
-1725.83
-1721.23
-1716.99
-1713.25
-1710.12
-1707.7
-1706.06
-1705.22
-1743.76
-1743.64
-1742.43
-1740.27
-1737.35
-1733.89
-1730.11
-1726.22
-1722.42
-1718.88
-1715.74
-1713.1
-1711.05
-1709.65
-1708.94
-1740.05
-1740.13
-1739.31
-1737.69
-1735.43
-1732.69
-1729.65
-1726.49
-1723.37
-1720.45
-1717.83
-1715.63
-1713.9
-1712.72
-1712.11
-1736.95
-1737.2
-1736.69
-1735.52
-1733.79
-1731.65
-1729.23
-1726.68
-1724.15
-1721.75
-1719.59
-1717.76
-1716.32
-1715.33
-1714.83
-1734.36
-1734.74
-1734.49
-1733.68
-1732.39
-1730.74
-1728.85
-1726.82
-1724.78
-1722.84
-1721.08
-1719.57
-1718.39
-1717.57
-1717.15
-1732.18
-1732.67
-1732.64
-1732.12
-1731.2
-1729.96
-1728.51
-1726.92
-1725.3
-1723.75
-1722.33
-1721.11
-1720.15
-1719.48
-1719.13
-1730.34
-1730.92
-1731.06
-1730.79
-1730.18
-1729.29
-1728.2
-1726.99
-1725.73
-1724.52
-1723.4
-1722.43
-1721.65
-1721.11
-1720.84
-1728.78
-1729.43
-1729.72
-1729.66
-1729.3
-1728.71
-1727.93
-1727.04
-1726.09
-1725.17
-1724.31
-1723.55
-1722.95
-1722.52
-1722.3
-1727.44
-1728.15
-1728.56
-1728.68
-1728.54
-1728.2
-1727.69
-1727.07
-1726.4
-1725.72
-1725.09
-1724.52
-1724.06
-1723.74
-1723.57
-1726.27
-1727.05
-1727.56
-1727.83
-1727.88
-1727.75
-1727.48
-1727.1
-1726.66
-1726.21
-1725.77
-1725.37
-1725.04
-1724.81
-1724.68
-1725.25
-1726.07
-1726.67
-1727.08
-1727.29
-1727.36
-1727.29
-1727.12
-1726.89
-1726.63
-1726.37
-1726.12
-1725.9
-1725.75
-1725.66
-1724.33
-1725.19
-1725.88
-1726.4
-1726.77
-1727
-1727.12
-1727.14
-1727.1
-1727.01
-1726.9
-1726.78
-1726.67
-1726.59
-1726.54
-1723.49
-1724.4
-1725.16
-1725.79
-1726.29
-1726.68
-1726.97
-1727.16
-1727.28
-1727.36
-1727.39
-1727.4
-1727.38
-1727.36