/*--------------------------------*- C++ -*----------------------------------*\
| =========                 |                                                 |
| \\      /  F ield         | OpenFOAM: The Open Source CFD Toolbox           |
|  \\    /   O peration     | Version:  5.x                                   |
|   \\  /    A nd           | Web:      www.OpenFOAM.org                      |
|    \\/     M anipulation  |                                                 |
\*---------------------------------------------------------------------------*/
FoamFile
{
    version     2.0;
    format      ascii;
    class       volScalarField;
    location    "6.4";
    object      gradTy;
}
// * * * * * * * * * * * * * * * * * * * * * * * * * * * * * * * * * * * * * //

dimensions      [0 -1 0 1 0 0 0];

internalField   nonuniform List<scalar> 
6300
(
1386.77
2159.21
2928.3
3691.81
4447.49
5193.06
5926.25
6644.77
7346.35
8028.75
8689.82
9327.51
9939.97
10525.6
11083.1
1.64194
4.93076
8.23363
11.5572
14.9036
18.2685
21.6384
24.9886
28.28
31.4582
34.4525
37.1778
39.5394
41.4411
42.796
2.73096
8.20212
13.6995
19.2363
24.8184
30.4413
36.0854
41.712
47.2582
52.6336
57.7183
62.3653
66.4079
69.6739
72.0053
3.81067
11.4468
19.1254
26.8691
34.6915
42.5916
50.5486
58.5142
66.4055
74.0976
81.4194
88.1543
94.0497
98.8378
102.267
4.8755
14.6484
24.4852
34.4222
44.4852
54.6832
65.0008
75.3881
85.7489
95.9285
105.704
114.779
122.794
129.355
134.078
5.91817
17.7855
29.7439
41.848
54.1421
66.653
79.3808
92.2853
105.27
118.16
130.683
142.457
152.988
161.702
168.024
6.92964
20.8306
34.8555
49.082
63.5798
78.4031
93.5804
109.099
124.88
140.751
156.406
171.372
184.988
196.435
204.83
7.89918
23.7512
39.764
56.0429
72.6895
89.7958
107.435
125.644
144.395
163.551
182.811
201.627
219.149
234.209
245.438
8.81468
26.5101
44.4046
62.6337
81.3362
100.652
120.715
141.641
163.496
186.241
209.648
233.166
255.761
275.802
291.126
9.66374
29.0687
48.7086
68.7486
89.3662
110.755
133.127
156.704
181.698
208.26
236.365
265.614
294.916
322.101
343.726
10.4349
31.3911
52.6106
74.2831
96.621
119.871
144.327
170.34
198.324
228.726
261.927
297.998
336.173
373.944
405.973
11.1193
33.4491
56.0575
79.1491
102.959
127.775
153.962
181.998
212.524
246.381
284.607
328.265
377.82
431.51
482.045
11.7122
35.2271
59.0191
83.2929
108.288
134.304
161.739
191.157
223.381
259.655
301.842
352.619
415.316
492.211
577.802
12.2141
36.7266
61.4964
86.7118
112.591
139.406
167.527
197.499
230.179
267.005
310.474
365.036
438.592
544.19
696.352
12.6312
37.9672
63.5259
89.4636
115.953
143.196
171.457
201.122
232.822
267.701
308
358.44
429.803
549.577
799.277
11567.4
11987.2
12386.3
12765
13123.4
13462.2
13782
14083.7
14368.2
14636.5
14889.8
15129.3
15356.1
15571.5
15776.6
15972.7
16160.9
16342.4
16518.1
16689.3
16856.8
17021.6
17184.6
17346.5
17508
17669.8
17832.3
17995.9
18161
18327.7
18496.1
18666.2
18837.9
19011
19185.3
19360.4
19536.1
19712.1
19887.9
20063.1
20237.3
20409.9
20580.6
20748.8
20913.9
21075.5
21233
21386.1
21534.3
21677.3
21814.7
21946.1
22071.2
22189.6
22301.1
22405.2
22501.4
22589.4
22668.7
22738.8
22799.2
22849.4
22888.9
22917.1
22933.4
22937.2
22927.7
22904
22865.5
22811
22739.5
22650
22541.2
22411.8
22260.6
22086.1
21887
21661.8
21409
21127.3
20815.1
20471
20093.8
19682.1
19235
18751.6
18231.3
17673.6
17078.5
16446.4
43.476
43.6456
43.3629
42.6416
41.5115
40.0147
38.202
36.1284
33.8497
31.4189
28.8849
26.2905
23.6728
21.0626
18.4855
15.9628
13.5126
11.1504
8.89094
6.74855
4.73805
2.87524
1.1769
-0.339549
-1.65689
-2.75951
-3.63518
-4.27707
-4.68553
-4.86935
-4.84577
-4.63901
-4.27737
-3.78926
-3.19928
-2.52525
-1.77731
-0.959128
-0.0710175
0.885906
1.90579
2.97541
4.07378
5.17424
6.24851
7.2718
8.22738
9.1095
9.92413
10.6874
11.4222
12.1541
12.9067
13.6984
14.5403
15.4354
16.3807
17.3699
18.397
19.4602
20.5635
21.7182
22.9421
24.2575
25.6888
27.2595
28.9893
30.8921
32.9744
35.2352
37.6672
40.2577
42.9909
45.8495
48.8153
51.8686
54.9872
58.1443
61.3059
64.4285
67.4575
70.3263
72.9573
75.2633
77.1525
78.5333
79.3222
79.4511
78.8744
77.5748
73.1744
73.4621
72.9684
71.719
69.7681
67.1925
64.0834
60.5387
56.6558
52.5268
48.2348
43.8521
39.4398
35.0485
30.7194
26.4862
22.3773
18.417
14.6283
11.0339
7.65791
4.52645
1.6681
-0.886701
-3.10708
-4.96418
-6.43445
-7.50358
-8.17031
-8.44923
-8.37137
-7.98181
-7.3339
-6.4813
-5.46956
-4.32994
-3.07736
-1.71298
-0.230807
1.37355
3.09447
4.91056
6.78356
8.66249
10.4923
12.2243
13.826
15.2867
16.6188
17.8545
19.0386
20.2206
21.4457
22.7479
24.1458
25.6424
27.2277
28.8854
30.6003
32.3655
34.1863
36.0825
38.0866
40.2401
42.5882
45.1746
48.0356
51.1963
54.6681
58.4481
62.5213
66.8637
71.4468
76.2404
81.2147
86.3392
91.5801
96.8965
102.235
107.527
112.682
117.587
122.111
126.101
129.396
131.83
133.253
133.54
132.607
130.419
103.986
104.402
103.66
101.804
98.9221
95.1363
90.59
85.4336
79.8142
73.8677
67.714
61.4553
55.1761
48.9446
42.8152
36.8314
31.0286
25.4376
20.0871
15.0063
10.2273
5.78619
1.72418
-1.91327
-5.07813
-7.72349
-9.80886
-11.307
-12.2109
-12.5402
-12.3432
-11.6939
-10.6825
-9.39988
-7.92138
-6.29475
-4.53591
-2.63401
-0.564196
1.69563
4.14831
6.76593
9.48691
12.2236
14.8788
17.3665
19.6296
21.6509
23.4543
25.0976
26.6599
28.227
29.8754
31.661
33.611
35.7232
37.9719
40.32
42.7329
45.192
47.7018
50.2926
53.0172
55.9433
59.1455
62.695
66.6509
71.0532
75.9184
81.2392
86.9878
93.1233
99.5992
106.371
113.397
120.641
128.063
135.615
143.231
150.821
158.262
165.396
172.03
177.939
182.873
186.58
188.817
189.384
188.14
185.028
136.443
137
135.949
133.359
129.369
124.167
117.966
110.986
103.434
95.4974
87.335
79.079
70.835
62.6854
54.6936
46.9082
39.3678
32.105
25.1507
18.5377
12.3037
6.49398
1.16293
-3.62616
-7.80294
-11.2947
-14.0344
-15.9714
-17.0845
-17.3945
-16.9716
-15.9331
-14.4275
-12.6062
-10.5924
-8.45595
-6.20656
-3.80308
-1.17758
1.73341
4.95788
8.46551
12.1605
15.8948
19.4994
22.8246
25.7738
28.3214
30.5126
32.4492
34.2666
36.1079
38.0993
40.3289
42.8341
45.5988
48.5645
51.6524
54.7904
57.9365
61.0917
64.3013
67.6482
71.2398
75.1934
79.6205
84.6135
90.2334
96.5026
103.404
110.887
118.882
127.315
136.123
145.255
154.675
164.347
174.228
184.252
194.315
204.27
213.912
222.981
231.164
238.105
243.43
246.773
247.821
246.35
242.262
171.188
171.905
170.446
166.922
161.554
154.627
146.458
137.355
127.602
117.445
107.083
96.6782
86.351
76.1926
66.2686
56.6267
47.3019
38.3233
29.7185
21.5191
13.7652
6.50901
-0.182035
-6.22384
-11.517
-15.9517
-19.4185
-21.8247
-23.117
-23.3065
-22.489
-20.8476
-18.6294
-16.0927
-13.4426
-10.7827
-8.10212
-5.29496
-2.20528
1.31643
5.35614
9.89145
14.7736
19.7484
24.5179
28.8197
32.4917
35.5003
37.9328
39.9677
41.8337
43.7676
45.9748
48.5947
51.678
55.1794
58.9755
62.9068
66.8303
70.662
74.3968
78.1059
81.9203
86.0085
90.5523
95.7241
101.666
108.471
116.169
124.723
134.04
144
154.483
165.397
176.689
188.334
200.319
212.625
225.203
237.955
250.715
263.239
275.195
286.163
295.651
303.118
308.02
309.871
308.311
303.174
209.031
209.936
207.905
203.131
195.972
186.87
176.285
164.652
152.347
139.679
126.889
114.159
101.619
89.3568
77.4329
65.884
54.7339
43.9998
33.6994
23.8565
14.5078
5.70827
-2.46352
-9.90098
-16.4682
-22.0035
-26.3307
-29.2827
-30.738
-30.6696
-29.1935
-26.5935
-23.2909
-19.7437
-16.3079
-13.1407
-10.1813
-7.19512
-3.85659
0.151982
5.03903
10.8161
17.2508
23.8954
30.2072
35.7187
40.162
43.5056
45.9227
47.7265
49.3
51.031
53.2525
56.19
59.9164
64.3317
69.1879
74.1685
78.9982
83.5228
87.7346
91.7542
95.7937
100.117
105.002
110.713
117.471
125.417
134.596
144.935
156.263
168.358
181.021
194.121
207.608
221.494
235.82
250.622
265.896
281.571
297.489
313.372
328.818
343.282
356.094
366.486
373.648
376.821
375.413
369.126
251.062
252.185
249.302
242.768
233.182
221.238
207.617
192.914
177.613
162.088
146.61
131.368
116.486
102.037
88.0594
74.57
61.5701
49.0558
37.0256
25.4871
14.465
4.0092
-5.79639
-14.8248
-22.8988
-29.788
-35.2163
-38.8888
-40.5459
-40.0525
-37.5092
-33.3439
-28.2978
-23.2275
-18.7794
-15.1928
-12.2924
-9.59614
-6.46624
-2.27088
3.44695
10.8002
19.4321
28.5279
37.0549
44.1618
49.4215
52.8507
54.8011
55.8224
56.5456
57.5936
59.5054
62.6553
67.1683
72.8547
79.2266
85.6528
91.6105
96.8392
101.354
105.378
109.264
113.419
118.266
124.202
131.566
140.593
151.356
163.728
177.383
191.901
206.931
222.287
237.951
254.02
270.636
287.937
306.006
324.838
344.307
364.133
383.849
402.775
420.018
434.498
445.014
450.362
449.535
441.971
298.826
300.191
295.948
286.792
273.777
258.015
240.498
222.027
203.195
184.423
165.987
148.058
130.728
114.035
97.9834
82.5515
67.7078
53.4165
39.646
26.3769
13.6099
1.37744
-10.2443
-21.1186
-31.0309
-39.6709
-46.625
-51.3914
-53.4452
-52.3816
-48.1551
-41.3575
-33.3341
-25.8103
-20.0053
-16.252
-14.1049
-12.6171
-10.606
-6.88203
-0.496128
8.94708
20.9493
33.9829
45.951
55.2683
61.3202
64.3282
65.0204
64.3504
63.3259
62.9154
63.978
67.1607
72.7332
80.3933
89.1899
97.814
105.275
111.186
115.68
119.205
122.346
125.728
129.962
135.634
143.268
153.267
165.801
180.672
197.258
214.705
232.369
250.008
267.71
285.752
304.462
324.142
345.013
367.181
390.605
415.045
440.008
464.682
487.911
508.21
523.809
532.782
533.348
524.367
354.693
356.261
349.652
336.361
318.316
297.304
274.742
251.642
228.676
206.258
184.619
163.869
144.037
125.099
107.001
89.6742
73.0388
57.0164
41.5346
26.5339
11.9764
-2.14217
-15.7761
-28.8052
-41.0018
-51.9881
-61.19
-67.8065
-70.8393
-69.2711
-62.5094
-51.1426
-37.6577
-25.9252
-18.284
-15.0059
-14.9755
-16.3996
-17.2202
-15.335
-8.85068
3.39969
20.9715
40.9623
58.6536
71.0659
77.591
79.1294
77.1898
73.3773
69.21
66.1038
65.3857
68.2123
75.2797
86.2826
99.3885
111.637
121.157
127.559
131.389
133.57
135.07
136.792
139.574
144.226
151.549
162.275
176.863
195.128
215.877
237.177
257.826
277.617
296.961
316.499
336.869
358.608
382.126
407.691
435.413
465.179
496.555
528.643
559.995
588.659
612.115
627.279
630.877
620.407
422.641
424.089
412.959
392.758
367.107
338.811
309.747
281.054
253.359
226.962
201.965
178.355
156.053
134.947
114.907
95.7986
77.4855
59.8372
42.7303
26.0532
9.7123
-6.35775
-22.1764
-37.6876
-52.7119
-66.8705
-79.4737
-89.3773
-94.854
-93.6342
-83.4904
-63.9738
-39.454
-20.1459
-10.2777
-9.08089
-13.7496
-21.0488
-27.7278
-30.4078
-25.5055
-9.80824
17.5123
51.254
78.9584
95.3408
101.042
98.9382
92.0557
82.9153
73.5665
65.8537
61.6894
63.1576
72.1591
89.1435
110.821
129.388
141.529
147.631
149.473
148.913
147.47
146.328
146.491
148.97
154.927
165.719
182.628
206.001
233.7
260.579
284.513
305.863
325.925
346.039
367.293
390.504
416.28
445.085
477.262
512.98
552.06
593.646
635.929
676.589
712.34
738.412
748.641
737.06
510.3
510.009
489.305
456.982
419.688
381.405
344.203
309.017
276.162
245.64
217.306
190.95
166.343
143.256
121.47
100.775
80.9734
61.8776
43.3071
25.0892
7.05961
-10.9332
-29.0164
-47.2675
-65.6645
-83.9881
-101.639
-117.317
-128.506
-130.842
-117.963
-84.005
-33.742
-0.770179
10.2177
5.29285
-8.73355
-26.5884
-43.9914
-56.3958
-57.7021
-39.751
4.80821
70.24
115.567
134.995
135.732
125.627
110.172
92.7529
75.567
60.4942
49.8828
47.2553
57.5435
85.2461
126.732
156.391
170.595
173.837
171.013
165.527
159.436
153.981
150.072
148.701
151.341
160.35
179.083
210.64
252.697
288.217
314.913
335.957
354.805
373.927
394.89
418.695
446.059
477.608
513.996
555.924
603.938
657.628
714.179
771.566
826.479
872.331
897.783
887.689
635.34
625.299
582.364
528.343
473.676
422.423
375.739
333.605
295.588
261.154
229.784
201.013
174.431
149.681
126.45
104.455
83.4378
63.1546
43.37
23.8489
4.34958
-15.3823
-35.6173
-56.6392
-78.724
-102.074
-126.646
-151.72
-174.904
-189.958
-182.787
-127.517
-3.13336
50.2585
53.6229
32.7686
1.79179
-32.7816
-67.4557
-98.3674
-117.632
-108.013
-37.9571
118.17
189.46
201.559
186.022
160.013
131.108
102.247
74.5174
48.7033
26.5728
12.7478
17.8444
61.4925
159.665
205.64
215.436
208.769
196.375
183.001
170.475
159.397
149.989
142.645
138.574
140.966
157.059
200.147
281.093
328.546
353.436
369.195
383.274
399.146
418.374
441.739
469.789
503.142
542.725
590.079
647.612
717.461
791.194
870.072
953.629
1035.59
1098.07
1103.19
850.132
787.924
691.361
600.607
522.725
456.842
400.707
352.251
309.843
272.246
238.513
207.916
179.874
153.916
129.648
106.726
84.8436
63.7133
43.0543
22.5789
1.9768
-19.1037
-41.081
-64.4754
-89.9552
-118.395
-150.922
-188.837
-232.998
-281.067
-316.866
-270.543
129.706
173.327
131.903
74.8217
17.4984
-38.8263
-96.3328
-157.105
-219.146
-263.297
-204.661
288.267
348.585
307.914
251.391
198.567
151.98
110.112
70.7102
31.6096
-8.69478
-49.0043
-77.3662
-40.7745
267.76
306.986
283.981
251.946
223.146
199.251
179.428
162.407
146.933
131.873
116.498
101.852
96.1569
135.137
357.714
401.361
405.097
404.845
409.15
419.522
435.891
458.022
485.869
519.687
560.246
609.558
673.532
771.677
860.774
961.811
1083.05
1226.87
1380.92
1475.03
1355.77
999.98
791.956
654.307
554.469
477.201
414.597
362.168
317.156
277.756
242.715
211.128
182.306
155.711
130.899
107.494
85.1609
63.5887
42.4705
21.4884
0.291028
-21.5343
-44.5043
-69.3075
-96.9215
-128.828
-167.432
-216.955
-285.455
-389.834
-569.19
-923.214
776.083
418.851
232.724
117.218
31.7641
-43.1701
-120.506
-214.012
-346.418
-566.585
-996.742
1081.31
653.12
437.083
311.423
228.131
166.049
114.42
66.4649
16.2459
-43.9572
-127.962
-266.11
-534.64
763.651
497.93
365.522
290.454
242.843
209.629
184.34
163.179
143.274
121.546
93.3659
49.8407
-29.0839
-194.261
691.98
531.634
462.485
433.919
426.272
431.247
445.092
466.056
493.327
526.504
565.139
607.894
650.215
838.895
913.129
1024.43
1179.91
1403.35
1750.03
2353.73
15711
14857.7
13955.7
13007.8
12017.4
10988
9923.4
8827.59
7704.47
6557.94
5391.82
4209.85
3015.68
1812.85
604.855
75.3652
72.0041
67.8219
62.9828
57.6642
52.0373
46.2524
40.4301
34.6583
28.9933
23.4632
18.0728
12.8085
7.64305
2.54049
126.659
120.915
113.763
105.502
96.448
86.9035
77.1284
67.3272
57.6453
48.1725
38.9505
29.9816
21.2377
12.6687
4.21031
179.591
171.227
160.809
148.808
135.718
121.997
108.027
94.1029
80.422
67.1008
54.185
41.6657
29.492
17.5839
5.84237
234.945
223.583
209.428
193.195
175.612
157.331
138.876
120.63
102.836
85.6215
69.0224
53.0039
37.4806
22.3326
7.41778
293.664
278.721
260.115
238.922
216.194
192.83
169.51
146.698
124.664
103.523
83.2771
63.8459
45.0937
26.848
8.9142
356.941
337.513
313.379
286.174
257.406
228.277
199.628
171.98
145.591
120.524
96.7131
74.0069
52.1993
31.0513
10.3054
426.347
401.003
369.707
334.982
298.974
263.237
228.742
196
165.189
136.261
109.039
83.2662
58.6437
34.852
11.5615
504.039
470.434
429.454
385.063
340.262
296.945
256.098
218.088
182.897
150.288
119.912
91.3714
64.2551
38.1505
12.6499
593.128
547.213
492.587
435.531
380.048
328.165
280.605
237.35
198.019
162.077
128.943
98.0488
68.8525
40.8438
13.5372
698.352
632.684
558.129
484.412
416.219
355.049
300.791
252.677
209.745
171.05
135.73
103.024
72.2598
42.8338
14.1918
826.999
727.026
622.82
527.753
445.358
375.01
314.825
262.811
217.227
176.641
139.897
106.054
74.326
44.0383
14.5879
989.37
825.565
678.34
558.403
462.428
384.79
320.677
266.509
219.702
178.382
141.158
106.964
74.9494
44.4042
14.7087
1191.34
907.495
706.541
565.07
461.143
381.028
316.573
262.835
216.681
176.02
139.384
105.692
74.1003
43.9191
14.5511
1367.63
906.507
675.231
534.174
436.03
361.591
301.739
251.568
208.158
169.624
134.662
102.315
71.8384
42.6198
14.1274
12.9511
38.9149
65.0628
91.5149
118.388
145.795
173.851
202.689
232.505
263.679
297.061
334.68
381.456
449.518
569.135
13.1941
39.6338
66.2236
93.0514
120.182
147.644
175.401
203.319
231.1
258.19
283.585
305.363
318.979
309.897
219.447
13.4013
40.2473
67.2176
94.3746
121.744
149.283
176.835
204.038
230.171
253.869
272.608
281.703
272.256
226.771
111.727
13.5781
40.7736
68.0803
95.5481
123.182
150.908
178.506
205.496
230.926
252.984
268.319
270.912
250.551
191.944
79.2858
13.7273
41.2217
68.8294
96.6031
124.554
152.618
180.594
208.031
234.016
256.762
272.87
276.054
255.396
194.647
78.7271
13.8486
41.5904
69.4617
97.5325
125.844
154.384
183.051
211.57
239.346
265.141
286.39
297.746
288.074
235.656
107.01
13.9386
41.8683
69.9537
98.2921
126.97
156.059
185.605
215.619
246.047
276.667
306.775
334.03
350.431
329.595
194.576
13.9918
42.0372
70.2684
98.8132
127.808
157.411
187.829
219.378
252.606
288.539
329.135
377.841
438.638
502.818
458.62
14.0021
42.0763
70.3639
99.0192
128.22
158.192
189.263
221.965
257.28
297.164
345.856
413.245
524.485
751.29
1328.93
13.9634
41.9665
70.2028
98.844
128.092
158.206
189.557
222.735
258.773
299.663
349.586
418.184
530.064
756.104
1330.96
13.8715
41.6939
69.7591
98.2453
127.359
157.356
188.579
221.512
256.893
295.881
340.339
393.057
456.351
518.666
465.585
13.7242
41.2519
69.0219
97.2088
126.009
155.651
186.406
218.585
252.5
288.291
325.348
360.575
383.307
361.349
209.982
13.5214
40.641
67.9936
95.7443
124.072
153.17
183.239
214.446
246.8
279.815
311.618
336.761
341.287
293.893
140.898
13.2651
39.8673
66.6874
93.8771
121.596
150.011
179.278
209.504
240.635
272.174
302.507
327.255
335.314
299.763
161.255
12.9586
38.9414
65.1229
91.6401
118.636
146.256
174.646
203.929
234.18
265.364
297.268
329.332
359.617
377.125
309.387
12.6061
37.8768
63.324
89.069
115.238
141.964
169.389
197.679
227.07
258.047
291.912
332.635
392.785
513.677
840.177
12.2127
36.6887
61.3167
86.2013
111.451
137.183
163.528
190.659
218.855
248.717
281.788
322.44
383.763
507.436
838.019
11.7841
35.3941
59.1301
83.078
107.327
131.972
157.119
182.896
209.48
237.153
266.394
297.884
331.435
357.495
302.751
11.3262
34.0114
56.7951
79.7438
102.926
126.41
150.269
174.568
199.343
224.495
249.432
271.89
284.301
263.661
149.948
10.8454
32.5597
54.3444
76.2461
98.3115
120.586
143.109
165.905
188.94
211.982
234.186
252.868
260.113
234.456
126.434
10.3481
31.0585
51.8113
72.6334
93.5504
114.585
135.757
157.075
178.528
200.045
221.382
241.784
258.767
262.446
203.505
9.84075
29.5274
49.229
68.9533
88.7056
108.488
128.299
148.147
168.069
188.23
209.222
233.07
266.656
333.916
522.289
9.32961
27.9854
46.6299
65.2526
83.8386
102.367
120.815
139.164
157.44
175.835
195.076
217.589
251.155
321.275
516.963
8.8207
26.4507
44.0451
61.5762
79.0096
96.3016
113.397
130.228
146.726
162.847
178.656
194.426
210.267
221.427
185.211
8.31958
24.9402
41.5036
57.9664
74.2772
90.3705
106.16
121.523
136.271
150.074
162.259
171.212
172.625
154.476
85.5451
7.83122
23.469
39.031
54.4613
69.6944
84.6489
99.2171
113.242
126.47
138.423
148.102
153.233
148.565
122.787
56.8218
7.35987
22.0499
36.6494
51.0922
65.3037
79.194
92.6494
105.514
117.551
128.349
137.101
142.055
139.164
119.003
61.2079
6.90902
20.6935
34.3758
47.883
61.1348
74.0397
86.4904
98.3592
109.49
119.693
128.737
136.322
141.755
141.351
110.469
6.48138
19.4076
32.2232
44.8504
57.2059
69.1994
80.7342
91.7149
102.072
111.841
121.386
132.08
148.398
184.864
291.713
6.07897
18.1983
30.2009
42.0058
53.5275
64.6764
75.3615
85.5021
95.062
104.142
113.234
123.932
141.048
179.498
289.679
5.70325
17.0698
28.3155
39.357
50.1071
60.4745
70.3656
79.6912
88.3836
96.4338
103.965
111.325
118.881
124.319
103.852
5.3552
16.0248
26.5714
36.9099
46.9517
56.6024
65.7614
74.319
82.1497
89.0843
94.8151
98.5815
98.1836
87.1278
48.0514
5.03536
15.0651
24.9712
34.6683
44.0669
53.0708
61.5736
69.4506
76.537
82.5696
87.0278
88.7286
84.8865
69.3948
31.8517
4.74387
14.191
23.5157
32.6335
41.4555
49.8863
57.8194
65.13
71.6551
77.1471
81.1543
82.7239
79.6788
66.9747
33.8187
4.48045
13.4018
22.2035
30.8034
39.1151
47.0464
54.4966
61.3537
67.4895
72.7546
76.9725
79.9228
81.178
78.7568
59.7312
4.24445
12.6952
21.031
29.1728
37.0381
44.5396
51.5848
58.0773
63.9275
69.0882
73.67
78.298
85.2297
102.069
155.391
4.03482
12.0683
19.9928
27.7336
35.2129
42.3489
49.0557
55.2459
60.8431
65.8225
70.3345
75.0725
82.4003
100.046
154.633
3.85019
11.5168
19.0817
26.4753
33.6253
40.4554
46.8844
52.8251
58.1864
62.8804
66.8409
70.0475
72.4046
72.369
57.2838
3.68888
11.0357
18.2891
25.3855
32.2589
38.8395
45.0509
50.8054
55.992
60.4461
63.8696
65.6113
64.0696
55.1424
29.0189
3.54899
10.619
17.605
24.4499
31.0951
37.4788
43.5335
49.1789
54.3048
58.7261
62.0645
63.454
60.8622
49.8568
22.9165
3.42838
10.2605
17.0183
23.6523
30.1118
36.3455
42.2989
47.9115
53.1054
57.7562
61.6113
64.0597
63.4958
55.6359
29.9336
3.3248
9.95302
16.5172
22.9749
29.2845
35.4054
41.2996
46.9332
52.2812
57.3372
62.1328
66.7551
71.1942
73.8037
60.6753
3.23595
9.68971
16.0893
22.3995
28.5869
34.6215
40.4797
46.1514
51.6577
57.0966
62.7724
69.5752
80.1602
102.898
166.569
3.15957
9.46363
15.7228
21.9084
27.9943
33.9586
39.7875
45.4825
51.0788
56.6891
62.6266
69.7658
80.6835
103.562
166.928
3.09353
9.2683
15.4066
21.4856
27.4849
33.3882
39.1862
44.8801
50.4877
56.0516
61.6431
67.3293
72.8967
76.1062
62.0375
3.03587
9.09784
15.1309
21.117
27.0406
32.8893
38.6552
44.335
49.9243
55.3919
60.5906
64.9715
66.7436
60.6451
33.5379
2.98484
8.94699
14.8869
20.7908
26.6469
32.4459
38.1817
43.8503
49.4424
54.9157
60.1021
64.4216
66.052
59.7698
32.7921
2.93888
8.81109
14.667
20.4965
26.2912
32.0444
37.7526
43.416
49.04
54.6351
60.2117
65.7345
70.8505
73.2618
58.8537
2.89658
8.68601
14.4644
20.2252
25.9625
31.672
37.352
43.0061
48.6541
54.3636
60.3543
67.3247
77.5214
98.4272
156.645
2.85668
8.568
14.2733
19.9688
25.6513
31.318
36.9666
42.5975
48.2218
53.8928
59.8117
66.6689
76.7484
97.6719
156.271
2.81803
8.45362
14.0879
19.72
25.3493
30.9742
36.5909
42.1903
47.7533
53.2455
58.6127
63.7696
68.4379
70.7433
57.4743
2.7795
8.33957
13.9029
19.4717
25.0484
30.6337
36.2243
41.805
47.3303
52.6806
57.5548
61.204
61.7621
54.6234
29.2827
2.74004
8.22265
13.713
19.2165
24.7394
30.287
35.8617
41.4548
47.025
52.4418
57.3425
60.7798
60.4255
51.1388
24.1611
2.69863
8.09975
13.5127
18.9464
24.4111
29.9188
35.4832
41.1171
46.8222
52.5568
58.1417
62.9833
65.2869
59.9348
33.86
2.65431
7.96796
13.297
18.6532
24.0508
29.5085
35.0533
40.7263
46.5946
52.7713
59.4519
66.9436
75.4591
83.1166
72.4764
2.60629
7.82477
13.0613
18.3297
23.6465
29.0351
34.5311
40.1964
46.1484
52.6309
60.1938
70.1869
86.2206
118.998
204.36
2.55396
7.66834
12.8024
17.9707
23.1903
28.4843
33.8882
39.4637
45.3296
51.735
59.2429
69.2289
85.3472
118.354
204.114
2.49691
7.49752
12.5186
17.5743
22.68
27.8543
33.1228
38.5255
44.1319
50.0684
56.5655
64.006
72.7385
81.0655
71.6718
2.43492
7.31179
12.2095
17.1414
22.1198
27.156
32.2606
37.4419
42.7006
48.0074
53.2272
57.8797
60.4046
56.0763
32.2451
2.36781
7.11085
11.8756
16.6745
21.5169
26.4073
31.3416
36.3006
41.2315
46.0015
50.2774
53.2249
52.8237
44.6254
21.0509
2.29531
6.89412
11.5166
16.1755
20.8784
25.625
30.402
35.1747
39.8694
44.3336
48.2442
50.8897
50.6515
43.8471
22.7203
2.21687
6.6602
11.1311
15.6442
20.2073
24.8186
29.4616
34.0987
38.6626
43.0446
47.0838
50.5504
53.0325
53.0088
41.2709
2.13152
6.40634
10.7152
15.0762
19.5002
23.9871
28.5217
33.0695
37.5771
41.988
46.3151
50.8875
57.1459
70.297
108.984
2.03774
6.12811
10.2617
14.4626
18.7469
23.1195
27.5689
32.0641
36.5537
40.9837
45.3697
50.0463
56.4637
69.8402
108.82
1.93338
5.81911
9.76029
13.7891
17.9299
22.1953
26.5808
31.0582
35.5669
40.0041
44.2162
47.9885
50.9398
51.5911
40.7542
1.81562
5.47085
9.19675
13.0359
17.0238
21.1845
25.5251
30.0263
34.6248
39.1748
43.3614
46.4935
47.0052
41.3112
21.7587
1.68095
5.0728
8.5533
12.1777
15.9953
20.0456
24.354
28.9226
33.7115
38.5921
43.2323
46.8114
47.3725
40.6487
19.4018
1.52527
4.61245
7.80867
11.1837
14.8027
18.7243
22.9983
27.6616
32.7294
38.1706
43.8335
49.2182
52.7917
50.0652
29.2341
1.34391
4.07569
6.93869
10.0184
13.3975
17.1554
21.3688
26.1154
31.4829
37.5893
44.6215
52.8749
62.5779
72.0469
65.1991
1.13182
3.44713
5.91706
8.64353
11.7271
15.2672
19.3654
24.1338
29.7181
36.3591
44.555
55.5168
72.5174
105.349
186.954
0.883642
2.71056
4.71617
7.01908
9.73727
12.9886
16.8933
21.5816
27.2149
34.0431
42.5612
53.9567
71.4523
104.767
186.779
0.593871
1.8493
3.30779
5.10469
7.37512
10.2536
13.8738
18.3695
23.8775
30.5477
38.5628
48.1524
59.3915
70.3525
64.7159
0.25693
0.846513
1.66348
2.86006
4.58874
7.00087
10.2433
14.4508
19.7289
26.1131
33.4647
41.1953
47.5153
47.4537
28.6127
-0.132742
-0.314652
-0.245268
0.244668
1.32596
3.16922
5.93974
9.78526
14.8083
21.0018
28.0977
35.2119
40.0636
37.5897
19.1614
-0.580577
-1.65073
-2.44677
-2.78247
-2.4675
-1.3084
0.887076
4.29903
9.07145
15.2598
22.7132
30.7941
37.6936
38.8001
23.5232
-1.09171
-3.1775
-4.96855
-6.26236
-6.84846
-6.50744
-5.01252
-2.13462
2.34803
8.63558
16.8886
27.1916
39.3415
51.383
49.9447
-1.6707
-4.90919
-7.8361
-10.2345
-11.8743
-12.5092
-11.8742
-9.68477
-5.63159
0.642935
9.63705
22.3017
41.0597
73.3213
144.73
-2.32121
-6.85742
-11.071
-14.7338
-17.5988
-19.3938
-19.8167
-18.5307
-15.1559
-9.24127
-0.166351
13.1761
33.3951
68.0667
142.822
-3.04549
-9.02973
-14.6886
-19.7876
-24.067
-27.2321
-28.9467
-28.828
-26.4455
-21.3224
-12.9357
-0.728289
15.6896
34.9692
43.892
-3.84385
-11.428
-18.6948
-25.4107
-31.3091
-36.0783
-39.3505
-40.698
-39.6391
-35.6715
-28.3601
-17.5591
-4.00648
9.05982
12.1154
-4.71408
-14.0464
-23.0834
-31.6012
-39.3354
-45.9639
-51.0912
-54.239
-54.8526
-52.3433
-46.2088
-36.302
-23.3668
-9.89983
-0.713691
-5.65077
-16.8698
-27.832
-38.3354
-48.1291
-56.8915
-64.2059
-69.5395
-72.2342
-71.5324
-66.6769
-57.1482
-43.0972
-25.8876
-8.15534
-6.64464
-19.871
-32.8989
-45.5616
-57.6381
-68.8236
-78.6951
-86.6713
-91.9733
-93.6048
-90.3891
-81.1341
-65.0205
-42.2382
-14.6099
-7.68203
-23.0098
-38.2185
-53.194
-67.7645
-81.6667
-94.4987
-105.658
-114.259
-119.041
-118.293
-109.881
-91.5732
-61.9531
-22.1692
-8.74446
-26.2306
-43.6991
-61.1063
-78.3535
-95.2508
-111.461
-126.418
-139.193
-148.314
-151.515
-145.498
-125.979
-88.7246
-32.8908
-9.80862
-29.4629
-49.2212
-69.1281
-89.1835
-109.309
-129.292
-148.688
-166.661
-181.695
-191.132
-190.486
-172.697
-128.396
-50.5195
-10.8468
-32.6222
-54.639
-77.045
-99.9624
-123.463
-147.525
-171.943
-196.164
-218.955
-237.747
-247.372
-237.821
-191.378
-84.2322
-11.828
-35.6129
-59.785
-84.6047
-110.333
-137.224
-165.506
-195.328
-226.653
-258.984
-290.72
-317.568
-328.555
-296.508
-160.526
-12.7195
-38.3338
-64.4797
-91.5312
-119.893
-150.016
-182.411
-217.663
-256.436
-299.416
-347.078
-398.767
-449.162
-473.8
-365.337
-13.489
-40.6848
-68.544
-97.5453
-128.227
-161.225
-197.324
-237.545
-283.289
-336.59
-400.627
-480.848
-587.644
-743.505
-1002.23
965.601
719.86
571.53
469.66
392.906
331.382
279.917
235.497
196.205
160.729
128.115
97.6338
68.699
40.8138
13.538
352.827
459.8
437.96
390.676
341.624
296.023
254.579
216.899
182.378
150.424
120.511
92.1832
65.0346
38.7018
12.8479
155.794
289.181
322.049
312.907
287.937
257.77
226.62
196.102
166.763
138.696
111.805
85.9112
60.8023
36.2562
12.0479
82.5102
188.357
235.304
246.121
237.851
220.194
198.216
174.481
150.259
126.149
102.405
79.0917
56.1776
33.5754
11.1695
50.3167
128.432
173.643
192.584
194.278
185.611
171.026
153.194
133.672
113.345
92.7013
71.9934
51.335
30.7574
10.2445
33.7599
91.3523
130.219
151.018
157.894
155.135
146.086
133.076
117.641
100.759
83.0402
64.8589
46.4351
27.8939
9.30245
24.0961
67.2741
99.3399
119.117
128.197
129.022
123.892
114.64
102.612
88.7496
73.6985
57.8911
41.6157
25.0645
8.36962
17.9136
50.911
76.9919
94.6399
104.23
107.041
104.557
98.1291
88.8528
77.5642
64.8801
51.247
36.9868
22.3343
7.46742
13.6958
39.3498
60.498
75.7563
84.9694
88.7327
87.9578
83.5935
76.489
67.3459
56.719
45.0371
32.6295
19.7523
6.61228
10.6842
30.9165
48.0927
61.0689
69.4906
73.574
73.8489
70.9587
65.5389
58.1562
49.2892
39.3301
28.5975
17.3524
5.81566
8.46116
24.6048
38.6027
49.5425
57.0225
61.0581
61.9359
60.0788
55.9502
49.9958
42.6165
34.1593
24.9206
15.1546
5.0846
6.77871
19.7824
31.2353
40.4175
46.9448
50.7336
51.9204
50.7748
47.6278
42.8238
36.6913
29.5304
21.6093
13.1674
4.42231
5.48061
16.0365
25.4439
33.1351
38.7674
42.2145
43.5234
42.8591
40.4549
36.5731
31.4793
25.4287
18.6589
11.3905
3.82902
4.46383
13.0877
20.8434
27.2816
32.1065
35.1793
36.4953
36.1507
34.3072
31.163
26.931
21.8256
16.0545
9.81669
3.30269
3.65785
10.7415
17.1574
22.5477
26.6616
29.3629
30.6194
30.4821
29.0618
26.5074
22.9887
18.6842
13.7738
8.43443
2.83973
3.01293
8.85858
14.1831
18.6994
22.1969
24.5492
25.7107
25.7038
24.6032
22.5207
19.5913
15.9631
11.7904
7.22929
2.43557
2.49307
7.33734
11.7697
15.5583
18.5267
20.5618
21.6127
21.6842
20.8259
19.1216
16.6787
13.6198
10.0766
6.18546
2.08509
2.07166
6.10196
9.803
12.9863
15.5043
17.2572
18.1943
18.3096
17.6355
16.2349
14.1934
11.6124
8.60398
5.28677
1.78304
1.7287
5.09506
8.19558
10.876
13.0127
14.5188
15.3461
15.4827
14.9491
13.7928
12.0822
9.90143
7.34562
4.51747
1.52425
1.44889
4.27264
6.8797
9.14291
10.9586
12.2515
12.9771
13.1207
12.6948
11.7353
10.2973
8.45063
6.27619
3.86266
1.3038
1.22047
3.60059
5.80243
7.7204
9.26714
10.3778
11.0119
11.1538
10.8106
10.0098
8.7959
7.2272
5.3726
3.30867
1.11717
1.03423
3.05225
4.92212
6.55547
7.87832
8.83462
9.38828
9.52352
9.24397
8.57087
7.54059
6.2021
4.61422
2.84317
0.960262
0.883009
2.60669
4.20591
5.60599
6.7438
7.57082
8.05492
8.18096
7.95033
7.37969
6.4991
5.34999
3.98289
2.45527
0.829441
0.76116
2.24747
3.62786
4.83846
5.82491
6.54493
6.96995
7.08583
6.89257
6.40352
5.64388
4.6491
3.46292
2.1355
0.721547
0.664291
1.96175
3.1676
4.22643
5.09085
5.72367
6.09945
6.20513
6.04
5.61503
4.95178
4.08097
3.0409
1.87574
0.633865
0.58901
1.73958
2.80932
3.74928
4.51743
5.08072
5.41631
5.51229
5.36766
4.99182
4.40364
3.63025
2.70565
1.6692
0.564113
0.532768
1.57348
2.54107
3.39128
4.08612
4.59569
4.89935
4.98633
4.85568
4.51587
3.98394
3.2844
2.44797
1.51027
0.510406
0.493747
1.45808
2.35424
3.14104
3.7833
4.25346
4.53268
4.61129
4.48874
4.17316
3.68049
3.03347
2.26051
1.39443
0.47123
0.470789
1.38996
2.24324
2.99105
3.59983
4.04365
4.30512
4.37572
4.25567
3.95325
3.48405
2.86986
2.13761
1.31822
0.445403
0.463371
1.36752
2.20537
2.93745
3.53074
3.96027
4.20988
4.27236
4.14902
3.84897
3.38812
2.78809
2.07513
1.27903
0.432049
0.471615
1.39105
2.24085
2.98007
3.57518
4.00163
4.24438
4.2978
4.16486
3.85616
3.38866
2.7846
2.07028
1.27509
0.43056
0.496354
1.46287
2.35298
3.12259
3.73656
4.17032
4.41012
4.4524
4.30253
3.97339
3.48385
2.85751
2.12145