/*--------------------------------*- C++ -*----------------------------------*\
| =========                 |                                                 |
| \\      /  F ield         | OpenFOAM: The Open Source CFD Toolbox           |
|  \\    /   O peration     | Version:  5.x                                   |
|   \\  /    A nd           | Web:      www.OpenFOAM.org                      |
|    \\/     M anipulation  |                                                 |
\*---------------------------------------------------------------------------*/
FoamFile
{
    version     2.0;
    format      ascii;
    class       volScalarField;
    location    "6.4";
    object      T;
}
// * * * * * * * * * * * * * * * * * * * * * * * * * * * * * * * * * * * * * //

dimensions      [0 0 0 1 0 0 0];

internalField   nonuniform List<scalar> 
6300
(
13.8623
21.5756
29.2555
36.8795
44.4252
51.8697
59.1904
66.3645
73.3694
80.1829
86.7837
93.1516
99.2685
105.118
110.689
13.8732
21.6085
29.3105
36.9566
44.5246
51.9915
59.3346
66.5309
73.5576
80.3922
87.0127
93.3987
99.531
105.393
110.973
13.8951
21.6742
29.4202
37.1107
44.7232
52.2351
59.6232
66.8642
73.935
80.812
87.4727
93.8952
100.059
105.947
111.544
13.9278
21.7726
29.5844
37.3414
45.0209
52.6003
60.0563
67.3652
74.5028
81.4449
88.1671
94.646
100.859
106.787
112.413
13.9713
21.9032
29.8027
37.6481
45.4171
53.0869
60.6341
68.0345
75.2631
82.294
89.1011
95.6582
101.94
107.924
113.59
14.0253
22.0655
30.0741
38.0298
45.9106
53.694
61.3563
68.8729
76.2178
83.3634
90.2812
96.9415
103.315
109.374
115.094
14.0897
22.2589
30.3976
38.485
46.4999
54.42
62.2217
69.8802
77.3685
84.6572
91.7148
98.5074
105
111.158
116.95
14.1639
22.4821
30.7713
39.0114
47.1822
55.262
63.2279
71.0549
78.7154
86.1784
93.4093
100.369
107.015
113.303
119.191
14.2477
22.7339
31.1929
39.6059
47.9537
56.2159
64.3704
72.3931
80.2564
87.9282
95.371
102.54
109.383
115.842
121.859
14.3402
23.0123
31.6593
40.2641
48.8089
57.2751
65.6422
73.8877
81.9853
89.9033
97.6023
105.032
112.13
118.819
125.013
14.4409
23.3153
32.167
40.9809
49.741
58.431
67.033
75.5272
83.8903
92.0934
100.098
107.852
115.281
122.284
128.734
14.5489
23.6402
32.7116
41.7498
50.7414
59.6725
68.5288
77.2945
85.9518
94.4778
102.841
110.992
118.854
126.298
133.133
14.6633
23.9843
33.2882
42.5638
51.8002
60.9865
70.1122
79.1671
88.1408
97.021
105.79
114.418
122.838
130.914
138.374
14.7832
24.3447
33.8919
43.4156
52.9071
62.3586
71.7635
81.1177
90.4194
99.6709
108.878
118.045
127.16
136.142
144.689
14.9076
24.7188
34.5181
44.2981
54.052
63.7746
73.4628
83.1171
92.7444
102.361
112
121.718
131.61
141.798
152.302
115.53
119.727
123.719
127.508
131.096
134.489
137.693
140.717
143.569
146.26
148.802
151.205
153.482
155.645
157.705
159.674
161.564
163.386
165.152
166.87
168.552
170.206
171.842
173.466
175.085
176.706
178.334
179.973
181.625
183.293
184.977
186.678
188.393
190.123
191.863
193.612
195.367
197.124
198.879
200.628
202.366
204.089
205.793
207.47
209.118
210.731
212.303
213.831
215.31
216.737
218.108
219.42
220.669
221.851
222.962
224
224.96
225.836
226.626
227.323
227.924
228.422
228.813
229.09
229.249
229.281
229.18
228.937
228.545
227.992
227.27
226.366
225.268
223.965
222.443
220.688
218.687
216.424
213.886
211.058
207.926
204.476
200.695
196.571
192.094
187.256
182.049
176.472
170.524
164.207
115.818
120.017
124.007
127.791
131.372
134.755
137.947
140.957
143.794
146.47
148.994
151.381
153.64
155.785
157.828
159.781
161.654
163.461
165.211
166.916
168.584
170.226
171.85
173.464
175.075
176.689
178.311
179.945
181.595
183.261
184.946
186.647
188.365
190.098
191.842
193.596
195.356
197.118
198.879
200.634
202.379
204.109
205.82
207.505
209.16
210.779
212.358
213.892
215.376
216.809
218.185
219.501
220.755
221.942
223.06
224.103
225.069
225.952
226.749
227.453
228.061
228.567
228.966
229.252
229.42
229.463
229.374
229.144
228.765
228.228
227.521
226.635
225.555
224.271
222.769
221.034
219.053
216.812
214.295
211.487
208.375
204.944
201.18
197.072
192.607
187.777
182.576
177
171.047
164.722
116.399
120.6
124.587
128.361
131.927
135.29
138.457
141.439
144.246
146.889
149.38
151.731
153.956
156.066
158.074
159.993
161.834
163.609
165.329
167.005
168.647
170.264
171.865
173.459
175.052
176.651
178.262
179.888
181.532
183.196
184.88
186.585
188.308
190.047
191.799
193.562
195.332
197.105
198.877
200.645
202.404
204.149
205.874
207.574
209.243
210.876
212.468
214.013
215.509
216.951
218.337
219.663
220.927
222.125
223.253
224.309
225.287
226.184
226.994
227.712
228.335
228.856
229.272
229.575
229.762
229.826
229.759
229.555
229.204
228.697
228.023
227.171
226.128
224.882
223.419
221.725
219.786
217.587
215.112
212.347
209.275
205.882
202.154
198.076
193.637
188.826
183.636
178.061
172.101
165.758
117.282
121.486
125.466
129.226
132.767
136.099
139.229
142.168
144.927
147.52
149.959
152.258
154.429
156.486
158.442
160.31
162.102
163.829
165.504
167.136
168.737
170.317
171.883
173.446
175.013
176.59
178.182
179.795
181.432
183.092
184.778
186.488
188.219
189.968
191.733
193.509
195.294
197.084
198.874
200.661
202.441
204.208
205.955
207.678
209.37
211.023
212.634
214.197
215.709
217.166
218.565
219.906
221.184
222.397
223.543
224.616
225.614
226.53
227.361
228.1
228.745
229.289
229.728
230.057
230.272
230.367
230.334
230.168
229.858
229.397
228.772
227.972
226.984
225.796
224.393
222.761
220.885
218.75
216.339
213.638
210.629
207.296
203.622
199.594
195.195
190.414
185.241
179.67
173.699
167.33
118.479
122.688
126.66
130.397
133.905
137.192
140.269
143.148
145.842
148.366
150.734
152.96
155.059
157.045
158.931
160.73
162.455
164.118
165.731
167.305
168.851
170.38
171.9
173.421
174.95
176.497
178.066
179.661
181.287
182.945
184.634
186.351
188.094
189.859
191.641
193.436
195.241
197.052
198.866
200.679
202.487
204.284
206.064
207.818
209.541
211.223
212.86
214.446
215.978
217.453
218.87
220.228
221.524
222.758
223.926
225.023
226.047
226.99
227.848
228.616
229.289
229.862
230.332
230.694
230.945
231.08
231.092
230.976
230.722
230.322
229.763
229.033
228.12
227.01
225.687
224.138
222.348
220.299
217.977
215.363
212.44
209.19
205.595
201.635
197.295
192.558
187.412
181.849
175.864
169.459
120.011
124.226
128.185
131.893
135.355
138.582
141.588
144.388
146.996
149.43
151.706
153.839
155.846
157.74
159.536
161.248
162.889
164.471
166.007
167.507
168.984
170.447
171.907
173.374
174.857
176.364
177.902
179.476
181.09
182.745
184.439
186.169
187.93
189.716
191.521
193.34
195.17
197.007
198.85
200.696
202.54
204.377
206.199
207.996
209.76
211.48
213.15
214.764
216.319
217.815
219.251
220.628
221.946
223.204
224.399
225.528
226.585
227.563
228.456
229.259
229.966
230.575
231.081
231.482
231.776
231.959
232.026
231.972
231.788
231.465
230.989
230.349
229.531
228.519
227.298
225.854
224.172
222.234
220.024
217.524
214.714
211.574
208.082
204.217
199.957
195.282
190.177
184.627
178.626
172.175
121.903
126.126
130.069
133.736
137.136
140.285
143.198
145.895
148.394
150.715
152.876
154.894
156.786
158.569
160.256
161.862
163.401
164.885
166.326
167.736
169.127
170.51
171.896
173.296
174.72
176.178
177.677
179.225
180.825
182.479
184.184
185.934
187.722
189.537
191.372
193.22
195.079
196.946
198.822
200.706
202.594
204.482
206.359
208.213
210.031
211.8
213.51
215.156
216.737
218.252
219.707
221.103
222.444
223.73
224.959
226.127
227.226
228.248
229.185
230.029
230.777
231.424
231.97
232.414
232.756
232.994
233.126
233.146
233.046
232.816
232.444
231.913
231.21
230.318
229.221
227.905
226.354
224.552
222.481
220.122
217.455
214.455
211.099
207.358
203.208
198.62
193.573
188.046
182.03
175.522
124.191
128.424
132.344
135.955
139.274
142.32
145.114
147.681
150.043
152.224
154.244
156.122
157.878
159.527
161.085
162.566
163.984
165.351
166.681
167.984
169.274
170.561
171.857
173.176
174.527
175.924
177.375
178.89
180.475
182.131
183.855
185.637
187.464
189.321
191.195
193.077
194.966
196.864
198.773
200.699
202.641
204.593
206.544
208.474
210.364
212.194
213.953
215.634
217.238
218.769
220.237
221.648
223.011
224.328
225.598
226.815
227.969
229.046
230.036
230.93
231.721
232.41
232.997
233.484
233.876
234.173
234.376
234.481
234.48
234.363
234.115
233.717
233.151
232.401
231.45
230.284
228.888
227.247
225.342
223.156
220.664
217.841
214.658
211.082
207.079
202.612
197.65
192.163
186.135
179.558
126.924
131.17
135.055
138.591
141.8
144.71
147.351
149.753
151.947
153.957
155.808
157.521
159.116
160.609
162.017
163.354
164.632
165.866
167.066
168.246
169.416
170.59
171.78
173
174.262
175.582
176.973
178.447
180.014
181.678
183.434
185.267
187.156
189.072
190.996
192.917
194.833
196.754
198.693
200.66
202.663
204.698
206.748
208.784
210.772
212.683
214.498
216.213
217.833
219.369
220.838
222.255
223.634
224.983
226.302
227.584
228.811
229.961
231.017
231.966
232.804
233.532
234.156
234.683
235.122
235.478
235.757
235.957
236.073
236.091
235.991
235.751
235.348
234.763
233.98
232.985
231.767
230.31
228.601
226.619
224.341
221.738
218.775
215.414
211.608
207.31
202.473
197.054
191.021
184.362
130.168
134.428
138.263
141.691
144.75
147.48
149.924
152.121
154.107
155.912
157.563
159.084
160.492
161.808
163.045
164.217
165.338
166.42
167.474
168.512
169.546
170.588
171.653
172.753
173.907
175.13
176.442
177.862
179.406
181.084
182.892
184.81
186.798
188.805
190.795
192.752
194.684
196.611
198.561
200.561
202.631
204.772
206.963
209.154
211.283
213.3
215.179
216.92
218.538
220.056
221.503
222.907
224.29
225.671
227.052
228.423
229.752
231.003
232.142
233.153
234.035
234.794
235.443
235.999
236.475
236.886
237.241
237.546
237.796
237.977
238.06
238.011
237.798
237.401
236.805
235.999
234.977
233.729
232.242
230.499
228.476
226.142
223.459
220.376
216.837
212.776
208.126
202.819
196.802
190.045
134.018
138.295
142.048
145.318
148.166
150.656
152.846
154.786
156.52
158.082
159.5
160.799
161.997
163.111
164.157
165.147
166.093
167.006
167.897
168.776
169.656
170.547
171.465
172.423
173.442
174.542
175.749
177.091
178.597
180.292
182.183
184.244
186.402
188.554
190.631
192.616
194.534
196.426
198.348
200.354
202.486
204.766
207.167
209.603
211.945
214.104
216.05
217.796
219.376
220.836
222.222
223.577
224.942
226.347
227.808
229.31
230.798
232.194
233.44
234.517
235.432
236.203
236.857
237.419
237.913
238.363
238.788
239.203
239.61
239.993
240.309
240.495
240.505
240.316
239.919
239.315
238.504
237.483
236.243
234.773
233.049
231.041
228.707
225.987
222.808
219.083
214.715
209.599
203.638
196.77
138.621
142.91
146.522
149.546
152.092
154.256
156.119
157.742
159.174
160.451
161.603
162.651
163.614
164.507
165.343
166.133
166.888
167.617
168.328
169.033
169.74
170.461
171.209
172
172.852
173.793
174.853
176.075
177.509
179.211
181.222
183.531
186.008
188.402
190.589
192.571
194.409
196.19
198.007
199.953
202.121
204.576
207.313
210.179
212.862
215.206
217.2
218.899
220.379
221.715
222.975
224.224
225.524
226.934
228.495
230.206
231.969
233.59
234.972
236.106
237.024
237.772
238.393
238.925
239.405
239.865
240.34
240.86
241.449
242.097
242.734
243.222
243.489
243.518
243.323
242.92
242.323
241.54
240.568
239.401
238.021
236.402
234.5
232.249
229.556
226.308
222.373
217.587
211.774
204.786
144.224
148.495
151.834
154.458
156.56
158.284
159.73
160.967
162.043
162.995
163.846
164.618
165.323
165.976
166.587
167.163
167.713
168.244
168.763
169.278
169.797
170.329
170.884
171.478
172.129
172.862
173.716
174.745
176.027
177.676
179.824
182.564
185.728
188.538
190.835
192.722
194.359
195.894
197.468
199.226
201.332
203.971
207.263
211.008
214.257
216.804
218.765
220.308
221.58
222.692
223.733
224.787
225.939
227.292
228.959
231.015
233.333
235.322
236.852
237.994
238.852
239.514
240.046
240.498
240.914
241.337
241.815
242.41
243.192
244.206
245.363
246.259
246.803
247.035
247.015
246.794
246.402
245.856
245.165
244.325
243.329
242.16
240.785
239.139
237.091
234.515
231.245
227.046
221.594
214.524
151.327
155.416
158.169
160.113
161.565
162.705
163.634
164.414
165.086
165.674
166.198
166.671
167.102
167.5
167.872
168.222
168.557
168.88
169.196
169.51
169.827
170.154
170.497
170.867
171.278
171.751
172.32
173.04
174.011
175.412
177.566
180.98
185.946
189.407
191.662
193.226
194.445
195.535
196.658
197.986
199.768
202.416
206.554
212.542
216.651
219.238
220.921
222.099
223.001
223.76
224.465
225.198
226.056
227.189
228.852
231.435
235.162
237.703
239.281
240.281
240.952
241.432
241.802
242.113
242.405
242.718
243.111
243.68
244.59
246.1
248.356
249.793
250.557
250.902
250.988
250.903
250.691
250.374
249.964
249.464
248.876
248.203
247.452
246.598
245.379
243.71
241.445
238.299
233.736
226.85
161.226
164.254
165.661
166.47
167.014
167.421
167.744
168.012
168.24
168.44
168.617
168.776
168.921
169.055
169.18
169.297
169.409
169.518
169.624
169.73
169.836
169.946
170.063
170.189
170.33
170.495
170.698
170.968
171.367
172.054
173.487
177.153
188.322
192.005
193.473
194.219
194.709
195.118
195.542
196.084
196.949
198.705
203.17
216.773
221.228
222.962
223.793
224.28
224.619
224.894
225.147
225.419
225.765
226.312
227.412
230.199
238.688
241.462
242.532
243.033
243.315
243.499
243.634
243.746
243.853
243.974
244.145
244.447
245.115
246.909
252.517
254.286
254.905
255.132
255.198
255.184
255.12
255.017
254.882
254.719
254.534
254.351
254.256
254.573
254.307
253.751
252.906
251.583
249.213
244.024
156.86
148.338
139.331
129.869
119.982
109.706
99.0799
88.1411
76.9291
65.4826
53.8398
42.0381
30.114
18.1029
6.04006
157.36
148.816
139.782
130.288
120.366
110.053
99.3882
88.4107
77.1603
65.6762
53.9966
42.1589
30.1996
18.154
6.05704
158.367
149.778
140.688
131.128
121.135
110.747
100.005
88.9497
77.6222
66.0624
54.3091
42.3996
30.3701
18.2558
6.09087
159.893
151.234
142.057
132.398
122.295
111.791
100.931
89.7573
78.3132
66.6396
54.7756
42.7585
30.6243
18.4074
6.14125
161.959
153.202
143.904
134.105
123.85
113.187
102.166
90.8318
79.2307
67.4045
55.3928
43.2329
30.96
18.6075
6.20771
164.592
155.706
146.246
136.261
125.807
114.938
103.708
92.1699
80.37
68.352
56.156
43.8186
31.3739
18.854
6.2896
167.832
158.777
149.106
138.883
128.173
117.044
105.556
93.7657
81.7239
69.4749
57.0583
44.5098
31.8618
19.1444
6.386
171.731
162.456
152.513
141.985
130.955
119.503
107.701
95.6095
83.2818
70.7625
58.0903
45.2988
32.4179
19.4751
6.49571
176.359
166.797
156.5
145.583
134.153
122.308
110.131
97.6857
85.0277
72.2001
59.2391
46.1752
33.0347
19.8415
6.61723
181.812
171.865
161.103
149.686
137.76
125.442
112.823
99.9713
86.9397
73.7683
60.4885
47.1262
33.703
20.2381
6.74871
188.221
177.741
166.352
154.293
141.754
128.872
115.743
102.433
88.9881
75.4417
61.818
48.1361
34.4118
20.6583
6.88797
195.779
184.518
172.265
159.374
146.085
132.543
118.839
105.025
91.1346
77.1893
63.2031
49.1867
35.1482
21.0948
7.03254
204.761
192.281
178.809
164.848
150.661
136.372
122.039
107.689
93.3326
78.9745
64.6159
50.2572
35.8983
21.5391
7.17973
215.566
201.03
185.832
170.542
155.333
140.239
125.252
110.355
95.5287
80.7569
66.0263
51.326
36.6472
21.9828
7.32672
228.588
210.431
192.939
176.15
159.884
143.993
128.371
112.946
97.6662
82.4949
67.4036
52.3711
37.3803
22.4175
7.47075
15.0251
25.072
35.1088
45.1293
55.1283
65.1018
75.0485
84.9715
94.8816
104.803
114.785
124.922
135.41
146.689
159.977
15.1341
25.3995
35.6562
45.8989
56.123
66.3252
76.5044
86.6638
96.8137
106.978
117.204
127.587
138.313
149.735
162.485
15.245
25.7325
36.2125
46.6802
57.1314
67.5626
77.9719
88.3602
98.7332
109.106
119.511
130.012
140.727
151.854
163.634
15.3575
26.0703
36.7765
47.4718
58.1521
68.8132
79.4517
90.0645
100.65
111.209
121.748
132.283
142.85
153.514
164.347
15.4713
26.4121
37.3472
48.2727
59.1844
70.0777
80.947
91.7851
102.582
113.322
123.983
134.527
144.903
155.053
164.955
15.5863
26.7573
37.9236
49.0819
60.228
71.3569
82.4616
93.5317
104.55
115.488
126.295
136.883
147.107
156.758
165.659
15.7021
27.1052
38.5049
49.8982
61.2818
72.6508
83.9978
95.3113
106.571
117.742
128.756
139.489
149.704
158.98
166.739
15.8186
27.4551
39.0895
50.7201
62.3441
73.9578
85.555
97.1253
108.651
120.099
131.408
142.451
152.947
162.252
168.902
15.9353
27.8059
39.676
51.5451
63.4119
75.2743
87.1283
98.9676
110.781
122.55
134.242
145.787
157.014
167.361
174.383
16.052
28.1564
40.2623
52.3704
64.4811
76.5944
88.7094
100.825
112.939
125.052
137.173
149.338
161.689
174.773
191.051
16.168
28.5053
40.846
53.1925
65.5468
77.9111
90.2876
102.68
115.094
127.545
140.068
152.756
165.849
179.962
196.565
16.2831
28.8513
41.4249
54.0078
66.6038
79.217
91.8524
104.517
117.22
129.983
142.845
155.889
169.295
183.418
198.811
16.3968
29.1928
41.9964
54.8126
67.647
80.5053
93.3944
106.323
119.302
132.35
145.491
158.766
172.237
185.985
200.065
16.5085
29.5286
42.5581
55.6035
68.6716
81.7698
94.9063
108.091
121.334
134.647
148.039
161.502
174.983
188.316
201.159
16.6179
29.8573
43.1079
56.3773
69.6736
83.0054
96.3823
109.815
123.313
136.886
150.532
164.22
177.826
190.981
202.753
16.7245
30.1776
43.6435
57.1309
70.6489
84.2074
97.8171
111.49
125.237
139.07
152.993
166.991
180.976
194.601
206.315
16.828
30.4886
44.1633
57.8617
71.5942
85.3715
99.2055
113.109
127.098
141.187
155.398
169.764
184.372
199.542
216.756
16.928
30.7891
44.6655
58.5676
72.5064
86.4938
100.543
114.667
128.884
143.215
157.689
172.365
187.372
203.058
220.282
17.0244
31.0785
45.1488
59.2464
73.383
87.571
101.824
116.158
130.589
145.139
159.837
174.729
189.896
205.501
221.801
17.1168
31.356
45.6121
59.8966
74.2218
88.6006
103.047
117.577
132.207
146.957
161.847
176.896
192.111
207.453
222.781
17.2051
31.6211
46.0545
60.5171
75.0215
89.5808
104.209
118.923
133.738
148.672
163.741
178.943
194.231
209.408
223.909
17.2893
31.8736
46.4756
61.1072
75.781
90.5104
105.31
120.195
135.182
150.291
165.536
180.926
196.424
211.827
226.173
17.3691
32.1133
46.875
61.6664
76.4999
91.3889
106.348
121.392
136.539
151.809
167.228
182.828
198.676
214.973
232.613
17.4448
32.34
47.2527
62.1947
77.1783
92.2165
107.323
122.514
137.806
153.221
168.788
184.552
200.609
217.181
234.789
17.5162
32.5541
47.6091
62.6926
77.8168
92.9939
108.238
123.562
138.984
154.524
170.205
186.068
202.18
218.664
235.7
17.5834
32.7557
47.9445
63.1608
78.4163
93.7227
109.093
124.539
140.077
155.723
171.492
187.406
203.487
219.756
236.215
17.6467
32.9453
48.2596
63.6003
78.9783
94.4048
109.891
125.45
141.092
156.831
172.674
188.622
204.656
220.71
236.647
17.7061
33.1232
48.5553
64.0124
79.5047
95.0426
110.637
126.298
142.037
157.862
173.777
189.773
205.806
221.739
237.235
17.7618
33.2901
48.8325
64.3984
79.9972
95.6388
111.333
127.089
142.917
158.826
174.819
190.894
207.019
223.066
238.489
17.8141
33.4467
49.0923
64.7599
80.4581
96.1959
111.982
127.826
143.738
159.726
175.8
191.975
208.279
224.821
242.097
17.8631
33.5935
49.3359
65.0985
80.8894
96.7167
112.589
128.514
144.501
160.561
176.706
192.96
209.37
226.058
243.316
17.9092
33.7312
49.5643
65.4158
81.2932
97.2038
113.155
129.155
145.211
161.333
177.533
193.83
210.261
226.892
243.828
17.9524
33.8605
49.7787
65.7136
81.6719
97.6601
113.685
129.753
145.871
162.046
178.287
194.603
211.006
227.51
244.117
17.9931
33.9823
49.9805
65.9936
82.0277
98.0883
114.181
130.312
146.487
162.709
178.983
195.309
211.675
228.049
244.359
18.0315
34.0971
50.1707
66.2575
82.3628
98.4915
114.648
130.838
147.065
163.332
179.639
195.981
212.334
228.626
244.681
18.0678
34.2056
50.3505
66.507
82.6796
98.8724
115.09
131.335
147.611
163.922
180.266
196.641
213.028
229.362
245.354
18.1022
34.3086
50.5212
66.7437
82.9801
99.2338
115.508
131.806
148.13
164.483
180.867
197.286
213.754
230.327
247.271
18.135
34.4068
50.6837
66.9693
83.2665
99.5783
115.907
132.256
148.625
165.019
181.438
197.892
214.402
231.029
247.932
18.1664
34.5006
50.8392
67.185
83.5405
99.9081
116.29
132.686
149.1
165.531
181.981
198.454
214.961
231.533
248.226
18.1965
34.5907
50.9885
67.3923
83.8041
100.226
116.658
133.102
149.559
166.026
182.503
198.986
215.47
231.948
248.415
18.2255
34.6776
51.1326
67.5925
84.0588
100.533
117.015
133.506
150.005
166.51
183.015
199.511
215.976
232.364
248.608
18.2536
34.7617
51.2722
67.7865
84.306
100.831
117.363
133.901
150.444
166.989
183.53
200.053
216.528
232.875
248.914
18.2809
34.8435
51.4079
67.9754
84.5469
101.123
117.703
134.288
150.877
167.466
184.051
200.624
217.162
233.594
249.619
18.3076
34.9232
51.5403
68.1599
84.7824
101.408
118.038
134.67
151.305
167.94
184.576
201.213
217.864
234.59
251.69
18.3336
35.0012
51.6699
68.3406
85.0134
101.689
118.367
135.046
151.728
168.41
185.095
201.787
218.507
235.321
252.401
18.3591
35.0777
51.7971
68.518
85.2405
101.965
118.691
135.418
152.146
168.875
185.603
202.335
219.079
235.859
252.724
18.3842
35.1528
51.9221
68.6925
85.4641
102.237
119.011
135.785
152.56
169.334
186.105
202.87
219.619
236.331
252.96
18.4089
35.2268
52.0452
68.8645
85.6846
102.506
119.327
136.149
152.97
169.79
186.605
203.409
220.18
236.855
253.271
18.4332
35.2997
52.1666
69.0341
85.9023
102.771
119.64
136.509
153.377
170.244
187.108
203.965
220.8
237.552
253.941
18.4571
35.3715
52.2863
69.2016
86.1173
103.033
119.95
136.866
153.781
170.696
187.611
204.531
221.472
238.495
255.881
18.4808
35.4425
52.4045
69.3669
86.3298
103.293
120.256
137.219
154.181
171.142
188.105
205.076
222.079
239.18
256.545
18.5041
35.5124
52.5211
69.5302
86.5398
103.55
120.56
137.569
154.577
171.583
188.588
205.594
222.612
239.674
256.839
18.5271
35.5815
52.6362
69.6915
86.7473
103.804
120.86
137.916
154.97
172.02
189.064
206.096
223.109
240.091
257.033
18.5498
35.6495
52.7496
69.8505
86.9522
104.054
121.157
138.26
155.361
172.457
189.544
206.607
223.619
240.527
257.242
18.5721
35.7165
52.8614
70.0072
87.1542
104.302
121.451
138.601
155.75
172.896
190.033
207.146
224.197
241.089
257.598
18.594
35.7823
52.9713
70.1614
87.353
104.546
121.741
138.938
156.137
173.337
190.534
207.722
224.877
241.912
258.45
18.6155
35.8469
53.0791
70.3127
87.5483
104.786
122.027
139.271
156.519
173.774
191.037
208.316
225.634
243.073
261.004
18.6366
35.9101
53.1846
70.4609
87.7395
105.021
122.306
139.596
156.893
174.199
191.522
208.876
226.299
243.885
261.852
18.6571
35.9718
53.2877
70.6056
87.9263
105.25
122.579
139.913
157.255
174.608
191.979
209.383
226.846
244.424
262.198
18.6772
36.0319
53.3881
70.7466
88.1082
105.474
122.844
140.22
157.604
174.999
192.409
209.841
227.306
244.819
262.389
18.6966
36.0903
53.4857
70.8835
88.2849
105.69
123.101
140.518
157.942
175.375
192.817
210.27
227.726
245.168
262.549
18.7154
36.1469
53.5801
71.0162
88.4561
105.901
123.351
140.806
158.269
175.738
193.213
210.689
228.15
245.55
262.768
18.7335
36.2013
53.6712
71.1443
88.6217
106.104
123.592
141.086
158.586
176.092
193.602
211.112
228.61
246.051
263.237
18.7509
36.2536
53.7587
71.2675
88.7811
106.3
123.826
141.358
158.895
176.438
193.985
211.537
229.103
246.722
264.584
18.7675
36.3035
53.8422
71.3853
88.9341
106.489
124.052
141.621
159.196
176.775
194.358
211.946
229.551
247.215
265.051
18.7832
36.3506
53.9213
71.4973
89.08
106.67
124.269
141.875
159.488
177.105
194.722
212.337
229.952
247.582
265.264
18.7978
36.3947
53.9955
71.6026
89.2178
106.843
124.477
142.121
159.773
177.428
195.081
212.721
230.335
247.904
265.413
18.8112
36.4352
54.0639
71.7002
89.3466
107.005
124.675
142.357
160.05
177.748
195.442
213.117
230.741
248.259
265.587
18.8232
36.4715
54.1256
71.789
89.4646
107.155
124.86
142.582
160.318
178.064
195.811
213.541
231.215
248.738
265.9
18.8336
36.5031
54.1795
71.8672
89.5699
107.29
125.031
142.793
160.575
178.374
196.186
213.998
231.784
249.46
266.674
18.8421
36.529
54.2242
71.933
89.66
107.409
125.183
142.984
160.813
178.67
196.554
214.467
232.423
250.494
269.016
18.8483
36.5483
54.2581
71.9842
89.7321
107.507
125.313
143.152
161.028
178.942
196.895
214.898
232.975
251.206
269.787
18.852
36.5598
54.2794
72.0181
89.7829
107.58
125.414
143.29
161.211
179.179
197.197
215.269
233.413
251.666
270.095
18.8526
36.5624
54.2859
72.0319
89.8086
107.624
125.483
143.393
161.357
179.377
197.453
215.584
233.767
251.997
270.264
18.8497
36.5546
54.2753
72.0222
89.805
107.633
125.513
143.454
161.458
179.529
197.665
215.856
234.081
252.293
270.414
18.8429
36.5349
54.2451
71.9855
89.7675
107.602
125.498
143.465
161.508
179.631
197.832
216.098
234.395
252.643
270.656
18.8315
36.5016
54.1925
71.9178
89.6909
107.524
125.43
143.418
161.497
179.673
197.946
216.309
234.737
253.149
271.247
18.8151
36.453
54.1145
71.8149
89.5696
107.393
125.3
143.303
161.414
179.642
197.992
216.469
235.08
253.865
273.068
18.7929
36.3873
54.008
71.6723
89.3976
107.201
125.1
143.109
161.245
179.519
197.944
216.529
235.293
254.284
273.627
18.7643
36.3025
53.8697
71.4851
89.1685
106.939
124.818
142.823
160.974
179.287
197.777
216.457
235.341
254.448
273.799
18.7288
36.1968
53.6964
71.2487
88.8758
106.6
124.444
142.431
160.584
178.925
197.471
216.236
235.226
254.435
273.829
18.6857
36.0684
53.4849
70.9584
88.5129
106.173
123.966
141.919
160.059
178.414
197.007
215.852
234.952
254.283
273.787
18.6346
35.9157
53.2325
70.6098
88.0736
105.652
123.374
141.272
159.38
177.733
196.36
215.284
234.508
254.003
273.693
18.575
35.7372
52.9366
70.1991
87.5522
105.026
122.655
140.474
158.526
176.854
195.5
214.5
233.868
253.579
273.544
18.5066
35.5322
52.5955
69.7233
86.9442
104.29
121.799
139.511
157.476
175.749
194.388
213.453
232.982
252.971
273.324
18.4293
35.3001
52.2083
69.1806
86.2464
103.439
120.797
138.367
156.207
174.382
192.975
212.075
231.768
252.101
272.996
18.3431
35.0411
51.7752
68.5711
85.4578
102.469
119.644
137.033
154.698
172.72
191.203
210.278
230.104
250.831
272.482
18.2485
34.7564
51.2977
67.8966
84.5803
101.381
118.338
135.502
152.937
170.733
189.012
207.952
227.805
248.911
271.592
18.146
34.4476
50.7788
67.161
83.6189
100.182
116.885
133.777
150.921
168.404
186.357
204.985
224.628
245.889
269.806
18.0365
34.1175
50.223
66.371
82.5821
98.8808
115.298
131.874
148.663
165.743
183.228
201.306
220.319
241.014
265.503
241.724
218.432
198.803
180.803
163.706
147.181
131.044
115.183
99.523
84.0115
68.6099
53.2888
38.0253
22.8004
7.59772
245.876
223.156
202.998
184.4
166.78
149.805
133.279
117.074
101.105
85.3116
69.6485
54.0817
38.5839
23.1325
7.70793
247.605
226.096
206.103
187.314
169.4
152.115
135.287
118.798
102.563
86.5186
70.6184
54.8252
39.1092
23.4455
7.81186
248.472
227.976
208.365
189.615
171.579
154.102
137.056
120.342
103.885
87.6232
71.5119
55.5136
39.5973
23.7368
7.90872
248.98
229.235
210.025
191.416
173.364
155.784
138.59
121.706
105.067
88.6211
72.3251
56.1434
40.0455
24.005
7.99801
249.311
230.117
211.26
192.825
174.817
157.195
139.906
122.896
106.112
89.5123
73.057
56.7135
40.4529
24.2494
8.07947
249.543
230.758
212.195
193.933
175.996
158.37
141.025
123.924
107.028
90.3004
73.7091
57.2244
40.8195
24.4699
8.15305
249.713
231.238
212.915
194.81
176.953
159.345
141.971
124.806
107.823
90.9914
74.2853
57.6783
41.1465
24.6672
8.21896
249.841
231.606
213.478
195.51
177.733
160.154
142.768
125.559
108.509
91.5931
74.7905
58.0785
41.4359
24.8422
8.27751
249.941
231.894
213.923
196.073
178.369
160.824
143.437
126.199
109.097
92.1139
75.2306
58.4289
41.6903
24.9964
8.32916
250.019
232.121
214.28
196.528
178.891
161.38
143.999
126.742
109.601
92.5624
75.612
58.734
41.9125
25.1314
8.37444
250.082
232.304
214.567
196.899
179.32
161.842
144.469
127.201
110.03
92.9471
75.9409
58.9983
42.1056
25.249
8.41391
250.132
232.451
214.8
197.202
179.673
162.226
144.864
127.588
110.395
93.2761
76.2235
59.2262
42.2727
25.3508
8.44814
250.173
232.571
214.991
197.451
179.966
162.546
145.195
127.915
110.704
93.5567
76.4655
59.4221
42.4166
25.4388
8.47772
250.207
232.669
215.148
197.657
180.209
162.812
145.472
128.191
110.966
93.7955
76.6723
59.5899
42.5403
25.5145
8.50319
250.234
232.75
215.277
197.827
180.41
163.035
145.705
128.423
111.189
93.9985
76.8487
59.7335
42.6462
25.5794
8.52505
250.257
232.817
215.384
197.968
180.579
163.221
145.901
128.619
111.376
94.1708
76.9988
59.856
42.7368
25.6349
8.54378
250.276
232.872
215.473
198.086
180.719
163.378
146.065
128.785
111.536
94.3172
77.1267
59.9605
42.8141
25.6825
8.5598
250.291
232.919
215.547
198.185
180.837
163.509
146.204
128.924
111.67
94.4414
77.2354
60.0495
42.8802
25.7231
8.5735
250.304
232.957
215.61
198.267
180.936
163.62
146.321
129.043
111.785
94.547
77.328
60.1255
42.9366
25.7578
8.58521
250.315
232.99
215.662
198.337
181.02
163.713
146.42
129.143
111.882
94.637
77.407
60.1904
42.9848
25.7874
8.59523
250.325
233.017
215.706
198.396
181.09
163.793
146.505
129.229
111.965
94.7139
77.4746
60.2459
43.0261
25.8129
8.60383
250.333
233.041
215.744
198.446
181.151
163.86
146.577
129.302
112.036
94.7799
77.5327
60.2937
43.0617
25.8348
8.61123
250.34
233.061
215.776
198.49
181.203
163.919
146.639
129.365
112.097
94.8369
77.5829
60.3351
43.0925
25.8538
8.61765
250.345
233.078
215.805
198.527
181.248
163.969
146.693
129.42
112.151
94.8866
77.6268
60.3712
43.1194
25.8704
8.62326
250.351
233.093
215.829
198.56
181.288
164.014
146.741
129.468
112.198
94.9304
77.6655
60.4031
43.1432
25.8851
8.62822
250.355
233.107
215.851
198.589
181.323
164.054
146.783
129.512
112.24
94.9698
77.7002
60.4317
43.1645
25.8982
8.63266
250.359
233.12
215.872
198.616
181.356
164.091
146.822
129.551
112.279
95.0057
77.7319
60.4579
43.184
25.9103
8.63672
250.363
233.131
215.891
198.642
181.386
164.125
146.859
129.589
112.315
95.0393
77.7615
60.4823
43.2022
25.9215
8.64052
250.367
233.143
215.909
198.666
181.416
164.158
146.894
129.624
112.35
95.0716
77.7899
60.5057
43.2196
25.9322
8.64415
250.371
233.154
215.927
198.691
181.445
164.191
146.929
129.66
112.384
95.1035
77.818
60.5288
43.2367
25.9428
8.64772
250.375
233.166
215.946
198.716
181.475
164.225
146.965
129.696
112.419
95.1359
77.8464
60.5521
43.2541
25.9535
8.65132
250.379
233.179
215.967
198.743
181.507
164.261
147.002
129.734
112.456
95.1697
77.876
60.5764
43.2721
25.9645
8.65506
250.384
233.192
215.989
198.772
181.542
164.299
147.043
129.775
112.495
95.2059
77.9076
60.6022
43.2912
25.9763
8.65902
250.39
233.208
216.014
198.805
181.582
164.343
147.088
129.82
112.539
95.2454
77.942
60.6302
43.3119
25.989
8.6633
250.396
233.226
216.043
198.843
181.626
164.392
147.139
129.871
112.587
95.2894
77.9801
60.6612
43.3347
26.0029
8.668
250.403
233.248
216.077
198.888