/*--------------------------------*- C++ -*----------------------------------*\
| =========                 |                                                 |
| \\      /  F ield         | OpenFOAM: The Open Source CFD Toolbox           |
|  \\    /   O peration     | Version:  5.x                                   |
|   \\  /    A nd           | Web:      www.OpenFOAM.org                      |
|    \\/     M anipulation  |                                                 |
\*---------------------------------------------------------------------------*/
FoamFile
{
    version     2.0;
    format      ascii;
    class       volScalarField;
    location    "18.6";
    object      gradTx;
}
// * * * * * * * * * * * * * * * * * * * * * * * * * * * * * * * * * * * * * //

dimensions      [0 -1 0 1 0 0 0];

internalField   nonuniform List<scalar> 
6300
(
4.53755
4.52375
4.49617
4.45483
4.39977
4.33109
4.24893
4.15355
4.04534
3.92487
3.79293
3.65062
3.49931
3.34072
3.17688
4.55117
4.53736
4.50976
4.46837
4.41323
4.34439
4.26199
4.16622
4.05745
3.93617
3.80317
3.65946
3.50645
3.34586
3.17975
4.57841
4.56459
4.53696
4.4955
4.4402
4.37109
4.28823
4.19174
4.08188
3.95906
3.82394
3.67748
3.52103
3.35635
3.18563
4.61929
4.60547
4.57781
4.53628
4.48082
4.41138
4.32793
4.23048
4.11911
3.99409
3.85589
3.70534
3.54369
3.37275
3.19488
4.67381
4.66
4.63236
4.5908
4.53523
4.4655
4.38146
4.28295
4.16985
4.04214
3.90005
3.74414
3.57551
3.39596
3.20808
4.74195
4.72819
4.70064
4.65917
4.60362
4.53376
4.4493
4.34985
4.23501
4.10443
3.95788
3.79552
3.61811
3.42736
3.22614
4.82366
4.81001
4.78264
4.74142
4.68614
4.61646
4.53194
4.43196
4.31577
4.18252
4.03138
3.8618
3.67392
3.46911
3.25051
4.91883
4.90535
4.87831
4.83757
4.78287
4.71383
4.62986
4.5301
4.41343
4.27835
4.12318
3.94623
3.7465
3.52452
3.2835
5.0273
5.01405
4.98749
4.94747
4.89377
4.82596
4.74338
4.64501
4.52932
4.39413
4.23658
4.05331
3.8412
3.59885
3.32887
5.14882
5.13587
5.10992
5.07089
5.01858
4.95266
4.87251
4.77706
4.66453
4.5321
4.37554
4.18907
3.96597
3.70067
3.39316
5.2831
5.27048
5.24524
5.20737
5.15682
5.09341
5.01675
4.92601
4.81948
4.69404
4.54423
4.36129
4.13277
3.84453
3.48841
5.42979
5.41751
5.393
5.35635
5.30771
5.24721
5.17491
5.09055
4.99315
4.88016
4.74586
4.57891
4.3591
4.05613
3.63892
5.58856
5.57656
5.55267
5.51712
5.47026
5.41263
5.34493
5.26794
5.18224
5.08738
4.97995
4.84918
4.6684
4.38181
3.89944
5.7591
5.74729
5.7238
5.68898
5.64338
5.58793
5.52404
5.45384
5.38026
5.30696
5.23716
5.16927
5.08334
4.90311
4.41204
5.94123
5.92946
5.90606
5.8714
5.82615
5.77145
5.70927
5.6429
5.57778
5.52282
5.49223
5.50721
5.59244
5.7351
5.61188
3.02407
2.88449
2.7458
2.6094
2.47663
2.3487
2.22671
2.11157
2.00404
1.9047
1.81399
1.73221
1.65952
1.596
1.54161
1.49625
1.45976
1.43189
1.41236
1.4008
1.39681
1.39989
1.40946
1.42488
1.4454
1.47019
1.49834
1.52889
1.56081
1.59308
1.62468
1.65464
1.68203
1.70598
1.72567
1.7403
1.74907
1.75115
1.74567
1.73175
1.70851
1.67509
1.63074
1.57483
1.50685
1.42644
1.33328
1.2271
1.10753
0.974105
0.826144
0.66277
0.482889
0.285222
0.0683487
-0.169244
-0.42912
-0.712873
-1.02213
-1.35859
-1.72406
-2.12054
-2.5503
-3.0159
-3.52025
-4.06659
-4.65851
-5.29984
-5.99466
-6.74715
-7.56156
-8.4421
-9.39289
-10.4179
-11.5207
-12.7047
-13.9729
-15.3273
-16.7693
-18.2992
-19.9157
-21.6159
-23.3947
-25.2449
-27.1567
-29.1178
-31.1138
-33.1279
-35.1422
-37.1378
3.02474
2.8831
2.74239
2.60407
2.46954
2.34007
2.21675
2.10053
1.99215
1.89219
1.80107
1.71904
1.64626
1.58278
1.52854
1.48343
1.44727
1.41983
1.40081
1.38986
1.38658
1.39047
1.40099
1.41747
1.43919
1.46528
1.49483
1.52684
1.56024
1.59397
1.62698
1.65827
1.6869
1.71203
1.73287
1.74866
1.75862
1.76194
1.75774
1.7451
1.72307
1.69074
1.6473
1.59211
1.52468
1.44469
1.35196
1.24628
1.12741
0.994944
0.848253
0.686454
0.508417
0.312798
0.0981058
-0.137232
-0.394811
-0.676218
-0.983033
-1.31687
-1.67945
-2.07268
-2.49875
-2.96016
-3.45982
-4.00101
-4.58737
-5.22285
-5.91163
-6.65801
-7.46634
-8.34095
-9.28606
-10.3057
-11.4037
-12.5836
-13.8486
-15.201
-16.6428
-18.1744
-19.7951
-21.5025
-23.2919
-25.1561
-27.0855
-29.0676
-31.0874
-33.1275
-35.1689
-37.1917
3.0261
2.88026
2.73541
2.59318
2.45507
2.32245
2.19648
2.0781
1.96806
1.86689
1.77496
1.69248
1.61956
1.55618
1.50226
1.45766
1.42218
1.39558
1.37757
1.36782
1.36594
1.37146
1.38386
1.40248
1.42659
1.45533
1.48772
1.5227
1.55912
1.59583
1.63168
1.66563
1.69674
1.72418
1.74726
1.76531
1.77764
1.78346
1.78188
1.77188
1.75236
1.72228
1.6807
1.62691
1.56047
1.48123
1.38917
1.28435
1.16677
1.03617
0.892025
0.733433
0.559173
0.367752
0.157509
-0.073273
-0.326269
-0.603051
-0.905095
-1.23384
-1.59078
-1.97761
-2.39635
-2.84939
-3.33964
-3.87042
-4.44554
-5.06916
-5.74567
-6.47966
-7.27569
-8.1383
-9.07188
-10.0807
-11.1688
-12.3401
-13.5982
-14.9462
-16.3866
-17.9211
-19.5497
-21.271
-23.081
-24.9733
-26.9382
-28.9629
-31.0314
-33.1249
-35.2223
-37.3011
3.02829
2.87587
2.72456
2.57623
2.4326
2.29517
2.16517
2.04358
1.9311
1.82819
1.73515
1.6521
1.57904
1.51588
1.4625
1.41869
1.38424
1.35889
1.34238
1.33439
1.33457
1.34251
1.35769
1.37953
1.40728
1.44005
1.47683
1.51641
1.55753
1.59884
1.63906
1.67702
1.71176
1.74255
1.76883
1.79013
1.80593
1.81556
1.81806
1.81225
1.79679
1.77029
1.73158
1.67982
1.61464
1.53612
1.44464
1.34073
1.22477
1.09683
0.956508
0.802886
0.634556
0.449728
0.246409
0.0225947
-0.223548
-0.49358
-0.788781
-1.11026
-1.45911
-1.83666
-2.24458
-2.68512
-3.16112
-3.67603
-4.23392
-4.8393
-5.497
-6.21198
-6.98919
-7.83344
-8.74936
-9.74144
-10.8141
-11.9716
-13.2182
-14.5582
-15.9951
-17.5321
-19.1709
-20.9115
-22.7516
-24.6857
-26.7046
-28.795
-30.9394
-33.1166
-35.302
-37.4692
3.03152
2.86976
2.70932
2.55242
2.40111
2.25709
2.12168
1.99586
1.88026
1.77522
1.68089
1.59725
1.52418
1.46146
1.40888
1.36619
1.33312
1.30943
1.29486
1.28914
1.29199
1.30305
1.3219
1.348
1.38065
1.41896
1.46181
1.50786
1.55558
1.60336
1.64961
1.69296
1.7324
1.76732
1.79747
1.82277
1.84305
1.85782
1.86611
1.86646
1.857
1.8358
1.80115
1.75196
1.68792
1.60956
1.51794
1.41437
1.29994
1.17523
1.04005
0.893432
0.733607
0.558247
0.364738
0.150537
-0.0865053
-0.347937
-0.634701
-0.947319
-1.28621
-1.65201
-2.04592
-2.46985
-2.92659
-3.41981
-3.95396
-4.53414
-5.16585
-5.8547
-6.60616
-7.42537
-8.31718
-9.2862
-10.3371
-11.4746
-12.7039
-14.0304
-15.4595
-16.9964
-18.6452
-20.4087
-22.2868
-24.2759
-26.3678
-28.549
-30.8001
-33.0962
-35.4075
-37.7015
3.0361
2.86167
2.68885
2.52048
2.35904
2.20651
2.06431
1.93336
1.81412
1.70676
1.61117
1.52714
1.45433
1.39239
1.34098
1.29977
1.26845
1.24678
1.23454
1.23151
1.23751
1.25231
1.27561
1.30698
1.34583
1.39127
1.44213
1.49683
1.55349
1.61
1.66426
1.71447
1.75947
1.79888
1.83302
1.86256
1.88802
1.90933
1.92553
1.93467
1.93404
1.92058
1.89158
1.84538
1.78175
1.70198
1.60837
1.50356
1.38984
1.26859
1.14
1.0029
0.854943
0.692815
0.512782
0.31129
0.0855827
-0.16589
-0.443461
-0.746619
-1.0746
-1.42696
-1.80406
-2.20737
-2.63959
-3.10468
-3.60774
-4.15481
-4.75245
-5.4073
-6.12556
-6.91279
-7.77381
-8.7131
-9.73526
-10.8454
-12.0497
-13.3548
-14.7687
-16.2993
-17.9545
-19.7408
-21.662
-23.7178
-25.9023
-28.2022
-30.596
-33.0536
-35.5378
-38.0063
3.04256
2.85117
2.66187
2.47845
2.30405
2.14097
1.99068
1.8539
1.73083
1.62126
1.52476
1.44079
1.36875
1.3081
1.25834
1.21903
1.18984
1.17051
1.16088
1.16084
1.17032
1.18928
1.21762
1.25515
1.30144
1.35574
1.41683
1.48291
1.55155
1.61983
1.68467
1.74341
1.79451
1.83795
1.87512
1.90813
1.93887
1.96812
1.99502
2.01689
2.02945
2.02762
2.0067
1.96378
1.89874
1.81425
1.71484
1.6055
1.49048
1.37246
1.25209
1.12794
0.996597
0.853083
0.691646
0.506831
0.294695
0.0536649
-0.215446
-0.510247
-0.827937
-1.16632
-1.52453
-1.90332
-2.30531
-2.7349
-3.1982
-3.7027
-4.25672
-4.86858
-5.54569
-6.29394
-7.11772
-8.02066
-9.00668
-10.0809
-11.25
-12.5227
-13.9096
-15.4228
-17.075
-18.8784
-20.8431
-22.9744
-25.2706
-27.7201
-30.2996
-32.9726
-35.6906
-38.3963
3.05173
2.83756
2.62633
2.42334
2.23266
2.05694
1.8975
1.75466
1.62804
1.51688
1.42026
1.33718
1.26673
1.20809
1.16058
1.12367
1.09697
1.08024
1.07337
1.07639
1.08943
1.11268
1.14637
1.19064
1.24546
1.31037
1.3843
1.46523
1.55006
1.63454
1.71378
1.78329
1.84051
1.88595
1.92311
1.9569
1.99178
2.0302
2.07168
2.11241
2.14551
2.16207
2.15341
2.11396
2.04363
1.9479
1.83549
1.71552
1.59537
1.47961
1.36956
1.26327
1.15569
1.03908
0.904091
0.741631
0.545335
0.313577
0.0494905
-0.240989
-0.551539
-0.877224
-1.21538
-1.56592
-1.93132
-2.31663
-2.72938
-3.17932
-3.67772
-4.23592
-4.86342
-5.56636
-6.34763
-7.20858
-8.15116
-9.17956
-10.301
-11.5261
-12.8687
-14.346
-15.9775
-17.7837
-19.7841
-21.9935
-24.418
-27.0508
-29.8682
-32.8265
-35.8611
-38.8906
3.06493
2.81958
2.5788
2.35037
2.13964
1.94938
1.78035
1.63197
1.50291
1.39154
1.29619
1.21535
1.14765
1.092
1.04752
1.01356
0.989701
0.975713
0.97158
0.97748
0.993777
1.021
1.05981
1.11091
1.17489
1.25198
1.3416
1.44189
1.549
1.65672
1.75682
1.8408
1.90337
1.94581
1.97588
2.00403
2.03949
2.08777
2.14931
2.21885
2.28526
2.33274
2.34437
2.30848
2.22499
2.10547
1.96694
1.82568
1.69384
1.57844
1.48151
1.40039
1.3277
1.25145
1.15601
1.02507
0.846953
0.619959
0.352352
0.0570954
-0.253424
-0.570232
-0.888479
-1.20716
-1.52871
-1.85889
-2.20704
-2.58621
-3.01265
-3.50349
-4.07253
-4.72602
-5.46282
-6.27894
-7.17209
-8.14428
-9.20275
-10.36
-11.6339
-13.0473
-14.6283
-16.4093
-18.424
-20.7026
-23.2653
-26.1155
-29.2338
-32.5703
-36.0389
-39.5188
3.08444
2.79492
2.51338
2.25182
2.01701
1.81113
1.63338
1.48138
1.35224
1.24305
1.15121
1.07452
1.01118
0.95978
0.919261
0.888878
0.868172
0.856954
0.855301
0.863556
0.882349
0.912598
0.95552
1.01259
1.08541
1.17546
1.2835
1.40867
1.54699
1.68982
1.82299
1.92907
1.99512
2.0234
2.03133
2.04054
2.06866
2.12613
2.21533
2.32968
2.45219
2.55494
2.60363
2.57142
2.45814
2.29032
2.10221
1.92218
1.76853
1.65055
1.57063
1.52528
1.50473
1.49136
1.45897
1.37634
1.21886
0.98473
0.694946
0.377081
0.053666
-0.261248
-0.561026
-0.844334
-1.11371
-1.37533
-1.64006
-1.92509
-2.2549
-2.6585
-3.16007
-3.76574
-4.46383
-5.23841
-6.07919
-6.98477
-7.96224
-9.02614
-10.198
-11.507
-12.9913
-14.6984
-16.6837
-19.0026
-21.6985
-24.794
-28.2848
-32.1238
-36.2
-40.328
3.11436
2.75863
2.41908
2.11469
1.85266
1.63231
1.44921
1.29781
1.17277
1.06952
0.984374
0.914431
0.857475
0.811851
0.776368
0.75022
0.732943
0.724387
0.724715
0.734424
0.754385
0.785907
0.830817
0.891532
0.971082
1.07298
1.2007
1.35643
1.53844
1.73676
1.92808
2.07491
2.14117
2.13019
2.08485
2.04973
2.05547
2.11871
2.24503
2.42866
2.64744
2.85488
2.97925
2.95099
2.76971
2.50425
2.22578
1.98061
1.79174
1.66776
1.60984
1.61437
1.67133
1.75856
1.83419
1.8353
1.70104
1.42955
1.07789
0.704992
0.348454
0.0258709
-0.25736
-0.501644
-0.709919
-0.887361
-1.04391
-1.19956
-1.39092
-1.67249
-2.09776
-2.67244
-3.35473
-4.10255
-4.89299
-5.72172
-6.59727
-7.53675
-8.56463
-9.71447
-11.0332
-12.5868
-14.4628
-16.7597
-19.5561
-22.9033
-26.8343
-31.3356
-36.2864
-41.3967
3.16259
2.69892
2.27408
1.91652
1.62826
1.39986
1.21941
1.07624
0.961867
0.869888
0.795606
0.735604
0.687417
0.649289
0.62
0.598757
0.585125
0.578995
0.580591
0.590497
0.60974
0.639906
0.683322
0.743316
0.824533
0.933261
1.07752
1.26629
1.50631
1.79372
2.09715
2.33667
2.39835
2.28639
2.12357
2.00001
1.95941
2.0204
2.1921
2.47694
2.85888
3.27432
3.57454
3.55078
3.20239
2.73681
2.30129
1.95792
1.72145
1.58979
1.55903
1.62788
1.79424
2.04235
2.3166
2.48909
2.38073
1.9897
1.49132
1.00928
0.594307
0.256282
-0.00982457
-0.210858
-0.350586
-0.42953
-0.449109
-0.42267
-0.397108
-0.479623
-0.820342
-1.42423
-2.15131
-2.90533
-3.65164
-4.39126
-5.14023
-5.92005
-6.75563
-7.67867
-8.73685
-10.0109
-11.636
-13.7973
-16.6203
-20.172
-24.5623
-29.8998
-36.1429
-42.8639
3.24562
2.58322
2.0321
1.61844
1.31752
1.09821
0.935833
0.813158
0.718673
0.644737
0.586242
0.539733
0.502848
0.473972
0.452022
0.43631
0.426478
0.422456
0.424474
0.433101
0.449342
0.474796
0.511927
0.564508
0.638333
0.742335
0.890212
1.10229
1.40589
1.82754
2.35816
2.85445
2.9055
2.51573
2.10566
1.83073
1.71696
1.76256
1.97617
2.38525
3.02197
3.85955
4.63624
4.61789
3.80369
2.92594
2.24399
1.78115
1.50012
1.36643
1.36471
1.50088
1.79936
2.28839
2.94543
3.54718
3.46736
2.70436
1.88109
1.21688
0.729261
0.383053
0.14394
-0.00840676
-0.0788352
-0.0572399
0.0793655
0.355414
0.752258
1.08498
0.835961
0.00133988
-0.90918
-1.71926
-2.41997
-3.04736
-3.6388
-4.22305
-4.82067
-5.44825
-6.12967
-6.92942
-8.03696
-9.88221
-12.6352
-16.233
-20.926
-27.1599
-35.3107
-44.998
3.40096
2.30712
1.59202
1.15802
0.889241
0.71458
0.595055
0.509447
0.445856
0.397322
0.359596
0.329983
0.306726
0.288665
0.275039
0.26538
0.259446
0.257202
0.258821
0.264725
0.27566
0.292851
0.318262
0.355085
0.408651
0.4882
0.610411
0.806456
1.1354
1.7044
2.66849
4.01326
4.04732
2.77418
1.89309
1.42931
1.24495
1.26271
1.47866
1.96567
2.89572
4.53231
6.8426
6.83085
4.49632
2.83301
1.87111
1.34254
1.06655
0.952956
0.971748
1.14009
1.52997
2.29241
3.65375
5.58658
5.5376
3.50568
2.04171
1.17016
0.660537
0.355563
0.172715
0.0760367
0.0603549
0.149385
0.406984
0.95948
1.99386
3.48719
3.33542
1.5361
0.188248
-0.69068
-1.29392
-1.75524
-2.14772
-2.5068
-2.84259
-3.14029
-3.35208
-3.40473
-3.37563
-4.65996
-7.43338
-10.7167
-15.071
-21.6592
-32.2661
-48.3672
3.71693
1.48562
0.747138
0.459604
0.325387
0.251521
0.205413
0.17401
0.151339
0.13433
0.121254
0.111066
0.103109
0.0969572
0.0923348
0.0890744
0.0870912
0.0863743
0.0869888
0.0890905
0.0929583
0.0990562
0.10815
0.121537
0.141536
0.172612
0.224261
0.31922
0.519173
1.01225
2.43056
7.05934
7.07135
2.46795
1.07953
0.625456
0.481823
0.477427
0.590772
0.908028
1.75194
4.23475
12.3924
12.3883
4.22224
1.72991
0.874153
0.540142
0.39909
0.348801
0.363392
0.460212
0.724066
1.43389
3.53899
10.4796
10.463
3.48901
1.34916
0.602171
0.297077
0.152174
0.0773727
0.0438151
0.0487279
0.113236
0.309904
0.869562
2.57447
8.25815
8.20716
2.42065
0.61035
-0.0591455
-0.372234
-0.562265
-0.704771
-0.824077
-0.919379
-0.956034
-0.803673
0.00218827
3.17696
2.70653
-1.49728
-3.65838
-5.99895
-10.3714
-21.3097
-54.2359
-39.2863
-41.5531
-43.7088
-45.7296
-47.5971
-49.2982
-50.8246
-52.1727
-53.3418
-54.3339
-55.1522
-55.8006
-56.2829
-56.6024
-56.7615
-39.3689
-41.6639
-43.8433
-45.8827
-47.7633
-49.4724
-51.0027
-52.3512
-53.5185
-54.5073
-55.3217
-55.9663
-56.4453
-56.7624
-56.9203
-39.5371
-41.8899
-44.1176
-46.1941
-48.1006
-49.8252
-51.3622
-52.7107
-53.8734
-54.8548
-55.6608
-56.2971
-56.7692
-57.0813
-57.2366
-39.7977
-42.2408
-44.5429
-46.6754
-48.6195
-50.3652
-51.9098
-53.2557
-54.409
-55.3774
-56.169
-56.7918
-57.2526
-57.5566
-57.7077
-40.162
-42.7326
-45.1374
-47.3447
-49.3365
-51.1061
-52.6556
-53.993
-55.1292
-56.0763
-56.8458
-57.4482
-57.8923
-58.1846
-58.3296
-40.6475
-43.39
-45.929
-48.2294
-50.2753
-52.0666
-53.6133
-54.9312
-56.0383
-56.9523
-57.6893
-58.2627
-58.6833
-58.9594
-59.0961
-41.2813
-44.2505
-46.9589
-49.3681
-51.4686
-53.2715
-54.7994
-56.0798
-57.1401
-58.0051
-58.6959
-59.2294
-59.6187
-59.8731
-59.9989
-42.1055
-45.3715
-48.2877
-50.8152
-52.9592
-54.7509
-56.2327
-57.4482
-58.4369
-59.2318
-59.8594
-60.3399
-60.6884
-60.9152
-61.027
-43.1868
-46.8422
-50.0047
-52.6457
-54.8018
-56.5397
-57.9318
-59.043
-59.927
-60.6255
-61.1696
-61.5822
-61.8793
-62.0718
-62.1664
-44.6372
-48.8056
-52.2427
-54.9605
-57.0621
-58.674
-59.9111
-60.8646
-61.6024
-62.1732
-62.6111
-62.9396
-63.1744
-63.3259
-63.4001
-46.656
-51.4997
-55.1998
-57.8913
-59.8118
-61.1828
-62.1736
-62.9013
-63.4443
-63.8534
-64.1617
-64.3902
-64.5524
-64.6567
-64.7077
-49.6309
-55.3373
-59.1653
-61.5926
-63.1105
-64.0718
-64.6986
-65.1223
-65.4194
-65.634
-65.7916
-65.9068
-65.9881
-66.0402
-66.0658
-54.4084
-61.0527
-64.5309
-66.2028
-66.9653
-67.295
-67.4261
-67.4695
-67.4767
-67.4713
-67.4634
-67.4569
-67.4525
-67.45
-67.4489
-63.1365
-69.9339
-71.7025
-71.722
-71.2524
-70.7166
-70.2409
-69.8521
-69.5459
-69.3106
-69.1336
-69.0044
-68.9145
-68.8579
-68.8305
-82.3047
-83.8435
-80.6228
-77.7295
-75.6052
-74.0779
-72.9685
-72.1513
-71.5438
-71.091
-70.7556
-70.5121
-70.3429
-70.236
-70.1843
6.11877
6.10689
6.08325
6.04814
6.00215
5.94634
5.88271
5.81484
5.74929
5.69813
5.68406
5.75242
6.00633
6.74127
9.07738
6.28825
6.27619
6.25213
6.21622
6.16881
6.11063
6.04317
5.96937
5.89505
5.83157
5.80108
5.84635
6.04833
6.54386
7.42097
6.46594
6.45366
6.42908
6.39213
6.3428
6.28121
6.20785
6.12407
6.03308
5.94195
5.86537
5.83135
5.88625
6.08124
6.37599
6.65197
6.63951
6.61445
6.57648
6.52515
6.45981
6.37961
6.28359
6.171
6.04207
5.89998
5.75444
5.62672
5.54917
5.53801
6.84648
6.83394
6.80861
6.76995
6.71708
6.64856
6.56216
6.45443
6.32006
6.15118
5.93686
5.66499
5.33218
4.97086
4.69463
7.04951
7.03706
7.01184
6.97314
6.91972
6.84956
6.75934
6.64354
6.49291
6.2917
6.01354
5.61772
5.05729
4.33329
3.6618
7.26099
7.24887
7.22427
7.18638
7.13383
7.06432
6.97407
6.85663
6.7007
6.48553
6.17175
5.6846
4.89587
3.6591
2.16506
7.4807
7.46916
7.44574
7.40964
7.35954
7.2933
7.20745
7.0962
6.94943
6.74775
6.45014
5.96075
5.04549
3.16344
-0.366762
7.7082
7.69751
7.67582
7.64245
7.5963
7.53572
7.45823
7.36019
7.23607
7.07652
6.8615
6.53246
5.86642
3.81218
-5.3476
7.94292
7.9333
7.91382
7.88395
7.84292
7.78968
7.72303
7.642
7.54711
7.44373
7.35181
7.33798
7.65127
9.39517
18.3622
8.1841
8.17573
8.15883
8.13303
8.09785
8.05277
7.99758
7.93315
7.86378
7.80291
7.78766
7.9161
8.44248
9.96183
13.2531
8.43085
8.42388
8.40981
8.38843
8.35947
8.3227
8.27828
8.22743
8.17431
8.13032
8.12348
8.21762
8.54395
9.29769
10.4326
8.68222
8.67673
8.66567
8.64892
8.62632
8.59775
8.56318
8.52296
8.47824
8.43181
8.38895
8.35762
8.34842
8.36852
8.40356
8.93717
8.9332
8.92525
8.91326
8.89714
8.87675
8.85175
8.82129
8.78308
8.73072
8.64617
8.482
8.13234
7.42871
6.40203
9.19462
9.19221
9.18743
9.18027
9.17074
9.15873
9.14382
9.12466
9.09749
9.05185
8.95839
8.73493
8.16192
6.71299
3.69082
9.45347
9.45264
9.45102
9.44871
9.44585
9.44251
9.43855
9.43326
9.42444
9.4061
9.3606
9.23033
8.7996
7.08956
-1.11577
9.71265
9.71335
9.71485
9.71733
9.72109
9.72649
9.73392
9.74393
9.75771
9.77909
9.82138
9.93408
10.3255
11.9765
20.1262
9.97108
9.97326
9.97775
9.98485
9.99499
10.0088
10.0272
10.0516
10.0854
10.1375
10.2329
10.444
10.9766
12.3499
15.2883
10.2277
10.2313
10.2386
10.25
10.2661
10.2877
10.3159
10.3524
10.4001
10.4656
10.5639
10.7302
11.0435
11.6362
12.4949
10.4816
10.4864
10.4963
10.5117
10.5332
10.5618
10.5986
10.6449
10.7021
10.7708
10.8474
10.914
10.9162
10.7374
10.3016
10.7318
10.7378
10.75
10.7689
10.7952
10.83
10.8743
10.9294
10.9958
11.0703
11.1376
11.142
10.9144
10.0167
7.80983
10.9776
10.9846
10.9988
11.0207
11.0511
11.0912
11.1422
11.2058
11.2834
11.3747
11.4712
11.5309
11.3776
10.2049
3.78956
11.2182
11.226
11.2419
11.2663
11.3002
11.3445
11.401
11.472
11.5611
11.6754
11.83
12.0672
12.5485
14.0334
20.6511
11.4531
11.4616
11.4788
11.5052
11.5416
11.5891
11.6494
11.7251
11.821
11.948
12.1311
12.4336
13.0223
14.2971
16.78
11.6817
11.6907
11.709
11.7369
11.7751
11.8246
11.8867
11.9636
12.0591
12.1814
12.3489
12.6009
13.0192
13.7213
14.6377
11.9038
11.9132
11.9322
11.9612
12.0005
12.051
12.1134
12.1887
12.278
12.3834
12.5075
12.6524
12.8188
12.9962
13.1365
12.119
12.1287
12.1483
12.1779
12.218
12.2689
12.3308
12.4035
12.4855
12.5723
12.6513
12.6886
12.6104
12.2964
11.7373
12.3271
12.337
12.357
12.3871
12.4277
12.4788
12.5403
12.6114
12.6892
12.7666
12.8236
12.8046
12.5655
11.7664
9.95461
12.5279
12.538
12.5583
12.5889
12.6298
12.6812
12.7428
12.814
12.8928
12.975
13.0481
13.073
12.9094
11.9391
6.91844
12.7214
12.7317
12.7522
12.7831
12.8244
12.8762
12.9383
13.0108
13.0938
13.1894
13.3057
13.472
13.8131
14.9242
20.0194
12.9075
12.9178
12.9386
12.9698
13.0115
13.0636
13.1262
13.1997
13.2855
13.3894
13.5283
13.7491
14.1819
15.1421
17.0447
13.0859
13.0964
13.1174
13.149
13.191
13.2434
13.3062
13.3795
13.4643
13.5649
13.6934
13.8787
14.1842
14.705
15.3964
13.2567
13.2674
13.2887
13.3206
13.363
13.4157
13.4785
13.5507
13.6317
13.721
13.8187
13.9242
14.0365
14.149
14.2333
13.4198
13.4306
13.4522
13.4845
13.5275
13.5808
13.6438
13.7153
13.7928
13.8711
13.9382
13.9647
13.8886
13.612
13.1339
13.5749
13.5859
13.6079
13.6408
13.6846
13.7388
13.8028
13.8752
13.9528
14.0288
14.0855
14.0759
13.8795
13.2146
11.7077
13.722
13.7333
13.7557
13.7893
13.8341
13.8896
13.9556
14.0309
14.1136
14.1997
14.2784
14.3163
14.1955
13.4014
9.2402
13.861
13.8725
13.8954
13.9298
13.9757
14.0329
14.1014
14.1809
14.2717
14.3756
14.4993
14.6664
14.9788
15.926
20.1689
13.9916
14.0033
14.0268
14.0621
14.1092
14.1681
14.2391
14.3225
14.4202
14.5375
14.6895
14.9153
15.3208
16.1615
17.7689
14.1136
14.1256
14.1497
14.1858
14.2341
14.2946
14.3676
14.4536
14.5545
14.6753
14.8281
15.0388
15.3603
15.8641
16.4905
14.2269
14.2392
14.2638
14.3008
14.3503
14.4122
14.4866
14.5739
14.6746
14.7907
14.9259
15.0851
15.2728
15.4811
15.6526
14.3312
14.3438
14.369
14.4069
14.4574
14.5206
14.5963
14.6842
14.7835
14.8926
15.0067
15.1109
15.1706
15.1233
14.9393
14.4264
14.4393
14.4651
14.5038
14.5555
14.62
14.6971
14.786
14.8851
14.9909
15.0939
15.1672
15.1424
14.8599
14.1037
14.5122
14.5254
14.5518
14.5915
14.6443
14.7103
14.7892
14.8801
14.9817
15.091
15.2013
15.2912
15.2929
14.925
12.7486
14.5884
14.6019
14.629
14.6696
14.7237
14.7914
14.8724
14.9662
15.0723
15.1904
15.3222
15.476
15.6997
16.2454
18.5154
14.6549
14.6687
14.6964
14.7379
14.7934
14.8629
14.9462
15.0432
15.154
15.2802
15.4273
15.6116
15.8827
16.3679
17.2367
14.7113
14.7254
14.7537
14.7963
14.8532
14.9244
15.0101
15.11
15.2246
15.3552
15.5062
15.6866
15.9166
16.2234
16.5671
14.7575
14.772
14.8009
14.8444
14.9026
14.9756
15.0635
15.1661
15.2835
15.416
15.5642
15.7265
15.8968
16.0528
16.1419
14.7933
14.808
14.8375
14.8819
14.9413
15.0161
15.1061
15.2113
15.3315
15.4658
15.6119
15.7604
15.8866
15.9281
15.7844
14.8184
14.8334
14.8634
14.9086
14.9692
15.0455
15.1377
15.2456
15.3691
15.5072
15.6573
15.8094
15.9348
15.9314
15.333
14.8328
14.8479
14.8784
14.9243
14.9859
15.0637
15.1578
15.2685
15.396
15.5402
15.7009
15.8764
16.0722
16.3475
17.1033
14.8362
14.8515
14.8822
14.9287
14.9911
15.07
15.1659
15.2792
15.4107
15.5615
15.7336
15.9288
16.1541
16.4293
16.7728
14.8285
14.8439
14.8748
14.9216
14.9845
15.0643
15.1614
15.2767
15.4115
15.568
15.7497
15.9599
16.2009
16.4632
16.6868
14.8097
14.8251
14.8561
14.9029
14.966
15.046
15.1437
15.2601
15.3967
15.5568
15.7455
15.969
16.2325
16.5235
16.7619
14.7798
14.7951
14.826
14.8726
14.9354
15.0152
15.1126
15.2287
15.3652
15.5256
15.7167
15.9498
16.2448
16.6197
17.0084
14.7388
14.754
14.7845
14.8306
14.8928
14.9717
15.068
15.1825
15.3165
15.4729
15.6582
15.8871
16.2014
16.7057
17.5309
14.6869
14.7018
14.7318
14.7771
14.8383
14.9158
15.0102
15.1221
15.2518
15.4001
15.569
15.7645
16.0256
16.5683
18.6323
14.6242
14.6388
14.668
14.7123
14.772
14.8478
14.9399
15.0487
15.1736
15.3129
15.4606
15.596
15.6539
15.374
13.457
14.551
14.5651
14.5935
14.6364
14.6944
14.7679
14.8575
14.9634
15.0849
15.2199
15.3602
15.4807
15.5164
15.316
14.6723
14.4675
14.4811
14.5084
14.5498
14.6056
14.6766
14.7634
14.8665
14.9864
15.1229
15.2731
15.4239
15.5425
15.5653
15.4464
14.3742
14.3872
14.4132
14.4527
14.5061
14.574
14.6574
14.7574
14.8759
15.0164
15.185
15.3889
15.6349
15.9125
16.1437
14.2715
14.2838
14.3084
14.3456
14.3961
14.4603
14.5394
14.6348
14.7495
14.8903
15.0719
15.324
15.705
16.2914
17.0075
14.1599
14.1713
14.1943
14.2291
14.2761
14.336
14.4096
14.4981
14.6045
14.7358
14.9094
15.1691
15.6322
16.5797
18.3743
14.04
14.0505
14.0717
14.1037
14.147
14.2019
14.2688
14.3485
14.4418
14.5517
14.6864
14.8725
15.2227
16.2792
20.9932
13.9123
13.9219
13.9411
13.9703
14.0095
14.059
14.1188
14.1887
14.267
14.3503
14.4273
14.4615
14.3223
13.4381
8.81773
13.7775
13.7861
13.8034
13.8294
13.8645
13.9085
13.9615
14.0223
14.0884
14.153
14.1975
14.1705
13.939
13.1911
11.5131
13.6364
13.644
13.6592
13.6821
13.7129
13.7516
13.7981
13.8517
13.9104
13.9695
14.0169
14.0209
13.9141
13.5896
13.0487
13.4896
13.4961
13.5092
13.5289
13.5554
13.5889
13.6293
13.6769
13.7315
13.7941
13.8659
13.9477
14.0401
14.1379
14.2142
13.3379
13.3434
13.3543
13.3708
13.3929
13.421
13.4552
13.4965
13.5468
13.6121
13.7075
13.8667
14.1619
14.7006
15.4383
13.182
13.1864
13.1951
13.2083
13.226
13.2484
13.2758
13.3092
13.3511
13.4092
13.5043
13.6907
14.1144
15.1247
17.1801
13.0227
13.026
13.0326
13.0424
13.0555
13.072
13.0918
13.1154
13.1437
13.1805
13.2372
13.3495
13.6592
14.8226
20.3547
12.8607
12.8629
12.8674
12.8739
12.8824
12.8929
12.9048
12.9176
12.9298
12.9379
12.9311
12.8708
12.6107
11.4863
5.97053
12.6968
12.698
12.7003
12.7037
12.7078
12.7124
12.7168
12.7197
12.7184
12.7056
12.6617
12.5304
12.1621
11.1991
9.16722
12.5316
12.5319
12.5323
12.5326
12.5325
12.5317
12.5293
12.5243
12.5144
12.4947
12.4525
12.3541
12.1262
11.6538
10.9581
12.3659
12.3653
12.3639
12.3614
12.3575
12.3517
12.3432
12.3316
12.3167
12.2994
12.2819
12.2673
12.2598
12.263
12.2712
12.2002
12.1989
12.1959
12.191
12.1836
12.1731
12.1589
12.1407
12.1203
12.104
12.109
12.1749
12.3858
12.8682
13.5952
12.0352
12.0332
12.029
12.022
12.0116
11.9969
11.9768
11.9508
11.9206
11.8937
11.8933
11.9816
12.3228
13.3032
15.4293
11.8711
11.8687
11.8636
11.8551
11.8424
11.824
11.7983
11.7634
11.7182
11.6649
11.6155
11.6121
11.8157
12.9422
18.7448
11.7083
11.7057
11.7001
11.6909
11.6768
11.656
11.6258
11.5825
11.5209
11.4333
11.3055
11.0983
10.6674
9.33338
3.39569
11.5469
11.5444
11.5389
11.5298
11.5155
11.4941
11.462
11.4139
11.3412
11.2294
11.0502
10.7396
10.1459
8.92114
6.62758
11.387
11.3848
11.38
11.3719
11.359
11.3393
11.3088
11.2617
11.1883
11.0723
10.8856
10.5769
10.0625
9.25072
8.27161
11.2282
11.2266
11.223
11.217
11.2071
11.1915
11.1668
11.1274
11.0645
10.9642
10.8054
10.5567
10.1854
9.69606
9.2406
11.0702
11.0694
11.0676
11.0644
11.0589
11.0498
11.0345
11.0089
10.9662
10.8967
10.7871
10.6211
10.39
10.1175
9.89815
10.9123
10.9125
10.9128
10.913
10.913
10.9121
10.9091
10.9016
10.886
10.8569
10.8077
10.7304
10.6232
10.5014
10.4082
10.7541
10.7552
10.7576
10.7616
10.7675
10.7757
10.7863
10.7995
10.8147
10.8311
10.8473
10.86
10.8663
10.8651
10.8585
10.5946
10.5967
10.6011
10.6086
10.6201
10.6371
10.6614
10.6955
10.7422
10.8053
10.8889
10.9936
11.1143
11.2321
11.3089
10.4335
10.4362
10.4422
10.4525
10.4687
10.4932
10.5294
10.5821
10.6578
10.7653
10.9153
11.1157
11.364
11.6273
11.8174
10.27
10.2732
10.2801
10.292
10.3112
10.3408
10.3855
10.4522
10.5508
10.6957
10.9063
11.2042
11.6029
12.0727
12.4627
10.1041
10.1072
10.1141
10.1263
10.1462
10.1776
10.226
10.2998
10.4113
10.5803
10.8364
11.2222
11.7922
12.5732
13.3837
9.93561
9.93822
9.94416
9.95493
9.97303
10.0023
10.0486
10.1205
10.2316
10.4042
10.6759
11.112
11.8345
13.0527
14.8722
9.76502
9.76666
9.77058
9.7782
9.79183
9.81498
9.8529
9.91343
10.0088
10.1594
10.4007
10.8023
11.5325
13.1139
17.6291
-135.942
-100.956
-88.4995
-82.5305
-79.0474
-76.7761
-75.2002
-74.0662
-73.2329
-72.6149
-72.1579
-71.8258
-71.5946
-71.4483
-71.3774
-115.095
-100.867
-91.1544
-85.1684
-81.3346
-78.7458
-76.9218
-75.5976
-74.6184
-73.8883
-73.3457
-72.9498
-72.6731
-72.4977
-72.4125
-104.132
-97.6429
-91.2208
-86.311
-82.757
-80.1843
-78.2959
-76.8891
-75.8303
-75.031
-74.4314
-73.9907
-73.6811
-73.484
-73.3881
-97.6821
-94.3711
-90.2367
-86.5115
-83.4974
-81.1476
-79.3351
-77.9383
-76.8617
-76.0348
-75.4065
-74.9404
-74.6106
-74.3997
-74.2968
-93.5365
-91.6706
-88.9681
-86.2177
-83.7759
-81.7376
-80.0851
-78.7646
-77.7192
-76.9002
-76.2687
-75.795
-75.4572
-75.24
-75.1337
-90.692
-89.5508
-87.7322
-85.7091
-83.7739
-82.0596
-80.6042
-79.3992
-78.4191
-77.6351
-77.0211
-76.555
-76.2197
-76.0029
-75.8964
-88.6453
-87.9009
-86.6381
-85.139
-83.618
-82.2016
-80.9489
-79.8771
-78.9823
-78.2518
-77.6704
-77.2237
-76.8996
-76.6887
-76.5849
-87.1208
-86.6107
-85.7077
-84.5835
-83.389
-82.2297
-81.1675
-80.2315
-79.4309
-78.7644
-78.2259
-77.8071
-77.5006
-77.3
-77.2008
-85.9561
-85.593
-84.9305
-84.0762
-83.1351
-82.1903
-81.2982
-80.4913
-79.7859
-79.188
-78.6978
-78.3123
-78.0278
-77.8404
-77.7474
-85.0488
-84.7828
-84.2863
-83.6286
-82.8833
-82.1142
-81.3692
-80.6801
-80.0657
-79.5364
-79.0966
-78.7471
-78.4871
-78.3148
-78.2291
-84.3315
-84.1324
-83.7536
-83.2414
-82.6477
-82.021
-81.4011
-80.8163
-80.286
-79.8224
-79.4325
-79.1196
-78.885
-78.7289
-78.6509
-83.758
-83.6064
-83.3132
-82.9102
-82.4345
-81.9231
-81.4081
-80.9142
-80.4595
-80.0569
-79.7145
-79.4373
-79.2281
-79.0882
-79.0182
-83.2952
-83.1783
-82.9487
-82.6288
-82.2457
-81.8275
-81.4
-80.9842
-80.5964
-80.2491
-79.9509
-79.7076
-79.5228
-79.3987
-79.3364
-82.9189
-82.828
-82.6466
-82.3909
-82.0809
-81.7381
-81.3834
-81.0342
-80.7048
-80.4069
-80.1488
-79.9369
-79.775
-79.6658
-79.6109
-82.6113
-82.5401
-82.3958
-82.1903
-81.9383
-81.6569
-81.3625
-81.0698
-80.791
-80.5365
-80.3145
-80.131
-79.9902
-79.895
-79.8469
-82.3585
-82.3026
-82.1872
-82.0212
-81.8159
-81.5844
-81.3402
-81.0951
-80.8597
-80.6433
-80.4532
-80.2953
-80.1735
-80.0909
-80.0492
-82.1499
-82.106
-82.0134
-81.879
-81.7113
-81.5206
-81.318
-81.1131
-80.9148
-80.7313
-80.5693
-80.434
-80.3293
-80.2581
-80.2221
-81.9772
-81.9428
-81.8685
-81.7593
-81.6221
-81.465
-81.2969
-81.1258
-80.9593
-80.8042
-80.6665
-80.5511
-80.4615
-80.4005
-80.3695
-81.8338
-81.807
-81.7473
-81.6587
-81.5463
-81.4168
-81.2775
-81.1349
-80.9952
-80.8645
-80.748
-80.6499
-80.5737
-80.5215
-80.495
-81.7143
-81.6937
-81.6459
-81.5739
-81.482
-81.3754
-81.26
-81.1413
-81.0245
-80.9146
-80.8163
-80.7334
-80.6686
-80.6243
-80.6018
-81.6146
-81.599
-81.5608
-81.5026
-81.4274
-81.3397
-81.2445
-81.1459
-81.0484
-80.9564
-80.8737
-80.8038
-80.7491
-80.7116
-80.6926
-81.5311
-81.5196
-81.4894
-81.4424
-81.3812
-81.3093
-81.2308
-81.1492
-81.0681
-80.9912
-80.922
-80.8633
-80.8173
-80.7857
-80.7697
-81.461
-81.4529
-81.4292
-81.3916
-81.3419
-81.2832
-81.2188
-81.1515
-81.0843
-81.0204
-80.9627
-80.9136
-80.8751
-80.8487
-80.8352
-81.402
-81.3967
-81.3784
-81.3485
-81.3086
-81.2609
-81.2083
-81.1532
-81.0978
-81.045
-80.9971
-80.9563
-80.9243
-80.9022
-80.891
-81.352
-81.349
-81.3353
-81.312
-81.2802
-81.2418
-81.1993
-81.1544
-81.1091
-81.0657
-81.0263
-80.9926
-80.9661