/*--------------------------------*- C++ -*----------------------------------*\
| =========                 |                                                 |
| \\      /  F ield         | OpenFOAM: The Open Source CFD Toolbox           |
|  \\    /   O peration     | Version:  5.x                                   |
|   \\  /    A nd           | Web:      www.OpenFOAM.org                      |
|    \\/     M anipulation  |                                                 |
\*---------------------------------------------------------------------------*/
FoamFile
{
    version     2.0;
    format      ascii;
    class       volScalarField;
    location    "0.5";
    object      gradTy;
}
// * * * * * * * * * * * * * * * * * * * * * * * * * * * * * * * * * * * * * //

dimensions      [0 -1 0 1 0 0 0];

internalField   nonuniform List<scalar> 
3200
(
119.768
-79.9021
-33.5139
-29.7352
-10.7897
-19.1216
-2.90089
-12.2842
0.0860317
-8.148
1.33063
-4.79306
-0.123366
-5.2071
2.19326
-4.61007
7.95485
1.15593
7.33881
2.84835
6.8921
3.86721
6.67777
4.79891
6.21734
5.02874
6.47085
5.55651
6.79985
6.27149
6.65125
6.55568
6.53678
6.63684
6.69765
7.14455
6.15538
6.89453
6.20407
6.87141
6.20986
6.87679
6.14301
6.8252
6.22127
6.82342
6.29935
6.76097
6.54689
7.03091
6.24399
6.76021
6.26542
6.61693
6.41224
6.71793
6.26057
6.53175
6.34867
6.532
6.35768
6.52144
6.31875
6.41916
6.38882
6.34123
6.51994
6.25266
6.62442
5.97038
6.8344
5.52635
7.07897
5.57217
5.29367
3.74062
1.43535
0.466281
0.179835
0.110146
94.3419
-56.3474
-31.7906
-27.3586
-12.6787
-16.9291
-5.04743
-10.4869
-1.75296
-6.73668
-0.161002
-3.99484
-0.959405
-4.10177
1.16015
-2.83227
6.18003
2.10009
6.30507
3.48396
6.20012
4.2961
6.20482
5.02266
5.96743
5.23342
6.2564
5.72109
6.62083
6.31636
6.58992
6.54163
6.54374
6.62382
6.69745
6.98539
6.30342
6.77258
6.32944
6.76049
6.32135
6.74947
6.27029
6.71557
6.33469
6.73103
6.39799
6.70858
6.59904
6.91063
6.36368
6.68319
6.34977
6.57697
6.4548
6.6495
6.33119
6.50083
6.38395
6.5029
6.38845
6.49168
6.35195
6.41568
6.39914
6.37269
6.4982
6.32763
6.56587
6.13951
6.69238
5.82667
6.78757
5.69192
5.1768
3.77125
1.38243
0.43949
0.171665
0.107815
74.9439
-39.8016
-29.2611
-25.3905
-13.8089
-15.38
-6.49914
-9.25456
-3.04119
-5.78572
-1.23432
-3.46954
-1.54657
-3.33091
0.498833
-1.57312
4.93037
2.71423
5.55362
3.89921
5.69395
4.57339
5.85631
5.16205
5.78532
5.36842
6.10482
5.82877
6.49045
6.33853
6.54186
6.52592
6.54792
6.61137
6.68897
6.86532
6.4057
6.68738
6.42012
6.68464
6.39843
6.65871
6.36086
6.63927
6.4173
6.66811
6.47118
6.67331
6.63468
6.82502
6.44906
6.63264
6.41205
6.55137
6.48506
6.60198
6.38269
6.48178
6.4102
6.48355
6.41093
6.47206
6.37746
6.41586
6.41031
6.39852
6.48876
6.3867
6.53435
6.26994
6.60756
6.05438
6.5789
5.78896
5.09606
3.84173
1.27219
0.386189
0.155815
0.103326
60.1365
-28.2664
-26.4637
-23.7295
-14.4115
-14.2473
-7.48368
-8.37917
-3.96934
-5.12488
-2.03451
-3.109
-1.98393
-2.78318
0.0749605
-0.655676
4.03074
3.1273
4.98298
4.17744
5.30524
4.75528
5.58756
5.24935
5.64537
5.45779
5.99421
5.89936
6.393
6.34685
6.5029
6.509
6.55073
6.59862
6.6768
6.77093
6.47855
6.62436
6.48975
6.63104
6.45388
6.59052
6.42862
6.58323
6.48126
6.62336
6.52868
6.64795
6.66144
6.76236
6.51235
6.59856
6.46024
6.5343
6.50833
6.56825
6.4218
6.4699
6.43101
6.4704
6.42843
6.45905
6.39802
6.41818
6.42211
6.42066
6.48741
6.43617
6.51972
6.37667
6.55876
6.23939
6.42322
5.88253
5.03822
3.96527
1.09505
0.307083
0.133254
0.0970355
48.8656
-20.3387
-23.7028
-22.331
-14.647
-13.3775
-8.16071
-7.71483
-4.67373
-4.63275
-2.66703
-2.8354
-2.34333
-2.38081
-0.204455
0.0459555
3.35551
3.43076
4.51947
4.37896
4.98419
4.88238
5.36606
5.30767
5.52913
5.51853
5.90914
5.94669
6.31739
6.34731
6.47015
6.49086
6.55348
6.58484
6.66416
6.69216
6.53403
6.57272
6.54849
6.59034
6.49692
6.53442
6.48389
6.53762
6.53562
6.58826
6.5778
6.627
6.6849
6.71392
6.56239
6.57367
6.50014
6.52145
6.52837
6.54299
6.45335
6.46174
6.44893
6.46074
6.44328
6.44995
6.41559
6.4214
6.43438
6.44033
6.49103
6.48052
6.51441
6.47066
6.53029
6.40454
6.2968
5.98854
4.98982
4.16099
0.834906
0.203691
0.105454
0.089469
40.3632
-15.0444
-21.1311
-21.1847
-14.6255
-12.6653
-8.64646
-7.15385
-5.25767
-4.2172
-3.21379
-2.58784
-2.6812
-2.06664
-0.406502
0.625534
2.80996
3.69395
4.10537
4.55085
4.69162
4.98623
5.16641
5.35494
5.42229
5.56333
5.83831
5.98079
6.25551
6.34414
6.44156
6.47112
6.55754
6.5692
6.65364
6.62089
6.5817
6.52364
6.60465
6.5551
6.53479
6.48191
6.53504
6.49429
6.58786
6.55574
6.6246
6.60577
6.70958
6.67278
6.606
6.55224
6.53633
6.50926
6.54819
6.52198
6.48107
6.45451
6.46596
6.45235
6.45725
6.44259
6.43164
6.42444
6.44702
6.4583
6.4972
6.52318
6.5123
6.56062
6.50933
6.56907
6.1785
6.12227
4.93474
4.45672
0.46707
0.0790821
0.0744577
0.0812992
34.077
-11.7231
-18.8009
-20.303
-14.4203
-12.0356
-9.03148
-6.60934
-5.80773
-3.8005
-3.74579
-2.31183
-3.04768
-1.79458
-0.583699
1.15875
2.31617
3.9758
3.68969
4.73474
4.39271
5.0945
4.96627
5.40693
5.31239
5.60267
5.77268
6.00952
6.20098
6.34055
6.41562
6.44904
6.56454
6.5506
6.64775
6.54983
6.63007
6.46896
6.66599
6.51865
6.57392
6.42511
6.5899
6.44555
6.64507
6.51914
6.67486
6.57959
6.73983
6.63279
6.64903
6.52925
6.57292
6.49437
6.57056
6.50151
6.50815
6.4457
6.48391
6.44315
6.47193
6.43501
6.44748
6.42621
6.46005
6.4751
6.50381
6.56724
6.50775
6.65448
6.48385
6.75153
6.04676
6.30118
4.8512
4.89282
-0.0449186
-0.0609435
0.04292
0.0733025
29.6225
-9.95112
-16.6943
-19.7175
-14.0759
-11.4316
-9.39423
-6.00107
-6.40708
-3.30674
-4.33396
-1.94999
-3.49463
-1.52171
-0.782999
1.71457
1.80152
4.33477
3.22011
4.97351
4.05151
5.23549
4.74296
5.47994
5.18675
5.64651
5.70408
6.0398
6.1483
6.33931
6.39114
6.42348
6.57654
6.52739
6.64951
6.4715
6.68796
6.39982
6.74096
6.47396
6.62108
6.35562
6.65698
6.38291
6.71516
6.47111
6.735
6.54302
6.7806
6.58769
6.69732
6.49954
6.6142
6.4731
6.59854
6.4778
6.53779
6.43265
6.50482
6.43095
6.48903
6.42523
6.46444
6.42554
6.4736
6.49112
6.5088
6.61599
6.49471
6.7608
6.4406
6.97266
5.8764
6.54801
4.70773
5.52782
-0.754041
-0.20602
0.0140715
0.0662973
26.7504
-9.49322
-14.7375
-19.4797
-13.6131
-10.8049
-9.81283
-5.2425
-7.14834
-2.64951
-5.06015
-1.4325
-4.08373
-1.20085
-1.05397
2.36556
1.18783
4.83854
2.63478
5.31838
3.62526
5.44282
4.46982
5.59358
5.03047
5.70596
5.62392
6.07876
6.09193
6.3433
6.36713
6.3928
6.59636
6.49707
6.66303
6.37716
6.7658
6.30529
6.84005
6.41249
6.68452
6.26324
6.74686
6.29579
6.80807
6.40253
6.81313
6.48901
6.83833
6.53022
6.75763
6.45704
6.66542
6.44086
6.63606
6.44655
6.57371
6.41218
6.53123
6.41313
6.51065
6.41097
6.48416
6.42104
6.488
6.50676
6.50984
6.6735
6.46581
6.89021
6.36289
7.25854
5.63494
6.89492
4.45743
6.44649
-1.73678
-0.33838
-0.00845264
0.0610592
25.3273
-10.2763
-12.8019
-19.6678
-13.0296
-10.1074
-10.3765
-4.22691
-8.14782
-1.71787
-6.02977
-0.665683
-4.89592
-0.772196
-1.45743
3.19891
0.379563
5.57516
1.85274
5.83722
3.0576
5.7609
4.11203
5.77399
4.824
5.79512
5.52176
6.13489
6.02559
6.35597
6.34266
6.35465
6.62795
6.45583
6.69432
6.25555
6.87735
6.17068
6.97737
6.32277
6.77542
6.13439
6.87385
6.16985
6.9374
6.30101
6.92034
6.40775
6.92203
6.45099
6.83872
6.39383
6.7336
6.39147
6.68859
6.40225
6.62079
6.38008
6.56672
6.38627
6.53973
6.38938
6.5089
6.41089
6.50389
6.52259
6.50401
6.74542
6.41117
7.05722
6.22781
7.64473
5.27767
7.38924
4.02955
7.77153
-3.10328
-0.428486
-0.0210323
0.058237
130.306
146.208
59.5868
77.7132
52.1831
49.4835
51.1406
39.4293
47.81
34.5697
43.3961
31.3105
42.3704
32.4814
32.0214
16.93
32.6163
12.3994
28.3405
12.1965
22.6349
11.0751
17.7916
9.70411
14.7712
8.42978
12.1827
5.77116
8.43671
3.06092
3.6107
-0.207491
2.17992
-0.599246
0.343169
-1.65131
-0.703835
-2.29399
-1.91133
-2.75003
-2.75289
-3.05565
-3.35577
-3.34161
-3.69284
-3.5185
-3.88185
-3.66151
-3.74996
-3.40748
-3.95778
-3.49871
-3.93547
-3.56438
-3.64992
-3.26913
-3.73289
-3.34523
-3.50931
-3.18924
-3.50595
-3.30244
-3.33981
-3.48315
-3.04779
-3.81936
-2.54988
-4.51132
-1.2558
-4.8924
-0.0223416
-6.77332
6.90169
-0.864217
7.7193
4.30692
3.67866
3.5368
3.50368
3.49735
129.668
136.481
69.2186
75.9826
54.7471
50.8984
50.0907
41.5153
45.7918
36.5442
41.3824
33.247
40.3531
33.3894
31.3288
20.5109
29.248
15.4428
25.1414
14.2652
20.3889
12.4943
16.2386
10.7114
13.6982
9.34228
11.2765
6.66847
7.50093
3.49191
3.11979
0.328284
1.6044
-0.346102
0.0599799
-1.37308
-0.997296
-2.15877
-2.07599
-2.70617
-2.81785
-3.07396
-3.35
-3.38176
-3.6591
-3.56991
-3.83236
-3.6908
-3.72569
-3.50025
-3.86985
-3.57499
-3.85586
-3.60098
-3.61389
-3.35235
-3.65012
-3.38792
-3.46408
-3.24506
-3.44561
-3.30781
-3.3207
-3.40329
-3.10264
-3.58668
-2.73507
-3.96131
-1.73888
-4.02729
-0.76285
-4.81658
4.98584
0.358274
6.32365
4.1964
3.66022
3.53357
3.50379
3.49822
128.753
129.714
75.8874
75.3716
56.6166
52.1938
49.3543
43.0903
44.3177
37.9587
39.8909
34.5772
38.902
34.1047
30.99
23.3133
26.7851
17.5497
22.7686
15.6571
18.7065
13.4503
15.0588
11.3802
12.9208
10.0049
10.6336
7.34965
6.76015
3.77861
2.7267
0.702271
1.15873
-0.186539
-0.149063
-1.16671
-1.22886
-2.07301
-2.21188
-2.68287
-2.87691
-3.09139
-3.35397
-3.41208
-3.64004
-3.60729
-3.79909
-3.71309
-3.71191
-3.5693
-3.80858
-3.62833
-3.79778
-3.62697
-3.58892
-3.41329
-3.58983
-3.41717
-3.43073
-3.28418
-3.39888
-3.30722
-3.29886
-3.33882
-3.12615
-3.40748
-2.83721
-3.5493
-2.04155
-3.3843
-1.21059
-3.41399
3.64741
1.15744
5.25233
4.02308
3.6264
3.52756
3.50407
3.49983
127.797
125.136
80.4225
75.4901
57.9139
53.4276
48.7573
44.3683
43.1499
39.0445
38.6922
35.5247
37.8187
34.7557
30.8367
25.6729
24.8336
19.0815
20.8919
16.6452
17.3586
14.134
14.0923
11.8419
12.3233
10.5272
10.1486
7.92429
6.11618
3.98914
2.3734
0.977792
0.785803
-0.0817162
-0.315416
-0.998149
-1.42882
-2.01519
-2.33428
-2.6705
-2.93505
-3.10684
-3.36609
-3.4356
-3.63143
-3.63572
-3.77698
-3.73205
-3.70386
-3.62314
-3.76417
-3.66775
-3.75338
-3.64772
-3.56953
-3.46021
-3.54359
-3.43903
-3.40385
-3.3129
-3.36046
-3.30336
-3.27514
-3.28451
-3.12996
-3.2624
-2.88809
-3.22611
-2.23022
-2.88196
-1.48321
-2.38189
2.69123
1.69359
4.39456
3.81721
3.58155
3.51948
3.50454
3.50201
126.946
122.239
83.3655
76.1144
58.6884
54.6702
48.1506
45.5212
42.0995
39.9821
37.608
36.2557
36.9516
35.443
30.7353
27.8616
23.0807
20.3128
19.2594
17.4365
16.1698
14.6916
13.2155
12.1955
11.8179
10.9938
9.73823
8.48311
5.4857
4.17986
2.01186
1.20566
0.440323
-0.00187872
-0.463498
-0.839417
-1.62234
-1.9679
-2.45587
-2.66091
-2.99684
-3.11876
-3.38578
-3.45408
-3.63049
-3.6587
-3.76235
-3.75038
-3.69794
-3.66816
-3.72932
-3.69995
-3.71668
-3.66743
-3.55144
-3.49947
-3.50491
-3.45816
-3.37925
-3.33613
-3.32627
-3.29838
-3.24996
-3.23679
-3.12232
-3.13761
-2.91051
-2.95631
-2.353
-2.46163
-1.6639
-1.58858
1.97804
2.08207
3.66832
3.59819
3.53035
3.51015
3.50517
3.50451
126.283
120.708
85.0436
77.146
58.927
56.0134
47.3889
46.7066
40.9977
40.9306
36.4837
36.9055
36.1734
36.2589
30.5614
30.1274
21.248
21.4763
17.6582
18.2062
14.99
15.2497
12.3208
12.5238
11.3308
11.478
9.32821
9.1119
4.78782
4.40529
1.59605
1.43207
0.0820634
0.0788592
-0.614903
-0.664318
-1.83328
-1.91485
-2.58874
-2.64605
-3.06717
-3.12486
-3.41342
-3.46823
-3.63549
-3.67867
-3.75235
-3.77035
-3.69114
-3.70956
-3.6981
-3.73032
-3.68265
-3.68982
-3.5308
-3.53646
-3.46833
-3.47859
-3.35324
-3.35804
-3.29281
-3.29423
-3.22337
-3.19313
-3.1095
-3.02253
-2.92202
-2.71247
-2.44731
-2.07755
-1.81568
-0.934889
1.40343
2.41139
3.00851
3.37929
3.47747
3.50046
3.50585
3.50707
125.842
120.38
85.6115
78.5908
58.5534
57.5848
46.3092
48.0926
39.6697
42.0538
35.1641
37.6009
35.3619
37.3056
30.1763
32.7304
19.0504
22.8009
15.8819
19.1259
13.6707
15.9349
11.3005
12.9076
10.7897
12.0538
8.84057
9.90473
3.93203
4.72758
1.07423
1.70575
-0.330216
0.187092
-0.792193
-0.444531
-2.0878
-1.83818
-2.74633
-2.61668
-3.15207
-3.12175
-3.45042
-3.47789
-3.64545
-3.69742
-3.74458
-3.79419
-3.68043
-3.75214
-3.66512
-3.76387
-3.64641
-3.71885
-3.50356
-3.57638
-3.42861
-3.50443
-3.322
-3.38275
-3.25667
-3.29296
-3.19515
-3.1516
-3.0968
-2.90798
-2.93788
-2.47086
-2.54578
-1.68916
-1.99221
-0.3395
0.882029
2.75711
2.3577
3.1712
3.42745
3.49131
3.50651
3.50944
125.622
121.227
85.0707
80.5565
57.4167
59.5675
44.7058
49.8853
37.9077
43.5462
33.4697
38.4816
34.3814
38.7135
29.402
35.981
16.1537
24.5505
13.6973
20.3919
12.0411
16.8946
10.0293
13.4393
10.1123
12.8077
8.181
10.9783
2.8048
5.22718
0.380461
2.08564
-0.845048
0.354826
-1.02287
-0.145366
-2.41825
-1.71537
-2.94556
-2.56081
-3.25967
-3.10432
-3.4995
-3.48195
-3.66002
-3.71635
-3.73668
-3.82453
-3.66226
-3.80104
-3.62467
-3.80603
-3.60252
-3.75934
-3.46475
-3.62508
-3.3799
-3.54057
-3.281
-3.41488
-3.21401
-3.29702
-3.16473
-3.11049
-3.08943
-2.78466
-2.97359
-2.20754
-2.68151
-1.25437
-2.24699
0.273092
0.334388
3.19363
1.65807
2.98497
3.38462
3.48355
3.50707
3.51138
125.579
123.348
83.2658
83.2676
55.2675
62.2291
42.2986
52.3617
35.4384
45.6644
31.169
39.724
33.0608
40.6643
27.9893
40.2847
12.1251
27.0672
10.808
22.2572
9.8811
18.3211
8.3452
14.2389
9.1925
13.8532
7.22315
12.4894
1.25266
6.01659
-0.576239
2.65022
-1.52575
0.625107
-1.34422
0.279418
-2.86806
-1.51549
-3.20959
-2.46174
-3.40154
-3.06493
-3.56511
-3.47819
-3.67946
-3.73668
-3.72604
-3.86483
-3.63198
-3.86247
-3.56983
-3.8635
-3.54414
-3.81781
-3.40768
-3.68993
-3.31488
-3.59344
-3.22419
-3.46035
-3.15993
-3.30963
-3.13114
-3.06801
-3.09337
-2.64154
-3.04746
-1.89458
-2.89325
-0.722786
-2.6423
0.983953
-0.325344
3.80562
0.843429
2.83515
3.35301
3.47793
3.50747
3.5127
125.629
126.985
79.8591
87.0988
51.7187
65.9642
38.689
55.9145
31.8799
48.7682
27.9429
41.5718
31.1663
43.4229
25.5741
46.2031
6.36874
30.8284
6.8071
25.0726
6.88572
20.4818
6.02415
15.474
7.88257
15.3485
5.78788
14.6593
-0.940823
7.2591
-1.92673
3.51001
-2.46029
1.05954
-1.80986
0.894577
-3.49825
-1.19406
-3.57154
-2.29534
-3.59458
-2.99214
-3.65424
-3.46291
-3.70463
-3.75969
-3.70937
-3.91993
-3.5831
-3.94474
-3.49146
-3.94541
-3.46196
-3.90355
-3.32282
-3.78099
-3.22364
-3.67215
-3.14309
-3.52721
-3.08778
-3.33531
-3.09287
-3.02192
-3.11634
-2.46406
-3.18363
-1.49552
-3.23174
-0.0276089
-3.2595
1.89213
-1.20292
4.70091
-0.17002
2.74342
3.33611
3.47503
3.50771
3.51333
-127.772
-129.201
-81.3114
-87.3211
-53.6519
-64.8114
-37.2129
-52.2095
-28.2258
-44.4753
-24.5661
-37.7851
-27.4014
-38.8582
-23.1055
-40.8115
-1.74873
-24.2644
2.29793
-17.5647
1.46902
-14.4352
0.556569
-10.6878
-3.13733
-11.8832
-1.8693
-12.0399
4.97888
-4.39311
5.36564
-0.882404
5.58892
1.49831
4.38581
1.16981
6.00126
3.19887
5.76762
4.15452
5.53484
4.72875
5.42577
5.12765
5.37099
5.39754
5.34877
5.55641
5.35016
5.60055
5.51652
5.85167
5.26668
5.60296
5.27541
5.34646
5.28513
5.00368
4.57582
3.33562
3.15411
-2.11641
7.45249
-2.71013
7.47091
-6.63223
6.12835
-12.891
2.5515
-20.4709
-4.90856
-28.0709
-18.0344
-35.0101
-26.6423
-32.9543
-34.2616
-34.5683
-34.6409
-34.6567
-127.717
-125.507
-84.8262
-83.9347
-56.8302
-61.4336
-40.431
-48.7151
-31.6618
-41.469
-27.6846
-35.9876
-29.2605
-36.4015
-25.3034
-35.4677
-6.89109
-20.1543
-1.90913
-14.4116
-1.83365
-12.006
-2.05136
-9.32064
-4.598
-10.2302
-3.45976
-9.61902
2.53089
-3.01928
3.87088
0.0819275
4.54162
1.97984
3.87206
1.87834
5.27846
3.57641
5.34438
4.35082
5.30778
4.81958
5.3159
5.1478
5.33894
5.37447
5.36557
5.51248
5.39329
5.56979
5.54479
5.7631
5.35609
5.56036
5.32952
5.3601
5.28653
5.03887
4.58003
3.59318
3.059
-0.428685
5.96198
-0.674983
5.59522
-3.90116
3.59607
-9.41941
-0.757541
-16.7541
-8.61735
-25.1258
-21.2248
-33.345
-28.7323
-33.1538
-34.301
-34.5771
-34.6426
-34.6568
-127.752
-123.353
-86.7503
-81.5963
-58.7384
-59.0772
-42.4741
-46.2302
-34.0191
-39.4021
-29.9153
-34.7871
-30.5606
-34.6702
-26.6466
-31.6692
-10.3555
-17.3
-4.88185
-12.2575
-4.22225
-10.3782
-3.96686
-8.42996
-5.64154
-9.07059
-4.53048
-7.92818
0.793102
-2.14104
2.80511
0.717974
3.77669
2.28457
3.51501
2.37226
4.76079
3.81609
5.03244
4.46986
5.13922
4.87165
5.23317
5.15412
5.31362
5.35366
5.3766
5.47964
5.42504
5.54752
5.56376
5.69997
5.42148
5.53559
5.37362
5.37836
5.29537
5.083
4.60588
3.83322
3.08267
0.864617
4.99335
0.844739
4.35113
-1.84882
1.88537
-6.81383
-3.07907
-14.0014
-11.3392
-22.996
-23.7735
-32.3485
-30.4603
-33.4837
-34.3748
-34.5938
-34.6458
-34.657
-127.966
-122.489
-87.417
-79.9654
-59.7169
-57.396
-43.6998
-44.3807
-35.669
-37.9263
-31.5678
-33.9467
-31.5236
-33.4205
-27.4643
-28.9205
-12.6857
-15.2163
-7.05903
-10.7161
-6.03976
-9.24991
-5.44445
-7.82665
-6.43389
-8.22743
-5.28152
-6.72009
-0.476613
-1.57632
2.02222
1.14959
3.19507
2.48157
3.25393
2.72588
4.37732
3.97012
4.79238
4.54027
5.00872
4.89908
5.16856
5.15136
5.2935
5.33394
5.38482
5.45349
5.45008
5.52986
5.57829
5.65379
5.47154
5.52223
5.41144
5.40052
5.30978
5.13814
4.64401
4.07288
3.1656
1.90467
4.35651
2.05901
3.4961
-0.192978
0.672933
-4.70462
-4.8133
-11.7911
-13.4873
-21.3005
-26.0095
-31.7697
-31.9913
-33.8984
-34.4749
-34.6167
-34.6503
-34.6574
-128.399
-122.81
-86.979
-78.8457
-59.9771
-56.1681
-44.3483
-42.9046
-36.8778
-36.7926
-32.8684
-33.296
-32.3114
-32.4826
-27.9831
-26.8769
-14.2628
-13.5577
-8.76113
-9.50574
-7.53957
-8.40015
-6.67262
-7.37258
-7.09715
-7.57234
-5.85577
-5.81796
-1.45139
-1.19842
1.41918
1.46539
2.72464
2.61988
3.04556
2.99295
4.07677
4.07549
4.59575
4.58227
4.90172
4.9117
5.11573
5.14251
5.27773
5.31407
5.39259
5.43047
5.47205
5.51371
5.59198
5.61817
5.51252
5.51559
5.44551
5.42613
5.3277
5.20647
4.68554
4.32632
3.26305
2.79663
3.91011
3.1244
2.84667
1.28125
-0.289135
-2.80551
-6.2721
-9.79134
-15.3901
-19.7286
-28.2029
-31.4122
-33.4545
-34.366
-34.5921
-34.6437
-34.6554
-34.6578
-129.057
-124.341
-85.433
-78.155
-59.6343
-55.2599
-44.581
-41.6108
-37.8479
-35.8115
-33.9941
-32.7009
-33.0521
-31.7306
-28.3653
-25.2927
-15.3625
-12.0617
-10.2407
-8.4029
-8.92549
-7.65317
-7.80301
-6.9569
-7.72981
-7.00438
-6.36236
-5.08852
-2.26119
-0.914724
0.919349
1.73299
2.30906
2.73725
2.85656
3.21478
3.81981
4.16017
4.42063
4.61111
4.80724
4.91668
5.07011
5.12944
5.26602
5.29261
5.40208
5.4074
5.4941
5.49618
5.60785
5.58792
5.54925
5.51196
5.47764
5.45501
5.34663
5.2909
4.72072
4.60806
3.33678
3.62556
3.53985
4.16967
2.24896
2.75591
-1.21312
-0.868133
-7.72853
-7.70819
-17.343
-17.991
-30.6067
-31.1011
-34.9628
-34.8608
-34.7162
-34.6721
-34.6609
-34.6583
-129.903
-127.239
-82.6214
-77.914
-58.7257
-54.6042
-44.5058
-40.3494
-38.7497
-34.8224
-35.0994
-32.0408
-33.8604
-31.061
-28.7364
-23.9835
-16.1979
-10.5073
-11.7216
-7.20637
-10.3839
-6.84997
-8.97385
-6.47702
-8.42292
-6.43355
-6.89466
-4.42163
-3.01215
-0.650885
0.460009
2.00979
1.89912
2.86672
2.65778
3.42654
3.57326
4.24788
4.24817
4.63958
4.7161
4.91979
5.02815
5.11318
5.25862
5.26775
5.41565
5.381
5.51946
5.4742
5.62892
5.55835
5.58585
5.50815
5.50924
5.48724
5.36339
5.39584
4.73751
4.93606
3.34801
4.46937
3.14086
5.31684
1.55401
4.40946
-2.30984
1.35728
-9.46038
-5.23903
-19.6556
-15.775
-33.4956
-30.6555
-36.6297
-35.3575
-34.8363
-34.6992
-34.6661
-34.6588
-130.855
-131.813
-78.2129
-78.2523
-57.2154
-54.1889
-44.1946
-38.9877
-39.7467
-33.6673
-36.3405
-31.1877
-34.8557
-30.3746
-29.2068
-22.7978
-16.9516
-8.67899
-13.434
-5.70437
-12.1129
-5.82242
-10.3313
-5.82109
-9.27498
-5.76613
-7.54566
-3.71344
-3.80232
-0.338085
-0.0178455
2.35215
1.44527
3.04254
2.41925
3.66259
3.30505
4.36207
4.05961
4.68024
4.61951
4.92638
4.98682
5.09423
5.25641
5.2371
5.43629
5.34744
5.55194
5.444
5.65877
5.52463
5.62643
5.50096
5.54154
5.52331
5.37365
5.52815
4.71977
5.33523
3.25055
5.41081
2.60129
6.70112
0.593844
6.44549
-3.82255
4.1615
-11.7944
-2.02496
-22.7007
-12.6954
-37.2074
-29.8578
-38.5869
-35.8245
-34.9414
-34.7225
-34.6705
-34.6593
-131.767
-138.569
-71.6581
-79.4341
-54.9861
-54.0546
-43.6948
-37.3906
-41.0207
-32.1656
-37.8981
-29.9853
-36.1804
-29.5592
-29.8903
-21.5931
-17.806
-6.3332
-15.6495
-3.64032
-14.3532
-4.36596
-12.0524
-4.84919
-10.4079
-4.8894
-8.42321
-2.85033
-4.73641
0.0988409
-0.579177
2.82423
0.890019
3.30607
2.10502
3.96174
2.97942
4.52988
3.83344
4.74754
4.50765
4.94232
4.94315
5.07265
5.26105
5.19732
5.46808
5.30179
5.59657
5.40054
5.70223
5.48112
5.67576
5.48677
5.57583
5.56428
5.37137
5.69858
4.64464
5.84194
2.98276
6.55047
1.7847
8.49299
-0.845435
9.12548
-6.06623
7.92239
-15.1584
2.40595
-26.974
-8.23605
-42.1944
-28.4175
-41.0043
-36.2168
-35.0203
-34.7396
-34.6738
-34.6597
-132.404
-148.271
-62.1151
-81.9057
-51.818
-54.3002
-43.0362
-35.4
-42.7982
-30.0848
-40.0058
-28.2228
-38.0219
-28.4698
-30.9232
-20.2123
-18.9723
-3.16027
-18.7223
-0.6716
-17.4254
-2.20623
-14.3724
-3.36993
-11.9869
-3.65325
-9.66752
-1.69119
-5.94149
0.754337
-1.30555
3.5082
0.159288
3.71293
1.66727
4.37335
2.55147
4.78665
3.54203
4.86026
4.36814
4.975
4.89376
5.04819
5.27528
5.14368
5.5169
5.23725
5.6604
5.33674
5.76618
5.42057
5.74001
5.46104
5.61371
5.61205
5.34782
5.92376
4.47893
6.51033
2.45726
8.02275
0.508371
10.9259
-3.05802
12.811
-9.47819
13.1649
-20.1493
8.71346
-33.1732
-1.66986
-49.0918
-25.9235
-44.1173
-36.466
-35.0632
-34.7486
-34.6755
-34.6599
30.2158
25.5562
27.9875
15.3297
22.6763
10.3089
13.9113
2.24247
12.5817
0.0142615
10.1974
1.84247
8.14627
3.02834
4.34804
-0.0160689
0.633388
-4.11306
0.101233
-3.88527
-1.1744
-3.59485
-2.57996
-3.79905
-3.62707
-4.25979
-4.32725
-4.64782
-4.91398
-4.9601
-5.13621
-4.95274
-5.58687
-5.18445
-5.84482
-5.30324
-5.81845
-5.257
-5.74838
-5.35027
-5.4651
-4.95472
-5.65225
-4.98742
-5.52619
-5.03222
-5.33802
-5.03158
-5.15202
-5.05243
-4.90718
-5.17978
-4.59015
-5.49767
-4.21062
-6.3713
-2.66842
-5.89639
-5.86892
-14.7179
4.26805
-12.5032
10.856
-11.8906
19.6854
-11.0324
33.1691
-6.08717
49.956
4.20483
69.336
21.5401
90.7029
49.5788
94.3815
48.6602
165.219
136.046
131.576
130.696
30.4038
26.8954
26.9731
17.6112
20.3883
11.4212
12.7761
4.58346
10.2814
1.76294
8.28432
2.86527
6.99725
3.52584
3.82297
0.538178
0.0965767
-3.31056
-0.729928
-3.3926
-1.72848
-3.37071
-2.85137
-3.72143
-3.72771
-4.21466
-4.38465
-4.65894
-4.91381
-4.9795
-5.1261
-5.03717
-5.51141
-5.28334
-5.75177
-5.40549
-5.71731
-5.34323
-5.65595
-5.38758
-5.43262
-5.08771
-5.52578
-5.08499
-5.42212
-5.09183
-5.27123
-5.05956
-5.11605
-5.03447
-4.91052
-5.07174
-4.67306
-5.25172
-4.40671
-5.7622
-3.23505
-5.47368
-6.06686
-11.6958
1.56298
-8.72974
7.3218
-6.7698
14.8838
-4.05707
26.5358
2.53632
41.5928
13.8983
59.7246
31.2867
80.6891
56.2668
87.8763
62.8147
150.402
135.058
131.433
130.661
30.7339
28.0935
26.3387
19.4096
18.5725
12.123
12.0252
6.37115
8.55188
2.91207
6.85071
3.50768
6.15382
3.8739
3.44235
0.979765
-0.32064
-2.74671
-1.3506
-3.07236
-2.14978
-3.23263
-3.0669
-3.67812
-3.80895
-4.18209
-4.43782
-4.67081
-4.92122
-4.9957
-5.12548
-5.09916
-5.46416
-5.35449
-5.69145
-5.48157
-5.64376
-5.40214
-5.58693
-5.41251
-5.4159
-5.18955
-5.43464
-5.15161
-5.34492
-5.1312
-5.22024
-5.07696
-5.08575
-5.01834
-4.90259
-4.98622
-4.71701
-5.06284
-4.5149
-5.30852
-3.61115
-5.11684
-6.06339
-9.42914
-0.199938
-6.00996
4.99346
-3.07866
11.706
0.937056
22.0863
8.63781
35.8998
20.6511
53.0839
37.9197
73.6281
60.7132
83.6374
72.4627
139.702
133.6
131.176
130.596
31.1711
29.2583
25.9133
20.9664
16.9833
12.5729
11.4985
7.84741
7.1371
3.6798
5.70992
3.9119
5.50866
4.1491
3.14396
1.37577
-0.692009
-2.33501
-1.84591
-2.85736
-2.49043
-3.14415
-3.25109
-3.65384
-3.88036
-4.15413
-4.49185
-4.68196
-4.93569
-5.00974
-5.13117
-5.14558
-5.436
-5.4079
-5.65313
-5.5429
-5.5865
-5.44414
-5.53241
-5.43047
-5.40851
-5.27267
-5.36476
-5.19932
-5.28413
-5.1586
-5.17866
-5.0884
-5.0586
-5.00426
-4.88679
-4.91492
-4.73646
-4.90981
-4.56953
-4.95457
-3.85921
-4.78241
-5.96313
-7.66625
-1.36121
-3.96263
3.42824
-0.301679
9.55055
4.65461
19.0209
13.1111
31.9074
25.4968
48.3472
42.5177
68.5117
63.7256
80.762
78.9738
131.935
131.996
130.844
130.507
31.6861
30.4816
25.5534
22.486
15.4126
12.8907
11.0763
9.20734
5.83342
4.22915
4.72327
4.18121
4.98253
4.41084
2.87673
1.78434
-1.07984
-2.00812
-2.2808
-2.69715
-2.78999
-3.07734
-3.42329
-3.63649
-3.9498
-4.12356
-4.55175
-4.69057
-4.95735
-5.02191
-5.14119
-5.18101
-5.42064
-5.45044
-5.62911
-5.59816
-5.53676
-5.477
-5.48559
-5.44532
-5.40577
-5.34677
-5.30528
-5.23712
-5.23185
-5.18026
-5.14158
-5.0975
-5.03252
-4.99277
-4.86524
-4.85196
-4.74192
-4.7774
-4.59523
-4.65991
-4.02657
-4.4377
-5.84197
-6.22364
-2.16616
-2.31492
2.30793
1.9321
7.98511
7.60179
16.7667
16.5962
28.9234
29.1721
44.7577
45.8427
64.6263
65.8648
78.6392
83.2947
126.284
130.441
130.481
130.405
32.2498
31.8544
25.1195
24.1665
13.6603
13.1807
10.6567
10.6279
4.4594
4.69496
3.77842
4.39711
4.5116
4.71132
2.59206
2.26399
-1.54491
-1.70728
-2.7098
-2.54978
-3.08168
-3.00811
-3.60075
-3.6151
-4.0248
-4.08279
-4.62322
-4.69405
-4.98711
-5.0319
-5.15441
-5.20848
-5.4137
-5.48706
-5.6135
-5.65467
-5.487
-5.50716
-5.44075
-5.46017
-5.40385
-5.42021
-5.2469
-5.27243
-5.18145
-5.20143
-5.10474
-5.10747
-5.00545
-4.98483
-4.83915
-4.79289
-4.74158
-4.65373
-4.61107
-4.39319
-4.15217
-4.05326
-5.76171
-4.95858
-2.80285
-0.85805
1.3876
3.90875
6.67716
10.1671
14.886
19.5815
26.4226
32.234
41.7482
48.4597
61.4427
67.5424
76.8411
86.0821
122.186
129.05
130.122
130.3
32.8293
33.4805
24.454
26.2286
11.5066
13.5521
10.137
12.2937
2.82883
5.2065
2.77183
4.63287
4.037
5.10433
2.23553
2.88268
-2.15602
-1.373
-3.18545
-2.37486
-3.39769
-2.91232
-3.80141
-3.57795
-4.11391
-4.02275
-4.7135
-4.68866
-5.0268
-5.03879
-5.17035
-5.22989
-5.41202
-5.52154
-5.60129
-5.71951
-5.42969
-5.54075
-5.39246
-5.47803
-5.39899
-5.50121
-5.18055
-5.31238
-5.12659
-5.22725
-5.06391
-5.1216
-4.97511
-4.98187
-4.80906
-4.73401
-4.74268
-4.52823
-4.6339
-4.12737
-4.27206
-3.59652
-5.78189
-3.74763
-3.4311
0.58677
0.456226
5.87549
5.34033
12.6832
13.0062
22.4809
23.9629
35.1478
38.8507
50.8259
58.5344
69.0921
75.0453
87.7951
119.258
127.89
129.799
130.201
33.3819
35.4925
23.3552
28.9494
8.68085
14.1407
9.39311
14.4232
0.723406
5.90946
1.59243
4.96603
3.4951
5.65411
1.73776
3.72825
-3.00051
-0.935368
-3.76642
-2.12693
-3.77431
-2.76177
-4.04673
-3.51054
-4.22819
-3.9315
-4.83243
-4.66877
-5.07954
-5.04087
-5.18915
-5.24635
-5.41319
-5.55715
-5.58747
-5.80059
-5.35627
-5.58464
-5.33473
-5.50239
-5.3868
-5.59904
-5.096
-5.36494
-5.06019
-5.26354
-5.01415
-5.14382
-4.93857
-4.98602
-4.77499
-4.67172
-4.75264
-4.38985
-4.68116
-3.83544
-4.42471
-3.0253
-5.97086
-2.46799
-4.20746
2.19747
-0.697202
8.08034
3.6883
15.48
10.7602
25.6999
21.115
38.3607
35.6223
53.3627
55.5123
70.8262
72.978
88.7599
117.243
127
129.536
130.119
33.8487
38.0725
21.5451
32.7027
4.82401
15.1356
8.25619
17.3
-2.13924
6.99087
0.103898
5.49165
2.80683
6.44585
1.00276
4.92173
-4.19754
-0.302594
-4.52684
-1.74806
-4.25775
-2.51965
-4.36516
-3.39317
-4.38318
-3.79244
-4.99401
-4.62592
-5.15025
-5.03544
-5.21152
-5.25835
-5.41518
-5.5972
-5.56621
-5.90785
-5.25582
-5.64753
-5.26017
-5.53795
-5.36136
-5.72534
-4.98044
-5.44032
-4.97333
-5.31782
-4.94911
-5.17933
-4.8918
-5.0004
-4.7365
-4.60195
-4.78024
-4.22522
-4.77379
-3.48602
-4.65682
-2.28024
-6.41776
-0.978693
-5.30966
4.18006
-2.31762
10.8119
1.38879
18.9371
7.72761
29.6997
17.3937
42.3728
31.5747
56.5232
51.9637
73.0872
70.366
89.217
115.978
126.399
129.351
130.06
34.1447
41.4802
18.6253
38.015
-0.562869
16.8157
6.47999
21.3138
-6.14682
8.71098
-1.87742
6.33857
1.86419
7.59961
-0.107859
6.63569
-5.9161
0.6541
-5.56811
-1.15826
-4.91159
-2.13458
-4.79659
-3.19755
-4.60156
-3.5818
-5.21843
-4.5474
-5.2465
-5.01832
-5.239
-5.26585
-5.41605
-5.64564
-5.52992
-6.05471
-5.11346
-5.74143
-5.15885
-5.59153
-5.31414
-5.89583
-4.81653
-5.55261
-4.85385
-5.40047
-4.85997
-5.2354
-4.82906
-5.02955
-4.69272
-4.51954
-4.83705
-4.01631
-4.93976
-3.03815
-5.03074
-1.27456
-7.24773
0.901345
-6.96478
6.80204
-4.72324
14.4454
-1.98972
23.5444
3.3676
35.0704
12.1808
47.8159
26.0971
60.864
47.3882
76.3024
66.8916
89.3582
115.367
126.096
129.256
130.03
)
;

boundaryField
{
    F1_1
    {
        type            calculated;
        value           nonuniform List<scalar> 
80
(
134.196
-93.7248
-34.0889
-31.0428
-9.62132
-20.4126
-1.6203
-13.3548
1.17123
-8.9938
2.20224
-5.2763
0.371386
-5.85988
2.8227
-5.65462
8.99921
0.582325
7.94111
2.46325
7.29453
3.60661
6.95188
4.66121
6.36301
4.90543
6.59704
5.45706
6.90382
6.24206
6.68585
6.5622
6.53242
6.64362
6.695
7.23583
6.06753
6.96682
6.13072
6.93752
6.14363
6.95162
6.06817
6.89024
6.1551
6.87861
6.24227
6.79249
6.51556
7.10142
6.17377
6.80679
6.21657
6.64133
6.3871
6.7584
6.2195
6.55085
6.32825
6.54951
6.33974
6.53937
6.29981
6.42202
6.3839
6.3238
6.53449
6.21027
6.66193
5.87394
6.92279
5.35374
7.24957
5.50389
5.36285
3.73392
1.44832
0.472993
0.181908
0.110739
)
;
    }
    F1_2
    {
        type            calculated;
        value           nonuniform List<scalar> 
80
(
125.664
129.223
77.7006
89.3521
49.5358
68.159
36.5247
58.0179
29.7722
50.6193
26.0519
42.6828
30.0413
45.0435
24.0618
49.648
2.97168
33.0903
4.46926
26.7692
5.13452
21.785
4.67157
16.2252
7.10839
16.232
4.92444
15.9414
-2.22971
8.01791
-2.71982
4.02998
-3.00391
1.32692
-2.0867
1.25926
-3.86741
-0.996356
-3.78188
-2.19172
-3.70641
-2.94568
-3.70575
-3.45181
-3.71881
-3.77203
-3.69906
-3.9519
-3.55305
-3.99229
-3.44506
-3.9938
-3.41355
-3.9546
-3.27204
-3.83454
-3.17002
-3.7193
-3.09522
-3.56716
-3.04621
-3.35208
-3.07234
-2.99766
-3.13369
-2.36462
-3.27078
-1.26922
-3.43997
0.370536
-3.63527
2.40946
-1.71108
5.23474
-0.73834
2.71537
3.33173
3.47432
3.5078
3.51348
)
;
    }
    F1_3
    {
        type            calculated;
        value           nonuniform List<scalar> 
80
(
-127.809
-131.475
-79.1023
-89.3291
-51.6933
-66.8081
-35.2567
-54.2644
-26.1837
-46.2644
-22.7397
-38.8678
-26.2997
-40.304
-21.7438
-43.943
1.32222
-26.7049
4.77409
-19.4474
3.39877
-15.8941
2.07061
-11.5182
-2.27851
-12.8589
-0.914718
-13.4691
6.41593
-5.23093
6.24184
-1.46484
6.19763
1.20317
4.6908
0.751022
6.4243
2.96792
6.01285
4.03283
5.666
4.67156
5.48884
5.11339
5.38894
5.40979
5.3385
5.58177
5.32507
5.61861
5.49935
5.90353
5.2147
5.62966
5.24529
5.3409
5.28651
4.98805
4.58037
3.20001
3.24002
-3.07934
8.3558
-3.88704
8.60169
-8.20814
7.6464
-14.8962
4.51014
-22.6305
-2.74871
-29.8009
-16.2325
-36.0455
-25.4832