/*--------------------------------*- C++ -*----------------------------------*\
| =========                 |                                                 |
| \\      /  F ield         | OpenFOAM: The Open Source CFD Toolbox           |
|  \\    /   O peration     | Version:  5.x                                   |
|   \\  /    A nd           | Web:      www.OpenFOAM.org                      |
|    \\/     M anipulation  |                                                 |
\*---------------------------------------------------------------------------*/
FoamFile
{
    version     2.0;
    format      ascii;
    class       volScalarField;
    location    "0.5";
    object      gradTx;
}
// * * * * * * * * * * * * * * * * * * * * * * * * * * * * * * * * * * * * * //

dimensions      [0 -1 0 1 0 0 0];

internalField   nonuniform List<scalar> 
3200
(
85.5576
75.1641
3.1783
-6.23123
-6.9231
-7.53182
-7.57898
-6.52365
-6.44518
-5.24281
-5.10848
-3.16159
-3.09923
-3.88479
-3.99709
-6.06844
-6.06542
-3.7079
-3.56095
-2.4718
-2.3823
-1.67055
-1.60069
-0.916642
-0.874988
-0.761511
-0.74563
-0.610567
-0.586656
-0.212771
-0.185865
0.0207383
0.0324804
0.0454469
0.0669281
0.510862
0.528785
0.451702
0.447078
0.411535
0.411595
0.455303
0.456007
0.407755
0.402827
0.348718
0.340054
0.213029
0.214811
0.411576
0.413934
0.296693
0.28628
0.164987
0.162314
0.24
0.238002
0.129199
0.123694
0.11019
0.109109
0.110187
0.106315
0.0271172
0.018002
-0.0925775
-0.105783
-0.243771
-0.266959
-0.56041
-0.599463
-1.01933
-1.02816
-0.515291
-0.509454
-0.195727
-0.163046
-0.0633204
-0.0181127
-69.0812
89.4837
61.3361
6.94347
-4.13315
-5.86339
-6.75416
-6.91728
-6.20542
-6.05404
-5.09699
-4.80924
-3.2693
-3.12368
-3.66659
-3.89821
-5.53378
-5.53592
-3.7253
-3.41056
-2.49648
-2.29287
-1.67916
-1.51981
-0.94984
-0.853445
-0.73421
-0.69524
-0.575448
-0.522159
-0.220693
-0.161042
0.0131876
0.0405709
0.0613622
0.109249
0.465154
0.505684
0.455122
0.445384
0.411402
0.411259
0.449478
0.451828
0.414715
0.403633
0.355618
0.336177
0.235206
0.237906
0.385174
0.389255
0.2967
0.27417
0.177296
0.170808
0.226427
0.22152
0.135943
0.12388
0.110843
0.10801
0.106393
0.0975934
0.0327232
0.0122393
-0.0814134
-0.112145
-0.235618
-0.289782
-0.544499
-0.63625
-1.00309
-1.03401
-0.683679
-0.698765
-0.575938
-0.491822
-0.187782
-0.0531143
-69.1099
93.1565
49.9376
8.97607
-2.40886
-4.83719
-6.00556
-6.29055
-5.86476
-5.69513
-4.92442
-4.56012
-3.32127
-3.12061
-3.46088
-3.74319
-5.06447
-5.07895
-3.68289
-3.28417
-2.49279
-2.21987
-1.66961
-1.45538
-0.96412
-0.832835
-0.703717
-0.648097
-0.537681
-0.467602
-0.218953
-0.140812
0.0115024
0.048918
0.0761878
0.139243
0.432057
0.486222
0.456907
0.44466
0.409917
0.40939
0.44509
0.449228
0.420635
0.405918
0.361379
0.335565
0.25324
0.255221
0.364503
0.368445
0.29391
0.265037
0.185993
0.17682
0.215279
0.208267
0.139749
0.124107
0.11109
0.106865
0.102888
0.0911161
0.036555
0.00940434
-0.0727654
-0.114796
-0.230238
-0.304582
-0.535108
-0.662032
-1.00029
-1.05511
-0.837445
-0.893589
-0.9546
-0.829398
-0.305474
-0.0844477
-69.1371
96.5122
40.4951
9.8257
-1.04272
-3.86128
-5.29221
-5.6922
-5.51383
-5.36027
-4.73562
-4.34601
-3.33175
-3.09595
-3.25751
-3.54665
-4.64747
-4.67845
-3.60065
-3.17356
-2.46842
-2.15803
-1.64668
-1.40208
-0.964037
-0.812171
-0.67031
-0.60317
-0.498323
-0.420207
-0.210411
-0.123565
0.0143999
0.0576598
0.0895725
0.160039
0.408499
0.470095
0.458007
0.444836
0.407064
0.406075
0.441965
0.44794
0.426003
0.4094
0.366395
0.337218
0.267906
0.268248
0.34805
0.350779
0.289298
0.257915
0.1919
0.180931
0.205953
0.197479
0.141445
0.124233
0.110989
0.105713
0.0996982
0.086353
0.0392928
0.00877193
-0.0657217
-0.114509
-0.2265
-0.313135
-0.529859
-0.67936
-1.00883
-1.0871
-0.980247
-1.08821
-1.34071
-1.18293
-0.411058
-0.109687
-69.1618
99.5305
32.6175
9.88344
0.00157211
-2.94075
-4.61999
-5.11692
-5.16189
-5.04427
-4.53745
-4.15694
-3.31115
-3.05545
-3.0491
-3.31769
-4.27331
-4.32235
-3.49244
-3.07414
-2.42834
-2.10431
-1.61315
-1.35657
-0.952556
-0.791147
-0.63395
-0.559783
-0.457923
-0.378104
-0.196974
-0.108381
0.0210686
0.0668411
0.101403
0.173705
0.392407
0.456909
0.459146
0.445996
0.402742
0.401286
0.440039
0.447771
0.431162
0.413944
0.370864
0.340482
0.279792
0.278102
0.334685
0.335686
0.283487
0.252184
0.195611
0.183609
0.197973
0.188598
0.141592
0.124206
0.110574
0.104596
0.0968057
0.0829422
0.0413719
0.00990064
-0.0597046
-0.111693
-0.223776
-0.316483
-0.527299
-0.689488
-1.0274
-1.12648
-1.11444
-1.27704
-1.74323
-1.56104
-0.497833
-0.126457
-69.1832
102.218
25.9814
9.42724
0.768447
-2.07059
-3.99495
-4.55966
-4.81643
-4.74385
-4.33428
-3.98654
-3.26701
-3.00503
-2.82974
-3.0613
-3.93547
-4.00148
-3.36786
-2.98392
-2.37547
-2.05735
-1.57031
-1.31702
-0.931425
-0.77
-0.594307
-0.517537
-0.416673
-0.340082
-0.17986
-0.0948547
0.0310656
0.0764549
0.11171
0.181504
0.382473
0.446206
0.460898
0.44836
0.396751
0.394892
0.439357
0.448579
0.43635
0.419528
0.374831
0.344966
0.289325
0.285632
0.323549
0.322728
0.276848
0.247472
0.197546
0.185238
0.190949
0.181229
0.140561
0.124034
0.109858
0.103555
0.0941606
0.0806435
0.0430503
0.0125571
-0.0543904
-0.106472
-0.221826
-0.315105
-0.526683
-0.692585
-1.05552
-1.1703
-1.24164
-1.45372
-2.17169
-1.97439
-0.556949
-0.132531
-69.2008
104.594
20.3187
8.65539
1.3027
-1.23686
-3.42419
-4.01464
-4.48413
-4.45694
-4.12867
-3.83107
-3.20463
-2.95121
-2.59416
-2.77926
-3.63002
-3.70867
-3.23336
-2.90276
-2.31109
-2.01723
-1.51819
-1.28283
-0.90138
-0.749468
-0.550746
-0.47629
-0.374484
-0.305434
-0.159762
-0.0829865
0.0442649
0.0864581
0.120622
0.184043
0.378018
0.437459
0.463737
0.452287
0.388771
0.386648
0.440088
0.450248
0.441726
0.426233
0.378213
0.350489
0.296787
0.291505
0.313969
0.311579
0.269554
0.243588
0.197983
0.186154
0.184548
0.175103
0.13857
0.123773
0.108832
0.102644
0.091685
0.0793119
0.0444479
0.0166742
-0.049669
-0.098718
-0.220757
-0.308995
-0.527894
-0.687798
-1.09356
-1.21584
-1.3632
-1.61015
-2.63677
-2.43656
-0.576356
-0.126014
-69.2143
106.688
15.4059
7.71125
1.64457
-0.417095
-2.9172
-3.47441
-4.17168
-4.18208
-3.92189
-3.68881
-3.12739
-2.90158
-2.33694
-2.47063
-3.3555
-3.43808
-3.09315
-2.83213
-2.23487
-1.98539
-1.4556
-1.25453
-0.862202
-0.73085
-0.50225
-0.436168
-0.331012
-0.273877
-0.136932
-0.0731573
0.0608496
0.0967682
0.128352
0.18135
0.378937
0.430032
0.468081
0.458298
0.378339
0.376184
0.442552
0.452668
0.447385
0.434244
0.380789
0.357057
0.302318
0.296273
0.305389
0.302021
0.261625
0.240495
0.197075
0.186666
0.178467
0.170067
0.135714
0.123524
0.107461
0.101927
0.08927
0.0788835
0.0455648
0.0223363
-0.0456378
-0.0880434
-0.221039
-0.297658
-0.531463
-0.673175
-1.14294
-1.26037
-1.48075
-1.73539
-3.15092
-2.96514
-0.539381
-0.105682
-69.224
108.529
11.0553
6.70211
1.82636
0.420315
-2.48784
-2.92853
-3.8867
-3.91807
-3.71405
-3.55972
-3.03677
-2.86555
-2.05183
-2.132
-3.11312
-3.18463
-2.94964
-2.77502
-2.1448
-1.96483
-1.3799
-1.23394
-0.812622
-0.716154
-0.44728
-0.397634
-0.285641
-0.245531
-0.111193
-0.0661529
0.0813445
0.10724
0.135216
0.172865
0.385708
0.423122
0.474338
0.467116
0.364795
0.36298
0.447269
0.455706
0.453361
0.443873
0.382181
0.36487
0.305906
0.300439
0.297313
0.293948
0.25293
0.2383
0.194851
0.187094
0.172398
0.166073
0.131976
0.123433
0.105673
0.1015
0.0867674
0.0793752
0.0462803
0.0297898
-0.0426281
-0.0737442
-0.223575
-0.280032
-0.538716
-0.645428
-1.2064
-1.30077
-1.59693
-1.81419
-3.72912
-3.58333
-0.422733
-0.0715504
-69.2304
110.14
7.10829
5.71394
1.86944
1.31788
-2.15714
-2.36193
-3.63879
-3.66348
-3.50425
-3.44541
-2.93211
-2.85525
-1.73099
-1.75735
-2.90714
-2.94348
-2.80376
-2.73617
-2.03677
-1.96051
-1.28669
-1.22438
-0.750072
-0.708374
-0.383559
-0.361609
-0.23741
-0.220968
-0.0818932
-0.0632567
0.106695
0.117622
0.141686
0.157367
0.399492
0.415658
0.48293
0.479738
0.347233
0.346334
0.455021
0.459178
0.459626
0.455593
0.381802
0.374353
0.307357
0.304514
0.28925
0.287385
0.243183
0.23726
0.191203
0.187803
0.165996
0.163193
0.127219
0.123714
0.103343
0.101496
0.0839732
0.0808967
0.046333
0.0394814
-0.0412697
-0.0546957
-0.229846
-0.254317
-0.552047
-0.599509
-1.28853
-1.33309
-1.71626
-1.82508
-4.38976
-4.32212
-0.193716
-0.0257941
-69.2345
181.296
30.7291
30.9095
8.53085
7.18178
-3.91511
-4.4937
-7.35522
-7.45723
-7.35551
-7.29694
-7.1978
-7.05681
-3.75741
-4.05712
-11.9155
-12.2359
-11.4346
-11.197
-8.13519
-7.85861
-5.6312
-5.42511
-3.99255
-3.88833
-3.42021
-3.41823
-3.33459
-3.26978
-1.92077
-1.83309
-2.02659
-1.96907
-1.10323
-1.05612
-1.04075
-1.01668
-0.598564
-0.554523
-0.237663
-0.206131
0.0135724
0.0321156
0.119308
0.128445
0.172336
0.174402
0.111244
0.118477
0.308764
0.316006
0.28144
0.275581
0.152463
0.153042
0.286799
0.287335
0.173966
0.169864
0.202813
0.195961
0.0469293
0.0258521
-0.240777
-0.278874
-0.756995
-0.829749
-1.82321
-1.92505
-2.94356
-3.13969
-6.55451
-6.6186
-4.66615
-4.3929
-0.241538
-0.0402109
-0.0089936
-0.00202527
-59.2684
208.354
24.2467
24.5113
7.36998
4.55383
-4.22969
-5.45342
-7.74344
-7.94726
-7.79604
-7.62366
-7.30121
-7.00289
-4.72032
-5.46109
-12.0068
-12.7114
-11.8509
-11.2738
-8.65005
-8.00978
-6.07511
-5.58675
-4.26804
-4.02305
-3.66975
-3.68574
-3.70882
-3.56649
-2.37816
-2.15432
-2.1747
-2.02442
-1.27053
-1.1607
-1.14563
-1.08883
-0.711836
-0.605588
-0.316116
-0.240459
-0.0426941
0.00214416
0.0871596
0.11006
0.154271
0.161406
0.123025
0.140219
0.291643
0.307719
0.283096
0.27136
0.178544
0.179903
0.281167
0.282004
0.194138
0.184723
0.203945
0.187484
0.0609844
0.0126931
-0.216146
-0.303695
-0.715311
-0.880531
-1.71163
-1.94482
-2.83666
-3.2634
-5.92911
-6.06801
-4.55079
-3.95334
-0.56659
-0.113814
-0.0260024
-0.00586363
-59.9685
234.526
18.6393
18.8098
5.63655
2.16496
-4.84639
-6.37032
-8.21502
-8.45144
-8.23739
-7.95638
-7.40365
-7.02833
-5.56227
-6.63282
-12.3317
-13.2496
-12.2559
-11.4325
-9.08567
-8.21281
-6.46125
-5.78168
-4.50064
-4.16215
-3.90456
-3.95299
-4.0897
-3.90509
-2.797
-2.46582
-2.32967
-2.10395
-1.41211
-1.26152
-1.2522
-1.17382
-0.814303
-0.664003
-0.386036
-0.279688
-0.0928573
-0.0294456
0.0574873
0.0908149
0.137684
0.150225
0.132579
0.156587
0.279934
0.301058
0.284236
0.270382
0.200858
0.202768
0.279553
0.280221
0.211174
0.198437
0.206506
0.183411
0.0719122
0.00675695
-0.197166
-0.315552
-0.683482
-0.904676
-1.62397
-1.93824
-2.74835
-3.29755
-5.40477
-5.58363
-4.39859
-3.62527
-0.774223
-0.172777
-0.0402804
-0.00909553
-60.6688
260.048
13.6736
13.6428
3.51581
-0.0817233
-5.68215
-7.27412
-8.75077
-8.97356
-8.6814
-8.29997
-7.49899
-7.09738
-6.30272
-7.61937
-12.8478
-13.8642
-12.6542
-11.6523
-9.46247
-8.45113
-6.80465
-6.00079
-4.69563
-4.2981
-4.1272
-4.21679
-4.4835
-4.2807
-3.18485
-2.76959
-2.48829
-2.20218
-1.53209
-1.35673
-1.36159
-1.27009
-0.908439
-0.72756
-0.449123
-0.322163
-0.138106
-0.0619942
0.029945
0.0710175
0.122461
0.140246
0.140461
0.168978
0.272309
0.295912
0.285257
0.271631
0.220315
0.22264
0.280984
0.281228
0.225959
0.211321
0.210316
0.182875
0.0809883
0.00637327
-0.181605
-0.317427
-0.657522
-0.908895
-1.5525
-1.91182
-2.67047
-3.26934
-4.95751
-5.15372
-4.22981
-3.38021
-0.891776
-0.212918
-0.0504703
-0.0114088
-61.3693
285.113
9.16431
8.88056
1.13484
-2.24753
-6.67771
-8.1822
-9.33648
-9.51619
-9.12894
-8.66034
-7.57836
-7.18213
-6.95866
-8.44938
-13.5323
-14.5678
-13.0442
-11.9198
-9.79232
-8.71505
-7.11451
-6.24009
-4.85444
-4.42508
-4.33951
-4.47358
-4.89617
-4.69212
-3.54556
-3.06809
-2.64719
-2.31585
-1.63235
-1.4448
-1.47488
-1.37723
-0.995395
-0.795066
-0.50619
-0.366955
-0.179065
-0.0951986
0.0044192
0.050791
0.108573
0.13096
0.147204
0.17837
0.26787
0.292135
0.286395
0.274388
0.237628
0.240271
0.284741
0.284458
0.23912
0.223661
0.215185
0.18532
0.0889759
0.0105263
-0.168129
-0.311129
-0.635108
-0.89742
-1.49239
-1.86941
-2.59895
-3.19753
-4.56988
-4.76853
-4.05792
-3.20055
-0.936824
-0.232323
-0.0556818
-0.0125901
-62.0701
309.885
4.9574
4.4179
-1.41961
-4.37057
-7.78971
-9.10391
-9.96097
-10.0814
-9.5797
-9.04524
-7.63029
-7.25993
-7.54596
-9.13564
-14.3787
-15.3739
-13.4184
-12.2276
-10.0804
-9.0001
-7.39552
-6.50001
-4.97514
-4.53844
-4.54314
-4.71893
-5.33401
-5.14135
-3.87962
-3.36442
-2.8026
-2.44369
-1.71286
-1.52424
-1.59336
-1.49579
-1.07515
-0.866163
-0.557316
-0.413732
-0.215894
-0.129059
-0.0189968
0.0300924
0.0960893
0.12191
0.153342
0.185423
0.266035
0.289554
0.287783
0.278136
0.253365
0.256231
0.29029
0.289491
0.25109
0.235726
0.220913
0.190426
0.0962506
0.0186901
-0.156077
-0.29759
-0.615159
-0.872635
-1.441
-1.81288
-2.53265
-3.09473
-4.22912
-4.41959
-3.89175
-3.07698
-0.91937
-0.230526
-0.0555061
-0.0125379
-62.7712
334.511
0.916478
0.168265
-4.08847
-6.47406
-8.98533
-10.0436
-10.6147
-10.6714
-10.0317
-9.46536
-7.64043
-7.31144
-8.08106
-9.67568
-15.395
-16.2981
-13.7622
-12.5738
-10.326
-9.30634
-7.64836
-6.78526
-5.05245
-4.63425
-4.74002
-4.94681
-5.80425
-5.63344
-4.18391
-3.66273
-2.94999
-2.58649
-1.77175
-1.59344
-1.71856
-1.62733
-1.14649
-0.941306
-0.601876
-0.462717
-0.248314
-0.163873
-0.0399939
0.00870182
0.0852
0.112625
0.159446
0.190527
0.266479
0.287983
0.289485
0.282488
0.267997
0.270944
0.297235
0.296031
0.26214
0.247771
0.227271
0.198083
0.102863
0.0307446
-0.145354
-0.277008
-0.597612
-0.835409
-1.39745
-1.74243
-2.47263
-2.969
-3.92606
-4.09927
-3.73691
-3.00697
-0.843033
-0.208089
-0.0500055
-0.0112684
-63.4727
359.129
-3.08874
-3.94003
-6.83123
-8.57178
-10.2386
-11.0024
-11.2889
-11.2892
-10.4808
-9.93581
-7.59073
-7.31898
-8.58309
-10.0507
-16.6039
-17.3598
-14.0521
-12.9626
-10.5226
-9.6383
-7.86957
-7.10545
-5.0773
-4.7092
-4.93296
-5.14874
-6.31572
-6.17678
-4.45117
-3.96879
-3.08349
-2.74742
-1.80525
-1.65057
-1.85248
-1.77452
-1.20685
-1.02186
-0.638465
-0.514745
-0.275564
-0.200287
-0.0580015
-0.0138148
0.0762627
0.102556
0.166172
0.193831
0.269097
0.287209
0.291526
0.28714
0.281934
0.284724
0.305281
0.303881
0.272411
0.260063
0.233979
0.208384
0.108555
0.0469605
-0.136407
-0.248866
-0.583375
-0.78521
-1.36258
-1.65654
-2.42193
-2.8248
-3.65428
-3.80027
-3.59662
-2.99417
-0.70542
-0.166503
-0.0396947
-0.00891241
-64.1744
383.88
-7.19371
-7.96592
-9.61928
-10.6719
-11.5275
-11.98
-11.9744
-11.9392
-10.9193
-10.4783
-7.45809
-7.26506
-9.07693
-10.2222
-18.0446
-18.5842
-14.2535
-13.4056
-10.6572
-10.0058
-8.05073
-7.47632
-5.03584
-4.76057
-5.12628
-5.3127
-6.87949
-6.78366
-4.66878
-4.29104
-3.19509
-2.93265
-1.80731
-1.69348
-1.99764
-1.94133
-1.25195
-1.11039
-0.664698
-0.571418
-0.29628
-0.239399
-0.0720992
-0.0381779
0.0698682
0.0909878
0.174331
0.195227
0.273997
0.286985
0.293915
0.291826
0.29555
0.297795
0.314206
0.312934
0.28192
0.272907
0.240669
0.221657
0.112718
0.0680491
-0.130294
-0.211841
-0.574443
-0.719985
-1.33904
-1.55179
-2.38572
-2.66351
-3.40978
-3.51517
-3.47217
-3.0487
-0.497722
-0.108373
-0.0255167
-0.00570357
-64.8764
408.915
-11.5514
-11.956
-12.4309
-12.7795
-12.8323
-12.9758
-12.6609
-12.6286
-11.3347
-11.1239
-7.21235
-7.13092
-9.5974
-10.1266
-19.7767
-20.0033
-14.3155
-13.9246
-10.708
-10.4255
-8.17675
-7.92191
-4.90784
-4.78634
-5.32683
-5.42149
-7.50982
-7.47135
-4.81695
-4.64206
-3.27339
-3.15244
-1.76895
-1.7197
-2.15724
-2.1335
-1.27516
-1.21111
-0.676854
-0.635382
-0.308279
-0.282939
-0.0808705
-0.0655128
0.0669454
0.0769259
0.184984
0.194304
0.281527
0.287002
0.296664
0.296279
0.309227
0.3103
0.32384
0.323179
0.290549
0.286682
0.246831
0.238528
0.114313
0.0952857
-0.128853
-0.163573
-0.574193
-0.635818
-1.33174
-1.42219
-2.37174
-2.48345
-3.19088
-3.23594
-3.36286
-3.18826
-0.203503
-0.0379477
-0.00880333
-0.00195781
-65.5785
406.405
-11.7389
-12.0669
-11.0624
-11.3068
-11.4916
-11.6862
-12.1703
-12.224
-10.9481
-10.7505
-7.02077
-6.91458
-8.62394
-9.03369
-17.8719
-18.1632
-14.9991
-14.8088
-11.8299
-11.5834
-9.21893
-8.93373
-5.50648
-5.35606
-5.93306
-6.03176
-8.39826
-8.35289
-5.35109
-5.15408
-3.68062
-3.545
-1.97335
-1.92061
-2.48641
-2.46224
-1.49909
-1.42527
-0.805434
-0.756155
-0.384578
-0.353629
-0.108121
-0.0883061
0.0639293
0.0750501
0.151702
0.154216
0.120188
0.12572
0.300312
0.300851
0.175549
0.159581
-0.0176455
-0.0373493
-0.107375
-0.16147
-0.815329
-1.06228
-5.44565
-5.74183
-7.10774
-7.33609
-9.55923
-9.84587
-12.2789
-12.5088
-13.5104
-13.506
-11.354
-10.992
-7.15747
-6.53735
-0.438406
-0.0836084
-0.0194552
-0.00452862
53.6169
380.938
-7.31729
-7.90543
-8.27139
-9.05694
-9.84742
-10.4202
-11.2802
-11.4771
-10.5606
-10.1521
-7.23184
-6.98558
-8.22034
-9.06044
-15.9071
-16.5777
-14.5349
-14.1946
-11.8581
-11.3128
-9.26861
-8.62185
-5.81035
-5.46107
-5.81584
-6.00208
-7.76169
-7.64735
-5.25633
-4.82855
-3.63154
-3.33566
-2.06329
-1.9411
-2.33667
-2.27812
-1.50467
-1.34063
-0.817306
-0.705181
-0.388675
-0.318033
-0.109087
-0.0639671
0.0645279
0.0896252
0.153323
0.159361
0.136033
0.14745
0.278809
0.278498
0.174234
0.137156
-0.0198226
-0.0706195
-0.178624
-0.31628
-0.965635
-1.52475
-5.09756
-5.7798
-7.12864
-7.6884
-9.73221
-10.4288
-12.6807
-13.2514
-14.2765
-14.3089
-12.6308
-11.7554
-7.95397
-6.44134
-1.08546
-0.239204
-0.0563982
-0.0131394
60.5467
355.76
-3.16066
-3.75249
-5.46319
-6.80654
-8.21172
-9.14251
-10.4165
-10.7748
-10.1527
-9.65422
-7.33595
-6.99736
-7.83253
-8.84692
-14.1894
-15.1006
-14.0027
-13.6603
-11.8148
-11.1023
-9.26247
-8.39665
-6.01581
-5.53798
-5.70541
-5.90952
-7.20013
-7.03294
-5.08309
-4.53384
-3.54647
-3.16542
-2.10726
-1.94091
-2.20513
-2.12262
-1.48591
-1.27039
-0.812754
-0.662403
-0.382955
-0.287983
-0.103511
-0.0429723
0.0692555
0.102651
0.157247
0.165678
0.150487
0.164382
0.262573
0.260304
0.170234
0.11953
-0.0262432
-0.101596
-0.248677
-0.450608
-1.11953
-1.86665
-4.86506
-5.79109
-7.18109
-7.98132
-9.95906
-10.9495
-13.1497
-13.9758
-15.0824
-15.1803
-13.8755
-12.6359
-8.65897
-6.4991
-1.55215
-0.368272
-0.0877645
-0.0204596
67.4768
330.717
0.883148
0.445887
-2.669
-4.55311
-6.59457
-7.8508
-9.5892
-10.1115
-9.73982
-9.22911
-7.36091
-6.96221
-7.43754
-8.46025
-12.6489
-13.7038
-13.4402
-13.1861
-11.7262
-10.937
-9.21753
-8.2322
-6.14529
-5.58919
-5.59362
-5.7736
-6.69698
-6.48992
-4.85393
-4.25675
-3.43722
-3.02234
-2.11562
-1.92356
-2.08751
-1.98935
-1.45034
-1.20988
-0.79595
-0.624824
-0.369885
-0.261537
-0.0929976
-0.0240596
0.0771252
0.114821
0.163011
0.172936
0.163776
0.177941
0.250355
0.245622
0.164663
0.105712
-0.0354739
-0.129693
-0.316522
-0.566236
-1.27028
-2.11847
-4.71542
-5.78378
-7.25709
-8.22711
-10.2254
-11.4218
-13.6736
-14.6889
-15.9285
-16.1078
-15.1176
-13.6259
-9.29135
-6.66839
-1.86834
-0.461224
-0.110611
-0.025781
74.4073
305.669
4.94908
4.75224
0.0768271
-2.29267
-5.0083
-6.53944
-8.81032
-9.48388
-9.33245
-8.85831
-7.32712
-6.89212
-7.02067
-7.94691
-11.2337
-12.3597
-12.8773
-12.7602
-11.6109
-10.8091
-9.14341
-8.112
-6.2137
-5.61813
-5.47494
-5.60806
-6.23915
-6.00419
-4.58333
-3.98866
-3.3119
-2.89903
-2.09549
-1.89205
-1.98045
-1.87378
-1.40289
-1.15636
-0.769485
-0.59064
-0.350988
-0.237528
-0.0785235
-0.00645537
0.0875204
0.126561
0.170299
0.180953
0.176128
0.189168
0.241223
0.233992
0.158214
0.0951879
-0.0465743
-0.154072
-0.381831
-0.663662
-1.41522
-2.30029
-4.62687
-5.76022
-7.35317
-8.43172
-10.5237
-11.8518
-14.2469
-15.393
-16.8172
-17.0822
-16.3799
-14.7297
-9.85534
-6.92483
-2.04886
-0.511938
-0.122837
-0.0285909
81.3383
280.475
9.16718
9.23872
2.73138
-0.0175929
-3.46882
-5.19809
-8.09509
-8.88911
-8.93795
-8.5298
-7.24951
-6.79952
-6.57188
-7.33911
-9.90481
-11.04
-12.3399
-12.3757
-11.4819
-10.7159
-9.04414
-8.02668
-6.2302
-5.62914
-5.34534
-5.42272
-5.8161
-5.56602
-4.27981
-3.72398
-3.17613
-2.79144
-2.05144
-1.84895
-1.88127
-1.77284
-1.34654
-1.10852
-0.734756
-0.558938
-0.327083
-0.215375
-0.0605983
0.010252
0.100097
0.138101
0.178902
0.189584
0.187763
0.198834
0.234462
0.225105
0.15126
0.0878206
-0.0590352
-0.173625
-0.444954
-0.742266
-1.55477
-2.42441
-4.58601
-5.71822
-7.46978
-8.59574
-10.8525
-12.2392
-14.8702
-16.0861
-17.7521
-18.0953
-17.6802
-15.9626
-10.3417
-7.25915
-2.09587
-0.516762
-0.12328
-0.0286151
88.27
254.99
13.6738
13.9894
5.23657
2.28636
-1.99764
-3.80964
-7.46372
-8.32401
-8.56167
-8.23619
-7.13873
-6.69805
-6.08329
-6.65933
-8.63312
-9.71354
-11.853
-12.0285
-11.3479
-10.6591
-8.91891
-7.97274
-6.19906
-5.62763
-5.20145
-5.22488
-5.41892
-5.16943
-3.94722
-3.45912
-3.03396
-2.69818
-1.98598
-1.79654
-1.7878
-1.6847
-1.28273
-1.06617
-0.692165
-0.529526
-0.298413
-0.194977
-0.0393423
0.0261791
0.114733
0.149519
0.188703
0.19871
0.198879
0.207516
0.229501
0.2188
0.143894
0.0837969
-0.0727762
-0.186892
-0.507014
-0.80023
-1.692
-2.49679
-4.58626
-5.6514
-7.61135
-8.71447
-11.2161
-12.5767
-15.55
-16.7611
-18.74
-19.1388
-19.0327
-17.3518
-10.7266
-7.67678
-1.99954
-0.474184
-0.111783
-0.0258431
95.2022
229.047
18.6235
19.1036
7.51052
4.64437
-0.62483
-2.34715
-6.94387
-7.7837
-8.20789
-7.97348
-7.00172
-6.60357
-5.54706
-5.92359
-7.3971
-8.34473
-11.4446
-11.7155
-11.2143
-10.6446
-8.76212
-7.95209
-6.12001
-5.62045
-5.03969
-5.02034
-5.0396
-4.81187
-3.58538
-3.19185
-2.88831
-2.62006
-1.89971
-1.73698
-1.69817
-1.60858
-1.21156
-1.03018
-0.64117
-0.502896
-0.264672
-0.176696
-0.0145051
0.0411667
0.131505
0.16075
0.199663
0.208224
0.209654
0.215662
0.225848
0.215066
0.135939
0.0836387
-0.0882057
-0.191905
-0.570129
-0.834221
-1.83268
-2.51775
-4.62744
-5.54873
-7.78715
-8.77721
-11.6253
-12.8496
-16.3003
-17.4053
-19.7912
-20.2025
-20.4482
-18.9387
-10.9685
-8.19955
-1.73718
-0.385107
-0.0892384
-0.0205331
102.135
202.456
24.2022
24.7016
9.43608
7.09904
0.606507
-0.769407
-6.57414
-7.25993
-7.88042
-7.74027
-6.84178
-6.53545
-4.95351
-5.14395
-6.18208
-6.88979
-11.1494
-11.4335
-11.0836
-10.6827
-8.56259
-7.97248
-5.98779
-5.61664
-4.85558
-4.81435
-4.67025
-4.49436
-3.19032
-2.92107
-2.74133
-2.5601
-1.79119
-1.67253
-1.61064
-1.5448
-1.13182
-1.00254
-0.580186
-0.480299
-0.224949
-0.161406
0.0145744
0.0547534
0.15071
0.171587
0.211833
0.218021
0.220244
0.223641
0.223034
0.214066
0.126915
0.0882675
-0.106353
-0.185925
-0.637792
-0.838813
-1.98585
-2.48168
-4.71611
-5.39333
-8.01284
-8.7656
-12.0994
-13.0335
-17.1443
-17.9984
-20.9213
-21.2729
-21.934
-20.7842
-11.0024
-8.87012
-1.27044
-0.253798
-0.0576159
-0.0131946
109.068
174.98
30.6452
30.9306
10.8449
9.72028
1.63343
0.985652
-6.40906
-6.73872
-7.58336
-7.53741
-6.65818
-6.51835
-4.28905
-4.33037
-4.98025
-5.29275
-11.0133
-11.1769
-10.9551
-10.7897
-8.30196
-8.04874
-5.79112
-5.62849
-4.64275
-4.61253
-4.30224
-4.22203
-2.75393
-2.64677
-2.59447
-2.52369
-1.65671
-1.60585
-1.52329
-1.49495
-1.04076
-0.986648
-0.506329
-0.463941
-0.177572
-0.150629
0.0490746
0.0661001
0.172912
0.181644
0.225361
0.227975
0.230786
0.231779
0.220555
0.216196
0.115953
0.0991388
-0.129097
-0.165045
-0.715476
-0.805548
-2.16505
-2.37604
-4.86705
-5.16022
-8.31317
-8.65072
-12.6695
-13.0902
-18.1187
-18.5086
-22.1543
-22.3309
-23.4923
-22.975
-10.7305
-9.7594
-0.540387
-0.0896779
-0.0199291
-0.00454714
116.002
171.272
-4.12862
-4.59128
-7.92991
-7.91822
-4.84009
-4.80777
-8.08162
-8.14431
-6.77187
-6.52854
-4.14295
-3.94274
-2.09198
-2.03721
-2.06985
-2.09696
-2.91801
-2.87991
-1.97162
-1.87717
-0.981287
-0.908528
-0.389722
-0.354431
-0.205342
-0.186831
-0.00852454
0.00709808
0.0499975
0.0636764
0.268141
0.281451
0.33977
0.347308
0.362102
0.362842
0.324229
0.31433
0.159917
0.166596
0.440835
0.450316
0.370853
0.360508
0.239092
0.227678
0.122502
0.109898
-0.0363246
-0.0587448
-0.338403
-0.376539
-0.812109
-0.888912
-2.02156
-2.0798
-1.55127
-1.89868
-9.75811
-10.2514
-13.0922
-13.4551
-17.7544
-18.2457
-24.2013
-24.7318
-30.1982
-30.6065
-34.3167
-34.4585
-34.9848
-34.5713
-25.227
-25.579
-47.8408
-46.8097
-2.11087
-0.28338
404.703
176.926
-4.41942
-5.5564
-8.52803
-8.48163
-5.65567
-5.54829
-8.27881
-8.39584
-6.98773
-6.38857
-4.30436
-3.85717
-2.43589
-2.33991
-2.44143
-2.49079
-2.98842
-2.87454
-2.08292
-1.86416
-1.10539
-0.937874
-0.484767
-0.402783
-0.272751
-0.228833
-0.0639465
-0.0246765
0.0283578
0.0605945
0.226897
0.257379
0.314991
0.335283
0.365019
0.368253
0.330662
0.307893
0.185024
0.2008
0.427415
0.448825
0.382077
0.358249
0.255708
0.229618
0.139251
0.110486
-0.0143163
-0.0663355
-0.31153
-0.400379
-0.781331
-0.955158
-1.88883
-2.04405
-1.8538
-2.63059
-8.89173
-9.98293
-12.4829
-13.3151
-16.9476
-18.0506
-22.9614
-24.1386
-28.6207
-29.5113
-32.4501
-32.7173
-32.8669
-31.9461
-24.6652
-25.2327
-41.2229
-38.9445
-4.61774
-0.78654
378.481
182.732
-4.81476
-6.44812
-9.24687
-9.15622
-6.36252
-6.17531
-8.58057
-8.70841
-7.17128
-6.30807
-4.40036
-3.81062
-2.72684
-2.63474
-2.81513
-2.86671
-3.08331
-2.89631
-2.17133
-1.87279
-1.20587
-0.978672
-0.564989
-0.453076
-0.336732
-0.275688
-0.114356
-0.0570127
0.00754049
0.0521421
0.191078
0.232217
0.291699
0.322877
0.368994
0.375295
0.336501
0.30546
0.204584
0.226569
0.422203
0.45086
0.391585
0.35914
0.269269
0.234131
0.153538
0.114916
0.00478176
-0.0661984
-0.290911
-0.412535
-0.758838
-0.991008
-1.78723
-2.0221
-2.11764
-3.1431
-8.23214
-9.65815
-11.9404
-13.0631
-16.242
-17.7031
-21.8709
-23.4131
-27.1868
-28.3342
-30.6903
-30.9808
-30.7919
-29.5753
-23.7896
-24.2694
-35.3357
-32.3611
-5.90471
-1.16265
352.284
188.692
-5.29846
-7.2932
-10.0813
-9.93894
-6.96513
-6.69867
-8.97347
-9.08765
-7.32796
-6.26945
-4.44374
-3.78393
-2.97819
-2.91873
-3.19403
-3.23608
-3.19441
-2.93967
-2.24275
-1.89622
-1.28881
-1.02697
-0.633177
-0.503577
-0.398526
-0.326577
-0.160626
-0.0896547
-0.0124938
0.0399034
0.159161
0.206312
0.269532
0.309868
0.374558
0.384139
0.342029
0.30582
0.219229
0.245392
0.423668
0.456413
0.400022
0.362331
0.280644
0.240465
0.166149
0.12221
0.0223155
-0.0599108
-0.274414
-0.415702
-0.740909
-1.00429
-1.70808
-2.00571
-2.34425
-3.49305
-7.71904
-9.2991
-11.4443
-12.7288
-15.6051
-17.2474
-20.8853
-22.5984
-25.858
-27.1087
-29.0133
-29.2635
-28.7581
-27.3874
-22.6633
-22.8827
-30.01
-26.7169
-6.323
-1.38751
326.127
194.818
-5.86633
-8.1065
-11.0329
-10.8349
-7.45947
-7.12041
-9.45286
-9.54193
-7.45672
-6.26165
-4.44061
-3.76318
-3.19978
-3.18941
-3.58232
-3.60886
-3.3141
-3.00078
-2.30024
-1.93015
-1.358
-1.08061
-0.690844
-0.553134
-0.459029
-0.381254
-0.203123
-0.122567
-0.031557
0.024974
0.130114
0.179753
0.248272
0.295877
0.382321
0.395047
0.347319
0.308194
0.229363
0.258128
0.430953
0.465531
0.407712
0.367285
0.290363
0.24817
0.177549
0.131745
0.0391448
-0.0483308
-0.260846
-0.411513
-0.725452
-0.99996
-1.64516
-1.98767
-2.53842
-3.71987
-7.31175
-8.91742
-10.9825
-12.3309
-15.0175
-16.7119
-19.9768
-21.7218
-24.6095
-25.857
-27.4024
-27.5766
-26.759
-25.3337
-21.3395
-21.2198
-25.1011
-21.7567
-6.12281
-1.46052
300.014
201.125
-6.52501
-8.89231
-12.1094
-11.858
-7.83238
-7.43535
-10.022
-10.0833
-7.54999
-6.27904
-4.39189
-3.738
-3.39935
-3.44403
-3.98534
-3.99457
-3.4346
-3.07747
-2.34459
-1.97225
-1.41547
-1.1388
-0.73848
-0.60099
-0.518915
-0.439979
-0.241745
-0.155922
-0.0492624
0.00808213
0.103271
0.152426
0.227838
0.280325
0.393027
0.408371
0.352264
0.312156
0.235191
0.265101
0.443766
0.478344
0.414708
0.373703
0.298698
0.257017
0.187961
0.143155
0.0557716
-0.0317476
-0.24975
-0.400791
-0.711571
-0.980795
-1.59435
-1.96127
-2.70733
-3.85024
-6.98388
-8.51735
-10.5494
-11.8794
-14.4697
-16.1135
-19.129
-20.7995
-23.4267
-24.5935
-25.8464
-25.9294
-24.7844
-23.383
-19.8608
-19.3968
-20.4811
-17.2878
-5.4836
-1.39469
273.949
207.638
-7.2924
-9.64409
-13.3247
-13.0321
-8.06018
-7.63098
-10.6923
-10.7285
-7.59291
-6.32122
-4.29398
-3.70034
-3.58369
-3.67888
-4.40972
-4.40312
-3.54707
-3.16928
-2.37461
-2.02182
-1.46181
-1.20201
-0.775654
-0.646672
-0.578713
-0.503507
-0.2759
-0.190136
-0.0650168
-0.0103417
0.0782552
0.124036
0.20831
0.262357
0.407623
0.424549
0.356568
0.317591
0.236743
0.266121
0.462342
0.495087
0.420802
0.381485
0.305705
0.266963
0.197407
0.156272
0.0724063
-0.00994362
-0.241332
-0.38368
-0.699351
-0.947851
-1.55338
-1.91968
-2.86033
-3.90094
-6.71998
-8.09732
-10.1444
-11.3775
-13.9596
-15.4602
-18.335
-19.839
-22.3022
-23.3265
-24.3373
-24.3315
-22.8201
-21.5172
-18.2598
-17.5118
-16.0321
-13.1632
-4.53562
-1.21053
247.93
214.387
-8.20007
-10.3427
-14.6989
-14.3933
-8.10629
-7.68703
-11.4837
-11.5007
-7.56139
-6.39376
-4.13885
-3.64371
-3.75964
-3.88836
-4.86365
-4.84571
-3.64049
-3.27784
-2.38704
-2.07975
-1.49621
-1.27193
-0.800979
-0.689951
-0.638834
-0.573161
-0.304406
-0.225947
-0.0779726
-0.0301387
0.0549381
0.0940952
0.189983
0.240733
0.427347
0.444121
0.35971
0.3247
0.233885
0.260465
0.487456
0.51611
0.425499
0.390729
0.311235
0.278147
0.20572
0.171101
0.0889825
0.0178233
-0.236474
-0.359634
-0.689816
-0.900623
-1.52198
-1.8551
-3.0093
-3.88046
-6.51372
-7.65047
-9.77197
-10.8217
-13.4928
-14.7519
-17.5958
-18.84
-21.2353
-22.0601
-22.8688
-22.7938
-20.8476
-19.7297
-16.5586
-15.6562
-11.6385
-9.26873
-3.37541
-0.932456
221.949
221.413
-9.29774
-10.9527
-16.2596
-15.9938
-7.91772
-7.57448
-12.4263
-12.4313
-7.41911
-6.5099
-3.91344
-3.56273
-3.93515
-4.06405
-5.35737
-5.33584
-3.70026
-3.4076
-2.37619
-2.14878
-1.5163
-1.35176
-0.811944
-0.730864
-0.699562
-0.65096
-0.325321
-0.264556
-0.0869379
-0.0514382
0.0334471
0.0618762
0.173455
0.213669
0.453862
0.467739
0.360875
0.33404
0.22633
0.246792
0.520501
0.541905
0.427965
0.401765
0.314913
0.290907
0.212524
0.187833
0.105122
0.0529167
-0.236861
-0.327307
-0.685055
-0.836969
-1.50209
-1.75765
-3.16956
-3.78947
-6.3673
-7.16423
-9.44238
-10.201
-13.0825
-13.9803
-16.9206
-17.795
-20.2312
-20.7943
-21.4358
-21.3311
-18.8421
-18.0245
-14.7667
-13.9251
-7.17897
-5.51513
-2.07708
-0.586664
195.999
228.772
-10.6608
-11.4166
-18.0431
-17.9067
-7.41986
-7.25415
-13.5628
-13.5626
-7.11277
-6.69361
-3.59827
-3.45287
-4.12045
-4.19319
-5.90371
-5.89057
-3.70635
-3.56694
-2.33322
-2.23406
-1.5177
-1.44663
-0.804582
-0.769805
-0.761
-0.739856
-0.335654
-0.30785
-0.0902282
-0.0747213
0.0142075
0.0263257
0.159776
0.178602
0.489427
0.496185
0.358838
0.346615
0.213648
0.222988
0.563639
0.573114
0.426922
0.415229
0.316078
0.305845
0.217183
0.206887
0.120042
0.0975136
-0.245221
-0.284288
-0.688526
-0.752785
-1.49859
-1.61394
-3.36148
-3.62015
-6.2921
-6.61872
-9.17356
-9.49533
-12.7516
-13.1269
-16.3281
-16.6875
-19.3021
-19.5255
-20.0326
-19.9637
-16.7698
-16.4169