/*--------------------------------*- C++ -*----------------------------------*\
| =========                 |                                                 |
| \\      /  F ield         | OpenFOAM: The Open Source CFD Toolbox           |
|  \\    /   O peration     | Version:  5.x                                   |
|   \\  /    A nd           | Web:      www.OpenFOAM.org                      |
|    \\/     M anipulation  |                                                 |
\*---------------------------------------------------------------------------*/
FoamFile
{
    version     2.0;
    format      ascii;
    class       volScalarField;
    location    "0.5";
    object      T;
}
// * * * * * * * * * * * * * * * * * * * * * * * * * * * * * * * * * * * * * //

dimensions      [0 0 0 1 0 0 0];

internalField   nonuniform List<scalar> 
3200
(
0.670978
7.88479
8.18738
8.20262
7.56426
7.51031
6.81108
6.75241
6.15871
6.10789
5.63443
5.59704
5.31828
5.28712
4.9298
4.88741
4.32295
4.28087
3.95216
3.92477
3.70498
3.68654
3.53793
3.52647
3.44626
3.43897
3.37011
3.36441
3.30905
3.30575
3.28778
3.28716
3.28985
3.29041
3.2944
3.2971
3.34548
3.34998
3.39065
3.39469
3.43181
3.43585
3.47734
3.48145
3.51811
3.52173
3.55298
3.55573
3.57429
3.57722
3.61544
3.61861
3.64511
3.64724
3.66161
3.66347
3.68561
3.68727
3.69853
3.69964
3.70955
3.71055
3.72057
3.72118
3.72328
3.72298
3.71402
3.7124
3.68965
3.68571
3.63361
3.62576
3.53167
3.52294
3.48014
3.472
3.46057
3.45569
3.45424
3.45388
1.72438
7.22399
7.858
7.91834
7.44468
7.332
6.76927
6.64027
6.14872
6.03487
5.63902
5.55394
5.31209
5.24158
4.94543
4.85175
4.39206
4.29816
4.01953
3.95711
3.76988
3.72782
3.60196
3.57584
3.50698
3.4905
3.43356
3.42097
3.37601
3.36876
3.35394
3.35265
3.35526
3.35671
3.3614
3.36763
3.40791
3.4182
3.45343
3.46274
3.49457
3.50387
3.53951
3.54905
3.58099
3.58941
3.61655
3.62303
3.64007
3.64682
3.67859
3.68575
3.70826
3.71316
3.72599
3.73024
3.74863
3.7524
3.76222
3.76478
3.77331
3.77558
3.78395
3.78534
3.78722
3.78657
3.77908
3.77535
3.75552
3.74637
3.70107
3.68275
3.60076
3.57935
3.53239
3.50947
3.47479
3.46029
3.45602
3.45498
2.55782
6.75784
7.55157
7.65544
7.31069
7.17172
6.71013
6.54267
6.12366
5.97316
5.63121
5.51714
5.29909
5.20508
4.953
4.83076
4.44655
4.32287
4.07826
3.99445
3.82898
3.77246
3.66202
3.62693
3.56561
3.54364
3.49524
3.47883
3.44147
3.43207
3.41958
3.41799
3.42073
3.42288
3.42835
3.43681
3.47155
3.48543
3.51724
3.5299
3.55823
3.57084
3.60274
3.61576
3.64481
3.65635
3.68094
3.68991
3.70627
3.71543
3.74272
3.75227
3.77211
3.77878
3.79071
3.79646
3.81224
3.81729
3.82621
3.8297
3.83732
3.84038
3.84761
3.84949
3.85126
3.85043
3.84399
3.83896
3.82096
3.8085
3.76745
3.74229
3.66742
3.63678
3.58368
3.54742
3.48822
3.46448
3.45767
3.45604
3.22326
6.42796
7.27278
7.41053
7.1685
7.0244
6.63928
6.45518
6.0879
5.91915
5.61434
5.48455
5.28116
5.17496
4.95541
4.82029
4.49066
4.35245
4.1306
4.03509
3.88376
3.81929
3.71909
3.67908
3.62269
3.59786
3.55565
3.53755
3.50582
3.49553
3.48478
3.48317
3.48622
3.48894
3.49518
3.50494
3.53603
3.55195
3.58183
3.59643
3.62254
3.63704
3.66673
3.68183
3.70933
3.72277
3.74597
3.7565
3.77276
3.78332
3.80757
3.8184
3.8365
3.84419
3.85569
3.86228
3.87628
3.88203
3.89043
3.89445
3.90153
3.90503
3.9115
3.91366
3.91542
3.91454
3.90885
3.90309
3.8862
3.87177
3.83322
3.80384
3.73233
3.69513
3.63431
3.58631
3.50024
3.46801
3.45913
3.45704
3.76054
6.19251
7.0223
7.18085
7.02246
6.88678
6.56046
6.37509
6.04427
5.87066
5.59052
5.45496
5.25941
5.14942
4.9545
4.81765
4.52717
4.38542
4.17792
4.078
3.93509
3.86757
3.77377
3.73191
3.67852
3.6528
3.61512
3.59682
3.56933
3.55901
3.54963
3.54817
3.55174
3.55486
3.56188
3.57223
3.60112
3.61792
3.64704
3.66252
3.68731
3.70265
3.73131
3.74742
3.77443
3.78882
3.81152
3.82287
3.8395
3.85068
3.87296
3.88424
3.90131
3.90946
3.92087
3.92782
3.94067
3.94668
3.95483
3.9591
3.96589
3.96956
3.97557
3.97786
3.97971
3.97885
3.97374
3.96768
3.95136
3.93603
3.89863
3.86708
3.79589
3.75443
3.68444
3.62673
3.51012
3.47063
3.46034
3.45798
4.20058
6.02118
6.79872
6.96391
6.87556
6.75685
6.47607
6.30088
5.99442
5.8265
5.561
5.42784
5.2343
5.12734
4.95132
4.82121
4.55777
4.42106
4.22099
4.12267
3.98344
3.91694
3.82641
3.78523
3.73327
3.70823
3.67384
3.65648
3.63217
3.62247
3.61418
3.61299
3.61729
3.62063
3.62846
3.63878
3.66671
3.6834
3.7128
3.72824
3.75247
3.76773
3.79641
3.81259
3.84004
3.85454
3.87753
3.88904
3.90646
3.9176
3.93882
3.94987
3.9665
3.97462
3.98625
3.99314
4.00535
4.01127
4.01941
4.02367
4.03039
4.03402
4.03981
4.04209
4.04411
4.04334
4.03867
4.0327
4.01649
4.00119
3.96382
3.93193
3.85827
3.8149
3.73411
3.66953
3.51694
3.47209
3.46124
3.45883
4.56781
5.89162
6.59968
6.75716
6.72995
6.63347
6.38753
6.23201
5.93912
5.78631
5.52625
5.40321
5.20578
5.10809
4.94637
4.83016
4.58337
4.45929
4.26003
4.16902
4.02892
3.9673
3.8771
3.83901
3.78696
3.76407
3.73189
3.71644
3.69444
3.68589
3.67847
3.67759
3.68289
3.68624
3.69495
3.70464
3.73276
3.74839
3.77913
3.79362
3.81801
3.83228
3.86202
3.87731
3.90619
3.91993
3.94401
3.95498
3.97369
3.98413
4.00508
4.01529
4.03204
4.03965
4.05184
4.05826
4.07029
4.07577
4.08415
4.08815
4.09503
4.09842
4.1042
4.10635
4.10865
4.10801
4.10368
4.09814
4.0816
4.06724
4.02881
3.99846
3.91946
3.87688
3.78314
3.71586
3.51946
3.47221
3.46183
3.45961
4.88211
5.78672
6.4227
6.55785
6.58716
6.51614
6.29544
6.1687
5.87827
5.75049
5.48608
5.38161
5.17334
5.09145
4.93965
4.84439
4.6041
4.50058
4.29478
4.21737
4.0713
4.01883
3.92574
3.89337
3.83952
3.82029
3.78929
3.77667
3.75619
3.74928
3.7425
3.74197
3.74858
3.75164
3.76142
3.76978
3.79931
3.81278
3.84612
3.85861
3.88395
3.89623
3.92821
3.9415
3.97295
3.98492
4.01103
4.02063
4.04126
4.05025
4.0718
4.08046
4.09796
4.10451
4.11767
4.12317
4.13551
4.14018
4.14908
4.15253
4.15983
4.16272
4.16876
4.17061
4.17331
4.17285
4.16875
4.16404
4.14665
4.13428
4.0935
4.06696
3.97921
3.94092
3.83113
3.76738
3.51604
3.47087
3.4621
3.4603
5.16026
5.6926
6.26579
6.36281
6.44843
6.40484
6.19964
6.11199
5.81097
5.72018
5.43957
5.36421
5.13589
5.07765
4.93071
4.86445
4.6194
4.54599
4.32443
4.26849
4.10995
4.072
3.97196
3.94861
3.8907
3.877
3.84597
3.83723
3.81741
3.81268
3.80629
3.80606
3.81442
3.81679
3.82794
3.83407
3.86651
3.87639
3.91395
3.9231
3.95043
3.9594
3.99516
4.00497
4.04049
4.04935
4.07871
4.08584
4.1093
4.11589
4.13903
4.14528
4.16432
4.16911
4.18381
4.18782
4.20105
4.20443
4.21425
4.21677
4.22481
4.22692
4.23349
4.23486
4.23812
4.23784
4.23386
4.23046
4.2115
4.20246
4.15763
4.13792
4.03699
4.00784
3.87729
3.82642
3.50438
3.46809
3.46211
3.46093
5.41712
5.59686
6.12795
6.16825
6.3149
6.30004
6.09918
6.06385
5.7353
5.6975
5.38488
5.35296
5.09167
5.06743
4.91857
4.8917
4.62785
4.59735
4.34748
4.32373
4.1438
4.12768
4.01513
4.00524
3.94013
3.93441
3.90177
3.89825
3.87803
3.87615
3.86984
3.86982
3.88051
3.88159
3.89468
3.89732
3.93463
3.93889
3.98292
3.98686
4.01764
4.0215
4.06314
4.06741
4.10911
4.11297
4.14729
4.15041
4.17802
4.18086
4.20695
4.2096
4.23127
4.23332
4.25039
4.2521
4.26699
4.26842
4.27971
4.28079
4.29004
4.29094
4.29844
4.29903
4.30307
4.30298
4.29895
4.29751
4.27596
4.27208
4.22076
4.21213
4.0919
4.07882
3.92028
3.89631
3.4813
3.4641
3.46193
3.46152
9.01129
9.11832
12.0842
12.2093
12.9373
12.9274
12.5458
12.4781
11.8103
11.7324
11.0747
11.0027
10.3549
10.297
9.97918
9.89127
8.78763
8.66767
7.64418
7.54797
6.83066
6.76211
6.26754
6.2196
5.86828
5.83077
5.52626
5.48894
5.1928
5.16197
5.00072
4.97866
4.79806
4.78175
4.68774
4.67614
4.58367
4.57447
4.52381
4.51902
4.50004
4.4984
4.5014
4.50162
4.51333
4.51446
4.53057
4.5319
4.54169
4.54375
4.57257
4.57535
4.60071
4.60291
4.61596
4.61821
4.64464
4.64694
4.66203
4.66393
4.68231
4.68353
4.68701
4.68611
4.66293
4.65822
4.58723
4.57525
4.40491
4.38274
4.11055
4.06878
3.4551
3.40692
2.98849
2.96763
2.96433
2.96361
2.96344
2.9634
10.3122
10.5232
12.7369
12.9743
13.4739
13.4297
13.0509
12.8844
12.2766
12.0897
11.497
11.3273
10.7668
10.627
10.2948
10.0809
9.09413
8.80975
7.90904
7.68237
7.04404
6.88139
6.43653
6.32271
6.00972
5.92041
5.64275
5.55184
5.27187
5.19519
5.03405
4.97975
4.81658
4.77731
4.68953
4.66124
4.57496
4.55236
4.50378
4.4918
4.47217
4.46775
4.4679
4.46797
4.47662
4.47898
4.49204
4.49512
4.50435
4.50914
4.53351
4.53991
4.56182
4.56705
4.57967
4.58504
4.60779
4.61324
4.6272
4.63171
4.6476
4.65046
4.6537
4.65173
4.63208
4.62136
4.56055
4.5333
4.38939
4.33882
4.10572
4.01248
3.51281
3.40568
3.05773
3.01035
3.00107
2.99897
2.99847
2.99838
11.6046
11.8479
13.4686
13.7289
14.0322
13.9454
13.5476
13.3084
12.7261
12.4632
11.9023
11.6676
11.162
10.9648
10.6058
10.3015
9.37259
8.97653
8.147
7.83328
7.23844
7.012
6.59231
6.43383
6.14225
6.01761
5.75179
5.62231
5.34282
5.2318
5.06312
4.98522
4.83015
4.77483
4.68894
4.64868
4.56372
4.53129
4.48229
4.46489
4.44369
4.43692
4.4344
4.43398
4.44015
4.44306
4.45392
4.45808
4.46718
4.47374
4.49517
4.50385
4.52359
4.53089
4.54368
4.55116
4.57163
4.57919
4.59275
4.59903
4.6134
4.61737
4.62059
4.61805
4.60088
4.58649
4.53253
4.49602
4.37013
4.3022
4.0953
3.97244
3.55482
3.41408
3.11496
3.05155
3.03754
3.03428
3.03351
3.03337
12.8873
13.1175
14.2546
14.4818
14.6062
14.4736
14.038
13.7462
13.1629
12.8488
12.2948
12.0188
11.5449
11.3091
10.9146
10.5472
9.62983
9.16074
8.36441
7.99551
7.41817
7.1504
6.7377
6.55032
6.26814
6.12051
5.85542
5.69883
5.40707
5.27076
5.08858
4.9938
4.83976
4.77358
4.68655
4.63791
4.55039
4.5109
4.45954
4.43814
4.41463
4.40593
4.40082
4.39973
4.40381
4.40683
4.41606
4.42085
4.43011
4.43775
4.45734
4.46734
4.48586
4.49451
4.5079
4.51677
4.53599
4.54489
4.55859
4.56602
4.57962
4.58431
4.58772
4.58495
4.56956
4.55321
4.50381
4.46232
4.34856
4.27114
4.08151
3.9442
3.58576
3.42883
3.16278
3.09081
3.0736
3.06952
3.06855
3.06838
14.1606
14.3507
15.077
15.2387
15.1905
15.014
14.5227
14.1957
13.5891
13.2441
12.6762
12.3781
11.9184
11.6599
11.2225
10.8149
9.86926
9.35816
8.56484
8.16618
7.58561
7.29467
6.87416
6.67067
6.38871
6.22816
5.95476
5.7808
5.46514
5.31159
5.11059
5.00478
4.84587
4.77319
4.68263
4.62871
4.53514
4.49099
4.43561
4.41148
4.38499
4.37479
4.36708
4.36527
4.36752
4.37035
4.37838
4.38344
4.3931
4.40128
4.41989
4.43049
4.44853
4.45793
4.47229
4.48196
4.50076
4.51041
4.52467
4.53277
4.54619
4.5513
4.55509
4.55236
4.53828
4.52124
4.47477
4.4315
4.32553
4.24456
4.06563
3.92481
3.60864
3.44795
3.20285
3.1279
3.10917
3.10467
3.1036
3.10341
15.4262
15.5623
15.9219
16.0041
15.78
15.567
15.001
14.6566
14.0049
13.6485
13.0469
12.7439
12.2839
12.018
11.5293
11.1044
10.0914
9.567
8.7496
8.34424
7.74156
7.44423
7.00201
6.79423
6.5045
6.34038
6.05018
5.86849
5.51678
5.35436
5.12882
5.01791
4.84856
4.77354
4.67728
4.62112
4.51794
4.47154
4.41043
4.38493
4.35469
4.34355
4.3331
4.33065
4.33121
4.33366
4.34081
4.34585
4.35615
4.36439
4.38275
4.39334
4.41153
4.42116
4.43687
4.44678
4.4659
4.47573
4.491
4.4993
4.5131
4.51834
4.52272
4.52021
4.50711
4.49045
4.4456
4.40319
4.3015
4.2219
4.04823
3.91243
3.62532
3.47047
3.23614
3.16277
3.14421
3.13972
3.13866
3.13847
16.6862
16.7648
16.7779
16.7816
16.369
16.1342
15.4705
15.1299
14.409
14.0627
13.4059
13.1162
12.6418
12.3851
11.8337
11.4175
10.2942
9.78769
8.918
8.5303
7.88541
7.59967
7.12057
6.92114
6.61533
6.45772
6.14133
5.96304
5.5609
5.39969
5.14251
5.03342
4.84751
4.77477
4.67034
4.61543
4.49848
4.45269
4.38383
4.35856
4.32364
4.31229
4.29881
4.2959
4.29481
4.29677
4.30333
4.30804
4.31928
4.32709
4.34592
4.35589
4.37487
4.38414
4.40167
4.41123
4.4314
4.44083
4.45761
4.46561
4.48034
4.48542
4.49062
4.48849
4.47609
4.46079
4.41633
4.37725
4.27658
4.20301
4.02932
3.90611
3.63671
3.49618
3.26302
3.19548
3.17872
3.17468
3.17372
3.17355
17.943
17.9699
17.6342
17.5759
16.951
16.7187
15.9272
15.6185
14.7983
14.4895
13.7502
13.496
12.9911
12.7641
12.1328
11.759
10.4725
10.023
9.06724
8.72676
8.01498
7.76293
7.22802
7.05238
6.72029
6.58146
6.227
6.06659
5.59542
5.44891
5.15031
5.05203
4.84196
4.77729
4.66143
4.61223
4.47618
4.43478
4.3555
4.33259
4.29165
4.28112
4.2641
4.26109
4.2583
4.25971
4.26592
4.26996
4.28254
4.28935
4.30945
4.31807
4.3386
4.34678
4.3668
4.37525
4.39732
4.40564
4.42456
4.43165
4.44796
4.45249
4.45882
4.45718
4.44518
4.4323
4.38684
4.35377
4.25058
4.18812
4.00839
3.90564
3.64296
3.52561
3.2833
3.2262
3.21276
3.20955
3.20879
3.20865
19.1987
19.1894
18.4793
18.3928
17.5174
17.3256
16.3646
16.1276
15.1672
14.9337
14.0753
13.8858
13.3295
13.1593
12.4218
12.1371
10.6173
10.2787
9.19195
8.93814
8.12623
7.93756
7.32116
7.18993
6.81757
6.71387
6.30495
6.1826
5.617
5.50424
5.15012
5.07513
4.83061
4.78187
4.64988
4.61252
4.45011
4.41839
4.32492
4.30735
4.25845
4.2502
4.22882
4.22626
4.22161
4.22245
4.2286
4.23155
4.24603
4.25107
4.27343
4.27977
4.30282
4.30895
4.33238
4.33873
4.3638
4.37002
4.39199
4.39731
4.41606
4.41948
4.42733
4.42628
4.4143
4.4051
4.35686
4.3331
4.22295
4.17792
3.98438
3.91157
3.6434
3.56005
3.29618
3.25518
3.24641
3.24435
3.24386
3.24378
20.4546
20.4368
19.2995
19.2412
18.0564
17.9633
16.7732
16.6657
15.5071
15.4028
14.3736
14.2904
13.6524
13.5774
12.6926
12.5647
10.715
10.5644
9.2834
9.1719
8.2126
8.12935
7.39493
7.33716
6.90414
6.85852
6.37146
6.31637
5.62048
5.56924
5.13878
5.10503
4.81144
4.78979
4.63455
4.61782
4.41882
4.40447
4.29131
4.28336
4.22362
4.21982
4.19279
4.19152
4.18471
4.18497
4.1914
4.19267
4.2099
4.2121
4.23805
4.2408
4.26772
4.27042
4.29864
4.30145
4.33103
4.33377
4.36008
4.36244
4.38476
4.38629
4.3962
4.39582
4.38331
4.37946
4.32589
4.31588
4.19272
4.17366
3.95554
3.92532
3.63645
3.60172
3.30017
3.2829
3.27982
3.2791
3.27894
3.27891
20.3294
20.3111
19.1555
19.1044
18.0493
17.9737
16.9001
16.8051
15.6831
15.5827
14.5883
14.5076
13.8862
13.8162
13.0238
12.9128
11.2366
11.0965
9.73671
9.61561
8.55373
8.45727
7.63184
7.56389
7.08119
7.02829
6.48788
6.42511
5.64806
5.58982
5.11295
5.07441
4.74489
4.71991
4.54755
4.52785
4.29891
4.28163
4.149
4.1391
4.06846
4.06349
4.03
4.02812
4.01919
4.01929
4.02558
4.0268
4.04075
4.04222
4.05277
4.05479
4.0828
4.08488
4.10036
4.10083
4.09859
4.0971
4.08785
4.08095
4.00632
3.97472
3.46176
3.40054
2.75098
2.66693
1.79506
1.68235
0.567166
0.431462
-0.783874
-0.919135
-1.91927
-2.01834
-2.63502
-2.67207
-2.67886
-2.68043
-2.68081
-2.68089
19.052
19.0418
18.3203
18.2513
17.4932
17.3456
16.5084
16.3035
15.3804
15.1558
14.3244
14.1406
13.6012
13.4421
12.7791
12.536
11.1884
10.8782
9.73493
9.45879
8.54912
8.3275
7.62226
7.46532
7.04123
6.91921
6.45964
6.319
5.68347
5.55427
5.15784
5.07141
4.79469
4.73785
4.58836
4.54374
4.35469
4.31593
4.20422
4.18186
4.12249
4.11134
4.08363
4.07954
4.07272
4.07314
4.07917
4.08211
4.0945
4.09804
4.10811
4.11279
4.13599
4.14064
4.15341
4.15435
4.15143
4.14729
4.13357
4.11566
4.037
3.96319
3.52725
3.38521
2.81438
2.61637
1.84116
1.57349
0.573094
0.248349
-0.854558
-1.18254
-2.11764
-2.35809
-2.91303
-3.00222
-3.02158
-3.02614
-3.02722
-3.02745
17.7751
17.8009
17.459
17.4257
16.9127
16.745
16.0915
15.8308
15.0499
14.7533
14.0346
13.7879
13.301
13.0881
12.5177
12.2035
11.0988
10.6934
9.69853
9.32738
8.51706
8.21715
7.59081
7.37748
6.98923
6.82368
6.41869
6.23273
5.69867
5.52944
5.19036
5.07605
4.83572
4.75951
4.62499
4.56542
4.40448
4.35316
4.25589
4.22612
4.17461
4.15988
4.13632
4.13108
4.12597
4.12678
4.13289
4.13705
4.14862
4.15361
4.16367
4.17005
4.18992
4.19608
4.20695
4.20804
4.20432
4.19788
4.17945
4.15282
4.0675
3.96615
3.581
3.38704
2.86289
2.58891
1.86698
1.49396
0.552015
0.0963813
-0.956221
-1.42165
-2.34377
-2.68524
-3.20967
-3.33515
-3.36488
-3.37198
-3.37366
-3.37402
16.497
16.5747
16.5853
16.6193
16.3184
16.164
15.6589
15.3789
14.7
14.3678
13.726
13.4449
12.99
12.7487
12.2462
11.9026
10.9813
10.5322
9.6373
9.21364
8.46468
8.11994
7.54292
7.29672
6.9284
6.7378
6.36903
6.16044
5.69934
5.51145
5.21394
5.08577
4.87022
4.78354
4.65866
4.59118
4.44991
4.39225
4.30487
4.27126
4.22528
4.20878
4.18829
4.18262
4.17899
4.18022
4.1867
4.1917
4.203
4.20899
4.21938
4.22679
4.24442
4.25135
4.26088
4.26192
4.25734
4.24895
4.22568
4.19233
4.09866
3.98048
3.62711
3.4021
2.90141
2.57939
1.87887
1.43721
0.511513
-0.0316782
-1.08134
-1.64246
-2.59311
-3.00505
-3.52224
-3.67189
-3.70907
-3.71802
-3.72014
-3.72059
15.2157
15.3512
15.7107
15.8264
15.7183
15.5971
15.2175
14.9432
14.3365
13.9948
13.4032
13.109
12.6705
12.4197
11.9685
11.625
10.8451
10.3891
9.55735
9.11305
8.39626
8.03215
7.48192
7.22095
6.86055
6.65913
6.31306
6.09833
5.68914
5.49791
5.23081
5.09904
4.89962
4.80914
4.69007
4.61994
4.49203
4.43256
4.35174
4.31692
4.27479
4.25786
4.23969
4.23411
4.23184
4.23346
4.24059
4.24612
4.25762
4.26421
4.27523
4.28313
4.29935
4.30653
4.31518
4.31605
4.31052
4.30064
4.27233
4.23427
4.13081
4.00424
3.66813
3.42822
2.93281
2.58505
1.88044
1.39986
0.455749
-0.13944
-1.22597
-1.84766
-2.86396
-3.32063
-3.84949
-4.01312
-4.05438
-4.06431
-4.06666
-4.06717
13.929
14.1185
14.8457
15.0424
15.1189
15.0407
14.772
14.5208
13.9625
13.6319
13.0687
12.779
12.3437
12.099
11.6865
11.3651
10.6961
10.2611
9.46207
9.02352
8.31389
7.95194
7.40947
7.14927
6.78645
6.58635
6.25192
6.04408
5.67031
5.48748
5.24233
5.11508
4.92471
4.83594
4.71957
4.65104
4.53144
4.47376
4.39679
4.36291
4.32331
4.30701
4.29061
4.28547
4.28455
4.2865
4.29455
4.30031
4.31245
4.31927
4.33122
4.33915
4.35467
4.36166
4.36979
4.37044
4.36389
4.35308
4.31939
4.27885
4.16392
4.03641
3.70532
3.46459
2.95834
2.60502
1.87309
1.3811
0.386071
-0.227505
-1.38914
-2.03703
-3.15716
-3.6333
-4.19133
-4.35921
-4.40092
-4.41089
-4.41324
-4.41375
12.6346
12.8643
14.002
14.2633
14.5257
14.4919
14.3259
14.111
13.5795
13.2786
12.7233
12.4549
12.0095
11.7851
11.4011
11.1192
10.5378
10.1478
9.35254
8.94499
8.21775
7.87908
7.32586
7.08181
6.70595
6.51905
6.18581
5.99656
5.64392
5.47962
5.2492
5.1337
4.9458
4.86389
4.7472
4.68423
4.56842
4.51576
4.44015
4.40914
4.37093
4.35619
4.34109
4.33669
4.33716
4.33931
4.34863
4.35426
4.3675
4.37414
4.38739
4.39489
4.41034
4.41677
4.42473
4.42515
4.41745
4.40646
4.36675
4.32643
4.19755
4.07675
3.73892
3.51162
2.97779
2.64017
1.85618
1.3825
0.301178
-0.293604
-1.57283
-2.20748
-3.47609
-3.94266
-4.54875
-4.71033
-4.7487
-4.75775
-4.75988
-4.76034
11.3309
11.5738
13.1933
13.4841
13.9444
13.9486
13.8819
13.7139
13.1875
12.9355
12.3667
12.1381
11.6665
11.4778
11.1118
10.8854
10.3721
10.0509
9.22764
8.8794
8.10621
7.81494
7.23
7.01973
6.61799
6.45768
6.11403
5.95565
5.61007
5.47446
5.25153
5.15528
4.9627
4.89327
4.77273
4.71957
4.60291
4.55872
4.48175
4.4557
4.41764
4.40541
4.39117
4.38774
4.38972
4.39185
4.40287
4.40793
4.42283
4.42875
4.4438
4.45032
4.46638
4.47182
4.47998
4.48019
4.47116
4.461
4.41415
4.37758
4.23088
4.1258
3.76813
3.57093
2.98942
2.69321
1.82689
1.40825
0.196863
-0.332286
-1.78226
-2.35253
-3.82708
-4.24641
-4.92392
-5.06636
-5.09764
-5.10487
-5.10657
-5.10693
10.0175
10.2281
12.4377
12.6982
13.3813
13.4081
13.442
13.3312
12.7846
12.6052
11.9965
11.8312
11.3124
11.1776
10.817
10.6632
10.1988
9.97426
9.08386
8.83091
7.97549
7.76264
7.11923
6.96539
6.52045
6.40372
6.0349
5.92229
5.56787
5.47285
5.24884
5.18075
4.97471
4.92474
4.79559
4.75748
4.63452
4.603
4.52134
4.50275
4.46332
4.45472
4.44083
4.43858
4.44229
4.44405
4.45736
4.46121
4.47854
4.48302
4.50056
4.50538
4.52287
4.52679
4.53556
4.53561
4.52492
4.51702
4.46114
4.43314
4.26256
4.18497
3.79095
3.64564
2.98966
2.76908
1.77972
1.46573
0.0652903
-0.334103
-2.02684
-2.46139
-4.22024
-4.53981
-5.32049
-5.42682
-5.44753
-5.4522
-5.45329
-5.45352
8.69562
8.80239
11.7601
11.8955
12.8446
12.8675
13.008
12.966
12.3671
12.2922
11.6087
11.5384
10.9429
10.8866
10.514
10.4536
10.016
9.92428
8.91465
8.80659
7.81914
7.72762
6.98895
6.92274
6.40984
6.35989
5.94556
5.89864
5.51534
5.47644
5.23994
5.21176
4.9805
4.95939
4.81483
4.79881
4.6625
4.64931
4.55842
4.55065
4.50779
4.50425
4.49003
4.48919
4.49494
4.4958
4.51223
4.51397
4.53477
4.53676
4.55784
4.55994
4.5799
4.58156
4.5915
4.59147
4.57859
4.57497
4.50704
4.49442
4.29053
4.25681
3.80383
3.74079
2.97251
2.87572
1.70556
1.5667
-0.106304
-0.284167
-2.32174
-2.51726
-4.67096
-4.81476
-5.74401
-5.7907
-5.79805
-5.79967
-5.80004
-5.80012
8.57691
8.55028
8.16405
8.09115
7.37106
7.29933
6.88705
6.81855
6.07889
6.00412
5.4017
5.35127
4.9874
4.957
4.77821
4.75328
4.57122
4.54358
4.27942
4.25559
4.08226
4.06787
3.98413
3.97702
3.94516
3.94158
3.92462
3.92289
3.92377
3.9236
3.92877
3.92997
3.95558
3.95812
3.98956
3.99285
4.02577
4.02913
4.05819
4.06056
4.07419
4.07722
4.11827
4.12226
4.15535
4.15831
4.17926
4.18107
4.19151
4.19206
4.18788
4.18619
4.15404
4.14854
4.07283
4.05964
3.87067
3.85166
3.71555
3.6618
2.73974
2.63666
1.43052
1.29115
-0.34492
-0.533416
-2.76505
-3.0066
-5.78487
-6.06725
-9.21654
-9.5131
-12.715
-12.9702
-15.2377
-15.5281
-20.0218
-20.2091
-20.2329
-20.2374
8.8796
8.81304
8.43766
8.2574
7.58486
7.40924
7.01929
6.85441
6.19141
6.01483
5.49264
5.37597
5.0622
4.99025
4.81861
4.75626
4.57447
4.50718
4.27563
4.21973
4.06734
4.03331
3.9568
3.93952
3.90832
3.89925
3.88105
3.87636
3.87465
3.8739
3.87749
3.87996
3.90018
3.90569
3.93168
3.93922
3.96818
3.97605
4.00124
4.00684
4.01975
4.02692
4.06249
4.0718
4.1007
4.10762
4.12627
4.13059
4.14019
4.14163
4.13876
4.135
4.10761
4.09496
4.02947
3.99945
3.84059
3.79504
3.65521
3.53198
2.76604
2.53369
1.51774
1.20218
-0.177017
-0.602877
-2.47316
-3.01673
-5.33523
-5.96787
-8.58023
-9.23959
-11.8669
-12.4342
-14.3334
-14.9575
-18.4557
-18.8519
-18.9175
-18.9306
9.18499
9.08819
8.70351
8.44338
7.77882
7.52776
7.14257
6.91022
6.28451
6.03938
5.56739
5.40858
5.12735
5.02751
4.85467
4.76404
4.57315
4.47737
4.26482
4.18774
4.04769
4.00046
3.9271
3.90259
3.8706
3.85728
3.83693
3.82971
3.82549
3.82401
3.82625
3.82923
3.84536
3.85245
3.87453
3.88474
3.91142
3.92227
3.94508
3.95281
3.96553
3.97547
4.00775
4.02056
4.04691
4.05647
4.07384
4.07988
4.08919
4.09137
4.08967
4.08475
4.06058
4.0435
3.9847
3.9444
3.80597
3.74219
3.59421
3.42788
2.771
2.46207
1.57696
1.15576
-0.0472452
-0.614558
-2.23433
-2.95587
-4.95301
-5.78929
-8.02205
-8.88737
-11.1012
-11.8449
-13.4802
-14.2718
-17.0138
-17.508
-17.6042
-17.6242
9.49428
9.37491
8.96444
8.64559
7.95631
7.6517
7.2598
6.98183
6.36245
6.07307
5.62965
5.44612
5.18528
5.06773
4.88746
4.77586
4.56806
4.45225
4.24862
4.15828
4.02434
3.96866
3.89546
3.86596
3.83214
3.8156
3.79229
3.78295
3.77623
3.77398
3.77498
3.77797
3.79089
3.7986
3.81785
3.82959
3.8553
3.868
3.88951
3.89859
3.91143
3.92312
3.95379
3.96877
3.9938
4.005
4.02186
4.02905
4.03848
4.04127
4.04071
4.03528
4.01327
3.99371
3.93918
3.89328
3.76837
3.69271
3.53394
3.3434
2.76204
2.41349
1.61761
1.14061
0.0571031
-0.584136
-2.03143
-2.84398
-4.61723
-5.55484
-7.51855
-8.4812
-10.3944
-11.2199
-12.6607
-13.5082
-15.6617
-16.1799
-16.294
-16.3187
9.80841
9.67336
9.22178
8.86271
8.11849
7.77921
7.37254
7.06717
6.42726
6.11298
5.68158
5.48681
5.23752
5.1105
4.91755
4.79156
4.55931
4.43067
4.2279
4.13059
3.99788
3.93758
3.86208
3.82951
3.793
3.7742
3.74709
3.73608
3.72678
3.72382
3.72362
3.72632
3.73664
3.74429
3.76146
3.77388
3.7997
3.81338
3.83443
3.8442
3.85736
3.87002
3.90046
3.91657
3.94123
3.9533
3.97027
3.97811
3.98802
3.99129
3.99194
3.98646
3.96585
3.9453
3.89331
3.84531
3.72879
3.64654
3.47495
3.27455
2.74377
2.38281
1.64552
1.14972
0.143766
-0.521466
-1.85391
-2.69365
-4.31487
-5.27935
-7.0551
-8.03701
-9.73101
-10.5704
-11.865
-12.6924
-14.3751
-14.868
-14.9873
-15.0141
10.128
9.98454
9.4755
9.09531
8.26456
7.90951
7.48132
7.16598
6.47912
6.15765
5.72412
5.52975
5.28493
5.15595
4.94499
4.81154
4.54646
4.41209
4.203
4.10434
3.96854
3.90711
3.82699
3.79323
3.75315
3.73313
3.70125
3.68914
3.67708
3.67354
3.67215
3.67435
3.68248
3.68959
3.70526
3.71763
3.74457
3.75846
3.77979
3.78968
3.80331
3.81619
3.84769
3.86402
3.88916
3.90139
3.91903
3.9271
3.93783
3.94141
3.9434
3.93824
3.91843
3.89816
3.84727
3.80008
3.68784
3.60395
3.4171
3.21893
2.71872
2.36719
1.66377
1.17925
0.216805
-0.4321
-1.6961
-2.51205
-4.03876
-4.9714
-6.6234
-7.56434
-9.10184
-9.90264
-11.0879
-11.8423
-13.136
-13.5711
-13.6844
-13.7106
10.4534
10.3104
9.72417
9.34603
8.39169
8.04283
7.58568
7.27973
6.51644
6.20688
5.75715
5.57476
5.32775
5.20472
4.96939
4.83683
4.52841
4.39652
4.17371
4.07959
3.93625
3.87741
3.79006
3.75721
3.7125
3.69255
3.65463
3.64219
3.62704
3.62318
3.62054
3.62215
3.62836
3.63455
3.64919
3.66079
3.68996
3.70324
3.72561
3.735
3.74929
3.76161
3.79552
3.81112
3.8376
3.84927
3.86817
3.87597
3.88791
3.89159
3.89515
3.8906
3.87102
3.85223
3.80108
3.75744
3.64575
3.56548
3.35971
3.17538
2.68772
2.36565
1.67327
1.2279
0.277309
-0.318124
-1.55619
-2.30202
-3.78641
-4.63467
-6.22014
-7.06782
-8.50215
-9.21954
-10.3281
-10.9707
-11.9313
-12.287
-12.3849
-12.4081
10.7846
10.6542
9.96458
9.61989
8.49469
8.18056
7.68406
7.41185
6.53569
6.26178
5.77955
5.6224
5.36567
5.25803
4.98971
4.8692
4.50334
4.38463
4.13929
4.05684
3.90059
3.84887
3.75097
3.72167
3.67087
3.65268
3.60698
3.59536
3.57654
3.57277
3.56875
3.56975
3.57424
3.57916
3.59324
3.60324
3.63597
3.64765
3.67194
3.68012
3.69533
3.70617
3.74408
3.75778
3.78663
3.79685
3.81775
3.82466
3.83832
3.84177
3.84722
3.84356
3.82357
3.80759
3.75459
3.71753
3.6024
3.53202
3.30147
3.14397
2.65009
2.37893
1.6729
1.29676
0.323612
-0.178437
-1.43597
-2.06244
-3.5595
-4.26845
-5.84639
-6.54783
-7.93115
-8.5208
-9.58701
-10.0864
-10.7509
-11.0133
-11.0884
-11.1065
11.121
11.0203
10.1913
9.92502
8.56531
8.32564
7.77354
7.5682
6.53091
6.32507
5.789
5.67408
5.39766
5.3178
5.00414
4.9114
4.4684
4.37782
4.09838
4.03706
3.86076
3.82218
3.70913
3.687
3.62794
3.61391
3.55798
3.54882
3.52545
3.52236
3.51675
3.51722
3.5201
3.52341
3.53744
3.54477
3.58283
3.59155
3.61892
3.62495
3.64155
3.64963
3.6936
3.70382
3.7364
3.744
3.76789
3.77309
3.78914
3.79187
3.79965
3.79716
3.77597
3.76443
3.70746
3.68074
3.55725
3.50497
3.2403
3.12602
2.60357
2.4096
1.65933
1.3895
0.351075
-0.00852451
-1.34099
-1.78802
-3.36411
-3.86746
-5.50769
-6.00056
-7.39191
-7.80301
-8.86857
-9.19552
-9.58647
-9.74703
-9.79418
-9.8057
11.4616
11.4156
10.3955
10.2739
8.59117
8.48327
7.84919
7.75785
6.49291
6.4016
5.78163
5.73224
5.42181
5.38695
5.00976
4.96763
4.41939
4.37857
4.04875
4.02188
3.81543
3.79847
3.66366
3.65381
3.5832
3.57683
3.5071
3.50284
3.47354
3.47206
3.46452
3.46459
3.46594
3.46722
3.48191
3.48508
3.53086
3.5347
3.56674
3.56936
3.58811
3.59166
3.64447
3.64897
3.68716
3.69049
3.71877
3.72108
3.74049
3.74177
3.75249
3.75152
3.72797
3.72309
3.65912
3.64781
3.50926
3.48642
3.17311
3.1244
2.5439
2.46253
1.62654
1.513
0.351388
0.200305
-1.28142
-1.46844
-3.21163
-3.42099
-5.21489
-5.41736
-6.89188
-7.05905
-8.17969
-8.30207
-8.4313
-8.48532
-8.50138
-8.50533
)
;

boundaryField
{
    F1_1
    {
        type            fixedValue;
        value           nonuniform List<scalar> 
80
(
0
8.35341
8.35783
8.35783
7.61237
7.61237
6.81918
6.81918
6.15286
6.15286
5.62342
5.62342
5.31642
5.31642
4.91568
4.91568
4.27796
4.27796
3.91246
3.91246
3.66851
3.66851
3.50317
3.50317
3.41445
3.41445
3.33713
3.33713
3.27454
3.27454
3.25435
3.25435
3.25719
3.25719
3.26092
3.26092
3.31514
3.31514
3.36
3.36
3.40109
3.40109
3.447
3.447
3.48734
3.48734
3.52177
3.52177
3.54171
3.54171
3.58458
3.58458
3.61403
3.61403
3.62968
3.62968
3.65451
3.65451
3.66689
3.66689
3.67785
3.67785
3.68907
3.68907
3.69136
3.69136
3.68135
3.68135
3.65634
3.65634
3.59899
3.59899
3.49542
3.49542
3.45333
3.45333
3.45333
3.45333
3.45333
3.45333
)
;
    }
    F1_2
    {
        type            fixedValue;
        value           nonuniform List<scalar> 
80
(
21.0829
21.0829
19.688
19.688
18.3041
18.3041
16.9558
16.9558
15.6559
15.6559
14.5039
14.5039
13.8026
13.8026
12.8129
12.8129
10.7298
10.7298
9.30575
9.30575
8.23827
8.23827
7.41828
7.41828
6.93968
6.93968
6.39608
6.39608
5.60933
5.60933
5.12518
5.12518
4.79642
4.79642
4.62411
4.62411
4.39949
4.39949
4.2724
4.2724
4.20509
4.20509
4.17427
4.17427
4.16611
4.16611
4.17291
4.17291
4.19213
4.19213
4.22083
4.22083
4.25065
4.25065
4.28228
4.28228
4.31518
4.31518
4.3446
4.3446
4.36953
4.36953
4.38083
4.38083
4.36764
4.36764
4.30954
4.30954
4.17552
4.17552
3.93737
3.93737
3.6279
3.6279
3.29648
3.29648
3.29648
3.29648
3.29648
3.29648
)
;
    }
    F1_3
    {
        type            fixedValue;
        value           nonuniform List<scalar> 
80
(
20.9684
20.9684
19.551
19.551
18.3077
18.3077
17.0764
17.0764
15.814
15.814
14.702
14.702
14.0177
14.0177
13.1325
13.1325
11.23
11.23
9.71284
9.71284
8.53674
8.53674
7.62148
7.62148
7.09258
7.09258
6.49246
6.49246
5.61598
5.61598
5.08174
5.08174
4.7139
4.7139
4.5241
4.5241
4.26679
4.26679
4.11894
4.11894
4.04013
4.04013
4.00256
4.00256
3.99224
3.99224
3.99889
3.99889
4.01413
4.01413
4.02527
4.02527
4.05673
4.05673
4.07413
4.07413
4.07216
4.07216
4.06495
4.06495
3.99012
3.99012
3.41998
3.41998
2.70797
2.70797
1.75683
1.75683
0.544615
0.544615
-0.77013
-0.77013
-1.83811
-1.83811
-2.5076
-2.5076
-2.5076
-2.5076
-2.5076
-2.5076
)
;
    }
    F1_4
    {
        type            fixedValue;
        value           nonuniform List<scalar> 
80
(
11.6328
11.6328
10.4796
10.4796
8.57261
8.57261
7.87616
7.87616
6.45044
6.45044
5.76654
5.76654
5.42837
5.42837
5.00587
5.00587
4.38474
4.38474
4.01789
4.01789
3.78898
3.78898
3.63843
3.63843
3.55955
3.55955
3.48036
3.48036
3.44703
3.44703
3.43824
3.43824
3.43886
3.43886
3.45438
3.45438
3.50571
3.50571
3.54124
3.54124
3.56169
3.56169
3.62087
3.62087
3.66324
3.66324
3.69473
3.69473
3.71652
3.71652
3.72915
3.72915
3.7036
3.7036
3.63389
3.63389
3.48295
3.48295
3.13423
3.13423
2.50409
2.50409
1.5957
1.5957
0.331334
0.331334
-1.27753
-1.27753
-3.16606
-3.16606
-5.10032
-5.10032
-6.66801
-6.66801
-7.85522
-7.85522
-7.85522
-7.85522
-7.85522
-7.85522
)
;
    }
    F2_1
    {
        type            fixedValue;
        value           nonuniform List<scalar> 
80
(
5.54196
5.54196
6.06885
6.06885
6.25137
6.25137
6.04565
6.04565
5.69166
5.69166
5.35193
5.35193
5.06482
5.06482
4.91006
4.91006
4.62742
4.62742
4.35448
4.35448
4.15745
4.15745
4.03467
4.03467
3.96365
3.96365
3.92909
3.92909
3.90797
3.90797
3.90149
3.90149
3.91375
3.91375
3.92825
3.92825
3.96934
3.96934
4.01821
4.01821
4.05179
4.05179
4.09789
4.09789
4.14417
4.14417
4.1822
4.1822
4.21288
4.21288
4.24138
4.24138
4.26513
4.26513
4.28398
4.28398
4.30023
4.30023
4.31264
4.31264