/*--------------------------------*- C++ -*----------------------------------*\
| =========                 |                                                 |
| \\      /  F ield         | OpenFOAM: The Open Source CFD Toolbox           |
|  \\    /   O peration     | Version:  5.x                                   |
|   \\  /    A nd           | Web:      www.OpenFOAM.org                      |
|    \\/     M anipulation  |                                                 |
\*---------------------------------------------------------------------------*/
FoamFile
{
    version     2.0;
    format      ascii;
    class       volScalarField;
    location    "19";
    object      gradTx;
}
// * * * * * * * * * * * * * * * * * * * * * * * * * * * * * * * * * * * * * //

dimensions      [0 -1 0 1 0 0 0];

internalField   nonuniform List<scalar> 
6300
(
3.8859
3.87408
3.85044
3.81499
3.7678
3.70891
3.63848
3.5567
3.46392
3.36062
3.24748
3.12542
2.99564
2.8596
2.71903
3.89758
3.88575
3.86209
3.82661
3.77933
3.72032
3.64968
3.56757
3.47431
3.37032
3.25626
3.13303
3.00179
2.86403
2.72152
3.92093
3.90909
3.8854
3.84986
3.80246
3.74322
3.67218
3.58946
3.49527
3.38996
3.2741
3.1485
3.01432
2.87307
2.72662
3.95597
3.94413
3.92042
3.88482
3.83728
3.77776
3.70623
3.62269
3.52722
3.42003
3.30154
3.17244
3.03382
2.88721
2.73464
4.00271
3.99088
3.96718
3.93157
3.88394
3.82417
3.75214
3.6677
3.57074
3.46127
3.33945
3.20577
3.06118
2.9072
2.74606
4.06112
4.04933
4.02571
3.99018
3.94257
3.88271
3.81031
3.72508
3.62665
3.51472
3.38909
3.2499
3.0978
2.93424
2.76168
4.13115
4.11946
4.09601
4.06069
4.01332
3.95361
3.88118
3.7955
3.69593
3.58173
3.45218
3.30682
3.14575
2.97017
2.78274
4.21273
4.20117
4.17801
4.14311
4.09625
4.03709
3.96514
3.87967
3.77969
3.66394
3.53095
3.3793
3.20811
3.01783
2.81121
4.30569
4.29434
4.27159
4.23731
4.19131
4.13322
4.06248
3.9782
3.87909
3.76326
3.62826
3.47121
3.28943
3.08173
2.85032
4.40984
4.39874
4.37652
4.34309
4.2983
4.24184
4.17319
4.09143
3.99505
3.88161
3.74748
3.58771
3.39655
3.1692
2.90566
4.52491
4.5141
4.49249
4.46007
4.41678
4.36249
4.29685
4.21914
4.12792
4.02049
3.89218
3.73547
3.5397
3.29273
2.98757
4.65061
4.64009
4.61911
4.58774
4.5461
4.49432
4.43243
4.36021
4.27684
4.1801
4.06512
3.92215
3.73388
3.47433
3.11685
4.78664
4.77637
4.75593
4.7255
4.68541
4.63609
4.57816
4.51228
4.43895
4.3578
4.26587
4.15395
3.99917
3.75371
3.34046
4.93275
4.92264
4.90255
4.87276
4.83375
4.78631
4.73167
4.67163
4.60872
4.54607
4.48643
4.42844
4.35501
4.20077
3.78013
5.08878
5.07871
5.05869
5.02905
4.99034
4.94357
4.8904
4.83367
4.77803
4.73113
4.70514
4.71822
4.79152
4.91407
4.80884
2.58791
2.46811
2.34905
2.23192
2.11788
2.00795
1.90308
1.80404
1.71148
1.6259
1.54767
1.47704
1.41414
1.35904
1.31169
1.27202
1.23987
1.21503
1.19724
1.1862
1.18152
1.18279
1.18951
1.20109
1.21691
1.23622
1.25825
1.28214
1.307
1.33195
1.35609
1.37855
1.39853
1.41526
1.428
1.43604
1.43865
1.4351
1.4246
1.40635
1.37953
1.34338
1.29719
1.24036
1.17238
1.09287
1.00147
0.897863
0.781641
0.652287
0.509112
0.351237
0.177588
-0.0130765
-0.222136
-0.45106
-0.70138
-0.974664
-1.27253
-1.59667
-1.94891
-2.33123
-2.74588
-3.19539
-3.68259
-4.21063
-4.78299
-5.40338
-6.07572
-6.80406
-7.59252
-8.44519
-9.36609
-10.3591
-11.4277
-12.5754
-13.8048
-15.1182
-16.517
-18.0012
-19.5698
-21.2198
-22.9464
-24.7424
-26.5985
-28.5026
-30.4407
-32.3965
-34.3527
-36.2908
2.58851
2.46696
2.34617
2.2274
2.11185
2.0006
1.8946
1.79464
1.70136
1.61525
1.53667
1.46583
1.40286
1.3478
1.3006
1.26115
1.22929
1.20482
1.18748
1.17697
1.17291
1.1749
1.18244
1.19496
1.21181
1.23226
1.25551
1.28067
1.30683
1.33306
1.35843
1.38207
1.40315
1.42093
1.4347
1.44377
1.44746
1.44503
1.43569
1.4186
1.3929
1.35776
1.31245
1.25632
1.18892
1.10989
1.01898
0.915949
0.800475
0.672112
0.530206
0.373876
0.20202
0.0133411
-0.193598
-0.420318
-0.668373
-0.939327
-1.23475
-1.55628
-1.90563
-2.28473
-2.69574
-3.14116
-3.6238
-4.14686
-4.71385
-5.32859
-5.99509
-6.71751
-7.50006
-8.34695
-9.26229
-10.25
-11.314
-12.4576
-13.6839
-14.9954
-16.3938
-17.8797
-19.4524
-21.1094
-22.8462
-24.656
-26.5291
-28.4536
-30.4148
-32.396
-34.3785
-36.3431
2.58974
2.46459
2.34026
2.21815
2.09954
1.98561
1.87733
1.77553
1.68084
1.5937
1.51444
1.44323
1.38015
1.32519
1.27828
1.23928
1.20802
1.1843
1.16785
1.15838
1.15556
1.15897
1.16814
1.18253
1.20147
1.22423
1.24995
1.2777
1.3065
1.33533
1.3632
1.38919
1.41246
1.43231
1.44808
1.45919
1.46501
1.46484
1.45786
1.44316
1.41977
1.38672
1.34317
1.28845
1.22212
1.14395
1.05388
0.951861
0.83779
0.711359
0.571989
0.418796
0.250601
0.0659789
-0.136648
-0.358922
-0.602461
-0.868813
-1.15946
-1.47587
-1.81958
-2.19232
-2.59612
-3.03336
-3.50686
-4.01986
-4.57601
-5.17929
-5.83396
-6.54437
-7.31497
-8.15015
-9.05421
-10.0313
-11.0855
-12.2206
-13.4402
-14.7473
-16.1445
-17.6331
-19.2135
-20.8841
-22.641
-24.478
-26.3857
-28.3516
-30.3602
-32.3931
-34.43
-36.449
2.59172
2.46094
2.33108
2.20375
2.08042
1.96238
1.85067
1.74613
1.64935
1.56074
1.48055
1.40886
1.34568
1.29094
1.2445
1.20621
1.17586
1.15324
1.13811
1.13019
1.12917
1.13468
1.14629
1.16348
1.18559
1.21187
1.2414
1.27318
1.30607
1.33893
1.37063
1.40015
1.42665
1.44947
1.46812
1.48216
1.49111
1.49436
1.49107
1.48017
1.46047
1.43073
1.38991
1.33721
1.27227
1.19507
1.10588
1.00506
0.892828
0.769159
0.6336
0.485246
0.322761
0.144473
-0.0514781
-0.266973
-0.503763
-0.763378
-1.04713
-1.3562
-1.69177
-2.05525
-2.44838
-2.8734
-3.33307
-3.83075
-4.37031
-4.95604
-5.59256
-6.28459
-7.03691
-7.85417
-8.74092
-9.70158
-10.7405
-11.862
-13.0704
-14.3696
-15.7633
-17.2544
-18.8447
-20.5342
-22.3204
-24.1981
-26.1582
-28.1879
-30.2703
-32.3845
-34.5069
-36.6119
2.59461
2.45584
2.31817
2.18351
2.05362
1.92993
1.81361
1.70546
1.60603
1.51562
1.43434
1.36217
1.299
1.24467
1.19895
1.16165
1.13253
1.11136
1.09793
1.092
1.09331
1.10156
1.11638
1.13728
1.16367
1.19476
1.22958
1.26698
1.30563
1.34414
1.38112
1.4154
1.44606
1.47258
1.49471
1.51237
1.52536
1.53324
1.53515
1.52978
1.51552
1.49064
1.45364
1.40353
1.33999
1.26339
1.17458
1.07458
0.964262
0.844004
0.71356
0.571969
0.417602
0.248328
0.0617642
-0.144428
-0.372261
-0.623251
-0.898409
-1.19841
-1.52384
-1.87553
-2.25479
-2.66356
-3.10459
-3.58138
-4.09815
-4.65971
-5.27123
-5.93802
-6.66532
-7.45813
-8.32119
-9.25913
-10.2766
-11.3784
-12.5697
-13.8557
-15.2417
-16.7329
-18.3331
-20.0449
-21.8681
-23.7993
-25.8304
-27.9483
-30.1343
-32.364
-34.6087
-36.8368
2.5987
2.44909
2.30082
2.15634
2.01778
1.88683
1.7647
1.65217
1.54966
1.45727
1.37494
1.30246
1.23956
1.18592
1.14125
1.10525
1.07768
1.0583
1.04691
1.04335
1.04743
1.05894
1.07764
1.10314
1.13492
1.17221
1.214
1.25892
1.30535
1.35147
1.39546
1.43577
1.47137
1.50193
1.5277
1.54921
1.56689
1.58065
1.58963
1.59213
1.58578
1.56792
1.53619
1.48911
1.42644
1.3492
1.25929
1.15891
1.04993
0.933442
0.8095
0.677013
0.533834
0.377009
0.2032
0.00921122
-0.207481
-0.448385
-0.71398
-1.00404
-1.31815
-1.65618
-2.01872
-2.40734
-2.82467
-3.27447
-3.76154
-4.29145
-4.87032
-5.50434
-6.19943
-6.96092
-7.79364
-8.70215
-9.69116
-10.7659
-11.9325
-13.1976
-14.5689
-16.0541
-17.6608
-19.3949
-21.2603
-23.2564
-25.3775
-27.6107
-29.935
-32.3217
-34.7343
-37.1319
2.60443
2.4403
2.27793
2.12057
1.97093
1.83095
1.70191
1.58442
1.47864
1.38439
1.30131
1.22892
1.16672
1.11422
1.071
1.03669
1.01099
0.993671
0.984589
0.983644
0.990778
1.00594
1.02905
1.05991
1.09817
1.14316
1.19383
1.24863
1.30546
1.36182
1.41505
1.46285
1.50389
1.53813
1.56674
1.5915
1.614
1.63488
1.65337
1.66715
1.67252
1.66508
1.64078
1.59706
1.53378
1.45316
1.35902
1.25555
1.14633
1.03354
0.917671
0.797383
0.669642
0.530075
0.373624
0.195474
-0.00790455
-0.238027
-0.494379
-0.775117
-1.07806
-1.40157
-1.74516
-2.10979
-2.49801
-2.91396
-3.36325
-3.85273
-4.39002
-4.98277
-5.63792
-6.36115
-7.15695
-8.02924
-8.98225
-10.0213
-11.1532
-12.3867
-13.7319
-15.2005
-16.8047
-18.556
-20.4639
-22.5336
-24.7631
-27.1415
-29.646
-32.2417
-34.8814
-37.5094
2.6125
2.42887
2.24773
2.07362
1.91005
1.75927
1.62241
1.49975
1.39095
1.29539
1.21223
1.14065
1.07985
1.02912
0.987887
0.955683
0.932173
0.917145
0.910504
0.912263
0.922526
0.941457
0.96924
1.00599
1.05167
1.10588
1.16768
1.23535
1.30621
1.37662
1.44237
1.49961
1.54613
1.58235
1.61124
1.63698
1.66336
1.69246
1.72384
1.7542
1.77763
1.78646
1.77323
1.73311
1.666
1.57652
1.47208
1.36041
1.24778
1.138
1.03214
0.928417
0.822409
0.707385
0.57522
0.417994
0.230114
0.0100345
-0.239729
-0.514279
-0.808405
-1.1181
-1.44135
-1.77832
-2.13148
-2.50547
-2.90712
-3.34522
-3.82988
-4.37135
-4.97839
-5.65691
-6.41014
-7.2401
-8.14944
-9.14286
-10.2278
-11.4147
-12.7173
-14.1517
-15.7366
-17.4914
-19.4347
-21.5804
-23.9344
-26.4904
-29.2257
-32.0981
-35.0452
-37.9878
2.62406
2.41374
2.20729
2.01141
1.83068
1.66746
1.52242
1.39504
1.28418
1.18846
1.10644
1.03681
0.97842
0.930308
0.891726
0.862116
0.841106
0.828502
0.824284
0.828599
0.84175
0.864189
0.896471
0.93919
0.992844
1.05761
1.13302
1.21743
1.30755
1.39806
1.48189
1.55176
1.60312
1.63707
1.6602
1.68146
1.70872
1.74667
1.79567
1.85118
1.90366
1.93954
1.9443
1.90794
1.83033
1.72133
1.59545
1.46658
1.34503
1.23676
1.14344
1.06268
0.988087
0.909304
0.812833
0.684579
0.514424
0.300769
0.0505433
-0.225319
-0.516393
-0.815196
-1.1178
-1.42361
-1.73498
-2.05717
-2.39854
-2.77068
-3.18796
-3.66557
-4.21594
-4.8451
-5.55284
-6.33664
-7.19558
-8.13263
-9.15542
-10.2764
-11.5126
-12.8862
-14.4237
-16.1556
-18.1137
-20.327
-22.8148
-25.5811
-28.6076
-31.8468
-35.2151
-38.5955
2.64106
2.3929
2.15155
1.92731
1.72596
1.54939
1.39689
1.26645
1.15556
1.06175
0.982782
0.916761
0.862149
0.817735
0.782609
0.756129
0.737898
0.727749
0.725744
0.732172
0.747567
0.772709
0.808635
0.856597
0.917968
0.993997
1.08534
1.19123
1.30827
1.42905
1.54143
1.63049
1.68512
1.70726
1.7118
1.71723
1.73862
1.78489
1.85805
1.95244
2.0535
2.13732
2.1745
2.14205
2.03978
1.89036
1.72306
1.56209
1.42307
1.3139
1.23655
1.18798
1.15972
1.13662
1.09613
1.01142
0.861291
0.644088
0.377659
0.0854784
-0.21332
-0.506881
-0.789724
-1.06093
-1.32293
-1.58131
-1.8457
-2.13119
-2.45919
-2.85506
-3.34008
-3.92016
-4.58605
-5.32499
-6.12926
-6.99895
-7.94171
-8.97188
-10.1102
-11.3846
-12.8308
-14.4938
-16.4254
-18.6782
-21.2942
-24.2968
-27.6833
-31.4093
-35.3676
-39.3779
2.66702
2.36214
2.0711
1.81018
1.58553
1.39658
1.23954
1.10963
1.0023
0.913621
0.84043
0.780242
0.731157
0.691755
0.661011
0.638233
0.623019
0.615239
0.615027
0.622805
0.639313
0.66567
0.703431
0.75466
0.821947
0.908289
1.01666
1.14891
1.30357
1.47209
1.6345
1.75871
1.81385
1.80273
1.76205
1.72994
1.73262
1.78431
1.88975
2.04401
2.22807
2.40217
2.50486
2.4766
2.31704
2.08504
1.84147
1.62592
1.45804
1.34514
1.28815
1.28394
1.32386
1.38887
1.44304
1.43237
1.30466
1.05821
0.741784
0.405747
0.0821591
-0.21406
-0.478459
-0.711578
-0.91615
-1.09686
-1.2625
-1.43054
-1.63274
-1.91623
-2.32739
-2.87171
-3.51407
-4.21928
-4.96875
-5.76006
-6.60212
-7.51161
-8.51203
-9.63533
-10.9258
-12.445
-14.2745
-16.5062
-19.2168
-22.4596
-26.27
-30.6373
-35.4448
-40.4104
2.70868
2.31133
1.94723
1.64077
1.39367
1.19784
1.0431
0.920291
0.822135
0.743155
0.679322
0.627706
0.586194
0.553279
0.527914
0.509417
0.497411
0.491803
0.492779
0.500838
0.516853
0.542178
0.578803
0.62957
0.698451
0.790822
0.913545
1.07429
1.27883
1.52385
1.78249
1.98635
2.03789
1.9407
1.79987
1.6925
1.65598
1.70625
1.85109
2.09255
2.41691
2.76972
3.02368
3.00013
2.6985
2.29627
1.91943
1.62107
1.4138
1.29579
1.26366
1.31628
1.4518
1.65666
1.8832
2.02178
1.91892
1.57299
1.13407
0.708028
0.338191
0.0329037
-0.212279
-0.403372
-0.543779
-0.634141
-0.675904
-0.680775
-0.689262
-0.793622
-1.12298
-1.68211
-2.35165
-3.04985
-3.74797
-4.44808
-5.16543
-5.9204
-6.73688
-7.64539
-8.69125
-9.94958
-11.5443
-13.6448
-16.373
-19.8048
-24.0546
-29.2311
-35.2942
-41.8274
2.78023
2.21258
1.74028
1.38576
1.12783
0.939835
0.800608
0.695393
0.614322
0.550848
0.500593
0.460595
0.428829
0.403909
0.384906
0.37123
0.362571
0.358867
0.360312
0.367392
0.380964
0.402393
0.433786
0.47837
0.541099
0.629616
0.755638
0.93656
1.19576
1.55594
2.00931
2.43323
2.47602
2.14145
1.78943
1.55295
1.4543
1.49192
1.6732
2.02162
2.56469
3.27949
3.94201
3.92399
3.22471
2.47084
1.88428
1.48495
1.24093
1.12269
1.11708
1.22915
1.47979
1.89316
2.44992
2.95874
2.88311
2.22161
1.50773
0.929278
0.50119
0.193249
-0.0240428
-0.168207
-0.243518
-0.241456
-0.142486
0.0741399
0.392203
0.652917
0.412231
-0.333558
-1.14802
-1.88059
-2.52439
-3.11129
-3.67458
-4.2406
-4.8292
-5.45767
-6.15076
-6.96976
-8.08563
-9.87925
-12.516
-15.9721
-20.5045
-26.5479
-34.4667
-43.8881
2.91379
1.97643
1.3636
0.991662
0.7613
0.611586
0.509113
0.435697
0.381142
0.339482
0.307075
0.281612
0.261587
0.246004
0.234211
0.225805
0.220579
0.2185
0.219715
0.224584
0.233744
0.248242
0.269757
0.30102
0.34659
0.414374
0.518642
0.686074
0.967213
1.45377
2.27844
3.42886
3.45746
2.36725
1.61252
1.21488
1.05632
1.07067
1.25454
1.6703
2.46509
3.86441
5.84014
5.82869
3.82941
2.40438
1.57944
1.12516
0.886858
0.787356
0.800975
0.94242
1.27336
1.92311
3.08555
4.73718
4.69083
2.94553
1.68627
0.933964
0.491142
0.223018
0.0588495
-0.032228
-0.0547145
0.0116354
0.221458
0.682922
1.55617
2.82137
2.67469
1.11379
-0.0623535
-0.839159
-1.38276
-1.80849
-2.17983
-2.52828
-2.86412
-3.1769
-3.42896
-3.56246
-3.65104
-4.89962
-7.47914
-10.5895
-14.7783
-21.1642
-31.4754
-47.1437
3.1851
1.2729
0.640039
0.393624
0.278595
0.215282
0.175754
0.148825
0.129377
0.114778
0.103547
0.0947879
0.0879374
0.0826299
0.0786298
0.0757928
0.0740459
0.0733793
0.0738482
0.0755855
0.0788294
0.0839764
0.0916812
0.103054
0.120078
0.146575
0.19067
0.271822
0.442824
0.864686
2.07839
6.03977
6.04986
2.10984
0.921346
0.532488
0.409298
0.405248
0.501933
0.773088
1.49489
3.61915
10.5996
10.5956
3.60703
1.47369
0.740775
0.454293
0.332881
0.289084
0.30076
0.382777
0.607776
1.21468
3.01665
8.96048
8.94486
2.96943
1.13471
0.492932
0.229488
0.103061
0.0364627
0.00495324
0.00613694
0.0580953
0.222997
0.698672
2.15564
7.02276
6.97348
2.00699
0.448196
-0.133579
-0.410905
-0.584038
-0.718024
-0.834128
-0.932249
-0.983587
-0.877883
-0.219893
2.45388
1.9965
-1.67785
-3.6539
-5.88843
-10.1278
-20.7694
-52.8226
-38.3777
-40.5794
-42.6735
-44.6366
-46.4509
-48.1036
-49.5867
-50.8965
-52.0325
-52.9964
-53.7916
-54.4216
-54.8902
-55.2007
-55.3554
-38.4577
-40.6869
-42.8041
-44.7852
-46.6123
-48.2728
-49.7597
-51.07
-52.2042
-53.165
-53.9563
-54.5826
-55.0481
-55.3563
-55.5097
-38.6208
-40.9063
-43.0704
-45.0877
-46.9399
-48.6155
-50.1089
-51.4192
-52.549
-53.5026
-54.2858
-54.9042
-55.3629
-55.6662
-55.8171
-38.8735
-41.2468
-43.4832
-45.555
-47.4439
-49.1401
-50.6409
-51.9488
-53.0695
-54.0105
-54.7798
-55.385
-55.8328
-56.1282
-56.2751
-39.2268
-41.724
-44.0603
-46.205
-48.1404
-49.8599
-51.3656
-52.6653
-53.7694
-54.6897
-55.4376
-56.023
-56.4545
-56.7386
-56.8795
-39.6976
-42.3619
-44.8289
-47.0641
-49.0523
-50.7931
-52.2961
-53.5769
-54.6529
-55.5412
-56.2574
-56.8146
-57.2235
-57.4917
-57.6246
-40.3122
-43.197
-45.8288
-48.1701
-50.2115
-51.9636
-53.4487
-54.6931
-55.7237
-56.5644
-57.2358
-57.7543
-58.1326
-58.3799
-58.5021
-41.1112
-44.2849
-47.1189
-49.5756
-51.6595
-53.4011
-54.8414
-56.023
-56.984
-57.7567
-58.3667
-58.8338
-59.1724
-59.3929
-59.5015
-42.1596
-45.7122
-48.7862
-51.3536
-53.4497
-55.1393
-56.4926
-57.573
-58.4324
-59.1114
-59.6403
-60.0414
-60.3301
-60.5172
-60.6092
-43.5658
-47.6178
-50.9597
-53.6024
-55.646
-57.2135
-58.4164
-59.3435
-60.0609
-60.6158
-61.0416
-61.3609
-61.5891
-61.7364
-61.8086
-45.5233
-50.2334
-53.8321
-56.4501
-58.3182
-59.6519
-60.6155
-61.3233
-61.8513
-62.2492
-62.5489
-62.7711
-62.9288
-63.0301
-63.0797
-48.4086
-53.9601
-57.685
-60.0473
-61.5246
-62.4602
-63.0701
-63.4825
-63.7715
-63.9803
-64.1335
-64.2455
-64.3245
-64.3752
-64.4
-53.0452
-59.5131
-62.9001
-64.5289
-65.2722
-65.5939
-65.7219
-65.7644
-65.7716
-65.7665
-65.7589
-65.7525
-65.7482
-65.7458
-65.7448
-61.5234
-68.1465
-69.8732
-69.8956
-69.4409
-68.921
-68.459
-68.0811
-67.7836
-67.5548
-67.3828
-67.2571
-67.1697
-67.1146
-67.088
-80.1605
-81.6761
-78.5501
-75.7389
-73.6743
-72.1899
-71.1114
-70.317
-69.7263
-69.286
-68.9599
-68.7232
-68.5585
-68.4546
-68.4043
5.24086
5.23069
5.21048
5.18045
5.14112
5.09341
5.03901
4.98101
4.92504
4.88142
4.86962
4.92849
5.1464
5.77657
7.779
5.38603
5.37571
5.35513
5.32443
5.28389
5.23415
5.17648
5.11341
5.04994
4.9958
4.96997
5.0091
5.18254
5.60753
6.35947
5.53821
5.52771
5.50669
5.47509
5.43291
5.38026
5.31755
5.24594
5.1682
5.09039
5.0251
4.99633
5.04379
5.21127
5.46412
5.69754
5.68688
5.66544
5.63298
5.58909
5.53321
5.46465
5.38257
5.28633
5.17616
5.05477
4.9305
4.82155
4.75558
4.74633
5.86411
5.85338
5.83172
5.79866
5.75345
5.69485
5.62097
5.52885
5.41397
5.26957
5.08634
4.85389
4.56932
4.26036
4.02414
6.03797
6.02732
6.00575
5.97265
5.92696
5.86696
5.7898
5.69076
5.56194
5.38985
5.15194
4.81335
4.33391
3.71448
3.13993
6.21906
6.20869
6.18764
6.15523
6.11028
6.05083
5.97363
5.87318
5.73979
5.55573
5.28729
4.8705
4.19562
3.13731
1.85879
6.40718
6.39731
6.37727
6.34639
6.30353
6.24687
6.17342
6.07825
5.95268
5.78013
5.52549
5.10673
4.32352
2.71293
-0.30811
6.60197
6.59283
6.57427
6.54571
6.50623
6.4544
6.3881
6.30421
6.198
6.06148
5.87747
5.59588
5.02591
3.26793
-4.57081
6.80294
6.79471
6.77804
6.75248
6.71737
6.67181
6.61478
6.54543
6.4642
6.37572
6.29702
6.28514
6.55321
8.04555
15.7193
7.00943
7.00227
6.98781
6.96573
6.93562
6.89704
6.84979
6.79464
6.73524
6.6831
6.66997
6.7798
7.23016
8.53028
11.3468
7.2207
7.21473
7.20269
7.18439
7.1596
7.12812
7.09009
7.04654
7.00103
6.9633
6.95734
7.03776
7.31686
7.9617
8.93284
7.43591
7.4312
7.42174
7.4074
7.38806
7.36359
7.33398
7.29952
7.26118
7.22135
7.18453
7.15752
7.14939
7.16629
7.196
7.65418
7.65079
7.64399
7.63372
7.61992
7.60245
7.58103
7.55491
7.52214
7.47721
7.40469
7.26395
6.96438
6.36173
5.48257
7.87459
7.87254
7.86845
7.86232
7.85416
7.84388
7.83109
7.81465
7.79131
7.75214
7.67197
7.48047
6.98968
5.74899
3.16142
8.09622
8.0955
8.09412
8.09216
8.08971
8.08685
8.08344
8.07886
8.07125
8.05543
8.01633
7.9046
7.53562
6.07136
-0.953773
8.31811
8.31871
8.32
8.32214
8.32537
8.33
8.33635
8.34489
8.35662
8.37482
8.41086
8.50713
8.84201
10.2552
17.2325
8.53935
8.54122
8.54509
8.55118
8.55989
8.57174
8.58747
8.60836
8.63724
8.68172
8.76328
8.94371
9.39937
10.5748
13.0902
8.75905
8.76212
8.76841
8.77822
8.79205
8.81058
8.83473
8.86594
8.90677
8.96276
9.04679
9.18885
9.45668
9.96356
10.6982
8.97638
8.98055
8.98906
9.00227
9.02076
9.04529
9.07682
9.1165
9.16547
9.22423
9.28971
9.34638
9.34777
9.19383
8.81968
9.19057
9.19572
9.20622
9.22246
9.24508
9.27491
9.31297
9.36025
9.41709
9.48092
9.53848
9.54199
9.34652
8.57672
6.6848
9.40092
9.40693
9.41916
9.43802
9.4642
9.4986
9.54242
9.59699
9.66355
9.74183
9.82449
9.87549
9.74393
8.73856
3.2396
9.60685
9.61358
9.62725
9.64829
9.67739
9.71553
9.76409
9.82504
9.90157
9.99961
10.1322
10.3354
10.748
12.0206
17.6928
9.80782
9.81515
9.82999
9.85275
9.8841
9.925
9.97684
10.0419
10.1243
10.2333
10.3904
10.6498
11.1544
12.2471
14.3753
10.0034
10.0112
10.027
10.051
10.084
10.1266
10.1801
10.2462
10.3284
10.4335
10.5773
10.7935
11.1522
11.7541
12.5397
10.1934
10.2015
10.2179
10.2429
10.2769
10.3205
10.3742
10.4391
10.5161
10.6068
10.7134
10.838
10.9809
11.1331
11.2535
10.3774
10.3858
10.4027
10.4283
10.463
10.5069
10.5604
10.6231
10.6939
10.7688
10.8369
10.8694
10.8027
10.5339
10.055
10.5553
10.5639
10.5811
10.6072
10.6423
10.6866
10.7397
10.8012
10.8685
10.9354
10.9848
10.9692
10.7648
10.0803
8.52782
10.7269
10.7356
10.7532
10.7797
10.8152
10.8597
10.9131
10.9747
11.043
11.1141
11.1776
11.1997
11.0602
10.2291
5.92658
10.8921
10.901
10.9188
10.9456
10.9815
11.0264
11.0803
11.1431
11.2151
11.298
11.3987
11.5421
11.8354
12.7884
17.1556
11.0509
11.0599
11.0779
11.1051
11.1413
11.1866
11.241
11.3048
11.3793
11.4695
11.5897
11.7802
12.1523
12.9763
14.6076
11.203
11.2122
11.2305
11.2579
11.2945
11.3401
11.3948
11.4586
11.5324
11.6199
11.7314
11.8917
12.1552
12.6032
13.1968
11.3485
11.3578
11.3764
11.4042
11.4412
11.4872
11.5419
11.6049
11.6755
11.7535
11.839
11.9313
12.0297
12.1284
12.2026
11.4873
11.4967
11.5156
11.5438
11.5813
11.6279
11.6829
11.7454
11.8132
11.8819
11.9413
11.9662
11.9038
11.6703
11.2644
11.6191
11.6288
11.648
11.6768
11.715
11.7624
11.8184
11.8818
11.9498
12.0167
12.0673
12.0614
11.8963
11.3316
10.0487
11.744
11.7538
11.7735
11.8029
11.842
11.8907
11.9485
12.0144
12.087
12.1625
12.232
12.2667
12.1661
11.4913
7.94663
11.8617
11.8718
11.8919
11.922
11.9622
12.0124
12.0724
12.142
12.2216
12.3125
12.4206
12.5657
12.8344
13.6436
17.2601
11.9721
11.9824
12.003
12.0339
12.0752
12.1269
12.1891
12.2623
12.3479
12.4506
12.583
12.7784
13.127
13.846
15.2171
12.075
12.0855
12.1066
12.1384
12.1807
12.2339
12.2979
12.3735
12.462
12.5678
12.7012
12.8844
13.162
13.5949
14.131
12.1702
12.181
12.2026
12.2351
12.2785
12.3329
12.3984
12.4751
12.5636
12.6657
12.7845
12.9243
13.0891
13.2718
13.422
12.2575
12.2686
12.2908
12.324
12.3685
12.424
12.4906
12.568
12.6555
12.7518
12.8529
12.9465
13.0033
12.9707
12.8221
12.3369
12.3482
12.3709
12.4049
12.4504
12.5072
12.575
12.6533
12.7408
12.8344
12.9262
12.9937
12.9795
12.7498
12.1238
12.4079
12.4196
12.4428
12.4777
12.5242
12.5823
12.6517
12.7318
12.8214
12.9181
13.016
13.0973
13.1049
12.8039
10.9955
12.4706
12.4825
12.5063
12.542
12.5897
12.6493
12.7206
12.8032
12.8967
13.0008
13.1169
13.2516
13.4444
13.9042
15.7968
12.5247
12.5369
12.5612
12.5978
12.6466
12.7078
12.7811
12.8665
12.9641
13.0752
13.2044
13.3651
13.5982
14.0091
14.7368
12.57
12.5824
12.6073
12.6448
12.6948
12.7575
12.8329
12.9209
13.0218
13.1368
13.2696
13.4278
13.6284
13.8934
14.1871
12.6063
12.619
12.6444
12.6827
12.7339
12.7981
12.8755
12.9658
13.0692
13.1859
13.3168
13.4608
13.6135
13.7574
13.8464
12.6334
12.6463
12.6723
12.7113
12.7636
12.8293
12.9086
13.0011
13.1069
13.2252
13.3544
13.4871
13.6045
13.659
13.5725
12.6512
12.6643
12.6907
12.7305
12.7838
12.8509
12.9319
13.0268
13.1354
13.2568
13.389
13.5238
13.6389
13.6581
13.2435
12.6594
12.6728
12.6995
12.7399
12.7941
12.8625
12.9452
13.0425
13.1544
13.2809
13.4214
13.5737
13.7396
13.9579
14.5098
12.6581
12.6716
12.6986
12.7394
12.7943
12.8637
12.948
13.0476
13.163
13.2951
13.4451
13.6137
13.8037
14.0257
14.2862
12.647
12.6606
12.6878
12.7289
12.7842
12.8543
12.9397
13.0411
13.1595
13.2967
13.4556
13.6383
13.8454
14.0662
14.2485
12.6262
12.6397
12.667
12.7081
12.7636
12.834
12.9199
13.0223
13.1424
13.2832
13.449
13.6455
13.8772
14.133
14.3427
12.5955
12.609
12.6361
12.6771
12.7325
12.8026
12.8883
12.9905
13.1106
13.252
13.4209
13.6278
13.8919
14.2313
14.5875
12.5552
12.5685
12.5954
12.6359
12.6907
12.7601
12.8448
12.9456
13.0637
13.2017
13.3658
13.5699
13.8541
14.3175
15.0848
12.5052
12.5183
12.5447
12.5846
12.6384
12.7066
12.7898
12.8882
13.0025
13.1332
13.2823
13.4561
13.6915
14.1922
16.12
12.4457
12.4586
12.4843
12.5233
12.5759
12.6425
12.7236
12.8194
12.9293
13.0519
13.1814
13.299
13.3444
13.0753
11.277
12.377
12.3894
12.4144
12.4522
12.5033
12.568
12.6469
12.7401
12.847
12.9656
13.0882
13.1916
13.2155
13.0198
12.4124
12.2993
12.3113
12.3353
12.3717
12.4209
12.4834
12.5599
12.6507
12.7562
12.8763
13.0079
13.1389
13.239
13.2497
13.1311
12.213
12.2243
12.2473
12.282
12.329
12.3889
12.4624
12.5505
12.655
12.7789
12.9275
13.1073
13.3242
13.5688
13.7726
12.1183
12.1291
12.1507
12.1835
12.2279
12.2846
12.3543
12.4384
12.5397
12.6642
12.8252
13.0494
13.3898
13.9159
14.5605
12.0158
12.0259
12.0461
12.0767
12.1181
12.1709
12.2357
12.3139
12.4079
12.5242
12.6784
12.9104
13.3262
14.1802
15.8011
11.906
11.9153
11.9339
11.9621
12.0001
12.0485
12.1075
12.1778
12.2603
12.3576
12.4773
12.6434
12.958
13.9115
18.1723
11.7894
11.7979
11.8148
11.8403
11.8748
11.9183
11.9711
12.0326
12.1019
12.1754
12.2435
12.2729
12.1458
11.3456
7.16847
11.6667
11.6742
11.6893
11.7121
11.7428
11.7815
11.8281
11.8817
11.94
11.997
12.036
12.0106
11.8007
11.1244
9.6076
11.5383
11.5449
11.5581
11.5781
11.605
11.639
11.6798
11.7269
11.7787
11.831
11.8729
11.8759
11.7794
11.4865
10.9982
11.405
11.4107
11.422
11.4391
11.4622
11.4913
11.5267
11.5684
11.6166
11.6721
11.7363
11.81
11.894
11.9839
12.0545
11.2675
11.2721
11.2815
11.2957
11.3148
11.339
11.3688
11.4048
11.449
11.5071
11.5926
11.7365
12.0045
12.4941
13.1647
11.1263
11.13
11.1374
11.1485
11.1635
11.1826
11.2061
11.2349
11.2715
11.3229
11.408
11.5764
11.9607
12.8783
14.7454
10.9823
10.985
10.9904
10.9984
11.0092
11.0229
11.0394
11.0592
11.0833
11.1152
11.1652
11.266
11.5463
12.6026
17.6273
10.8361
10.8378
10.8411
10.8462
10.8527
10.8608
10.87
10.8799
10.8892
10.8948
10.8868
10.8304
10.5928
9.5706
4.56022
10.6883
10.6891
10.6905
10.6925
10.695
10.6976
10.6998
10.7006
10.6973
10.6836
10.6417
10.5204
10.1839
9.30778
7.46143
10.5397
10.5395
10.5391
10.5383
10.5369
10.5344
10.5303
10.5236
10.5123
10.492
10.4512
10.3592
10.1497
9.71829
9.08501
10.3908
10.3899
10.3878
10.3843
10.3792
10.372
10.3621
10.3492
10.3331
10.3146
10.2959
10.2794
10.2692
10.2686
10.2733
10.2424
10.2406
10.2371
10.2313
10.2228
10.2111
10.1958
10.1766
10.1552
10.1373
10.1385
10.1948
10.382
10.8148
11.4694
10.0947
10.0924
10.0876
10.0798
10.0684
10.0526
10.0316
10.0051
9.97437
9.94655
9.94262
10.0189
10.3239
11.2066
13.1245
9.94836
9.94561
9.93984
9.93051
9.91676
9.89743
9.871
9.83589
9.79123
9.73915
9.69063
9.68379
9.86439
10.879
16.1159
9.8036
9.80061
9.79431
9.78406
9.76879
9.74689
9.71603
9.67289
9.61286
9.5292
9.40933
9.21811
8.82552
7.61877
2.25756
9.66059
9.65759
9.65125
9.64085
9.62518
9.60231
9.56922
9.52116
9.45051
9.34431
9.17722
8.8919
8.35184
7.24324
5.17137
9.51936
9.51659
9.51072
9.50104
9.48633
9.46456
9.43244
9.38465
9.3125
9.20161
9.02682
8.74223
8.27279
7.53628
6.6506
9.37974
9.37743
9.37255
9.36449
9.35216
9.33374
9.30619
9.26458
9.20101
9.10322
8.95232
8.72054
8.37902
7.93255
7.51898
9.24141
9.23977
9.23633
9.23065
9.22198
9.20899
9.18936
9.15931
9.11293
9.04162
8.93361
8.77471
8.55793
8.30561
8.10433
9.10391
9.10308
9.10138
9.09865
9.0946
9.08858
9.07939
9.06492
9.04181
9.00542
8.94987
8.86872
8.7613
8.64286
8.55405
8.96668
8.96671
8.96687
8.96734
8.96834
8.97012
8.97275
8.97607
8.97955
8.98243
8.98356
8.9806
8.9721
8.95916
8.94626
8.82912
8.82996
8.83188
8.83541
8.84134
8.85081
8.86528
8.88665
8.91735
8.96057
9.01972
9.09595
9.18577
9.27504
9.33366
8.6907
8.69218
8.69553
8.70158
8.71166
8.72776
8.75268
8.79031
8.84611
8.92754
9.04367
9.2015
9.39961
9.6118
9.7659
8.55095
8.55281
8.55704
8.56471
8.57759
8.59835
8.6309
8.68092
8.7567
8.87034
9.0383
9.27871
9.60343
9.98848
10.3093
8.40963
8.41154
8.41592
8.424
8.43782
8.46049
8.49665
8.5532
8.64065
8.77535
8.98225
9.29702
9.76511
10.4094
11.0796
8.26671
8.26826
8.27197
8.27908
8.29169
8.31302
8.34789
8.40357
8.49146
8.63013
8.85094
9.20847
9.8042
10.8118
12.3193
8.12243
8.12324
8.12541
8.13012
8.1393
8.15591
8.18434
8.23117
8.30667
8.4278
8.62435
8.95413
9.55702
10.8666
14.61
-132.374
-98.3325
-86.2152
-80.41
-77.0228
-74.8143
-73.2819
-72.1792
-71.3688
-70.7679
-70.3235
-70.0005
-69.7756
-69.6333
-69.5644
-112.092
-98.2489
-88.7997
-82.9769
-79.2481
-76.7303
-74.9564
-73.6686
-72.7162
-72.0062
-71.4785
-71.0935
-70.8243
-70.6537
-70.5708
-101.428
-95.1135
-88.8654
-84.0891
-80.6321
-78.1297
-76.2929
-74.9246
-73.8949
-73.1175
-72.5343
-72.1056
-71.8044
-71.6127
-71.5195
-95.1534
-91.9314
-87.9089
-84.2848
-81.3526
-79.0669
-77.3038
-75.9451
-74.8979
-74.0936
-73.4825
-73.0291
-72.7083
-72.5031
-72.403
-91.121
-89.305
-86.6753
-83.9994
-81.6239
-79.641
-78.0334
-76.7488
-75.7319
-74.9352
-74.3209
-73.8601
-73.5315
-73.3202
-73.2168
-88.3542
-87.2432
-85.4735
-83.505
-81.6221
-79.9543
-78.5383
-77.366
-76.4126
-75.6499
-75.0526
-74.5991
-74.273
-74.062
-73.9585
-86.3635
-85.6386
-84.4095
-82.9506
-81.4706
-80.0925
-78.8737
-77.8309
-76.9603
-76.2496
-75.684
-75.2495
-74.9342
-74.729
-74.6279
-84.8808
-84.3838
-83.5046
-82.4104
-81.248
-80.12
-79.0864
-78.1756
-77.3966
-76.7482
-76.2242
-75.8168
-75.5186
-75.3233
-75.2268
-83.748
-83.394
-82.7489
-81.9172
-81.0012
-80.0817
-79.2135
-78.4283
-77.7419
-77.1601
-76.6831
-76.3081
-76.0312
-75.8488
-75.7584
-82.8656
-82.6061
-82.1223
-81.4819
-80.7564
-80.0077
-79.2827
-78.6119
-78.014
-77.499
-77.071
-76.7309
-76.4778
-76.3102
-76.2268
-82.1681
-81.9736
-81.6043
-81.1054
-80.5273
-79.9172
-79.3137
-78.7444
-78.2283
-77.7771
-77.3976
-77.0931
-76.8647
-76.7128
-76.6369
-81.6104
-81.462
-81.176
-80.7833
-80.32
-79.822
-79.3205
-78.8396
-78.397
-78.0051
-77.6718
-77.402
-77.1984
-77.0622
-76.994
-81.1603
-81.0457
-80.8216
-80.5097
-80.1364
-79.729
-79.3127
-78.9077
-78.5302
-78.192
-77.9017
-77.6648
-77.4849
-77.3641
-77.3034
-80.7944
-80.7051
-80.5279
-80.2784
-79.9762
-79.6422
-79.2965
-78.9564
-78.6356
-78.3454
-78.0942
-77.8878
-77.7301
-77.6238
-77.5703
-80.4953
-80.4252
-80.284
-80.0833
-79.8376
-79.5632
-79.2763
-78.991
-78.7193
-78.4715
-78.2553
-78.0765
-77.9394
-77.8466
-77.7998
-80.2495
-80.1943
-80.0812
-79.919
-79.7186
-79.4927
-79.2546
-79.0156
-78.7862
-78.5753
-78.3901
-78.2362
-78.1176
-78.0371
-77.9964
-80.0467
-80.0032
-79.9123
-79.7807
-79.6169
-79.4308
-79.233
-79.0331
-78.8398
-78.6609
-78.5029
-78.371
-78.269
-78.1996
-78.1644
-79.8789
-79.8446
-79.7714
-79.6644
-79.5302
-79.3767
-79.2125
-79.0455
-78.883
-78.7317
-78.5974
-78.4848
-78.3975
-78.3379
-78.3077
-79.7396
-79.7126
-79.6537
-79.5666
-79.4566
-79.3299
-79.1937
-79.0543
-78.9179
-78.7903
-78.6766
-78.5809
-78.5064
-78.4555
-78.4297
-79.6236
-79.6026
-79.5552
-79.4843
-79.3941
-79.2896
-79.1767
-79.0606
-78.9463
-78.839
-78.743
-78.6619
-78.5987
-78.5554
-78.5334
-79.5268
-79.5107
-79.4726
-79.4151
-79.3412
-79.2551
-79.1616
-79.065
-78.9696
-78.8795
-78.7987
-78.7302
-78.6768
-78.6401
-78.6214
-79.4458
-79.4337
-79.4033
-79.3567
-79.2963
-79.2255
-79.1483
-79.0682
-78.9886
-78.9133
-78.8455
-78.788
-78.7429
-78.7119
-78.6962
-79.3779
-79.369
-79.345
-79.3075
-79.2583
-79.2002
-79.1367
-79.0704
-79.0044
-78.9416
-78.8849
-78.8367
-78.7989
-78.7729
-78.7597
-79.3207
-79.3146
-79.2959
-79.2659
-79.226
-79.1787
-79.1266
-79.0721
-79.0174
-78.9653
-78.9182
-78.878
-78.8464
-78.8247
-78.8137
-79.2725
-79.2687
-79.2543
-79.2306