/*--------------------------------*- C++ -*----------------------------------*\
| =========                 |                                                 |
| \\      /  F ield         | OpenFOAM: The Open Source CFD Toolbox           |
|  \\    /   O peration     | Version:  5.x                                   |
|   \\  /    A nd           | Web:      www.OpenFOAM.org                      |
|    \\/     M anipulation  |                                                 |
\*---------------------------------------------------------------------------*/
FoamFile
{
    version     2.0;
    format      ascii;
    class       volScalarField;
    location    "19";
    object      gradTy;
}
// * * * * * * * * * * * * * * * * * * * * * * * * * * * * * * * * * * * * * //

dimensions      [0 -1 0 1 0 0 0];

internalField   nonuniform List<scalar> 
6300
(
1001.95
1005.84
1009.71
1013.55
1017.35
1021.1
1024.78
1028.38
1031.9
1035.32
1038.63
1041.83
1044.89
1047.82
1050.62
0.00875786
0.0262697
0.0437687
0.0612359
0.0786342
0.0959013
0.11294
0.129606
0.145701
0.160958
0.175048
0.18758
0.198127
0.20626
0.211596
0.0145999
0.0437973
0.0729831
0.102134
0.131198
0.160083
0.188639
0.216638
0.243754
0.269549
0.293463
0.314823
0.332877
0.346855
0.35606
0.0204429
0.0613334
0.10223
0.143115
0.183937
0.224591
0.264892
0.304548
0.343125
0.380018
0.414429
0.445369
0.471698
0.492221
0.505825
0.0262816
0.078861
0.131483
0.184152
0.236836
0.289441
0.341778
0.393523
0.444166
0.492955
0.538853
0.580512
0.616314
0.64449
0.663343
0.0321033
0.0963443
0.160684
0.225168
0.289808
0.354551
0.419246
0.48359
0.547048
0.608773
0.667504
0.721502
0.768547
0.806079
0.831518
0.0378881
0.113723
0.189732
0.266019
0.342663
0.419693
0.497051
0.574524
0.651646
0.727564
0.800869
0.869424
0.930274
0.979739
1.01387
0.0436125
0.130924
0.218497
0.306504
0.395119
0.484493
0.574725
0.665791
0.75743
0.848951
0.938963
1.02503
1.10336
1.16871
1.21492
0.0492491
0.14786
0.246818
0.346372
0.446804
0.548421
0.651547
0.756467
0.863311
0.971825
1.08098
1.18835
1.28938
1.37678
1.44075
0.0547707
0.164445
0.274532
0.385351
0.497287
0.610822
0.726556
0.845197
0.967496
1.09403
1.22473
1.35795
1.48899
1.60822
1.7
0.060157
0.180611
0.301505
0.423198
0.546153
0.671006
0.798635
0.930244
1.06741
1.21203
1.36591
1.52968
1.70035
1.86701
2.00548
0.0654003
0.19633
0.327669
0.459766
0.593103
0.728391
0.866708
1.0097
1.15985
1.32073
1.49715
1.69442
1.91563
2.1539
2.37661
0.0705118
0.211632
0.353062
0.495077
0.638083
0.782724
0.930077
1.08197
1.24149
1.41385
1.60746
1.83516
2.11375
2.45629
2.84019
0.0755237
0.226617
0.377858
0.529382
0.681405
0.834321
0.988881
1.14656
1.31026
1.48564
1.6836
1.92491
2.24787
2.71726
3.40823
0.0804865
0.241446
0.402356
0.563168
0.723814
0.884247
1.04453
1.2051
1.36731
1.53478
1.71632
1.93293
2.23549
2.75658
3.8897
1053.04
1055.15
1057.16
1059.06
1060.87
1062.59
1064.21
1065.75
1067.21
1068.6
1069.91
1071.17
1072.36
1073.51
1074.62
1075.69
1076.73
1077.75
1078.75
1079.74
1080.72
1081.7
1082.68
1083.67
1084.68
1085.7
1086.74
1087.79
1088.87
1089.97
1091.09
1092.23
1093.39
1094.57
1095.76
1096.95
1098.16
1099.36
1100.56
1101.74
1102.91
1104.05
1105.16
1106.23
1107.24
1108.19
1109.08
1109.88
1110.59
1111.2
1111.69
1112.06
1112.3
1112.38
1112.3
1112.03
1111.57
1110.89
1109.98
1108.8
1107.35
1105.59
1103.5
1101.06
1098.22
1094.97
1091.26
1087.05
1082.31
1076.99
1071.05
1064.42
1057.05
1048.89
1039.88
1029.94
1019.02
1007.03
993.922
979.609
964.022
947.09
928.747
908.93
887.582
864.657
840.118
813.944
786.125
756.668
0.213664
0.213314
0.210731
0.205993
0.199252
0.190715
0.180629
0.169259
0.156872
0.143721
0.130037
0.116026
0.101864
0.0876988
0.0736579
0.0598495
0.0463699
0.0333097
0.0207596
0.00881536
-0.00241791
-0.0128234
-0.0222724
-0.0306269
-0.0377448
-0.0434892
-0.0477397
-0.0504047
-0.0514332
-0.0508218
-0.0486143
-0.0448913
-0.0397507
-0.0332823
-0.025544
-0.0165454
-0.00624826
0.005419
0.0185318
0.0331349
0.0492115
0.0666661
0.0853286
0.104981
0.125404
0.146425
0.167973
0.190095
0.212971
0.236886
0.262197
0.289283
0.318497
0.350127
0.384376
0.421366
0.461158
0.503798
0.549367
0.598025
0.65004
0.705799
0.765798
0.830604
0.900823
0.977045
1.0598
1.14953
1.24654
1.351
1.46294
1.58229
1.70881
1.84219
1.98193
2.12737
2.27757
2.43124
2.58669
2.74167
2.89341
3.03855
3.17318
3.29302
3.39356
3.47038
3.51943
3.53746
3.52228
3.47306
0.359643
0.359059
0.354626
0.346488
0.334921
0.320299
0.303065
0.283689
0.262638
0.240348
0.217214
0.19358
0.169737
0.145926
0.122351
0.0991817
0.0765703
0.0546579
0.0335874
0.013512
-0.00539706
-0.0229454
-0.0389145
-0.0530652
-0.0651469
-0.0749133
-0.0821434
-0.0866667
-0.0883869
-0.0872993
-0.0834931
-0.0771338
-0.0684247
-0.0575538
-0.0446414
-0.0297053
-0.0126565
0.00666964
0.0284537
0.052819
0.0797645
0.109125
0.140573
0.173675
0.20798
0.243132
0.278963
0.315549
0.353219
0.392509
0.434091
0.478672
0.5269
0.579289
0.636176
0.697722
0.763963
0.834898
0.910587
0.991251
1.07732
1.16947
1.26855
1.3756
1.49169
1.61788
1.75511
1.90416
2.06557
2.23961
2.42633
2.62557
2.83699
3.06005
3.29404
3.53794
3.79032
4.0492
4.31183
4.5746
4.83288
5.08098
5.31224
5.51916
5.6938
5.82824
5.91521
5.94871
5.92475
5.84172
0.511174
0.510369
0.503886
0.491957
0.475024
0.453685
0.428631
0.400581
0.370236
0.338242
0.305166
0.271491
0.237618
0.203872
0.170516
0.137771
0.105825
0.0748562
0.0450459
0.0165938
-0.0102695
-0.0352741
-0.0581065
-0.0784131
-0.0958123
-0.109918
-0.120372
-0.126891
-0.129309
-0.127615
-0.121971
-0.112682
-0.100133
-0.0846846
-0.0665717
-0.0458249
-0.0222603
0.00446579
0.0347447
0.0688749
0.106928
0.148665
0.193526
0.240726
0.289429
0.338954
0.388959
0.439538
0.491229
0.544931
0.601767
0.662908
0.72941
0.802075
0.881368
0.967419
1.06011
1.15925
1.26475
1.37679
1.49597
1.62324
1.75996
1.90769
2.06812
2.24291
2.43351
2.64112
2.8665
3.11006
3.3718
3.65144
3.94848
4.26228
4.59198
4.93639
5.29383
5.66183
6.03687
6.41409
6.78708
7.14777
7.48641
7.79185
8.052
8.25456
8.38803
8.44281
8.41232
8.29387
0.670853
0.669843
0.660979
0.644625
0.62147
0.592425
0.558516
0.520787
0.480224
0.437709
0.393997
0.349707
0.305337
0.261275
0.217826
0.175231
0.133696
0.0934111
0.0545744
0.0174148
-0.0177908
-0.0507021
-0.0809063
-0.107918
-0.13119
-0.150148
-0.164235
-0.172988
-0.176118
-0.173588
-0.165665
-0.152892
-0.135981
-0.11562
-0.0922611
-0.0659685
-0.0363825
-0.00281962
0.035525
0.0793165
0.128825
0.183742
0.243145
0.305648
0.369728
0.434121
0.498163
0.561961
0.626378
0.692879
0.76328
0.839462
0.923086
1.01536
1.11687
1.22759
1.34702
1.47449
1.60951
1.75211
1.90298
2.06347
2.23554
2.42152
2.62392
2.84519
3.08748
3.3525
3.64131
3.95436
4.29152
4.65226
5.03589
5.44166
5.86875
6.31612
6.78217
7.26437
7.75879
8.25968
8.75903
9.24633
9.70843
10.1298
10.4931
10.7804
10.9742
11.0597
11.0266
10.8702
0.841825
0.840638
0.828868
0.807103
0.776417
0.738193
0.693933
0.64511
0.593064
0.538949
0.48371
0.428093
0.372667
0.317854
0.263964
0.211228
0.159831
0.109945
0.0617545
0.0154905
-0.0285457
-0.0699566
-0.10823
-0.142731
-0.172704
-0.197313
-0.215701
-0.227104
-0.230994
-0.227245
-0.216259
-0.198977
-0.176712
-0.150786
-0.12209
-0.0907683
-0.0561449
-0.0169031
0.0285503
0.0816164
0.143024
0.212451
0.288393
0.368394
0.449667
0.529884
0.607812
0.683584
0.75862
0.835307
0.916568
1.0054
1.10441
1.21543
1.3392
1.47532
1.62245
1.77895
1.94347
2.11564
2.29621
2.48712
2.69118
2.91181
3.15266
3.41729
3.70884
4.02971
4.38132
4.76405
5.17737
5.62022
6.09151
6.59042
7.11642
7.66903
8.24734
8.84938
9.47148
10.1076
10.7484
11.3812
11.9892
12.5514
13.0439
13.4408
13.7163
13.8476
13.8182
13.6204
1.02798
1.02665
1.01113
0.982407
0.9422
0.892632
0.835902
0.77406
0.708879
0.641808
0.573973
0.506214
0.439127
0.373119
0.308458
0.245316
0.183814
0.12406
0.0661868
0.0103859
-0.0430509
-0.0936971
-0.140955
-0.184027
-0.221908
-0.253398
-0.277187
-0.291996
-0.296828
-0.291283
-0.275876
-0.252195
-0.222674
-0.1899
-0.15566
-0.120282
-0.0825186
-0.039893
0.0106516
0.0719434
0.145713
0.231819
0.327833
0.429346
0.531163
0.628978
0.720597
0.806299
0.888514
0.971175
1.05898
1.15671
1.26849
1.39719
1.5438
1.7072
1.88445
2.07186
2.26647
2.46707
2.6746
2.89186
3.123
3.37301
3.64718
3.95066
4.28802
4.66268
5.07655
5.52972
6.02071
6.54725
7.10738
7.70017
8.32576
8.98494
9.67832
10.4055
11.164
11.9485
12.7494
13.552
14.3356
15.0733
15.7324
16.2759
16.6659
16.8671
16.8522
16.608
1.23451
1.23306
1.21237
1.1742
1.12141
1.05732
0.985163
0.907745
0.827345
0.745701
0.66407
0.583314
0.503984
0.4264
0.350722
0.277002
0.205243
0.135435
0.0676028
0.00184829
-0.0616015
-0.122341
-0.179728
-0.232821
-0.280329
-0.32059
-0.351617
-0.371269
-0.377619
-0.369533
-0.347422
-0.313833
-0.273333
-0.23114
-0.190883
-0.153249
-0.115913
-0.0743094
-0.0227495
0.0442735
0.13061
0.236889
0.35932
0.489824
0.618382
0.736953
0.841859
0.933983
1.01771
1.09957
1.18706
1.28771
1.40814
1.55308
1.72416
1.91908
2.13175
2.35436
2.58075
2.80846
3.03891
3.27651
3.52756
3.79931
4.09938
4.43518
4.81337
5.2391
5.71508
6.24082
6.81274
7.4258
8.07612
8.76256
9.48662
10.2514
11.0605
11.9163
12.8191
13.7657
14.7477
15.7499
16.7481
17.7084
18.5869
19.332
19.8873
20.1973
20.2163
19.9192
1.46869
1.46709
1.43872
1.38695
1.31679
1.23354
1.14189
1.04561
0.947477
0.849447
0.752782
0.658239
0.566209
0.476826
0.390055
0.305761
0.22376
0.143865
0.0659306
-0.0101015
-0.084145
-0.155901
-0.224768
-0.289738
-0.349267
-0.401157
-0.4425
-0.469774
-0.479269
-0.468054
-0.435572
-0.385502
-0.326509
-0.269672
-0.222414
-0.185868
-0.155539
-0.123151
-0.0785117
-0.0113081
0.0866855
0.218588
0.379069
0.552984
0.719856
0.864474
0.981392
1.07363
1.14946
1.2197
1.29604
1.39005
1.51234
1.67114
1.87003
2.10524
2.36456
2.63122
2.89293
3.14571
3.39273
3.64161
3.90208
4.18463
4.49991
4.85842
5.27004
5.74294
6.28172
6.88518
7.5453
8.25043
8.99259
9.7705
10.5885
11.454
12.3751
13.3591
14.4108
15.5316
16.7168
17.9531
19.2149
20.4608
21.6333
22.661
23.4613
23.9463
24.0353
23.6776
1.74167
1.73958
1.69867
1.62609
1.53098
1.4218
1.30524
1.18607
1.06741
0.951166
0.838375
0.729487
0.624565
0.523435
0.425771
0.331172
0.239202
0.149433
0.0614825
-0.0249478
-0.110012
-0.193645
-0.275445
-0.354512
-0.42922
-0.496926
-0.553658
-0.593891
-0.610753
-0.59721
-0.549062
-0.470034
-0.376599
-0.29443
-0.238544
-0.209559
-0.198144
-0.189647
-0.166783
-0.111249
-0.00609744
0.159098
0.379429
0.626233
0.85332
1.03182
1.15641
1.23683
1.2892
1.33101
1.37951
1.4516
1.5639
1.73142
1.96354
2.25659
2.5867
2.91512
3.2179
3.49115
3.74378
3.98994
4.24473
4.52273
4.83809
5.20509
5.63835
6.15179
6.75513
7.4478
8.21292
9.0216
9.85741
10.7206
11.6219
12.5763
13.599
14.704
15.903
17.2045
18.612
20.1194
21.7041
23.3188
24.8881
26.3171
27.4893
28.2652
28.4973
28.0738
2.07214
2.06789
2.00417
1.89762
1.76538
1.62071
1.47243
1.32588
1.18396
1.04802
0.918465
0.795139
0.677586
0.565177
0.457206
0.352931
0.251612
0.152526
0.0549908
-0.0416108
-0.137788
-0.233872
-0.329897
-0.425399
-0.519086
-0.60833
-0.688399
-0.75149
-0.785845
-0.776024
-0.706847
-0.575141
-0.410299
-0.281171
-0.215766
-0.207781
-0.236373
-0.276644
-0.301907
-0.282445
-0.185151
0.0203986
0.341848
0.728051
1.05691
1.27698
1.39518
1.44063
1.44433
1.4329
1.42924
1.45549
1.53615
1.69889
1.96952
2.35477
2.81148
3.23613
3.58557
3.86648
4.10436
4.32607
4.55418
4.80727
5.10215
5.45657
5.89146
6.4314
7.10014
7.90634
8.81801
9.75392
10.6831
11.6159
12.579
13.6003
14.7047
15.9139
17.2476
18.725
20.3636
22.1746
24.1504
26.2422
28.3449
30.3432
32.0883
33.3672
33.9035
33.4283
2.49595
2.4818
2.37132
2.20611
2.01764
1.8247
1.63702
1.45892
1.29182
1.13561
0.989507
0.852413
0.723134
0.600472
0.483263
0.370385
0.260761
0.153345
0.0471173
-0.0589179
-0.165726
-0.274209
-0.385123
-0.498913
-0.615366
-0.732953
-0.847593
-0.95047
-1.02455
-1.04031
-0.954677
-0.72797
-0.392577
-0.176155
-0.110309
-0.15334
-0.257804
-0.385276
-0.50146
-0.565739
-0.520118
-0.285223
0.210985
0.912398
1.41714
1.66879
1.73864
1.70447
1.62117
1.52354
1.43579
1.38098
1.39013
1.51092
1.81037
2.34999
3.08235
3.66537
4.05185
4.30365
4.48813
4.65285
4.82756
5.03153
5.28036
5.59205
5.9932
6.5254
7.2471
8.21285
9.38806
10.4959
11.5032
12.4676
13.4521
14.5045
15.6594
16.9442
18.3852
20.0132
21.8666
23.9924
26.4294
29.1497
31.9518
34.7338
37.3581
39.5383
40.7658
40.3534
3.09628
3.03439
2.81719
2.54803
2.27627
2.02105
1.78772
1.57606
1.3839
1.20857
1.0475
0.898363
0.75909
0.627856
0.503027
0.383104
0.266684
0.15241
0.0389309
-0.0751433
-0.191281
-0.311067
-0.436227
-0.568605
-0.710019
-0.861823
-1.02373
-1.19091
-1.34724
-1.45059
-1.40564
-1.0373
-0.203545
0.145675
0.151908
-0.0104498
-0.24611
-0.510172
-0.775762
-1.00729
-1.12764
-0.967143
-0.215397
1.3799
2.14173
2.32233
2.23182
2.039
1.81856
1.59988
1.39486
1.21431
1.08331
1.06561
1.30535
2.06757
3.56818
4.3775
4.71197
4.83766
4.90025
4.96512
5.05867
5.19106
5.36796
5.59862
5.90611
6.34642
7.04252
8.21761
10.055
11.3823
12.3849
13.2901
14.2272
15.2611
16.4268
17.7491
19.2536
20.9764
22.9773
25.3616
28.2999
31.9393
35.5875
39.3509
43.267
47.0811
49.9894
50.2634
4.12085
3.81041
3.33778
2.89354
2.511
2.18584
1.90721
1.66513
1.45173
1.26101
1.08834
0.930136
0.783503
0.64606
0.51577
0.390829
0.269572
0.150392
0.0316657
-0.088328
-0.211507
-0.340107
-0.476854
-0.625194
-0.789617
-0.976045
-1.19215
-1.44685
-1.7461
-2.0743
-2.32214
-2.01673
0.683301
0.961471
0.656958
0.238069
-0.193427
-0.632762
-1.09899
-1.60881
-2.13943
-2.50031
-1.85638
3.04766
3.70332
3.36626
2.87236
2.41334
2.01347
1.65663
1.3188
0.976366
0.613489
0.249691
0.0480889
0.721968
5.04953
5.77342
5.67272
5.46257
5.30909
5.23616
5.23394
5.28658
5.37824
5.49462
5.62786
5.79919
6.14831
7.26872
11.4565
12.7364
13.407
14.0666
14.8628
15.8278
16.9688
18.2916
19.8076
21.5391
23.536
25.9332
29.1609
34.7161
39.0573
43.7479
49.3225
55.9279
63.0059
67.3424
6.52516
4.81978
3.81739
3.15008
2.66298
2.2835
1.97393
1.71278
1.48682
1.28735
1.10827
0.945161
0.794606
0.653891
0.520745
0.39319
0.269413
0.147669
0.0261806
-0.096967
-0.22396
-0.357445
-0.500809
-0.658644
-0.837538
-1.04753
-1.30499
-1.63863
-2.10324
-2.81366
-4.03529
-6.44435
5.05756
2.61626
1.32665
0.504699
-0.129488
-0.716647
-1.35942
-2.18038
-3.39557
-5.48037
-9.63187
10.8329
6.69425
4.63588
3.46253
2.70237
2.14632
1.68592
1.24928
0.767809
0.144954
-0.7998
-2.46987
-5.88497
11.72
8.35654
6.79087
6.00572
5.60179
5.40519
5.33006
5.32577
5.35279
5.36625
5.29468
4.99587
4.14335
1.9027
17.0451
14.9678
14.4445
14.6462
15.2551
16.1409
17.2489
18.5558
20.0509
21.7195
23.5179
25.3085
26.6699
39.2406
42.0237
46.8714
53.8932
64.0938
79.9698
107.631
722.489
682.94
641.223
597.462
551.801
504.399
455.425
405.052
353.458
300.816
247.297
193.068
138.292
83.1296
27.7355
3.38217
3.23816
3.0553
2.84123
2.60421
2.35221
2.09225
1.82996
1.56947
1.31345
1.06326
0.81918
0.580664
0.346532
0.115192
5.68667
5.44
5.12678
4.76086
4.35699
3.92923
3.4897
3.04796
2.61085
2.18262
1.76531
1.35913
0.962909
0.574458
0.190926
8.06871
7.70839
7.25099
6.71844
6.13368
5.51802
4.88935
4.26132
3.64333
3.04087
2.45623
1.88912
1.33737
0.797459
0.264977
10.5655
10.0739
9.45037
8.72822
7.94127
7.11983
6.28835
5.46464
4.66024
3.88128
3.12958
2.40373
1.69999
1.01302
0.336495
13.2214
12.5712
11.7484
10.8028
9.78335
8.73169
7.67958
6.64866
5.65172
4.69441
3.77706
2.89621
2.0458
1.21814
0.404471
16.0921
15.2413
14.1691
12.9512
11.6576
10.344
9.04961
7.79871
6.60356
5.46758
4.38804
3.35822
2.36887
1.40924
0.46772
19.2505
18.1326
16.7353
15.1752
13.5518
11.937
10.3761
8.89301
7.49626
6.18429
4.94928
3.77973
2.6622
1.58222
0.524884
22.7969
21.3031
19.4639
17.4624
15.4371
13.4759
11.6247
9.90092
8.30417
6.82406
5.44504
4.14922
2.91795
1.73253
0.57448
26.876
24.819
22.3548
19.7731
17.2583
14.9045
12.7457
10.7817
8.99537
7.36273
5.85759
4.45415
3.12785
1.85548
0.614978
31.7056
28.7421
25.3634
22.0168
18.9185
16.1382
13.6718
11.4845
9.53285
7.77385
6.16842
4.68194
3.28379
1.94653
0.644931
37.6192
33.0801
28.3395
24.0121
20.2607
17.0581
14.3187
11.9517
9.8776
8.03136
6.36027
4.82136
3.37884
2.00193
0.663139
45.0886
37.6191
30.9022
25.4309
21.0539
17.5146
14.5931
12.1258
9.99447
8.11369
6.4199
4.86438
3.40826
2.01918
0.668835
54.3823
41.4053
32.2193
25.7553
21.0094
17.3531
14.4133
11.9637
9.86077
8.00899
6.34124
4.80796
3.37062
1.99769
0.661853
62.5144
41.4002
30.8142
24.3614
19.8751
16.475
13.7432
11.4548
9.4759
7.72023
6.12808
4.65557
3.26857
1.93907
0.642741
0.0850425
0.255064
0.424869
0.594234
0.762804
0.930037
1.09515
1.25711
1.41477
1.56737
1.71598
1.86722
2.0421
2.29772
2.78016
0.0892289
0.267596
0.445651
0.623051
0.799221
0.973202
1.14344
1.30744
1.46135
1.59924
1.71212
1.78581
1.79353
1.66269
1.11517
0.0934758
0.280337
0.466877
0.652709
0.83714
1.01895
1.19602
1.36475
1.519
1.64841
1.73543
1.75018
1.64111
1.317
0.618766
0.097783
0.293292
0.488583
0.683324
0.876862
1.06796
1.25438
1.43207
1.59387
1.72699
1.80888
1.80048
1.63795
1.23111
0.49686
0.102126
0.306392
0.510656
0.714759
0.91826
1.12021
1.31875
1.51039
1.68859
1.84112
1.94502
1.95772
1.80444
1.37255
0.555128
0.106456
0.319484
0.532828
0.746596
0.960716
1.1748
1.38789
1.59799
1.80108
1.98898
2.14447
2.23012
2.16439
1.78168
0.816736
0.110704
0.332347
0.554691
0.77817
1.00318
1.23006
1.45907
1.6904
1.92405
2.15929
2.39239
2.60755
2.74444
2.59507
1.54258
0.114784
0.344715
0.575749
0.808663
1.04432
1.28381
1.52861
1.78117
2.04585
2.33102
2.65274
3.03923
3.52321
4.03558
3.67995
0.118607
0.356306
0.595485
0.837226
1.08279
1.33383
1.59273
1.86346
2.15335
2.47729
2.86805
3.40313
4.28215
6.07876
10.6813
0.12209
0.366858
0.613424
0.863107
1.11744
1.37837
1.64861
1.93241
2.23713
2.57709
2.98308
3.5281
4.40377
6.17321
10.7186
0.12516
0.37615
0.629183
0.885734
1.14748
1.4164
1.69505
1.98678
2.29638
2.63096
3.00147
3.42335
3.90461
4.33973
3.804
0.127762
0.384013
0.642479
0.904732
1.17249
1.44766
1.73235
2.02869
2.33821
2.65982
2.98411
3.27729
3.43737
3.18036
1.80058
0.129853
0.390328
0.653129
0.919885
1.19233
1.47227
1.76152
2.0614
2.37157
2.68674
2.98827
3.22355
3.2597
2.80058
1.33974
0.131408
0.395015
0.661014
0.931065
1.20692
1.49039
1.78326
2.08691
2.40141
2.72307
3.03836
3.308
3.4259
3.11636
1.72514
0.132411
0.398031
0.666066
0.938194
1.21619
1.50194
1.79746
2.10484
2.4262
2.76376
3.12007
3.49773
3.88885
4.18322
3.5404
0.132856
0.399359
0.668258
0.941225
1.22004
1.50668
1.80339
2.11299
2.43967
2.79136
3.18689
3.67801
4.41888
5.90081
9.82636
0.132747
0.399012
0.667609
0.940168
1.21844
1.50439
1.80031
2.10922
2.4357
2.78842
3.18724
3.68476
4.43417
5.92127
9.83833
0.1321
0.397033
0.664189
0.935117
1.21148
1.49513
1.78818
2.09319
2.41345
2.75337
3.11898
3.51649
3.93704
4.25409
3.58706
0.130939
0.393501
0.658131
0.926267
1.19944
1.47931
1.7677
2.06653
2.37747
2.70041
3.02848
3.33213
3.51169
3.2702
1.85449
0.1293
0.388521
0.649621
0.913895
1.18271
1.45753
1.73992
2.03142
2.33308
2.6438
2.95487
3.23383
3.37863
3.10164
1.71442
0.127225
0.382226
0.638887
0.898346
1.16179
1.43047
1.70577
1.98918
2.28236
2.58688
2.90348
3.22861
3.53841
3.704
2.99209
0.124765
0.374768
0.626195
0.880007
1.13719
1.39878
1.66594
1.94012
2.22368
2.5215
2.84612
3.23392
3.79827
4.91563
7.93097
0.121972
0.366309
0.611828
0.859305
1.10951
1.36319
1.62118
1.8845
2.15504
2.43744
2.74481
3.11652
3.67398
4.80909
7.88425
0.118901
0.357021
0.596085
0.83669
1.07937
1.32459
1.57267
1.8238
2.07811
2.33595
2.59877
2.87006
3.14845
3.35515
2.8286
0.115606
0.347066
0.579256
0.812608
1.04746
1.28397
1.522
1.76086
1.99866
2.23092
2.44679
2.61859
2.67261
2.41033
1.33583
0.112135
0.336594
0.561605
0.787466
1.01436
1.24226
1.47074
1.6986
1.92299
2.13723
2.32534
2.44882
2.41636
2.02948
0.952172
0.108529
0.325731
0.543346
0.761584
0.98054
1.20011
1.41986
1.63871
1.85434
2.06161
2.24873
2.38727
2.40618
2.12805
1.14281
0.10482
0.31457
0.52464
0.735184
0.946266
1.15781
1.36956
1.58102
1.79144
1.99992
2.20581
2.40871
2.60223
2.7176
2.23648
0.101029
0.303179
0.505591
0.708391
0.911646
1.11535
1.31944
1.52401
1.72981
1.93999
2.16492
2.43659
2.85248
3.7213
6.10218
0.0971725
0.291598
0.486256
0.681264
0.876695
1.07258
1.26896
1.46609
1.6651
1.86975
2.09152
2.36424
2.78811
3.67486
6.08471
0.0932567
0.279848
0.466664
0.653824
0.841407
1.02944
1.21791
1.40684
1.59643
1.78756
1.9827
2.18687
2.40222
2.57061
2.17991
0.0892841
0.267933
0.446819
0.626072
0.805783
0.985972
1.16653
1.34709
1.52664
1.70252
1.86755
2.00169
2.04886
1.85455
1.0314
0.0852525
0.255847
0.426706
0.597986
0.769807
0.942222
1.11512
1.288
1.45935
1.62499
1.77378
1.87686
1.86313
1.57512
0.743742
0.0811559
0.24357
0.406288
0.569505
0.733399
0.898112
1.06369
1.22994
1.39598
1.55911
1.71172
1.83308
1.86785
1.67299
0.911688
0.0769859
0.231074
0.385513
0.54054
0.696404
0.853376
1.01177
1.17198
1.33459
1.5005
1.67133
1.84936
2.03198
2.16417
1.81716
0.0727328
0.218328
0.364317
0.510977
0.65862
0.80763
0.958558
1.11234
1.27086
1.43843
1.62591
1.8624
2.23106
2.98808
5.00544
0.0683872
0.205302
0.342645
0.480719
0.61987
0.760534
0.903339
1.04937
1.20079
1.36249
1.5464
1.78361
2.1604
2.93665
4.98596
0.0639417
0.191973
0.320453
0.449698
0.580054
0.71193
0.845859
0.982627
1.12355
1.27108
1.42983
1.60785
1.81227
2.00107
1.75385
0.0593914
0.178327
0.297722
0.417892
0.539165
0.661882
0.786385
0.912971
1.0417
1.17182
1.29984
1.4137
1.47493
1.36822
0.785918
0.0547332
0.164355
0.274443
0.385309
0.49726
0.610575
0.725443
0.841797
0.958861
1.07399
1.17966
1.25605
1.25417
1.06559
0.505141
0.0499653
0.150054
0.250614
0.35196
0.454392
0.558171
0.66345
0.770106
0.877335
0.982691
1.07978
1.1527
1.16305
1.02118
0.536731
0.0450863
0.135419
0.226233
0.317847
0.410575
0.504709
0.600481
0.697991
0.797079
0.897109
0.996649
1.09277
1.1776
1.21464
0.977343
0.0400945
0.120446
0.201288
0.28295
0.365771
0.450096
0.536286
0.624756
0.716137
0.811838
0.915873
1.04063
1.22532
1.59856
2.61055
0.0349883
0.105129
0.175765
0.247239
0.319911
0.394175
0.470492
0.549478
0.632167
0.720747
0.820681
0.946831
1.14206
1.53885
2.58833
0.0297668
0.0894636
0.149655
0.210687
0.272934
0.336817
0.40283
0.471612
0.54408
0.621742
0.707258
0.805033
0.918775
1.02583
0.90583
0.0244309
0.0734513
0.122954
0.173283
0.224813
0.277967
0.333234
0.391169
0.452366
0.517256
0.585297
0.652119
0.700104
0.670445
0.398067
0.0189835
0.0571006
0.0956755
0.135038
0.175555
0.217642
0.261772
0.308446
0.358071
0.410559
0.46416
0.512258
0.535327
0.483591
0.25401
0.0134308
0.0404289
0.067845
0.0959852
0.125198
0.155889
0.188533
0.223661
0.26177
0.303074
0.346827
0.389751
0.42248
0.420219
0.303302
0.00778241
0.0234646
0.0395077
0.0561825
0.0738071
0.0927708
0.113561
0.136792
0.163236
0.193874
0.230056
0.2743
0.333914
0.436447
0.692636
0.00205179
0.00624745
0.0107284
0.0157158
0.0214815
0.0283783
0.0368847
0.0476787
0.0617755
0.0808094
0.107677
0.148154
0.215524
0.345939
0.656658
-0.00374338
-0.0111695
-0.0184054
-0.0252949
-0.0316336
-0.0371364
-0.0413859
-0.0437365
-0.0431269
-0.0377093
-0.0241637
0.00331737
0.0533346
0.130193
0.183265
-0.0095811
-0.0287199
-0.0477817
-0.0666909
-0.0853322
-0.103525
-0.120979
-0.137213
-0.151377
-0.161883
-0.16569
-0.15718
-0.127509
-0.0690495
0.00124803
-0.0154354
-0.0463248
-0.0772655
-0.108275
-0.139344
-0.170428
-0.201422
-0.232131
-0.262173
-0.290717
-0.315776
-0.332382
-0.328353
-0.276522
-0.130223
-0.0212768
-0.0638947
-0.106703
-0.149818
-0.193348
-0.237394
-0.282064
-0.327514
-0.37401
-0.421971
-0.471733
-0.521917
-0.562394
-0.549599
-0.340964
-0.0270737
-0.0813328
-0.135926
-0.191073
-0.246994
-0.303925
-0.362163
-0.422171
-0.484831
-0.551974
-0.627393
-0.718195
-0.833426
-0.958675
-0.880377
-0.0327928
-0.0985386
-0.164765
-0.23179
-0.299937
-0.369549
-0.441031
-0.514985
-0.592537
-0.676227
-0.772363
-0.897505
-1.09749
-1.50909
-2.58815
-0.0384005
-0.11541
-0.193047
-0.271726
-0.351861
-0.433869
-0.51818
-0.605296
-0.695976
-0.791833
-0.897182
-1.02483
-1.2146
-1.59598
-2.62146
-0.0438627
-0.131846
-0.220603
-0.310647
-0.402482
-0.496586
-0.593375
-0.693125
-0.795814
-0.900839
-1.00651
-1.10901
-1.19861
-1.23557
-0.989352
-0.0491451
-0.147743
-0.247264
-0.348323
-0.451523
-0.557432
-0.666507
-0.778904
-0.894022
-1.00939
-1.11801
-1.20214
-1.21917
-1.0718
-0.560342
-0.0542134
-0.162997
-0.272854
-0.384506
-0.498677
-0.616075
-0.737324
-0.862783
-0.992044
-1.12261
-1.24651
-1.34185
-1.35389
-1.16084
-0.554403
-0.059033
-0.177504
-0.297194
-0.418936
-0.543585
-0.672034
-0.805207
-0.944009
-1.08914
-1.24046
-1.39481
-1.53938
-1.63102
-1.53693
-0.897328
-0.0635708
-0.191161
-0.320107
-0.45134
-0.585847
-0.724706
-0.86917
-1.02082
-1.18194
-1.35617
-1.54989
-1.77364
-2.03709
-2.29183
-2.04236
-0.0677958
-0.203875
-0.341425
-0.481465
-0.625078
-0.773475
-0.928126
-1.09106
-1.2656
-1.45832
-1.68409
-1.98031
-2.44919
-3.39683
-5.85072
-0.0716815
-0.215563
-0.36101
-0.509102
-0.660978
-0.817892
-0.981319
-1.15321
-1.33663
-1.5375
-1.76935
-2.06705
-2.52877
-3.45577
-5.87328
-0.0752059
-0.226161
-0.378753
-0.534103
-0.69337
-0.857775
-1.02862
-1.20733
-1.39551
-1.59514
-1.80885
-2.03985
-2.2852
-2.47956
-2.11614
-0.0783519
-0.235618
-0.394576
-0.556375
-0.722184
-0.893173
-1.07045
-1.25486
-1.44642
-1.64296
-1.83632
-2.00264
-2.07701
-1.89066
-1.04567
-0.0811063
-0.243895
-0.40842
-0.575855
-0.747388
-0.924191
-1.10731
-1.29739
-1.49386
-1.69297
-1.88254
-2.02926
-2.04983
-1.75912
-0.840687
-0.083459
-0.250964
-0.420236
-0.592479
-0.768922
-0.950808
-1.13933
-1.33546
-1.53945
-1.74957
-1.95849
-2.14345
-2.23879
-2.06347
-1.16551
-0.0854029
-0.2568
-0.429983
-0.606178
-0.786665
-0.9728
-1.16605
-1.36804
-1.58076
-1.80696
-2.05105
-2.31983
-2.61567
-2.86962
-2.48551
-0.0869344
-0.261392
-0.437631
-0.616886
-0.800474
-0.989841
-1.18667
-1.39315
-1.61268
-1.85191
-2.12644
-2.47736
-3.02161
-4.11882
-6.99082
-0.0880556
-0.264743
-0.443175
-0.624575
-0.810257
-1.00168
-1.20058
-1.40917
-1.63088
-1.87231
-2.14875
-2.5006
-3.04351
-4.13544
-6.9973
-0.088775
-0.266877
-0.446652
-0.629281
-0.816037
-1.00833
-1.20773
-1.41605
-1.63537
-1.86835
-2.11866
-2.3911
-2.6841
-2.92287
-2.50688
-0.0891098
-0.267843
-0.448139
-0.631108
-0.817961
-1.01002
-1.20869
-1.41525
-1.63034
-1.85233
-2.07317
-2.2673
-2.36231
-2.16493
-1.20932
-0.089086
-0.267719
-0.447761
-0.630229
-0.816254
-1.0071
-1.20413
-1.40852
-1.6205
-1.83707
-2.0462
-2.21227
-2.24352
-1.93352
-0.927722
-0.0887401
-0.266613
-0.44569
-0.626868
-0.811184
-0.999883
-1.19444
-1.3965
-1.60743
-1.82695
-2.04908
-2.25083
-2.36169
-2.18526
-1.23614
-0.0881198
-0.264664
-0.442152
-0.621315
-0.803057
-0.988574
-1.17952
-1.37829
-1.58836
-1.81499
-2.06609
-2.35247
-2.67931
-2.97357
-2.60229
-0.087286
-0.262055
-0.437443
-0.613959
-0.792294
-0.973476
-1.15916
-1.35219
-1.55776
-1.78601
-2.05857
-2.42596
-3.01952
-4.22399
-7.32487
-0.0863132
-0.259011
-0.431942
-0.605329
-0.779538
-0.955233
-1.13368
-1.31737
-1.51136
-1.72623
-1.98517
-2.34233
-2.93543
-4.15739
-7.29832
-0.0852887
-0.2558
-0.426114
-0.596115
-0.765737
-0.935062
-1.10453
-1.27537
-1.45043
-1.6358
-1.84353
-2.09481
-2.41459
-2.75809
-2.51357
-0.0843083
-0.252719
-0.420495
-0.587151
-0.752125
-0.914774
-1.07441
-1.23041
-1.38231
-1.52981
-1.67161
-1.79968
-1.87724
-1.76707
-1.05006
-0.0834684
-0.250074
-0.415643
-0.579342
-0.740112
-0.896558
-1.0468
-1.18826
-1.31721
-1.42774
-1.5092
-1.5396
-1.47022
-1.19744
-0.547024
-0.0828566
-0.248142
-0.41208
-0.573553
-0.731084
-0.882628
-1.02527
-1.15479
-1.26487
-1.34583
-1.38223
-1.34877
-1.20442
-0.890037
-0.352053
-0.0825397
-0.247139
-0.410218
-0.570488
-0.726197
-0.874856
-1.01284
-1.13478
-1.23273
-1.29484
-1.30375
-1.2349
-1.05669
-0.73789
-0.272435
-0.0825537
-0.247184
-0.410297
-0.570574
-0.726188
-0.874481
-1.01152
-1.13141
-1.22543
-1.28076
-1.27925
-1.19694
-1.00657
-0.687568
-0.247961
-0.0828964
-0.248277
-0.412334
-0.573885
-0.731245
-0.881904
-1.02207
-1.14599
-1.24498
-1.30612
-1.31084
-1.23399
-1.04575
-0.720979
-0.262588
-0.0835232
-0.250281
-0.416098
-0.58009
-0.740936
-0.896595
-1.04389
-1.17786
-1.29077
-1.37064
-1.39904
-1.34835
-1.17972
-0.847161
-0.323586
-0.0843479
-0.25293
-0.421118
-0.588465
-0.754211
-0.917075
-1.07494
-1.22431
-1.35948
-1.47086
-1.54212
-1.54457
-1.4275
-1.10597
-0.470411
-0.085249
-0.255845
-0.426709
-0.597934
-0.769466
-0.941007
-1.11185
-1.28062
-1.44467
-1.59891
-1.73293
-1.82373
-1.81722
-1.58281
-0.829231
-0.0860795
-0.258565
-0.432036
-0.607173
-0.784695
-0.965398
-1.15019
-1.34017
-1.53663
-1.74095
-1.95368
-2.17043
-2.36514
-2.42013
-1.81646
-0.0866804
-0.260592
-0.436193
-0.614736
-0.797696
-0.986927
-1.18491
-1.39519
-1.62309
-1.87709
-2.17155
-2.53236
-3.01008
-3.7147
-4.90727
44.1612
32.8894
26.0909
21.4261
17.9149
15.1029
12.7526
10.7257
8.93386
7.317
5.83137
4.44347
3.12635
1.85726
0.61604
16.1308
21.0048
19.9936
17.8245
15.5787
13.4934
11.6001
9.8802
8.30557
6.84895
5.48614
4.19602
2.96001
1.76139
0.584718
7.11945
13.2071
14.7004
14.276
13.131
11.7506
10.3271
8.93379
7.59531
6.31574
5.09041
3.91098
2.76769
1.65027
0.548369
3.76867
8.59978
10.7388
11.228
10.8465
10.0378
9.03308
7.94927
6.84411
5.74483
4.66277
3.60083
2.55739
1.52837
0.50843
2.29718
5.86193
7.92303
8.78439
8.85878
8.461
7.79393
6.97954
6.08879
5.16194
4.22115
3.27783
2.33706
1.40017
0.466345
1.54067
4.16827
5.94033
6.88728
7.19889
7.07118
6.65704
6.06282
5.35851
4.58872
3.78126
2.95303
2.11402
1.26983
0.423471
1.09927
3.06872
4.53058
5.43136
5.84404
5.88025
5.64517
5.22252
4.67368
4.04165
3.35577
2.63571
1.89456
1.141
0.380998
0.81696
2.32163
3.51047
4.31436
4.75061
4.87768
4.76354
4.46985
4.04661
3.53196
2.954
2.33304
1.68371
1.01664
0.339904
0.624401
1.79387
2.75765
3.45264
3.87186
4.0426
4.00657
3.80711
3.48299
3.06622
2.58207
2.05006
1.48516
0.898997
0.30094
0.486929
1.40894
2.19148
2.78241
3.16564
3.35111
3.36307
3.23093
2.98371
2.64725
2.24336
1.78991
1.30137
0.789607
0.264631
0.38546
1.12085
1.75837
2.25642
2.59674
2.7801
2.81963
2.73467
2.54637
2.27509
1.93907
1.55411
1.13371
0.689387
0.231295
0.30866
0.90073
1.42209
1.83995
2.13682
2.30895
2.36262
2.31015
2.16667
1.94787
1.66874
1.34293
0.982637
0.598731
0.20108
0.249393
0.729709
1.15769
1.50749
1.76352
1.92006
1.97931
1.94882
1.83925
1.66255
1.43083
1.1557
0.84796
0.517615
0.173997
0.202953
0.595028
0.947574
1.24014
1.4593
1.59874
1.65831
1.64241
1.55843
1.41542
1.22306
0.991098
0.728976