/*--------------------------------*- C++ -*----------------------------------*\
| =========                 |                                                 |
| \\      /  F ield         | OpenFOAM: The Open Source CFD Toolbox           |
|  \\    /   O peration     | Version:  5.x                                   |
|   \\  /    A nd           | Web:      www.OpenFOAM.org                      |
|    \\/     M anipulation  |                                                 |
\*---------------------------------------------------------------------------*/
FoamFile
{
    version     2.0;
    format      ascii;
    class       volScalarField;
    location    "19";
    object      T;
}
// * * * * * * * * * * * * * * * * * * * * * * * * * * * * * * * * * * * * * //

dimensions      [0 0 0 1 0 0 0];

internalField   nonuniform List<scalar> 
6300
(
10.0194
10.0583
10.0969
10.1353
10.1732
10.2106
10.2474
10.2834
10.3185
10.3527
10.3858
10.4176
10.4483
10.4775
10.5055
10.0195
10.0584
10.0972
10.1357
10.1737
10.2113
10.2482
10.2843
10.3195
10.3538
10.3869
10.4189
10.4496
10.4789
10.5069
10.0196
10.0588
10.0978
10.1365
10.1748
10.2126
10.2497
10.286
10.3215
10.3559
10.3893
10.4214
10.4522
10.4817
10.5097
10.0198
10.0593
10.0987
10.1377
10.1764
10.2145
10.2519
10.2886
10.3244
10.3591
10.3928
10.4252
10.4562
10.4859
10.514
10.02
10.06
10.0998
10.1394
10.1785
10.217
10.255
10.2921
10.3283
10.3635
10.3975
10.4303
10.4617
10.4915
10.5198
10.0203
10.0609
10.1013
10.1414
10.1811
10.2203
10.2588
10.2965
10.3333
10.369
10.4036
10.4368
10.4686
10.4987
10.5272
10.0207
10.062
10.1031
10.1439
10.1843
10.2241
10.2633
10.3018
10.3393
10.3757
10.4109
10.4447
10.477
10.5076
10.5364
10.0211
10.0632
10.1051
10.1467
10.188
10.2287
10.2687
10.308
10.3463
10.3836
10.4196
10.4542
10.4872
10.5183
10.5475
10.0215
10.0646
10.1074
10.15
10.1922
10.2338
10.2748
10.3151
10.3544
10.3927
10.4297
10.4652
10.4991
10.531
10.5607
10.0221
10.0661
10.11
10.1537
10.1969
10.2396
10.2817
10.3231
10.3636
10.403
10.4412
10.4779
10.513
10.5459
10.5763
10.0226
10.0679
10.1129
10.1577
10.2021
10.246
10.2894
10.332
10.3738
10.4145
10.4542
10.4924
10.5289
10.5632
10.5947
10.0233
10.0697
10.1161
10.1621
10.2078
10.2531
10.2977
10.3417
10.3849
10.4272
10.4685
10.5085
10.547
10.5832
10.6164
10.0239
10.0718
10.1195
10.1669
10.214
10.2606
10.3067
10.3522
10.397
10.441
10.4841
10.5263
10.5672
10.6063
10.6423
10.0247
10.074
10.1231
10.172
10.2206
10.2687
10.3163
10.3633
10.4097
10.4555
10.5007
10.5452
10.5892
10.6323
10.6732
10.0255
10.0763
10.127
10.1775
10.2276
10.2773
10.3265
10.3751
10.4232
10.4707
10.5178
10.5648
10.6121
10.6606
10.7104
10.5297
10.5508
10.5709
10.5899
10.6081
10.6252
10.6415
10.657
10.6716
10.6855
10.6987
10.7113
10.7233
10.7348
10.746
10.7567
10.7672
10.7774
10.7874
10.7973
10.8072
10.817
10.8269
10.8368
10.8469
10.8571
10.8675
10.8781
10.8889
10.8999
10.9111
10.9225
10.9341
10.9458
10.9576
10.9696
10.9816
10.9936
11.0055
11.0173
11.0289
11.0403
11.0513
11.0619
11.072
11.0815
11.0902
11.0982
11.1052
11.1112
11.116
11.1197
11.1219
11.1226
11.1217
11.1189
11.1142
11.1072
11.0979
11.086
11.0713
11.0535
11.0325
11.0078
10.9792
10.9464
10.909
10.8667
10.819
10.7654
10.7056
10.6389
10.5648
10.4828
10.3922
10.2923
10.1826
10.0622
9.9306
9.78695
9.63058
9.46079
9.27692
9.07835
8.86454
8.63504
8.3895
8.1277
7.84956
7.55515
10.5311
10.5522
10.5723
10.5913
10.6094
10.6265
10.6427
10.6581
10.6726
10.6864
10.6996
10.712
10.724
10.7354
10.7464
10.7571
10.7675
10.7776
10.7875
10.7974
10.8072
10.8169
10.8267
10.8366
10.8467
10.8568
10.8672
10.8778
10.8885
10.8995
10.9108
10.9222
10.9338
10.9456
10.9575
10.9695
10.9815
10.9936
11.0056
11.0175
11.0293
11.0408
11.0519
11.0626
11.0728
11.0824
11.0913
11.0994
11.1066
11.1128
11.1178
11.1216
11.124
11.125
11.1243
11.1217
11.1173
11.1106
11.1016
11.09
11.0757
11.0583
11.0376
11.0133
10.9852
10.9529
10.9161
10.8744
10.8273
10.7745
10.7153
10.6495
10.5762
10.4951
10.4054
10.3065
10.1978
10.0785
9.94784
9.80522
9.64985
9.48101
9.29803
9.10024
8.88709
8.65809
8.41287
8.15118
7.87293
7.5782
10.534
10.5551
10.5751
10.5941
10.612
10.6291
10.6451
10.6603
10.6747
10.6884
10.7013
10.7136
10.7253
10.7366
10.7474
10.7579
10.7681
10.778
10.7878
10.7975
10.8071
10.8168
10.8264
10.8362
10.8462
10.8563
10.8666
10.8771
10.8879
10.8989
10.9101
10.9216
10.9333
10.9451
10.9571
10.9693
10.9815
10.9937
11.0059
11.018
11.0299
11.0416
11.053
11.064
11.0745
11.0844
11.0936
11.102
11.1094
11.1159
11.1213
11.1254
11.1283
11.1296
11.1294
11.1273
11.1234
11.1173
11.1089
11.098
11.0843
11.0677
11.0478
11.0244
10.9972
10.9659
10.9302
10.8897
10.8439
10.7924
10.7348
10.6705
10.599
10.5196
10.4318
10.3349
10.2281
10.1109
9.98233
9.84179
9.68845
9.52156
9.34038
9.14421
8.93242
8.70445
8.45989
8.19845
7.92
7.62461
10.5383
10.5594
10.5793
10.5982
10.6161
10.6329
10.6488
10.6638
10.6779
10.6912
10.7039
10.7159
10.7274
10.7383
10.7489
10.7591
10.769
10.7787
10.7882
10.7977
10.8071
10.8165
10.826
10.8356
10.8454
10.8553
10.8656
10.876
10.8868
10.8978
10.9091
10.9206
10.9324
10.9444
10.9566
10.9689
10.9813
10.9937
11.0062
11.0186
11.0309
11.0429
11.0547
11.0661
11.077
11.0873
11.0969
11.1057
11.1137
11.1206
11.1265
11.1312
11.1346
11.1366
11.137
11.1357
11.1325
11.1273
11.1198
11.1098
11.0972
11.0817
11.0629
11.0408
11.0151
10.9853
10.9512
10.9125
10.8686
10.8192
10.7639
10.702
10.633
10.5563
10.4713
10.3773
10.2736
10.1594
10.0341
9.89671
9.74651
9.58263
9.40427
9.21063
9.00097
8.77466
8.53117
8.27015
7.99143
7.69504
10.5442
10.5653
10.5852
10.6039
10.6215
10.6381
10.6537
10.6684
10.6821
10.6951
10.7074
10.719
10.7301
10.7407
10.7508
10.7607
10.7702
10.7795
10.7887
10.7978
10.8069
10.8161
10.8253
10.8347
10.8442
10.8541
10.8641
10.8745
10.8853
10.8963
10.9077
10.9193
10.9313
10.9434
10.9558
10.9683
10.981
10.9938
11.0066
11.0193
11.0321
11.0446
11.0569
11.0688
11.0803
11.0912
11.1014
11.1107
11.1193
11.1268
11.1333
11.1387
11.1429
11.1457
11.147
11.1467
11.1446
11.1405
11.1342
11.1255
11.1142
11.1001
11.083
11.0625
11.0386
11.0108
10.9789
10.9425
10.9012
10.8546
10.8023
10.7436
10.678
10.6049
10.5236
10.4336
10.334
10.2241
10.1031
9.97007
9.82419
9.66452
9.49011
9.30005
9.09346
8.86954
8.62765
8.3673
8.08825
7.79049
10.5518
10.5728
10.5926
10.6111
10.6285
10.6448
10.66
10.6742
10.6875
10.7
10.7118
10.7229
10.7335
10.7436
10.7533
10.7626
10.7717
10.7806
10.7893
10.798
10.8067
10.8155
10.8243
10.8334
10.8427
10.8523
10.8623
10.8726
10.8833
10.8943
10.9058
10.9176
10.9297
10.9421
10.9547
10.9676
10.9806
10.9937
11.0069
11.0202
11.0334
11.0466
11.0596
11.0722
11.0844
11.096
11.1069
11.117
11.1262
11.1345
11.1417
11.148
11.153
11.1569
11.1593
11.1602
11.1595
11.1568
11.152
11.1449
11.1353
11.1229
11.1077
11.0893
11.0675
11.0422
11.013
10.9795
10.9414
10.8983
10.8497
10.795
10.7337
10.6651
10.5886
10.5036
10.4092
10.3047
10.1893
10.0619
9.92169
9.76756
9.59844
9.41322
9.21083
8.99026
8.75065
8.49135
8.21196
7.91244
10.5611
10.5821
10.6017
10.62
10.6371
10.6529
10.6676
10.6813
10.694
10.7059
10.7171
10.7276
10.7375
10.747
10.7561
10.7649
10.7734
10.7817
10.79
10.7981
10.8064
10.8147
10.8231
10.8318
10.8408
10.8501
10.8598
10.87
10.8806
10.8918
10.9033
10.9153
10.9277
10.9404
10.9534
10.9665
10.9799
10.9934
11.0071
11.021
11.0349
11.0489
11.0627
11.0762
11.0893
11.1018
11.1135
11.1244
11.1344
11.1435
11.1517
11.1588
11.1649
11.17
11.1738
11.1762
11.177
11.1761
11.1731
11.1678
11.1602
11.1499
11.1368
11.1208
11.1016
11.0791
11.0531
11.0231
10.9889
10.9499
10.9058
10.856
10.7998
10.7367
10.666
10.587
10.4989
10.4011
10.2925
10.1722
10.0392
9.89214
9.72989
9.55108
9.35433
9.13836
8.90198
8.64426
8.36461
8.0629
10.5723
10.5933
10.6128
10.6308
10.6474
10.6626
10.6767
10.6897
10.7017
10.7128
10.7233
10.733
10.7423
10.751
10.7594
10.7675
10.7753
10.783
10.7906
10.7982
10.8058
10.8136
10.8215
10.8297
10.8383
10.8473
10.8567
10.8667
10.8773
10.8885
10.9003
10.9125
10.9253
10.9383
10.9516
10.9652
10.9789
10.9929
11.0071
11.0216
11.0364
11.0512
11.0661
11.0808
11.095
11.1086
11.1213
11.1331
11.144
11.1539
11.1629
11.1711
11.1784
11.1848
11.1902
11.1944
11.1972
11.1982
11.1973
11.1942
11.1888
11.1808
11.1701
11.1567
11.1405
11.1212
11.0987
11.0728
11.043
11.0089
10.9701
10.926
10.8758
10.8191
10.7552
10.6833
10.6028
10.5128
10.4125
10.3009
10.1767
10.0386
9.88515
9.71469
9.52548
9.31578
9.08397
8.82869
8.549
8.2446
10.5857
10.6067
10.626
10.6435
10.6595
10.674
10.6873
10.6994
10.7105
10.7208
10.7303
10.7393
10.7476
10.7556
10.7631
10.7704
10.7775
10.7844
10.7913
10.7982
10.8051
10.8122
10.8195
10.8271
10.8352
10.8437
10.8528
10.8626
10.8731
10.8844
10.8964
10.9091
10.9223
10.9358
10.9495
10.9635
10.9776
10.9919
11.0067
11.0219
11.0375
11.0536
11.0699
11.086
11.1017
11.1165
11.1303
11.1431
11.1548
11.1655
11.1754
11.1846
11.1931
11.201
11.2083
11.2146
11.2197
11.2232
11.2247
11.224
11.2209
11.2154
11.2073
11.1968
11.1836
11.1678
11.1493
11.1279
11.1032
11.0747
11.0421
11.0045
10.9613
10.9119
10.8557
10.792
10.7202
10.6394
10.5489
10.4475
10.3341
10.2071
10.0649
9.90524
9.72607
9.525
9.29972
9.0482
8.76894
8.46128
10.6017
10.6227
10.6416
10.6585
10.6737
10.6873
10.6995
10.7106
10.7206
10.7298
10.7383
10.7462
10.7536
10.7606
10.7672
10.7736
10.7798
10.7859
10.792
10.798
10.8042
10.8105
10.817
10.8239
10.8313
10.8392
10.8479
10.8573
10.8677
10.8791
10.8915
10.9048
10.9187
10.9329
10.9472
10.9614
10.9758
10.9904
11.0055
11.0214
11.0381
11.0556
11.0737
11.0919
11.1094
11.1259
11.1409
11.1546
11.167
11.1783
11.1889
11.1989
11.2086
11.2182
11.2276
11.2365
11.2445
11.2509
11.2552
11.2571
11.2566
11.2536
11.2482
11.2404
11.2305
11.2184
11.2041
11.1876
11.1686
11.1466
11.121
11.091
11.0557
11.0145
10.9669
10.9124
10.8503
10.78
10.7008
10.6115
10.511
10.3977
10.2694
10.1239
9.95815
9.769
9.5532
9.30761
9.02971
8.71815
10.6206
10.6415
10.6599
10.676
10.6901
10.7025
10.7134
10.7231
10.7319
10.7398
10.7471
10.7538
10.7601
10.766
10.7716
10.777
10.7823
10.7874
10.7925
10.7977
10.8029
10.8083
10.814
10.8201
10.8266
10.8338
10.8417
10.8507
10.8609
10.8724
10.8854
10.8997
10.9147
10.9299
10.9448
10.9593
10.9736
10.9881
11.0033
11.0196
11.0374
11.0568
11.0774
11.0985
11.1187
11.1371
11.1535
11.1678
11.1806
11.1921
11.203
11.2136
11.2244
11.2357
11.2475
11.2597
11.2714
11.2815
11.289
11.2938
11.2958
11.2952
11.2922
11.2872
11.2804
11.272
11.2621
11.2509
11.2383
11.2237
11.2063
11.1849
11.1585
11.1263
11.0881
11.0435
10.9921
10.9335
10.8669
10.7916
10.7064
10.6095
10.4989
10.3716
10.2238
10.0513
9.84951
9.61351
9.33889
9.02276
10.6431
10.664
10.6816
10.6965
10.709
10.7197
10.729
10.7371
10.7443
10.7508
10.7567
10.7621
10.7671
10.7719
10.7764
10.7807
10.7849
10.789
10.7931
10.7972
10.8014
10.8058
10.8104
10.8154
10.8209
10.8271
10.8341
10.8423
10.852
10.8636
10.8774
10.8933
10.9105
10.9273
10.9429
10.9573
10.9711
10.9849
10.9995
11.0157
11.0344
11.056
11.0805
11.1064
11.1305
11.1514
11.1688
11.1834
11.1958
11.2069
11.2174
11.228
11.2394
11.2522
11.267
11.2836
11.3007
11.3156
11.3269
11.3345
11.3387
11.3401
11.3392
11.3366
11.3325
11.3275
11.322
11.3162
11.3106
11.3048
11.2974
11.286
11.2693
11.2468
11.2185
11.1844
11.1444
11.0983
11.0457
10.986
10.9183
10.8412
10.7525
10.6488
10.525
10.3759
10.195
9.97496
9.70778
9.38672
10.6705
10.6912
10.7074
10.7202
10.7305
10.739
10.7461
10.7523
10.7577
10.7625
10.7669
10.7709
10.7746
10.778
10.7813
10.7845
10.7875
10.7905
10.7935
10.7965
10.7996
10.8029
10.8063
10.8101
10.8143
10.8191
10.8248
10.8317
10.8404
10.8516
10.8663
10.8851
10.9069
10.9264
10.9426
10.9562
10.9684
10.9804
10.9933
11.0083
11.027
11.0511
11.0817
11.1168
11.1471
11.1705
11.1882
11.2019
11.213
11.2226
11.2317
11.2412
11.2522
11.2659
11.2837
11.3067
11.3331
11.3548
11.3701
11.3799
11.3856
11.3883
11.3888
11.3879
11.386
11.3838
11.382
11.3814
11.3832
11.388
11.3941
11.3948
11.3885
11.3757
11.3572
11.3336
11.3053
11.2724
11.2346
11.1919
11.1437
11.0894
11.0275
10.9546
10.8629
10.746
10.5967
10.4043
10.1542
9.82983
10.7051
10.7247
10.738
10.7474
10.7545
10.7601
10.7647
10.7686
10.772
10.775
10.7776
10.7801
10.7823
10.7844
10.7864
10.7883
10.7902
10.792
10.7938
10.7957
10.7976
10.7996
10.8017
10.8041
10.8067
10.8098
10.8136
10.8185
10.8251
10.8346
10.8493
10.8726
10.9064
10.9302
10.9459
10.9571
10.9661
10.9747
10.984
10.9956
11.0118
11.0367
11.0762
11.134
11.1734
11.1978
11.2135
11.2242
11.2322
11.2389
11.2453
11.2523
11.261
11.2735
11.2931
11.3249
11.372
11.4031
11.4211
11.4312
11.4367
11.4394
11.4404
11.4404
11.4399
11.4395
11.4401
11.4432
11.4515
11.4691
11.4985
11.5137
11.517
11.5126
11.5031
11.4896
11.4729
11.4533
11.4308
11.4055
11.3778
11.3484
11.3185
11.2875
11.2368
11.1629
11.0603
10.9166
10.7076
10.392
10.7529
10.7674
10.7741
10.778
10.7807
10.7827
10.7843
10.7856
10.7868
10.7878
10.7887
10.7895
10.7903
10.791
10.7916
10.7923
10.7929
10.7935
10.7941
10.7947
10.7954
10.796
10.7968
10.7976
10.7985
10.7996
10.8009
10.8028
10.8055
10.8101
10.8199
10.8448
10.9205
10.9456
10.9557
10.961
10.9646
10.9678
10.9713
10.9762
10.9842
11.0011
11.0445
11.1777
11.2211
11.2378
11.2457
11.2502
11.2533
11.2557
11.2581
11.2607
11.2645
11.2709
11.2847
11.3212
11.434
11.4702
11.4835
11.4891
11.4918
11.493
11.4935
11.4936
11.4936
11.4937
11.4945
11.4974
11.5062
11.5333
11.6232
11.6496
11.6567
11.657
11.6544
11.6502
11.6447
11.6382
11.6308
11.6227
11.6144
11.608
11.6107
11.6489
11.644
11.621
11.5831
11.5228
11.4143
11.1767
7.21367
6.81864
6.40208
5.96517
5.50935
5.03616
4.54727
4.04442
3.52934
3.00377
2.46942
1.92794
1.38098
0.830138
0.27697
7.23612
6.84015
6.42238
5.98407
5.52667
5.05182
4.56122
4.05663
3.53982
3.01254
2.47652
1.93342
1.38487
0.832454
0.27774
7.28131
6.88341
6.46318
6.022
5.56143
5.0832
4.58912
4.08102
3.56073
3.03004
2.49068
1.94433
1.3926
0.837068
0.279274
7.34985
6.94895
6.52491
6.07928
5.61381
5.1304
4.63101
4.11758
3.59203
3.05619
2.51182
1.9606
1.40412
0.843943
0.281558
7.44268
7.03757
6.6082
6.15637
5.6841
5.19356
4.68691
4.16625
3.6336
3.09086
2.53981
1.98211
1.41935
0.853018
0.284573
7.56116
7.15042
6.71392
6.25385
5.77264
5.2728
4.75678
4.22688
3.68524
3.13382
2.57442
2.00867
1.43812
0.864204
0.288288
7.70711
7.289
6.84317
6.37242
5.87977
5.36819
4.8405
4.29922
3.74664
3.18475
2.61535
2.04003
1.46026
0.87738
0.292663
7.883
7.45525
6.9973
6.51287
6.00579
5.47968
4.93777
4.38285
3.81731
3.24317
2.66218
2.07584
1.4855
0.892388
0.297643
8.09212
7.65165
7.17788
6.67593
6.15081
5.60693
5.04802
4.47708
3.89656
3.30843
2.71433
2.11563
1.51351
0.909025
0.30316
8.33894
7.88131
7.38658
6.86212
6.31453
5.7492
5.17026
4.58087
3.98339
3.37965
2.77108
2.15882
1.54386
0.927039
0.309132
8.62964
8.14803
7.62497
7.07139
6.49597
5.90503
5.30293
4.69272
4.07647
3.45569
2.83148
2.20471
1.57606
0.946134
0.31546
8.97305
8.45615
7.89385
7.30245
6.6929
6.07196
5.4437
4.81056
4.17405
3.53513
2.89445
2.25246
1.60954
0.96597
0.322031
9.38203
8.80963
8.19176
7.55163
6.90119
6.24619
5.58931
4.93175
4.27402
3.61632
2.95869
2.30114
1.64364
0.986173
0.328723
9.87482
9.20854
8.51189
7.81107
7.11398
6.42225
5.73556
5.05308
4.37394
3.6974
3.02284
2.34975
1.6777
1.00635
0.335408
10.4697
9.63774
8.83615
8.06674
7.32137
6.59325
5.87757
5.17102
4.47124
3.7765
3.08551
2.3973
1.71105
1.02613
0.34196
10.0262
10.0786
10.1308
10.1828
10.2344
10.2856
10.3363
10.3864
10.4359
10.4849
10.5336
10.5823
10.6321
10.6852
10.7477
10.0269
10.0808
10.1345
10.1879
10.2409
10.2936
10.3456
10.3971
10.4479
10.4981
10.5478
10.5975
10.648
10.7011
10.7601
10.0277
10.0831
10.1383
10.1932
10.2478
10.3019
10.3554
10.4082
10.4603
10.5116
10.5621
10.6121
10.662
10.7129
10.7662
10.0285
10.0854
10.1422
10.1988
10.2549
10.3105
10.3656
10.4198
10.4732
10.5256
10.5767
10.6267
10.6753
10.7231
10.7705
10.0293
10.0879
10.1464
10.2046
10.2624
10.3197
10.3763
10.4321
10.4868
10.5404
10.5922
10.6421
10.6893
10.7335
10.7745
10.0302
10.0906
10.1507
10.2107
10.2702
10.3292
10.3875
10.445
10.5014
10.5562
10.6092
10.6593
10.7054
10.746
10.7797
10.0311
10.0933
10.1553
10.217
10.2784
10.3392
10.3994
10.4587
10.5169
10.5735
10.628
10.6792
10.7254
10.7632
10.7881
10.032
10.0961
10.16
10.2236
10.2869
10.3497
10.4119
10.4732
10.5334
10.5922
10.649
10.7027
10.7512
10.7892
10.8054
10.033
10.099
10.1649
10.2305
10.2958
10.3606
10.4249
10.4884
10.551
10.6124
10.6722
10.7299
10.7841
10.8304
10.8495
10.034
10.102
10.1699
10.2376
10.305
10.3719
10.4384
10.5042
10.5693
10.6335
10.6968
10.7595
10.8225
10.8905
10.9834
10.0351
10.1051
10.1751
10.2449
10.3144
10.3836
10.4524
10.5206
10.5882
10.6553
10.7219
10.7887
10.8575
10.9333
11.0281
10.0361
10.1083
10.1804
10.2524
10.3241
10.3955
10.4667
10.5374
10.6076
10.6774
10.7469
10.8165
10.8876
10.9629
11.0468
10.0372
10.1115
10.1858
10.26
10.334
10.4077
10.4812
10.5544
10.6272
10.6996
10.7716
10.8433
10.9148
10.9863
11.0581
10.0383
10.1148
10.1913
10.2677
10.344
10.4201
10.496
10.5717
10.6471
10.7221
10.7967
10.8702
10.9419
11.0095
11.0692
10.0394
10.1181
10.1968
10.2755
10.3541
10.4326
10.511
10.5892
10.6672
10.745
10.8223
10.8985
10.9719
11.0382
11.0869
10.0405
10.1214
10.2024
10.2833
10.3642
10.4451
10.526
10.6068
10.6875
10.7682
10.8487
10.9285
11.0068
11.0793
11.1282
10.0416
10.1248
10.208
10.2912
10.3744
10.4577
10.541
10.6244
10.7079
10.7915
10.8754
10.9598
11.0455
11.1366
11.2506
10.0427
10.1281
10.2135
10.299
10.3845
10.4702
10.556
10.6419
10.7281
10.8147
10.9018
10.99
11.0807
11.1779
11.2921
10.0438
10.1314
10.219
10.3068
10.3946
10.4826
10.5708
10.6593
10.7481
10.8374
10.9274
11.0184
11.1112
11.2075
11.3104
10.0449
10.1347
10.2245
10.3144
10.4045
10.4948
10.5854
10.6764
10.7678
10.8597
10.9523
11.0455
11.1392
11.2324
11.3231
10.0459
10.1379
10.2299
10.322
10.4143
10.5069
10.5998
10.6932
10.787
10.8815
10.9766
11.0723
11.1675
11.2592
11.339
10.047
10.141
10.2351
10.3294
10.4239
10.5187
10.6139
10.7095
10.8058
10.9028
11.0006
11.0993
11.1982
11.2942
11.3729
10.048
10.1441
10.2403
10.3367
10.4333
10.5302
10.6276
10.7255
10.8241
10.9235
11.0241
11.1262
11.2308
11.3411
11.4712
10.049
10.1471
10.2453
10.3437
10.4424
10.5414
10.6409
10.7409
10.8417
10.9434
11.0464
11.1512
11.2594
11.3743
11.5043
10.05
10.1501
10.2502
10.3506
10.4513
10.5523
10.6538
10.7559
10.8587
10.9624
11.0674
11.174
11.2833
11.397
11.5183
10.051
10.1529
10.255
10.3573
10.4598
10.5628
10.6663
10.7703
10.875
10.9806
11.0872
11.1949
11.3039
11.4145
11.5266
10.0519
10.1557
10.2596
10.3637
10.4682
10.573
10.6783
10.7842
10.8908
10.9981
11.1061
11.2148
11.3235
11.4309
11.5342
10.0528
10.1583
10.264
10.37
10.4762
10.5828
10.6899
10.7976
10.9059
11.015
11.1247
11.2347
11.344
11.45
11.5456
10.0536
10.1609
10.2683
10.376
10.4839
10.5923
10.7011
10.8105
10.9206
11.0314
11.1429
11.255
11.3669
11.4762
11.5715
10.0544
10.1634
10.2725
10.3818
10.4914
10.6014
10.7119
10.823
10.9348
11.0473
11.1607
11.2753
11.3916
11.512
11.6473
10.0552
10.1658
10.2764
10.3873
10.4985
10.6102
10.7223
10.835
10.9484
11.0626
11.1778
11.2944
11.4134
11.5374
11.6729
10.056
10.1681
10.2802
10.3927
10.5054
10.6186
10.7322
10.8465
10.9614
11.0771
11.1938
11.3117
11.4316
11.5548
11.6837
10.0567
10.1702
10.2839
10.3978
10.512
10.6266
10.7417
10.8574
10.9738
11.0909
11.2089
11.3277
11.4475
11.5683
11.6901
10.0574
10.1723
10.2874
10.4026
10.5182
10.6343
10.7508
10.8679
10.9857
11.1042
11.2233
11.343
11.4627
11.5811
11.6961
10.0581
10.1743
10.2907
10.4073
10.5242
10.6416
10.7594
10.8779
10.9971
11.1169
11.2374
11.3583
11.4786
11.5962
11.7053
10.0587
10.1762
10.2938
10.4116
10.5298
10.6485
10.7677
10.8875
11.0079
11.1292
11.2512
11.3738
11.4965
11.6172
11.7264
10.0593
10.1779
10.2967
10.4158
10.5352
10.655
10.7754
10.8965
11.0183
11.1409
11.2645
11.3893
11.5158
11.646
11.7887
10.0598
10.1796
10.2995
10.4197
10.5402
10.6612
10.7827
10.9049
11.028
11.1519
11.277
11.4036
11.5325
11.6661
11.8095
10.0604
10.1811
10.3021
10.4233
10.5448
10.6669
10.7895
10.9128
11.037
11.1621
11.2883
11.4161
11.546
11.6793
11.8179
10.0608
10.1826
10.3045
10.4266
10.5492
10.6722
10.7958
10.9202
11.0453
11.1714
11.2986
11.4271
11.5571
11.6889
11.8226
10.0613
10.1839
10.3066
10.4297
10.5531
10.6771
10.8016
10.9269
11.053
11.18
11.308
11.437
11.5669
11.6971
11.8263
10.0617
10.1851
10.3086
10.4325
10.5567
10.6815
10.8069
10.933
11.0599
11.1878
11.3166
11.4463
11.5765
11.7059
11.8315
10.062
10.1861
10.3104
10.435
10.56
10.6855
10.8116
10.9385
11.0663
11.1949
11.3246
11.4553
11.5866
11.7174
11.8426
10.0623
10.1871
10.312
10.4372
10.5628
10.689
10.8158
10.9434
11.0719
11.2013
11.3319
11.4637
11.5969
11.7326
11.875
10.0626
10.1879
10.3133
10.4391
10.5653
10.692
10.8195
10.9477
11.0768
11.2069
11.3383
11.471
11.6056
11.743
11.8858
10.0628
10.1886
10.3145
10.4407
10.5674
10.6946
10.8225
10.9513
11.0809
11.2117
11.3437
11.4771
11.6122
11.7497
11.8901
10.063
10.1891
10.3154
10.442
10.569
10.6967
10.825
10.9542
11.0843
11.2156
11.348
11.4819
11.6173
11.7542
11.8924
10.0632
10.1895
10.3161
10.443
10.5703
10.6982
10.8269
10.9564
11.0869
11.2185
11.3514
11.4856
11.6212
11.7577
11.8943
10.0632
10.1898
10.3165
10.4436
10.5711
10.6993
10.8282
10.9579
11.0887
11.2206
11.3538
11.4884
11.6243
11.7612
11.8975
10.0633
10.1899
10.3167
10.4439
10.5715
10.6998
10.8288
10.9587
11.0896
11.2218
11.3553
11.4902
11.6267
11.765
11.9059
10.0633
10.1899
10.3167
10.4439
10.5715
10.6997
10.8288
10.9587
11.0897
11.222
11.3556
11.4909
11.6279
11.7669
11.9084
10.0632
10.1897
10.3164
10.4435
10.571
10.6992
10.8281
10.958
11.0889
11.2211
11.3548
11.4903
11.6276
11.7672
11.9089
10.0631
10.1894
10.3159
10.4427
10.5701
10.698
10.8268
10.9564
11.0872
11.2193
11.3529
11.4882
11.6258
11.7658
11.9084
10.063
10.1889
10.3151
10.4417
10.5687
10.6963
10.8247
10.9541
11.0845
11.2163
11.3496
11.4847
11.6221
11.7626
11.9068
10.0628
10.1883
10.3141
10.4403
10.5668
10.6941
10.8221
10.951
11.081
11.2122
11.345
11.4796
11.6164
11.7566
11.9027
10.0625
10.1876
10.3129
10.4385
10.5646
10.6913
10.8187
10.9471
11.0765
11.2071
11.3391
11.4727
11.6083
11.7466
11.8921
10.0622
10.1867
10.3114
10.4364
10.5618
10.6879
10.8147
10.9424
11.0711
11.201
11.3321
11.4646
11.5981
11.7315
11.8596
10.0619
10.1857
10.3097
10.434
10.5587
10.684
10.8101
10.937
11.0649
11.1939
11.3242
11.4557
11.588
11.72
11.8484
10.0615
10.1845
10.3077
10.4312
10.5551
10.6796
10.8048
10.9308
11.0578
11.186
11.3153
11.4461
11.5781
11.7109
11.8431
10.0611
10.1832
10.3055
10.4282
10.5512
10.6747
10.799
10.924
11.05
11.1771
11.3055
11.4356
11.5677
11.7021
11.8391
10.0606
10.1818
10.3032
10.4248
10.5468
10.6694
10.7925
10.9164
11.0413
11.1672
11.2946
11.4237
11.5556
11.6915
11.8339
10.0601
10.1803
10.3006
10.4212
10.5421
10.6635
10.7855
10.9082
11.0318
11.1564
11.2823
11.41
11.5405
11.6765
11.8241
10.0595
10.1786
10.2978
10.4173
10.5371
10.6573
10.778
10.8994
11.0216
11.1446
11.2687
11.3942
11.5216
11.6533
11.7998
10.0589
10.1769
10.2949
10.4131
10.5317
10.6506
10.7701
10.8901
11.0107
11.1321
11.2542
11.377
11.4997
11.6199
11.7266
10.0583
10.175
10.2918
10.4088
10.526
10.6437
10.7617
10.8802
10.9993
11.119
11.2393
11.3597
11.4795
11.5957
11.702
10.0577
10.1731
10.2886
10.4042
10.5201
10.6363
10.7529
10.8699
10.9875
11.1055
11.2241
11.343
11.4616
11.5786
11.6913
10.057
10.1711
10.2852
10.3995
10.514
10.6288
10.7438
10.8593
10.9752
11.0916
11.2086
11.3264
11.4448
11.5642
11.6845
10.0563
10.169
10.2818
10.3946
10.5077
10.6209
10.7345
10.8483
10.9626
11.0773
11.1927
11.3092
11.4274
11.5492
11.6773
10.0556
10.1669
10.2782
10.3896
10.5012
10.6129
10.7249
10.837
10.9495
11.0625
11.176
11.2906
11.4075
11.5298
11.6651
10.0549
10.1647
10.2746
10.3845
10.4946
10.6047
10.715
10.8255
10.9362
11.0472
11.1585
11.2705
11.3838
11.5014
11.6359
10.0542
10.1625
10.2709
10.3794
10.4879
10.5964
10.7051
10.8138
10.9227
11.0316
11.1406
11.2493
11.3572
11.4612
11.5486
10.0534
10.1603
10.2672
10.3741
10.4811
10.588
10.695
10.802
10.909
11.016
11.1227
11.2288
11.3331
11.4325
11.5193
10.0527
10.1581
10.2635
10.3689
10.4743
10.5796
10.6849
10.7902
10.8954
11.0005
11.1053
11.2095
11.3124
11.4125
11.5068
10.052
10.1559
10.2598
10.3636
10.4674
10.5712
10.6749
10.7784
10.8819
10.9851
11.0882
11.191
11.2937
11.3964
11.4991
10.0512
10.1536
10.256
10.3584
10.4607
10.5628
10.6649
10.7667
10.8684
10.9698
11.0712
11.1726
11.275
11.3803
11.4913
10.0505
10.1514
10.2523
10.3532
10.4539
10.5545
10.655
10.7552
10.8551
10.9547
11.054
11.1535
11.2544
11.36
11.4785
10.0497
10.1492
10.2487
10.348
10.4473
10.5464
10.6452
10.7438
10.8419
10.9396
11.0367
11.1334
11.2304
11.3307
11.448
10.049
10.1471
10.245
10.3429
10.4407
10.5383
10.6357
10.7326
10.8291
10.9249
11.0197
11.1131
11.2041
11.2896
11.3564
10.0483
10.1449
10.2415
10.3379
10.4343
10.5304
10.6263
10.7218
10.8167
10.9108
11.0036
11.0944
11.1815
11.2614
11.3263
10.0476
10.1428
10.2379
10.333
10.428
10.5227
10.6172
10.7114
10.8049
10.8976
10.989
11.0782
11.1638
11.2436
11.3145
10.0469
10.1407
10.2345
10.3281
10.4217
10.5152
10.6084
10.7013
10.7937
10.8853
10.9758
11.0644
11.1502
11.232
11.3088
10.0462
10.1386
10.231
10.3233
10.4156
10.5078
10.5998
10.6916
10.783
10.8738
10.9638
11.0525
11.1393
11.2237
11.3054
10.0455
10.1366
10.2276
10.3186
10.4096
10.5005
10.5913
10.6821
10.7726
10.8629
10.9527
11.0419
11.1301
11.2171
11.303
10.0448
10.1345
10.2242
10.3138
10.4035
10.4932
10.5829
10.6727
10.7624
10.8523
10.9421
11.0319
11.1217
11.2114
11.3009
10.0441
10.1324
10.2207
10.3091
10.3975
10.4859
10.5745
10.6632
10.7522
10.8416
10.9314
11.0219
11.1133
11.2057
11.2988
10.0435
10.1304
10.2173
10.3043
10.3913
10.4785
10.5659
10.6536
10.7417
10.8305
10.9202
11.0114
11.1043
11.1993
11.2965
10.0428
10.1283
10.2138
10.2994
10.3851
10.471
10.5571
10.6436
10.7307
10.8187
10.9081
10.9995
11.0937
11.1915
11.2934
10.042
10.1261
10.2103
10.2945
10.3788
10.4632
10.548
10.6332
10.719
10.806
10.8945
10.9856
11.0805
11.1809
11.2887
10.0413
10.124
10.2067
10.2894
10.3723
10.4553
10.5385
10.6222
10.7066
10.7921
10.8792
10.9691
11.0634
11.1652
11.2796
10.0406
10.1218
10.2031
10.2843
10.3657
10.4471
10.5288
10.6108
10.6934
10.777
10.862
10.9494
11.0411
11.1406
11.2584
11.0705
10.0033
9.10384
8.279
7.49564
6.73855
5.99936
5.27291
4.55577
3.84553
3.14041
2.43906
1.7404
1.04355
0.347737
11.2603
10.2191
9.29533
8.44314
7.6358
6.85817
6.10119
5.35905
4.62782
3.90472
3.18769
2.47515
1.76583
1.05866
0.352752
11.3393
10.3534
9.43707
8.57608
7.75529
6.96344
6.19269
5.43758
4.6942
3.95968
3.23185
2.509
1.78974
1.07291
0.357482
11.379
10.4392
9.54034
8.68107
7.85465
7.05402
6.27331
5.50794
4.75441
4.00998
3.27253
2.54033
1.81195
1.08617
0.361892
11.4021
10.4967
9.61605
8.76321
7.93606
7.13073
6.34324
5.57007
4.80827
4.05543
3.30956
2.56901
1.83236
1.09838
0.365956
11.4173
10.5369
9.67239
8.82748
8.00229
7.19503
6.40321
5.62427
4.85589
4.09602
3.34289
2.59496
1.8509
1.10951
0.369664
11.4278
10.5662
9.71506
8.878
8.05604
7.24859
6.45419
5.67111
4.89758
4.13191
3.37258
2.61823
1.86759
1.11954
0.373014
11.4356
10.5881
9.7479
8.918
8.09969
7.29304
6.49729
5.71131
4.93378
4.16338
3.39882
2.63889
1.88248
1.12852
0.376014
11.4414
10.6049
9.77356
8.94991
8.13522
7.32988
6.53359
5.74561
4.96502
4.19077
3.42182
2.65711
1.89566
1.13649
0.378679
11.446
10.618
9.79386
8.97554
8.16422
7.36041
6.56407
5.77476
4.99183
4.21448
3.44185
2.67306
1.90723
1.14351
0.38103
11.4496
10.6284
9.81009
8.99628
8.18798
7.38573
6.58964
5.79946
5.01475
4.23489
3.45921
2.68694
1.91734
1.14965
0.38309
11.4524
10.6367
9.82317
9.01315
8.2075
7.40675
6.61106
5.82034
5.03427
4.2524
3.47417
2.69896
1.92613
1.155
0.384885
11.4547
10.6434
9.83379
9.02694
8.22359
7.42422
6.62901
5.83796
5.05086
4.26736
3.48702
2.70933
1.93372
1.15963
0.386441
11.4566
10.6488
9.84246
9.03827
8.23689
7.43875
6.64405
5.85282
5.06492
4.28011
3.49802
2.71822
1.94026
1.16362
0.387785
11.4581
10.6533
9.84958
9.04761
8.24792
7.45086
6.65665
5.86534
5.07683
4.29095
3.5074
2.72584
1.94587
1.16706
0.38894
11.4593
10.657
9.85545
9.05534
8.25707
7.46097
6.66721
5.87587
5.0869
4.30015
3.5154
2.73235
1.95067
1.17
0.389931
11.4604
10.66
9.8603
9.06174
8.26468
7.4694
6.67607
5.88474
5.09541
4.30795
3.52219
2.73789
1.95477
1.17251
0.390778
11.4612
10.6625
9.86432
9.06707
8.27103
7.47646
6.6835
5.89221
5.10259
4.31455
3.52796
2.7426
1.95826
1.17465
0.391501
11.4619
10.6646
9.86767
9.0715
8.27633
7.48237
6.68974
5.8985
5.10865
4.32014
3.53284
2.74661
1.96123
1.17648
0.392116
11.4625
10.6663
9.87046
9.0752
8.28077
7.48732
6.69498
5.90379
5.11376
4.32486
3.53698
2.75
1.96375
1.17803
0.392639
11.463
10.6678
9.87278
9.0783
8.28448
7.49148
6.69938
5.90824
5.11808
4.32885
3.54049
2.75288
1.96589
1.17934
0.393084
11.4634
10.669
9.87473
9.0809
8.2876
7.49497
6.70309
5.912
5.12173
4.33223
3.54346
2.75532
1.9677
1.18046
0.393461
11.4638
10.67
9.87637
9.08308
8.29022
7.49791
6.70622
5.91518
5.12481
4.33509
3.54597
2.75739
1.96924
1.18141
0.393782
11.464
10.6708
9.87775
9.08491
8.29243
7.50039
6.70886
5.91786
5.12742
4.33751
3.54811
2.75915
1.97055
1.18222
0.394054
11.4643
10.6716
9.87891
9.08646
8.2943
7.50249
6.71109
5.92014
5.12963
4.33957
3.54992
2.76064
1.97166
1.18291
0.394286
11.4645
10.6722
9.8799
9.08778
8.29589
7.50428
6.713
5.92207
5.13151
4.34132
3.55147
2.76192
1.97261
1.18349
0.394484
11.4647
10.6727
9.88074
9.08891
8.29724
7.5058
6.71462
5.92373
5.13313
4.34282
3.55279
2.76301
1.97342
1.18399
0.394654
11.4648
10.6731
9.88146
9.08987
8.29841
7.50711
6.71602
5.92515
5.13451
4.34411
3.55393
2.76395
1.97412
1.18442
0.3948
11.465
10.6735
9.88209
9.09071
8.29942
7.50825
6.71724
5.92639
5.13572
4.34523
3.55492
2.76476
1.97473
1.1848
0.394927
11.4651
10.6739
9.88265
9.09146
8.30031
7.50926
6.7183
5.92747
5.13678
4.34621
3.55579
2.76548
1.97526
1.18513
0.395038
11.4652
10.6742
9.88315
9.09212
8.30111
7.51015
6.71926
5.92844
5.13772
4.34709
3.55656
2.76611
1.97574
1.18542
0.395136
11.4653
10.6745
9.88361
9.09273
8.30185
7.51097
6.72013
5.92933
5.13857
4.34788
3.55725
2.76668
1.97616
1.18568
0.395225
11.4654
10.6747
9.88404
9.09331
8.30254
7.51174
6.72094
5.93015
5.13937
4.34861
3.55789
2.76721
1.97655
1.18592
0.395306
11.4655
10.675
9.88447
9.09387
8.30321
7.51249
6.72172
5.93093
5.14012
4.3493
3.5585
2.7677
1.97692
1.18615
0.395381
11.4655
10.6753
9.88491
9.09444
8.30388
7.51323
6.7225
5.9317
5.14085
4.34998
3.55908
2.76818
1.97727
1.18636
0.395453
11.4656
10.6756
9.88537
9.09504
8.30458
7.51399
6.72329
5.93248
5.14159
4.35064
3.55965
2.76864
1.97761
1.18657
0.395524