/*--------------------------------*- C++ -*----------------------------------*\
| =========                 |                                                 |
| \\      /  F ield         | OpenFOAM: The Open Source CFD Toolbox           |
|  \\    /   O peration     | Version:  5.x                                   |
|   \\  /    A nd           | Web:      www.OpenFOAM.org                      |
|    \\/     M anipulation  |                                                 |
\*---------------------------------------------------------------------------*/
FoamFile
{
    version     2.0;
    format      ascii;
    class       volScalarField;
    location    "0.7";
    object      gradTy;
}
// * * * * * * * * * * * * * * * * * * * * * * * * * * * * * * * * * * * * * //

dimensions      [0 -1 0 1 0 0 0];

internalField   nonuniform List<scalar> 
2048
(
-19.9359
-19.9412
-19.951
-19.9641
-19.9785
-19.9915
-19.9998
-19.9995
-19.986
-19.9546
-19.9004
-19.8183
-19.7036
-19.5519
-19.3595
-19.1234
-18.842
-18.5147
-18.1431
-17.7306
-17.2825
-16.8065
-16.3118
-15.8087
-15.308
-14.8199
-14.3535
-13.9161
-13.5129
-13.1469
-12.8194
-12.5301
-12.2771
-12.0581
-11.87
-11.7096
-11.5736
-11.459
-11.3627
-11.2821
-11.2149
-11.159
-11.1126
-11.0741
-11.0422
-11.0159
-10.9942
-10.9762
-10.9614
-10.9493
-10.9392
-10.931
-10.9242
-10.9187
-10.9142
-10.9104
-10.9074
-10.905
-10.9031
-10.9016
-10.9004
-10.8996
-10.8991
-10.8988
-19.9302
-19.9359
-19.9468
-19.9616
-19.9781
-19.9938
-20.0053
-20.0085
-19.999
-19.9716
-19.9214
-19.8431
-19.732
-19.5833
-19.3932
-19.1586
-18.8773
-18.549
-18.1746
-17.7576
-17.3034
-16.8199
-16.3168
-15.805
-15.296
-14.8006
-14.3283
-13.8866
-13.4808
-13.1139
-12.7867
-12.4987
-12.2477
-12.0311
-11.8456
-11.6879
-11.5545
-11.4422
-11.348
-11.2694
-11.2038
-11.1494
-11.1042
-11.0667
-11.0358
-11.0102
-10.9891
-10.9717
-10.9573
-10.9455
-10.9358
-10.9278
-10.9213
-10.9159
-10.9115
-10.9079
-10.905
-10.9026
-10.9008
-10.8993
-10.8982
-10.8974
-10.8969
-10.8966
-19.9189
-19.9257
-19.9386
-19.9563
-19.977
-19.9978
-20.0154
-20.0255
-20.0234
-20.0037
-19.9612
-19.8904
-19.786
-19.6432
-19.4577
-19.2259
-18.9454
-18.615
-18.2355
-17.8099
-17.344
-16.846
-16.3265
-15.7978
-15.2726
-14.7629
-14.2793
-13.8295
-13.4191
-13.0505
-12.7241
-12.4388
-12.1918
-11.98
-11.7995
-11.6469
-11.5183
-11.4105
-11.3204
-11.2454
-11.183
-11.1312
-11.0884
-11.053
-11.0237
-10.9995
-10.9796
-10.9632
-10.9497
-10.9385
-10.9294
-10.9219
-10.9157
-10.9106
-10.9065
-10.9031
-10.9003
-10.8981
-10.8964
-10.895
-10.894
-10.8932
-10.8927
-10.8925
-19.9022
-19.9104
-19.926
-19.948
-19.9745
-20.0027
-20.0289
-20.0489
-20.0575
-20.049
-20.0176
-19.9574
-19.8629
-19.7287
-19.55
-19.3227
-19.0435
-18.7106
-18.324
-17.8864
-17.4035
-16.8843
-16.3407
-15.787
-15.2379
-14.7074
-14.2074
-13.7463
-13.3295
-12.9589
-12.6343
-12.3533
-12.1124
-11.9076
-11.7346
-11.5893
-11.4676
-11.3662
-11.2819
-11.2119
-11.154
-11.1061
-11.0665
-11.0338
-11.0069
-10.9847
-10.9664
-10.9513
-10.9389
-10.9288
-10.9204
-10.9135
-10.9079
-10.9032
-10.8994
-10.8964
-10.8938
-10.8918
-10.8902
-10.889
-10.888
-10.8873
-10.8869
-10.8866
-19.88
-19.8898
-19.9089
-19.9362
-19.9699
-20.0073
-20.0447
-20.0774
-20.0997
-20.1056
-20.0885
-20.0421
-19.9603
-19.8373
-19.6678
-19.4467
-19.17
-18.8347
-18.4397
-17.9869
-17.4821
-16.9349
-16.3594
-15.7723
-15.1915
-14.6338
-14.1126
-13.6373
-13.213
-12.841
-12.5194
-12.2447
-12.0122
-11.8168
-11.6535
-11.5176
-11.4049
-11.3115
-11.2344
-11.1708
-11.1184
-11.0752
-11.0396
-11.0103
-10.9862
-10.9664
-10.9501
-10.9367
-10.9257
-10.9167
-10.9093
-10.9032
-10.8982
-10.8941
-10.8907
-10.888
-10.8858
-10.884
-10.8825
-10.8814
-10.8806
-10.88
-10.8796
-10.8794
-19.852
-19.8636
-19.8866
-19.92
-19.9622
-20.0107
-20.0614
-20.1095
-20.1486
-20.1718
-20.1721
-20.1424
-20.0761
-19.967
-19.809
-19.5964
-19.3237
-18.9866
-18.5824
-18.1119
-17.5803
-16.9985
-16.3827
-15.7534
-15.1327
-14.5409
-13.9941
-13.5023
-13.0702
-12.6976
-12.381
-12.115
-11.8934
-11.7099
-11.5587
-11.4343
-11.3321
-11.2484
-11.1798
-11.1236
-11.0775
-11.0398
-11.0088
-10.9834
-10.9626
-10.9455
-10.9315
-10.92
-10.9106
-10.9028
-10.8965
-10.8912
-10.887
-10.8835
-10.8806
-10.8783
-10.8764
-10.8748
-10.8736
-10.8726
-10.8719
-10.8714
-10.871
-10.8709
-19.818
-19.8317
-19.8589
-19.899
-19.9507
-20.0117
-20.0779
-20.1439
-20.2027
-20.2464
-20.2669
-20.2566
-20.2085
-20.1158
-19.972
-19.7703
-19.5038
-19.1661
-18.7528
-18.2625
-17.6997
-17.0761
-16.4109
-15.7296
-15.06
-14.4273
-13.8505
-13.3406
-12.901
-12.5297
-12.2206
-11.9663
-11.7584
-11.5894
-11.4524
-11.3414
-11.2516
-11.1788
-11.1197
-11.0717
-11.0327
-11.001
-10.9751
-10.954
-10.9367
-10.9226
-10.911
-10.9016
-10.8938
-10.8875
-10.8823
-10.878
-10.8745
-10.8717
-10.8693
-10.8674
-10.8659
-10.8646
-10.8636
-10.8628
-10.8622
-10.8618
-10.8615
-10.8614
-19.7781
-19.7938
-19.8253
-19.8724
-19.9344
-20.0092
-20.0929
-20.1795
-20.2609
-20.328
-20.3716
-20.3833
-20.3557
-20.282
-20.1549
-19.9669
-19.7093
-19.3735
-18.9519
-18.4406
-17.8423
-17.1692
-16.4445
-15.7002
-14.9717
-14.2907
-13.6799
-13.1508
-12.7052
-12.3379
-12.0397
-11.8003
-11.6094
-11.4576
-11.337
-11.2413
-11.1651
-11.1043
-11.0556
-11.0166
-10.9852
-10.9599
-10.9393
-10.9227
-10.9092
-10.8982
-10.8893
-10.8819
-10.876
-10.8711
-10.8671
-10.8638
-10.8611
-10.8589
-10.8571
-10.8557
-10.8545
-10.8535
-10.8528
-10.8522
-10.8517
-10.8514
-10.8512
-10.8511
-19.7321
-19.7498
-19.7854
-19.8396
-19.9123
-20.0021
-20.1052
-20.215
-20.3221
-20.4156
-20.4849
-20.5209
-20.5161
-20.4635
-20.3559
-20.1847
-19.9396
-19.6087
-19.1809
-18.6482
-18.0105
-17.2801
-16.4844
-15.6642
-14.8652
-14.1281
-13.4797
-12.9315
-12.4823
-12.1228
-11.8397
-11.6192
-11.4484
-11.3165
-11.2147
-11.1358
-11.0744
-11.0266
-10.989
-10.9594
-10.936
-10.9173
-10.9024
-10.8904
-10.8807
-10.8729
-10.8666
-10.8615
-10.8573
-10.8539
-10.8511
-10.8489
-10.847
-10.8455
-10.8443
-10.8432
-10.8424
-10.8418
-10.8412
-10.8408
-10.8405
-10.8403
-10.8401
-10.8401
-19.6803
-19.6996
-19.7391
-19.8001
-19.8836
-19.9892
-20.1136
-20.2493
-20.3853
-20.5083
-20.606
-20.6683
-20.688
-20.6586
-20.5731
-20.4222
-20.1936
-19.872
-19.4415
-18.8884
-18.208
-17.4116
-16.5316
-15.6202
-14.7377
-13.9359
-13.2469
-12.6809
-12.2321
-11.8853
-11.6222
-11.4248
-11.2778
-11.1685
-11.0873
-11.0267
-10.9813
-10.9471
-10.9211
-10.9012
-10.8859
-10.8741
-10.8648
-10.8575
-10.8517
-10.8471
-10.8435
-10.8405
-10.8381
-10.8362
-10.8347
-10.8334
-10.8324
-10.8315
-10.8309
-10.8303
-10.8298
-10.8295
-10.8292
-10.8289
-10.8288
-10.8286
-10.8285
-10.8285
-19.623
-19.6436
-19.6862
-19.7533
-19.8473
-19.9693
-20.1167
-20.2814
-20.4499
-20.6057
-20.7341
-20.8244
-20.8698
-20.8653
-20.8044
-20.6774
-20.4701
-20.1634
-19.7351
-19.1641
-18.4388
-17.5673
-16.5876
-15.5668
-14.5852
-13.7099
-12.978
-12.3972
-11.9543
-11.6264
-11.3889
-11.2194
-11.0997
-11.0157
-10.957
-10.9159
-10.8872
-10.8671
-10.853
-10.843
-10.8359
-10.8309
-10.8272
-10.8246
-10.8226
-10.8212
-10.8202
-10.8194
-10.8187
-10.8183
-10.8179
-10.8176
-10.8174
-10.8172
-10.8171
-10.817
-10.8169
-10.8168
-10.8167
-10.8167
-10.8166
-10.8166
-10.8166
-10.8166
-19.5605
-19.5819
-19.6267
-19.6988
-19.8026
-19.9411
-20.1132
-20.3103
-20.5154
-20.7076
-20.8688
-20.9881
-21.06
-21.0814
-21.0472
-20.9479
-20.7675
-20.4824
-20.0633
-19.4792
-18.708
-17.752
-16.6541
-15.5018
-14.4029
-13.4446
-12.6693
-12.0786
-11.649
-11.3475
-11.142
-11.0054
-10.9166
-10.8602
-10.8255
-10.8049
-10.7935
-10.7878
-10.7856
-10.7855
-10.7866
-10.7883
-10.7901
-10.7921
-10.7939
-10.7955
-10.797
-10.7982
-10.7993
-10.8003
-10.8011
-10.8017
-10.8023
-10.8027
-10.8031
-10.8034
-10.8036
-10.8038
-10.804
-10.8041
-10.8042
-10.8043
-10.8043
-10.8044
-19.4937
-19.5152
-19.5609
-19.6364
-19.7485
-19.9033
-20.1017
-20.3348
-20.5814
-20.8139
-21.0101
-21.1588
-21.257
-21.3047
-21.299
-21.2312
-21.0836
-20.8283
-20.4275
-19.8377
-19.0218
-17.9716
-16.7339
-15.4225
-14.1847
-13.1339
-12.3165
-11.7236
-11.3167
-11.0504
-10.884
-10.7852
-10.7306
-10.704
-10.6946
-10.6952
-10.7013
-10.7101
-10.7198
-10.7294
-10.7385
-10.7467
-10.7539
-10.7602
-10.7656
-10.7702
-10.7741
-10.7774
-10.7801
-10.7824
-10.7843
-10.7858
-10.7871
-10.7882
-10.789
-10.7897
-10.7903
-10.7907
-10.7911
-10.7914
-10.7916
-10.7918
-10.7919
-10.792
-19.4232
-19.4439
-19.489
-19.566
-19.6844
-19.8544
-20.0805
-20.354
-20.6481
-20.9253
-21.1581
-21.3357
-21.4592
-21.5328
-21.5569
-21.5242
-21.4159
-21.1998
-20.8287
-20.2436
-19.3873
-18.2337
-16.8304
-15.3254
-13.9228
-12.7703
-11.9153
-11.3309
-10.9585
-10.7374
-10.6173
-10.5613
-10.5441
-10.5492
-10.566
-10.5881
-10.6118
-10.6348
-10.6562
-10.6753
-10.6921
-10.7066
-10.7189
-10.7294
-10.7382
-10.7456
-10.7518
-10.7569
-10.7612
-10.7647
-10.7676
-10.77
-10.772
-10.7736
-10.7749
-10.776
-10.7769
-10.7776
-10.7782
-10.7786
-10.779
-10.7792
-10.7794
-10.7795
-19.3499
-19.3691
-19.4117
-19.4874
-19.6092
-19.7927
-20.0476
-20.3667
-20.7157
-21.0429
-21.3134
-21.5184
-21.6651
-21.7633
-21.8179
-21.8234
-21.7611
-21.5946
-21.267
-20.7013
-19.813
-18.5481
-16.9483
-15.2058
-13.6075
-12.3456
-11.4613
-10.9
-10.5764
-10.4114
-10.3451
-10.3366
-10.3595
-10.3974
-10.4409
-10.4846
-10.5257
-10.5627
-10.5953
-10.6235
-10.6477
-10.6681
-10.6853
-10.6998
-10.7118
-10.7218
-10.7301
-10.737
-10.7427
-10.7474
-10.7512
-10.7544
-10.7571
-10.7592
-10.761
-10.7624
-10.7635
-10.7645
-10.7652
-10.7658
-10.7663
-10.7666
-10.7669
-10.767
-19.2749
-19.2915
-19.3295
-19.4009
-19.5225
-19.7165
-20.0006
-20.3714
-20.785
-21.1683
-21.477
-21.7066
-21.8729
-21.9937
-22.0787
-22.1254
-22.1155
-22.0098
-21.742
-21.2145
-20.3083
-18.927
-17.0941
-15.057
-13.2264
-11.8499
-10.9505
-10.4314
-10.1728
-10.0756
-10.0706
-10.1138
-10.1787
-10.2504
-10.3207
-10.3858
-10.4437
-10.4942
-10.5376
-10.5745
-10.6055
-10.6316
-10.6533
-10.6714
-10.6864
-10.6989
-10.7092
-10.7177
-10.7247
-10.7305
-10.7352
-10.7391
-10.7423
-10.745
-10.7471
-10.7489
-10.7503
-10.7514
-10.7524
-10.7531
-10.7537
-10.7541
-10.7544
-10.7545
-19.1992
-19.2121
-19.2435
-19.3069
-19.4236
-19.6239
-19.9367
-20.3663
-20.8575
-21.3039
-21.65
-21.8998
-22.0813
-22.2214
-22.336
-22.426
-22.4748
-22.4417
-22.252
-21.7867
-20.8838
-19.3861
-17.2769
-14.8699
-12.7639
-11.2727
-10.3794
-9.92645
-9.75151
-9.73409
-9.79712
-9.89535
-10.0038
-10.1095
-10.2064
-10.2922
-10.3664
-10.4298
-10.4834
-10.5283
-10.5658
-10.5971
-10.623
-10.6445
-10.6623
-10.6769
-10.689
-10.699
-10.7072
-10.714
-10.7196
-10.7241
-10.7279
-10.731
-10.7335
-10.7355
-10.7372
-10.7385
-10.7396
-10.7404
-10.7411
-10.7416
-10.7419
-10.7421
-19.124
-19.1322
-19.1545
-19.2061
-19.3122
-19.5127
-19.8522
-20.349
-20.9353
-21.4529
-21.8342
-22.0977
-22.2883
-22.444
-22.5867
-22.7214
-22.8343
-22.8853
-22.7939
-22.4198
-21.5509
-19.945
-17.5097
-14.6315
-12.2003
-10.6025
-9.74592
-9.38815
-9.31693
-9.39101
-9.52808
-9.68395
-9.8366
-9.97609
-10.0989
-10.2045
-10.2942
-10.3696
-10.4327
-10.4851
-10.5287
-10.5647
-10.5945
-10.619
-10.6393
-10.656
-10.6697
-10.6811
-10.6904
-10.698
-10.7043
-10.7095
-10.7137
-10.7172
-10.7201
-10.7224
-10.7243
-10.7258
-10.727
-10.7279
-10.7287
-10.7292
-10.7296
-10.7297
-19.0502
-19.0528
-19.0639
-19.0994
-19.1884
-19.3811
-19.7428
-20.316
-21.0216
-21.6195
-22.0311
-22.2998
-22.4923
-22.6589
-22.8276
-23.0077
-23.1891
-23.335
-23.3629
-23.1142
-22.3213
-20.6282
-17.8114
-14.323
-11.511
-9.8277
-9.04963
-8.82108
-8.87453
-9.05099
-9.26686
-9.48186
-9.67858
-9.85102
-9.9986
-10.1231
-10.2273
-10.3139
-10.3857
-10.445
-10.494
-10.5344
-10.5676
-10.595
-10.6175
-10.636
-10.6513
-10.6638
-10.6741
-10.6826
-10.6895
-10.6952
-10.6999
-10.7037
-10.7069
-10.7094
-10.7115
-10.7132
-10.7145
-10.7156
-10.7164
-10.7169
-10.7174
-10.7175
-18.979
-18.9751
-18.9728
-18.9881
-19.0526
-19.227
-19.6032
-20.2625
-21.1215
-21.8091
-22.2427
-22.5053
-22.6914
-22.8637
-23.0558
-23.2809
-23.5341
-23.7843
-23.9525
-23.8679
-23.206
-21.4659
-18.2097
-13.9166
-10.666
-8.93712
-8.29255
-8.23165
-8.43056
-8.71878
-9.01669
-9.29114
-9.53102
-9.73507
-9.90608
-10.0482
-10.1657
-10.2626
-10.3423
-10.4079
-10.4618
-10.5061
-10.5425
-10.5724
-10.5969
-10.6171
-10.6337
-10.6473
-10.6584
-10.6676
-10.6751
-10.6813
-10.6864
-10.6905
-10.6939
-10.6967
-10.699
-10.7008
-10.7022
-10.7034
-10.7043
-10.7048
-10.7053
-10.7054
-18.9112
-18.9001
-18.8829
-18.8739
-18.9059
-19.0488
-19.4267
-20.1811
-21.2424
-22.0283
-22.4706
-22.7131
-22.8837
-23.0564
-23.2688
-23.5377
-23.8642
-24.2263
-24.5545
-24.6756
-24.2144
-22.4947
-18.7457
-13.3714
-9.6286
-7.92158
-7.47989
-7.62815
-7.99192
-8.3991
-8.78052
-9.11352
-9.39487
-9.62875
-9.82155
-9.97984
-10.1095
-10.2157
-10.3026
-10.3738
-10.4321
-10.4799
-10.519
-10.5512
-10.5775
-10.5991
-10.6168
-10.6314
-10.6433
-10.6531
-10.6612
-10.6678
-10.6732
-10.6776
-10.6813
-10.6842
-10.6866
-10.6886
-10.6901
-10.6913
-10.6923
-10.6929
-10.6933
-10.6935
-18.8477
-18.829
-18.7955
-18.7586
-18.7499
-18.8458
-19.2059
-20.0608
-21.3954
-22.2849
-22.7157
-22.9216
-23.067
-23.2349
-23.4645
-23.7752
-24.1748
-24.6536
-25.1586
-25.5284
-25.352
-23.7573
-19.4806
-12.6262
-8.35625
-6.77549
-6.62068
-7.02065
-7.56591
-8.09645
-8.5609
-8.95037
-9.27083
-9.53236
-9.7451
-9.91804
-10.0587
-10.1732
-10.2665
-10.3426
-10.4048
-10.4556
-10.4972
-10.5313
-10.5592
-10.5821
-10.6008
-10.6162
-10.6288
-10.6392
-10.6477
-10.6546
-10.6603
-10.665
-10.6688
-10.672
-10.6745
-10.6766
-10.6782
-10.6795
-10.6805
-10.6811
-10.6815
-10.6817
-18.789
-18.7626
-18.712
-18.6446
-18.5873
-18.618
-18.9322
-19.8855
-21.5973
-22.5878
-22.9783
-23.1283
-23.2393
-23.3977
-23.6412
-23.9909
-24.4618
-25.0589
-25.7536
-26.4129
-26.6187
-25.3018
-20.506
-11.5894
-6.8009
-5.4991
-5.72832
-6.42074
-7.15986
-7.81494
-8.35997
-8.80271
-9.15932
-9.446
-9.67669
-9.8627
-10.013
-10.1348
-10.2337
-10.3142
-10.3798
-10.4333
-10.477
-10.5127
-10.542
-10.566
-10.5856
-10.6017
-10.6149
-10.6257
-10.6346
-10.6419
-10.6479
-10.6527
-10.6567
-10.66
-10.6627
-10.6648
-10.6665
-10.6678
-10.6689
-10.6695
-10.6699
-10.6702
-18.7358
-18.7017
-18.6339
-18.5342
-18.4214
-18.3672
-18.5968
-19.6307
-21.8727
-22.9462
-23.2571
-23.3305
-23.3984
-23.5434
-23.7977
-24.183
-24.7215
-25.4351
-26.3267
-27.3114
-28.0059
-27.1791
-21.9584
-10.1249
-4.91198
-4.10121
-4.82075
-5.84108
-6.78083
-7.55808
-8.17931
-8.67116
-9.06047
-9.36962
-9.61616
-9.81362
-9.97242
-10.1006
-10.2043
-10.2885
-10.357
-10.4128
-10.4583
-10.4955
-10.5259
-10.5508
-10.5712
-10.5879
-10.6016
-10.6128
-10.622
-10.6296
-10.6358
-10.6408
-10.645
-10.6484
-10.6511
-10.6534
-10.6552
-10.6565
-10.6576
-10.6583
-10.6587
-10.659
-18.6883
-18.6469
-18.5624
-18.4298
-18.2562
-18.0972
-18.1912
-19.2604
-22.2583
-23.3691
-23.5486
-23.5243
-23.5424
-23.671
-23.9335
-24.3505
-24.9513
-25.7761
-26.8651
-28.2017
-29.4935
-29.4368
-24.0398
-8.03074
-2.64181
-2.60207
-3.92033
-5.29474
-6.43515
-7.32862
-8.01997
-8.55596
-8.97419
-9.30297
-9.56324
-9.77057
-9.93661
-10.0702
-10.178
-10.2654
-10.3363
-10.394
-10.4411
-10.4795
-10.5109
-10.5366
-10.5576
-10.5748
-10.5889
-10.6005
-10.61
-10.6178
-10.6241
-10.6294
-10.6336
-10.6371
-10.64
-10.6423
-10.6441
-10.6455
-10.6466
-10.6473
-10.6477
-10.6481
-18.6466
-18.5986
-18.4983
-18.3337
-18.0967
-17.8143
-17.7091
-18.7214
-22.8077
-23.8632
-23.8471
-23.7055
-23.6693
-23.78
-24.0483
-24.4928
-25.1493
-26.0767
-27.3562
-29.0579
-31.047
-32.1106
-27.0464
-5.01078
0.0449619
-1.03624
-3.05302
-4.79439
-6.12811
-7.12849
-7.88239
-8.45698
-8.90015
-9.24568
-9.51759
-9.73322
-9.90533
-10.0434
-10.1547
-10.2447
-10.3176
-10.377
-10.4253
-10.4647
-10.4969
-10.5232
-10.5448
-10.5624
-10.5769
-10.5888
-10.5985
-10.6064
-10.613
-10.6183
-10.6227
-10.6263
-10.6292
-10.6315
-10.6334
-10.6348
-10.6359
-10.6367
-10.6371
-10.6375
-18.6108
-18.557
-18.4425
-18.2481
-17.9478
-17.5279
-17.1494
-17.9365
-23.5983
-24.4301
-24.1438
-23.8695
-23.7776
-23.8702
-24.1425
-24.61
-25.3147
-26.3331
-27.7887
-29.8519
-32.6156
-35.2084
-31.408
-0.635337
3.15628
0.545265
-2.24708
-4.35144
-5.86365
-6.95865
-7.76648
-8.37376
-8.8378
-9.19724
-9.47874
-9.70119
-9.87826
-10.02
-10.1341
-10.2262
-10.3008
-10.3615
-10.4108
-10.4511
-10.4839
-10.5108
-10.5327
-10.5507
-10.5655
-10.5775
-10.5874
-10.5956
-10.6022
-10.6076
-10.6121
-10.6158
-10.6187
-10.6211
-10.623
-10.6245
-10.6255
-10.6265
-10.6269
-10.6272
-18.5806
-18.5221
-18.3954
-18.1746
-17.8148
-17.2501
-16.5196
-16.7953
-24.7412
-25.0626
-24.4266
-24.0115
-23.8662
-23.9418
-24.2166
-24.7028
-25.4474
-26.543
-28.1534
-30.5552
-34.131
-38.6882
-37.7396
5.71053
6.65013
2.07424
-1.53101
-3.97522
-5.64415
-6.8192
-7.67162
-8.30554
-8.78643
-9.157
-9.44615
-9.67402
-9.85502
-9.99971
-10.116
-10.2098
-10.2857
-10.3474
-10.3975
-10.4384
-10.4718
-10.499
-10.5213
-10.5396
-10.5545
-10.5668
-10.5768
-10.5851
-10.5918
-10.5973
-10.6019
-10.6056
-10.6086
-10.611
-10.6129
-10.6144
-10.6155
-10.6165
-10.6169
-10.6171
-18.5558
-18.4938
-18.357
-18.1145
-17.7024
-16.9962
-15.8423
-15.1418
-26.3925
-25.7386
-24.681
-24.1273
-23.9345
-23.9953
-24.2716
-24.7723
-25.5482
-26.7055
-28.4437
-31.1415
-35.5096
-42.426
-46.9084
14.8941
10.4024
3.46709
-0.931072
-3.67223
-5.47039
-6.70939
-7.59678
-8.25135
-8.74518
-9.12428
-9.41926
-9.65124
-9.83522
-9.98212
-10.1
-10.1951
-10.272
-10.3345
-10.3852
-10.4266
-10.4603
-10.4879
-10.5105
-10.5289
-10.544
-10.5564
-10.5666
-10.5749
-10.5817
-10.5873
-10.5919
-10.5956
-10.5987
-10.6011
-10.603
-10.6046
-10.6056
-10.6066
-10.6071
-10.6071
-18.5361
-18.4716
-18.3274
-18.0682
-17.6145
-16.783
-15.1624
-12.7594
-28.7692
-26.4134
-24.8904
-24.2135
-23.9824
-24.0318
-24.3089
-24.8199
-25.6186
-26.8214
-28.6564
-31.5897
-36.6579
-46.1716
-60.1185
28.1194
14.1631
4.63029
-0.468459
-3.44578
-5.34171
-6.62787
-7.54067
-8.21012
-8.71323
-9.09841
-9.39753
-9.63244
-9.81853
-9.96699
-10.0861
-10.1821
-10.2597
-10.3226
-10.3738
-10.4155
-10.4496
-10.4774
-10.5001
-10.5187
-10.5339
-10.5464
-10.5566
-10.565
-10.5719
-10.5775
-10.5821
-10.5859
-10.589
-10.5914
-10.5933
-10.595
-10.5959
-10.5969
-10.5975
-10.5974
-18.5211
-18.4551
-18.3061
-18.0359
-17.5536
-16.6274
-14.5584
-9.35247
-32.1678
-27.0094
-25.0387
-24.2685
-24.0109
-24.0525
-24.3301
-24.8476
-25.6609
-26.8932
-28.792
-31.8868
-37.4838
-49.4918
-79.015
47.0311
17.4985
5.47112
-0.156673
-3.29589
-5.25625
-6.57291
-7.50199
-8.1809
-8.6899
-9.07892
-9.38067
-9.61741
-9.80483
-9.95427
-10.0741
-10.1706
-10.2487
-10.312
-10.3635
-10.4054
-10.4396
-10.4675
-10.4903
-10.509
-10.5243
-10.5369
-10.5472
-10.5556
-10.5625
-10.5681
-10.5728
-10.5766
-10.5797
-10.5821
-10.584
-10.5857
-10.5867
-10.5875
-10.5883
-10.5881
-18.5105
-18.4438
-18.2926
-18.017
-17.5204
-16.5429
-14.1544
-4.52325
-36.9861
-27.4027
-25.113
-24.2921
-24.0211
-24.059
-24.3367
-24.8574
-25.6777
-26.9242
-28.854
-32.0296
-37.9131
-51.6971
-105.808
73.8397
19.719
5.91554
0.00111254
-3.2191
-5.21085
-6.54221
-7.47908
-8.16252
-8.67432
-9.06517
-9.36816
-9.60577
-9.79382
-9.94373
-10.0639
-10.1607
-10.239
-10.3024
-10.354
-10.396
-10.4303
-10.4583
-10.4812
-10.5
-10.5153
-10.5279
-10.5382
-10.5466
-10.5535
-10.5592
-10.5638
-10.5676
-10.5707
-10.5732
-10.575
-10.5768
-10.5778
-10.5785
-10.5794
-10.5793
)
;

boundaryField
{
    left
    {
        type            calculated;
        value           nonuniform List<scalar> 
32
(
-19.9359
-19.9302
-19.9189
-19.9022
-19.88
-19.852
-19.818
-19.7781
-19.7321
-19.6803
-19.623
-19.5605
-19.4937
-19.4232
-19.3499
-19.2749
-19.1992
-19.124
-19.0502
-18.979
-18.9112
-18.8477
-18.789
-18.7358
-18.6883
-18.6466
-18.6108
-18.5806
-18.5558
-18.5361
-18.5211
-18.5105
)
;
    }
    right
    {
        type            calculated;
        value           nonuniform List<scalar> 
32
(
-10.8988
-10.8966
-10.8925
-10.8866
-10.8794
-10.8709
-10.8614
-10.8511
-10.8401
-10.8285
-10.8166
-10.8044
-10.792
-10.7795
-10.767
-10.7545
-10.7421
-10.7297
-10.7175
-10.7054
-10.6935
-10.6817
-10.6702
-10.659
-10.6481
-10.6375
-10.6272
-10.6171
-10.6071
-10.5974
-10.5881
-10.5793
)
;
    }
    interface
    {
        type            calculated;
        value           nonuniform List<scalar> 
64
(
-18.5062
-18.4394
-18.2877
-18.0107
-17.5106
-16.5197
-14.0213
-1.69622
-39.8071
-27.5299
-25.1303
-24.2961
-24.0219
-24.0588
-24.3365
-24.858
-25.68
-26.9299
-28.8673
-32.0627
-38.0212
-52.4163
-121.495
89.534
20.4458
6.03126
0.0418397
-3.1983
-5.19767
-6.53257
-7.47132
-8.15584
-8.66831
-9.0596
-9.36288
-9.60071
-9.78891
-9.93893
-10.0592
-10.1561
-10.2344
-10.2979
-10.3495
-10.3915
-10.4258
-10.4538
-10.4768
-10.4955
-10.5108
-10.5234
-10.5337
-10.5422
-10.5491
-10.5547
-10.5594
-10.5632
-10.5663
-10.5688
-10.5706
-10.5725
-10.5734
-10.5741
-10.575
-10.575
)
;
    }
    bottom
    {
        type            calculated;
        value           nonuniform List<scalar> 
64
(
-19.9374
-19.9425
-19.9521
-19.9647
-19.9786
-19.9909
-19.9984
-19.9971
-19.9826
-19.9502
-19.8949
-19.8118
-19.6962
-19.5438
-19.3507
-19.1143
-18.8328
-18.5059
-18.135
-17.7236
-17.2771
-16.803
-16.3105
-15.8097
-15.3111
-14.8249
-14.36
-13.9237
-13.5211
-13.1555
-12.8279
-12.5382
-12.2847
-12.0651
-11.8763
-11.7153
-11.5787
-11.4634
-11.3666
-11.2855
-11.2178
-11.1615
-11.1148
-11.076
-11.0439
-11.0174
-10.9955
-10.9774
-10.9625
-10.9502
-10.9401
-10.9318
-10.925
-10.9194
-10.9148
-10.9111
-10.9081
-10.9056
-10.9037
-10.9022
-10.901
-10.9002
-10.8997
-10.8994
)
;
    }
    defaultFaces
    {
        type            empty;
    }
}


// ************************************************************************* //
