/*--------------------------------*- C++ -*----------------------------------*\
| =========                 |                                                 |
| \\      /  F ield         | OpenFOAM: The Open Source CFD Toolbox           |
|  \\    /   O peration     | Version:  5.x                                   |
|   \\  /    A nd           | Web:      www.OpenFOAM.org                      |
|    \\/     M anipulation  |                                                 |
\*---------------------------------------------------------------------------*/
FoamFile
{
    version     2.0;
    format      ascii;
    class       volScalarField;
    location    "0.7";
    object      gradTx;
}
// * * * * * * * * * * * * * * * * * * * * * * * * * * * * * * * * * * * * * //

dimensions      [0 -1 0 1 0 0 0];

internalField   nonuniform List<scalar> 
2048
(
-0.0011716
-0.00337205
-0.00511488
-0.00609566
-0.00601353
-0.00454956
-0.00141958
0.00362417
0.0107765
0.0201589
0.0318098
0.0456802
0.0616304
0.0794261
0.0987275
0.119076
0.139883
0.160421
0.179842
0.197221
0.211627
0.222223
0.228378
0.22976
0.226391
0.218642
0.207179
0.19286
0.17662
0.159367
0.141903
0.124876
0.108766
0.0938892
0.0804241
0.0684357
0.0579071
0.0487646
0.0409001
0.0341877
0.0284955
0.0236944
0.0196628
0.0162898
0.0134764
0.0111356
0.0091919
0.0075806
0.00624654
0.00514306
0.00423084
0.0034769
0.00285359
0.00233782
0.00191029
0.00155485
0.00125803
0.00100854
0.000796941
0.000615215
0.000456446
0.000314512
0.000184074
6.05581e-05
-0.00358456
-0.0103384
-0.0157507
-0.0189073
-0.0189139
-0.0148246
-0.00577932
0.00897179
0.0300165
0.0577222
0.0922065
0.133327
0.180674
0.233565
0.291004
0.35165
0.413761
0.475178
0.53336
0.585508
0.628786
0.660634
0.679105
0.683174
0.672904
0.649447
0.61485
0.571743
0.522981
0.471313
0.419147
0.368414
0.320525
0.276399
0.236537
0.20111
0.170045
0.143106
0.119961
0.100226
0.0835046
0.0694114
0.0575845
0.0476949
0.0394496
0.0325918
0.0268992
0.0221813
0.018276
0.0150463
0.0123768
0.0101707
0.00834712
0.00683829
0.00558767
0.00454799
0.00367979
0.00295006
0.00233118
0.00179975
0.0013355
0.000920238
0.000537812
0.000176473
-0.00622221
-0.0180016
-0.0276153
-0.0335538
-0.0343371
-0.0283922
-0.0142615
0.00933104
0.0433853
0.0885252
0.144953
0.212441
0.290333
0.377535
0.472464
0.572963
0.676207
0.778639
0.876005
0.963548
1.03638
1.09002
1.12104
1.12763
1.10989
1.06986
1.01115
0.938358
0.856414
0.770012
0.683201
0.599167
0.520189
0.447712
0.382479
0.324691
0.274164
0.230459
0.192989
0.1611
0.134124
0.111418
0.0923849
0.0764848
0.063239
0.0522296
0.043096
0.0355298
0.0292692
0.0240933
0.0198164
0.0162829
0.0133626
0.0109467
0.00894459
0.00728031
0.00589059
0.00472256
0.00373199
0.00288157
0.00213901
0.00147477
0.000859896
0.000280587
-0.00923784
-0.0268196
-0.0414792
-0.0511386
-0.0537273
-0.0470191
-0.0289121
0.00244812
0.0485143
0.110188
0.187759
0.280916
0.388776
0.509887
0.64216
0.782727
0.927768
1.07237
1.2105
1.33527
1.43945
1.51631
1.5606
1.56952
1.54323
1.48486
1.39991
1.29531
1.17838
1.05596
0.933812
0.816353
0.706646
0.60654
0.516902
0.437858
0.369022
0.309688
0.258971
0.21592
0.179581
0.149051
0.1235
0.102183
0.0844437
0.0697133
0.057502
0.0473927
0.0390325
0.0321238
0.0264173
0.0217041
0.01781
0.0145894
0.0119208
0.00970278
0.00785083
0.00629438
0.0049744
0.00384115
0.00285217
0.00196894
0.00114606
0.000371534
-0.0127288
-0.0370943
-0.0578698
-0.0724402
-0.078136
-0.0720299
-0.0512973
-0.0134228
0.0435633
0.120865
0.218853
0.337118
0.474557
0.629419
0.799219
0.980522
1.16865
1.35738
1.53886
1.70381
1.84224
1.94461
2.00337
2.01442
1.97797
1.89857
1.78413
1.64448
1.48978
1.32927
1.17053
1.01917
0.878899
0.751824
0.638765
0.539634
0.453735
0.380012
0.317229
0.264104
0.219382
0.181895
0.150581
0.124497
0.102821
0.0848414
0.0699504
0.0576324
0.0474521
0.039044
0.0321021
0.0263709
0.0216373
0.0177235
0.0144813
0.011787
0.00953768
0.00764734
0.00604417
0.00466741
0.00346605
0.00239616
0.00139316
0.000448716
-0.0167457
-0.0489907
-0.0770985
-0.0979575
-0.108288
-0.104393
-0.0826095
-0.0396385
0.027097
0.11913
0.236882
0.379795
0.546537
0.735115
0.94279
1.16576
1.39868
1.63417
1.86248
2.07164
2.24833
2.37946
2.45443
2.46739
2.41861
2.31451
2.1662
1.98715
1.79097
1.58965
1.39267
1.20672
1.03602
0.88267
0.747264
0.629324
0.527716
0.440944
0.367364
0.305328
0.253266
0.209738
0.173457
0.143291
0.11826
0.0975242
0.0803686
0.0661897
0.05448
0.0448147
0.0368389
0.0302572
0.0248232
0.0203319
0.0166123
0.0135218
0.010942
0.00877419
0.00693569
0.00535618
0.00397742
0.00275357
0.00159947
0.000511791
-0.0212972
-0.06255
-0.0992822
-0.127942
-0.14463
-0.144786
-0.123749
-0.0772601
-0.00200924
0.10389
0.240838
0.408029
0.603849
0.826121
1.07203
1.33768
1.61735
1.90271
2.18212
2.44062
2.66083
2.82506
2.91865
2.93328
2.8693
2.73572
2.54787
2.32395
2.08176
1.8364
1.59929
1.37806
1.17712
0.998331
0.841801
0.706472
0.59063
0.492247
0.409213
0.339483
0.281161
0.232536
0.192103
0.158551
0.130756
0.107762
0.0887593
0.0730688
0.0601209
0.0494407
0.0406324
0.0333672
0.0273715
0.0224177
0.0183163
0.0149093
0.0120656
0.00967627
0.00765001
0.00590823
0.00438685
0.00304108
0.0017646
0.000560701
-0.026353
-0.0776992
-0.124358
-0.162421
-0.187362
-0.193643
-0.175388
-0.127129
-0.0446446
0.0743225
0.230019
0.42121
0.645891
0.90175
1.18612
1.49534
1.82377
2.16243
2.49796
2.81207
3.08242
3.28543
3.40083
3.41688
3.33403
3.16483
2.93036
2.65493
2.36142
2.06842
1.78923
1.53213
1.30136
1.0982
0.921972
0.77084
0.642365
0.533896
0.442808
0.366637
0.303153
0.250383
0.206611
0.170363
0.140387
0.115624
0.0951836
0.0783225
0.0644202
0.0529604
0.0435148
0.0357278
0.0293045
0.0239995
0.0196087
0.0159621
0.0129185
0.0103616
0.00819327
0.00632815
0.00469763
0.00326052
0.00188921
0.000595634
-0.031846
-0.0942572
-0.152095
-0.20121
-0.236462
-0.251196
-0.238029
-0.189934
-0.101529
0.029826
0.203999
0.419029
0.672336
0.961501
1.28425
1.63766
2.01667
2.41225
2.80953
3.18668
3.51544
3.7645
3.90594
3.92317
3.8167
3.60411
3.31431
2.97949
2.62868
2.28425
1.96114
1.66785
1.40799
1.18181
0.987562
0.822392
0.683005
0.56605
0.468346
0.387001
0.319453
0.263476
0.217161
0.17889
0.147295
0.121233
0.0997464
0.08204
0.0674527
0.0554368
0.0455387
0.0373828
0.0306583
0.0251071
0.020514
0.0167
0.0135169
0.0108429
0.00857538
0.00662331
0.00491502
0.00341499
0.0019746
0.000616982
-0.0376749
-0.111942
-0.1821
-0.243924
-0.291697
-0.317494
-0.312045
-0.266275
-0.173272
-0.030019
0.162617
0.40149
0.683153
1.00509
1.36574
1.76346
2.1945
2.65051
3.11569
3.56456
3.96184
4.26624
4.43928
4.45743
4.32127
4.0555
3.69974
3.29639
2.88174
2.48205
2.11351
1.78416
1.49636
1.24888
1.03855
0.861281
0.712811
0.589024
0.486163
0.400904
0.330368
0.272094
0.224003
0.184347
0.151667
0.124749
0.102583
0.0843353
0.0693144
0.0569498
0.0467704
0.0383872
0.0314786
0.0257778
0.0210627
0.017148
0.0138808
0.0111361
0.00880877
0.00680299
0.00504568
0.0035085
0.00202261
0.000625337
-0.0437075
-0.130376
-0.213829
-0.28998
-0.352628
-0.392424
-0.397725
-0.356725
-0.260439
-0.105488
0.105968
0.368918
0.678633
1.03249
1.43001
1.87147
2.35537
2.87503
3.41456
3.94507
4.42316
4.79469
5.00668
5.0255
4.85178
4.52052
4.086
3.60368
3.11827
2.65974
2.24476
1.88006
1.56599
1.29931
1.07509
0.887837
0.7322
0.603267
0.496701
0.408762
0.336277
0.276575
0.22743
0.186989
0.15372
0.126356
0.103849
0.0853386
0.0701138
0.0575897
0.047285
0.0388029
0.0318162
0.0260536
0.021289
0.017334
0.0140327
0.0112593
0.0089074
0.00687767
0.00509717
0.00354567
0.00203558
0.000621567
-0.0497847
-0.149102
-0.24659
-0.338602
-0.418611
-0.475716
-0.495309
-0.461893
-0.363611
-0.196744
0.0344055
0.321981
0.659411
1.04395
1.47664
1.96044
2.49716
3.08307
3.70347
4.32675
4.90042
5.35407
5.61469
5.63392
5.41247
5.0002
4.4716
3.89865
3.33541
2.81499
2.35332
1.95467
1.61657
1.33321
1.09755
0.902557
0.741725
0.609335
0.500488
0.411059
0.33761
0.277296
0.227767
0.187094
0.15369
0.126252
0.10371
0.0851885
0.0699662
0.0574524
0.0471618
0.0386955
0.0317251
0.0259785
0.0212292
0.0172872
0.0139964
0.0112311
0.00888593
0.00685837
0.00507764
0.00353167
0.00201643
0.000606937
-0.0557264
-0.167589
-0.279566
-0.388823
-0.488782
-0.566938
-0.605012
-0.5825
-0.483459
-0.303869
-0.051456
0.261702
0.62649
1.04005
1.50545
2.02921
2.61759
3.2714
3.97893
4.70716
5.39402
5.94878
6.27086
6.29025
6.00775
5.49496
4.85413
4.17778
3.52986
2.94533
2.43767
2.00733
1.64805
1.35089
1.10647
0.906084
0.74205
0.607867
0.498113
0.40832
0.33483
0.274654
0.225356
0.18495
0.151819
0.12464
0.102336
0.0840261
0.0689888
0.0566347
0.0464807
0.0381308
0.0312594
0.0255971
0.0209193
0.0170371
0.0137953
0.0110705
0.00875917
0.0067563
0.0049956
0.00347214
0.00196883
0.000583234
-0.0613383
-0.185256
-0.311825
-0.439489
-0.562046
-0.665476
-0.727047
-0.719451
-0.62082
-0.426883
-0.150721
0.18948
0.581239
1.0217
1.51654
2.07674
2.71429
3.43635
4.23655
5.08271
5.90347
6.58337
6.98403
7.00336
6.6422
6.00437
5.23006
4.43673
3.69795
3.04827
2.49651
2.03763
1.66061
1.3529
1.10258
0.899189
0.733931
0.599564
0.490204
0.401098
0.328411
0.269055
0.220538
0.180846
0.148348
0.121723
0.0998949
0.0819904
0.0672966
0.0552317
0.0453203
0.0371735
0.0304722
0.0249527
0.0203947
0.0166124
0.0134526
0.0107957
0.00854161
0.00658254
0.00485976
0.00337328
0.00189733
0.000552819
-0.06642
-0.201491
-0.342348
-0.48927
-0.637054
-0.770496
-0.861631
-0.873932
-0.776797
-0.565763
-0.262185
0.107104
0.525396
0.990114
1.51028
2.10223
2.78496
3.57395
4.47109
5.44847
6.42716
7.2625
7.76472
7.78377
7.32056
6.52689
5.59453
4.67032
3.83569
3.12143
2.5288
2.04546
1.65471
1.34
1.08673
0.882749
0.718189
0.585166
0.477411
0.38995
0.31883
0.260903
0.213653
0.175063
0.143513
0.117694
0.096547
0.0792147
0.0649997
0.0533341
0.0437551
0.0358849
0.0294138
0.0240865
0.0196891
0.0160402
0.0129903
0.0104244
0.00824717
0.0063478
0.00467888
0.00324175
0.00180724
0.00051852
-0.0707751
-0.215682
-0.370064
-0.536677
-0.712181
-0.880892
-1.00898
-1.04751
-0.952865
-0.720435
-0.384296
0.0167611
0.461039
0.946822
1.48734
2.10516
2.82745
3.68
4.67645
5.798
6.96192
7.99081
8.62562
8.6442
8.04747
7.05944
5.94121
4.87256
3.93899
3.16267
2.53387
2.03109
1.63112
1.31315
1.05994
0.857717
0.695688
0.565431
0.460386
0.375432
0.306553
0.250586
0.205023
0.167872
0.137536
0.112738
0.0924448
0.0758244
0.0622012
0.0510269
0.0418552
0.0343225
0.0281315
0.0230371
0.0188338
0.0153461
0.0124287
0.0099729
0.007889
0.00606227
0.00446164
0.00308468
0.0017043
0.000483308
-0.0742205
-0.227241
-0.39389
-0.580091
-0.785506
-0.995207
-1.16925
-1.24228
-1.151
-0.890753
-0.515089
-0.0789598
0.390539
0.893611
1.44871
2.08542
2.83995
3.75034
4.84584
6.12316
7.50258
8.77259
9.58223
9.60016
8.82731
7.59693
6.26208
5.03679
4.00381
3.17024
2.51149
1.99514
1.59085
1.27349
1.0233
0.825099
0.667309
0.541113
0.439765
0.358076
0.292025
0.238473
0.194955
0.159522
0.130625
0.107025
0.087729
0.0719351
0.0589965
0.0483884
0.0396848
0.0325391
0.0266684
0.0218398
0.0178575
0.0145533
0.0117867
0.00945627
0.00747934
0.00573559
0.00421637
0.00290936
0.00159414
0.000449763
-0.0765973
-0.23564
-0.412779
-0.617806
-0.854799
-1.11153
-1.3425
-1.46101
-1.37387
-1.07643
-0.652103
-0.177078
0.316502
0.832459
1.39567
2.04326
2.82113
3.78105
4.97192
6.41397
8.04131
9.61129
10.6537
10.6708
9.66361
8.13164
6.54733
5.15587
4.02642
3.14294
2.46197
1.93862
1.53516
1.22229
0.977999
0.785926
0.633932
0.512951
0.416164
0.338392
0.275664
0.224908
0.18373
0.150247
0.12297
0.100713
0.0825278
0.0676522
0.0554718
0.0454894
0.037302
0.0305822
0.0250634
0.0205263
0.0167863
0.013683
0.0110813
0.00888817
0.00702951
0.0053767
0.00395078
0.00272291
0.00148145
0.000419406
-0.0777792
-0.240442
-0.425776
-0.648082
-0.917519
-1.22739
-1.52852
-1.70734
-1.62499
-1.27691
-0.792278
-0.274246
0.241672
0.765455
1.3297
1.97942
2.77024
3.7687
5.04712
6.65863
8.56693
10.5088
11.8637
11.8799
10.5583
8.65253
6.78528
5.22242
4.0036
3.08025
2.38613
1.86291
1.46555
1.16095
0.925246
0.741228
0.596412
0.481651
0.390162
0.316852
0.257856
0.210207
0.171607
0.140258
0.114744
0.0939417
0.0769564
0.06307
0.0517044
0.0423932
0.0347587
0.0284945
0.0233515
0.0191253
0.0156433
0.0127539
0.0103276
0.00828085
0.00654977
0.00499387
0.00367165
0.00253179
0.00136925
0.000392103
-0.0776813
-0.241327
-0.432069
-0.669228
-0.970841
-1.33957
-1.72665
-1.98606
-1.90906
-1.4912
-0.931832
-0.366802
0.168827
0.694707
1.25251
1.89507
2.68726
3.71063
5.064
6.84357
9.06409
11.4643
13.2423
13.2575
11.5106
9.14433
6.96256
5.2292
3.93296
2.98242
2.28537
1.76973
1.38365
1.09091
0.866262
0.692008
0.555569
0.447877
0.362294
0.293889
0.238953
0.194655
0.158816
0.129741
0.106099
0.0868362
0.0711171
0.0582719
0.0477627
0.0391558
0.0321007
0.0263133
0.0215634
0.0176618
0.0144489
0.0117826
0.00953921
0.00764512
0.00604931
0.00459466
0.00338445
0.00234119
0.00125834
0.000365779
-0.0762652
-0.238113
-0.431053
-0.679685
-1.01172
-1.44402
-1.93543
-2.30345
-2.23222
-1.71749
-1.06613
-0.450854
0.100654
0.622241
1.16589
1.7918
2.57299
3.60523
5.01573
6.9538
9.51241
12.4721
14.8273
14.8413
12.515
9.5868
7.06434
5.16964
3.81317
2.85056
2.16161
1.66104
1.29124
1.01365
0.802246
0.639229
0.512171
0.412241
0.33305
0.269898
0.21927
0.178505
0.145564
0.118864
0.0971703
0.0795064
0.0650992
0.0533309
0.0437061
0.0358258
0.0293677
0.0240713
0.0197255
0.0161574
0.0132208
0.0107837
0.00872782
0.00699048
0.00553619
0.00418594
0.00309321
0.00215454
0.0011474
0.000336684
-0.0735424
-0.230773
-0.422366
-0.678132
-1.03697
-1.53568
-2.15217
-2.66768
-2.60255
-1.95277
-1.18955
-0.522403
0.0396091
0.549906
1.0717
1.67159
2.42902
3.45217
4.89667
6.97347
9.88573
13.5195
16.6668
16.6797
13.5588
9.95389
7.07493
5.03829
3.64419
2.68664
2.01722
1.53904
1.19013
0.930615
0.734346
0.583792
0.466923
0.375299
0.302871
0.245225
0.199085
0.161982
0.132029
0.107772
0.0880759
0.0720476
0.0589801
0.0483101
0.0395861
0.0324451
0.0265941
0.0217965
0.017861
0.0146311
0.0119743
0.00976939
0.00790373
0.00632514
0.00501723
0.00377389
0.00280041
0.00197321
0.00103375
0.000300344
-0.0695742
-0.219436
-0.405933
-0.663595
-1.04347
-1.60839
-2.37221
-3.0894
-3.03059
-2.1921
-1.29542
-0.577521
-0.012218
0.47929
0.971772
1.53673
2.25777
3.25256
4.70291
6.88668
10.1516
14.5827
18.8223
18.8339
14.6182
10.2132
6.97859
4.83148
3.42744
2.49347
1.85499
1.40604
1.08215
0.843225
0.66364
0.526524
0.420466
0.337548
0.272144
0.220179
0.178643
0.145278
0.118367
0.0965892
0.0789161
0.064541
0.0528259
0.0432632
0.0354465
0.0290495
0.0238091
0.0195128
0.0159893
0.0130986
0.0107223
0.0087504
0.00707573
0.00565621
0.00449796
0.0033639
0.00250724
0.00179647
0.000914725
0.000253116
-0.0644688
-0.20438
-0.381977
-0.63555
-1.02831
-1.65486
-2.58804
-3.58238
-3.53004
-2.42767
-1.37597
-0.612578
-0.0532388
0.41166
0.867841
1.38974
2.06238
3.00902
4.43285
6.67873
10.271
15.6216
21.3725
21.3829
15.6533
10.3259
6.76077
4.54782
3.16585
2.2746
1.67794
1.2644
0.969071
0.752803
0.591121
0.468173
0.373368
0.299425
0.241209
0.195024
0.15815
0.128559
0.10471
0.0854213
0.0697762
0.0570557
0.0466924
0.0382353
0.031324
0.025669
0.021037
0.01724
0.0141267
0.0115735
0.00947578
0.00773555
0.0062513
0.00498981
0.00398266
0.00296056
0.00221403
0.00162187
0.000789467
0.000193979
-0.0583743
-0.186016
-0.351021
-0.594012
-0.989119
-1.66684
-2.78797
-4.16446
-4.11865
-2.64758
-1.42251
-0.62452
-0.0824742
0.347916
0.761515
1.23325
1.84658
2.72569
4.0877
6.33757
10.1994
16.5729
24.4183
24.4273
16.6006
10.2475
6.40954
4.18874
2.86384
2.03416
1.48929
1.11647
0.852586
0.660569
0.517681
0.409401
0.326127
0.261308
0.210357
0.169985
0.137785
0.111965
0.0911683
0.0743572
0.0607272
0.0496488
0.0406258
0.0332642
0.0272492
0.0223283
0.0182982
0.0149949
0.0122868
0.0100668
0.00824378
0.00673215
0.0054367
0.00433123
0.00347436
0.00256746
0.00192097
0.00144604
0.000660353
0.00012599
-0.0514695
-0.164857
-0.313857
-0.539592
-0.924337
-1.63538
-2.95448
-4.85859
-4.81932
-2.83408
-1.42572
-0.611189
-0.0996306
0.28859
0.654226
1.06992
1.61452
2.40809
3.67183
5.85551
9.88804
17.3404
28.0886
28.0964
17.3641
9.92933
5.91735
3.75875
2.52718
1.77671
1.29226
0.964487
0.734252
0.567622
0.44411
0.350785
0.279168
0.223518
0.179832
0.145253
0.117695
0.0956115
0.0778342
0.0634698
0.0518275
0.0423674
0.0346642
0.0283805
0.023247
0.0190478
0.0156091
0.0127907
0.0104806
0.0085874
0.00703367
0.00574615
0.00463704
0.00368504
0.00297502
0.00218708
0.00162877
0.00126567
0.000533476
5.66637e-05
-0.0439524
-0.141488
-0.271504
-0.473514
-0.833555
-1.5515
-3.06199
-5.69417
-5.66137
-2.9614
-1.37628
-0.571651
-0.105128
0.233861
0.547208
0.902336
1.37062
2.06281
3.19283
5.2311
9.28802
17.783
32.5482
32.5547
17.8028
9.32253
5.28284
3.26562
2.16272
1.50701
1.09
0.810529
0.615472
0.47493
0.37109
0.292814
0.232854
0.186325
0.149838
0.120982
0.0979999
0.0795931
0.0647818
0.0528182
0.0431244
0.0352493
0.0288379
0.0236088
0.0193374
0.0158437
0.0129829
0.0106384
0.00871686
0.00714269
0.0058514
0.0047823
0.00385638
0.00305521
0.00248578
0.00182067
0.00133939
0.0010786
0.000417475
-3.28814e-06
-0.0360262
-0.116527
-0.22514
-0.397578
-0.717821
-1.40719
-3.0741
-6.70866
-6.68223
-2.99302
-1.2659
-0.506502
-0.100071
0.183601
0.441496
0.732942
1.11928
1.69725
2.66136
4.47083
8.35547
17.6993
38.0061
38.0113
17.7153
8.38329
4.51257
2.72016
1.77805
1.22981
0.885465
0.656483
0.497483
0.383328
0.299198
0.235899
0.18748
0.149947
0.12054
0.0972975
0.0787967
0.063985
0.0520704
0.0424492
0.034655
0.0283243
0.023171
0.0189685
0.0155359
0.0127286
0.01043
0.00854624
0.00700252
0.00573826
0.00470165
0.00384434
0.00309784
0.00244509
0.00200725
0.00146815
0.00105635
0.000884508
0.000320503
-4.30548e-05
-0.0278872
-0.0905929
-0.176029
-0.314064
-0.57987
-1.1969
-2.94021
-7.94944
-7.92922
-2.87819
-1.08879
-0.418106
-0.0861573
0.137449
0.337931
0.563944
0.864775
1.31913
2.09064
3.5904
7.06013
16.8089
44.7264
44.7304
16.8211
7.08142
3.62236
2.13568
1.3811
0.949669
0.681352
0.504003
0.381341
0.293513
0.228911
0.180374
0.143286
0.114561
0.0920679
0.0742991
0.060161
0.0488455
0.0397456
0.0323988
0.0264481
0.0216153
0.0176818
0.0144742
0.0118546
0.00971223
0.00795815
0.00652068
0.00534278
0.00437841
0.00358798
0.0029351
0.00236371
0.00185746
0.00153984
0.00112824
0.000784649
0.000685199
0.000245886
-5.61246e-05
-0.0197129
-0.0642708
-0.125446
-0.225584
-0.424216
-0.919649
-2.59138
-9.47597
-9.46179
-2.54787
-0.843792
-0.310673
-0.0655258
0.0948797
0.23717
0.397282
0.611024
0.936115
1.49565
2.6153
5.39697
14.7291
53.0401
53.0429
14.7377
5.4119
2.63773
1.52729
0.979671
0.670753
0.480018
0.354497
0.267925
0.206058
0.160613
0.126504
0.10046
0.0803005
0.0645218
0.0520614
0.0421497
0.0342185
0.0278415
0.0226936
0.0185245
0.015139
0.0123836
0.0101369
0.00830204
0.00680157
0.00557308
0.00456634
0.00374142
0.00306625
0.00251303
0.00205672
0.00165552
0.00129444
0.00108412
0.000798696
0.000530083
0.000484177
0.00018796
-4.45569e-05
-0.0116554
-0.0380987
-0.0746105
-0.134891
-0.257028
-0.581795
-1.93553
-11.3622
-11.3539
-1.9099
-0.537115
-0.190134
-0.0405566
0.0552936
0.139716
0.234594
0.361489
0.555361
0.89206
1.58011
3.40159
10.9488
63.3587
63.3604
10.9539
3.41039
1.59332
0.910705
0.581043
0.39673
0.283459
0.209122
0.157943
0.121413
0.0946023
0.074492
0.0591443
0.0472682
0.0379756
0.0306388
0.0248037
0.0201353
0.016382
0.0133525
0.0108991
0.00890696
0.00728568
0.00596376
0.00488422
0.00400143
0.00327866
0.00268635
0.00220103
0.00180392
0.00147862
0.00121071
0.000974215
0.000757489
0.000640951
0.000476726
0.000298113
0.000285777
0.000130685
-2.07577e-05
-0.00384021
-0.0125605
-0.024637
-0.0446634
-0.085699
-0.200544
-0.851964
-13.6994
-13.6966
-0.843539
-0.185855
-0.0637058
-0.0136414
0.0180855
0.0459335
0.0772117
0.119081
0.183187
0.295006
0.526117
1.1698
4.79759
76.1891
76.1896
4.79925
1.1727
0.530461
0.301136
0.191634
0.130676
0.0932961
0.0687962
0.0519427
0.0399199
0.0310997
0.0244856
0.019439
0.0155345
0.0124799
0.0100683
0.00815056
0.00661631
0.0053829
0.00438735
0.00358117
0.00292656
0.00239384
0.00195948
0.00160477
0.00131471
0.00107724
0.000882613
0.000723147
0.000592704
0.000485874
0.000398058
0.000320267
0.000247308
0.000211672
0.000159588
9.23257e-05
9.43412e-05
5.25395e-05
-3.63929e-06
)
;

boundaryField
{
    left
    {
        type            calculated;
        value           uniform 0;
    }
    right
    {
        type            calculated;
        value           uniform 0;
    }
    interface
    {
        type            calculated;
        value           nonuniform List<scalar> 
64
(
-0.00384021
-0.0125605
-0.024637
-0.0446634
-0.085699
-0.200544
-0.851964
-13.6994
-13.6966
-0.843539
-0.185855
-0.0637058
-0.0136414
0.0180855
0.0459335
0.0772117
0.119081
0.183187
0.295006
0.526117
1.1698
4.79759
76.1891
76.1896
4.79925
1.1727
0.530461
0.301136
0.191634
0.130676
0.0932961
0.0687962
0.0519427
0.0399199
0.0310997
0.0244856
0.019439
0.0155345
0.0124799
0.0100683
0.00815056
0.00661631
0.0053829
0.00438735
0.00358117
0.00292656
0.00239384
0.00195948
0.00160477
0.00131471
0.00107724
0.000882613
0.000723147
0.000592704
0.000485874
0.000398058
0.000320267
0.000247308
0.000211672
0.000159588
9.23257e-05
9.43412e-05
5.25395e-05
-3.63929e-06
)
;
    }
    bottom
    {
        type            calculated;
        value           nonuniform List<scalar> 
64
(
-0.0011716
-0.00337205
-0.00511488
-0.00609566
-0.00601353
-0.00454956
-0.00141958
0.00362417
0.0107765
0.0201589
0.0318098
0.0456802
0.0616304
0.0794261
0.0987275
0.119076
0.139883
0.160421
0.179842
0.197221
0.211627
0.222223
0.228378
0.22976
0.226391
0.218642
0.207179
0.19286
0.17662
0.159367
0.141903
0.124876
0.108766
0.0938892
0.0804241
0.0684357
0.0579071
0.0487646
0.0409001
0.0341877
0.0284955
0.0236944
0.0196628
0.0162898
0.0134764
0.0111356
0.0091919
0.0075806
0.00624654
0.00514306
0.00423084
0.0034769
0.00285359
0.00233782
0.00191029
0.00155485
0.00125803
0.00100854
0.000796941
0.000615215
0.000456446
0.000314512
0.000184074
6.05581e-05
)
;
    }
    defaultFaces
    {
        type            empty;
    }
}


// ************************************************************************* //
