/*--------------------------------*- C++ -*----------------------------------*\
| =========                 |                                                 |
| \\      /  F ield         | OpenFOAM: The Open Source CFD Toolbox           |
|  \\    /   O peration     | Version:  5.x                                   |
|   \\  /    A nd           | Web:      www.OpenFOAM.org                      |
|    \\/     M anipulation  |                                                 |
\*---------------------------------------------------------------------------*/
FoamFile
{
    version     2.0;
    format      ascii;
    class       volScalarField;
    location    "0.7";
    object      T;
}
// * * * * * * * * * * * * * * * * * * * * * * * * * * * * * * * * * * * * * //

dimensions      [0 0 0 1 0 0 0];

internalField   nonuniform List<scalar> 
2048
(
9.85676
9.85673
9.85666
9.85657
9.85647
9.85638
9.85633
9.85634
9.85644
9.85667
9.85707
9.85767
9.8585
9.85959
9.86098
9.86268
9.8647
9.86705
9.86971
9.87267
9.87588
9.87928
9.88282
9.88642
9.89
9.89349
9.89683
9.89997
9.90286
9.90549
9.90784
9.90992
9.91174
9.91332
9.91468
9.91583
9.91682
9.91764
9.91834
9.91892
9.91941
9.91981
9.92015
9.92043
9.92066
9.92085
9.92101
9.92114
9.92124
9.92133
9.9214
9.92146
9.92151
9.92155
9.92158
9.92161
9.92163
9.92165
9.92166
9.92168
9.92168
9.92169
9.92169
9.9217
9.5766
9.57649
9.57628
9.57599
9.57568
9.5754
9.57522
9.57522
9.5755
9.57616
9.57731
9.57904
9.58147
9.58469
9.58877
9.59378
9.59976
9.60671
9.61461
9.62338
9.63291
9.64303
9.65355
9.66425
9.6749
9.68528
9.6952
9.70449
9.71306
9.72084
9.72779
9.73394
9.7393
9.74395
9.74794
9.75134
9.75423
9.75666
9.7587
9.76041
9.76183
9.76302
9.764
9.76482
9.76549
9.76605
9.76651
9.76689
9.7672
9.76746
9.76767
9.76785
9.76799
9.76811
9.7682
9.76828
9.76835
9.7684
9.76844
9.76847
9.76849
9.76851
9.76852
9.76853
9.3088
9.30861
9.30824
9.30774
9.30719
9.30667
9.3063
9.30622
9.30659
9.30758
9.30936
9.31211
9.316
9.32118
9.3278
9.33595
9.3457
9.35708
9.37003
9.38445
9.40015
9.41684
9.43421
9.45187
9.46945
9.48656
9.50288
9.51816
9.5322
9.54492
9.55627
9.56627
9.57499
9.58252
9.58898
9.59448
9.59913
9.60305
9.60633
9.60908
9.61136
9.61327
9.61485
9.61615
9.61724
9.61813
9.61887
9.61948
9.61998
9.62039
9.62073
9.62101
9.62124
9.62143
9.62158
9.62171
9.62181
9.62189
9.62196
9.62201
9.62205
9.62208
9.62209
9.6221
9.05289
9.0526
9.05206
9.05131
9.05046
9.04963
9.04899
9.04873
9.04906
9.05024
9.05251
9.05611
9.06129
9.06826
9.07722
9.08833
9.10168
9.11732
9.13519
9.15515
9.17692
9.20013
9.2243
9.2489
9.27335
9.29713
9.31975
9.34087
9.36023
9.3777
9.39323
9.40688
9.41874
9.42896
9.4377
9.44511
9.45138
9.45665
9.46106
9.46474
9.4678
9.47035
9.47246
9.47421
9.47566
9.47685
9.47783
9.47865
9.47931
9.47987
9.48032
9.48069
9.481
9.48125
9.48145
9.48162
9.48176
9.48187
9.48195
9.48202
9.48207
9.48211
9.48213
9.48215
8.80842
8.80802
8.80726
8.80621
8.80499
8.80377
8.80274
8.80217
8.80232
8.80353
8.8061
8.81037
8.81664
8.8252
8.83631
8.85017
8.86695
8.88669
8.90936
8.93478
8.96261
8.99235
9.02338
9.05496
9.08633
9.11677
9.14566
9.17252
9.19705
9.21908
9.23859
9.25566
9.27044
9.28312
9.29393
9.30308
9.3108
9.31726
9.32267
9.32718
9.33092
9.33403
9.33661
9.33874
9.3405
9.34195
9.34315
9.34414
9.34495
9.34562
9.34617
9.34662
9.347
9.3473
9.34755
9.34775
9.34792
9.34805
9.34816
9.34824
9.3483
9.34835
9.34838
9.34839
8.57493
8.5744
8.5734
8.572
8.57034
8.56861
8.56707
8.56603
8.56583
8.56688
8.56956
8.57428
8.58143
8.59136
8.6044
8.62082
8.64083
8.66453
8.6919
8.72273
8.75664
8.79299
8.83099
8.86969
8.9081
8.94527
8.98043
9.01297
9.04253
9.06894
9.0922
9.11246
9.12991
9.14483
9.1575
9.16818
9.17716
9.18468
9.19094
9.19616
9.20048
9.20407
9.20704
9.20949
9.21152
9.21319
9.21456
9.2157
9.21663
9.2174
9.21803
9.21855
9.21898
9.21933
9.21961
9.21985
9.22004
9.22019
9.22031
9.22041
9.22048
9.22053
9.22056
9.22058
8.352
8.35133
8.35004
8.34823
8.34604
8.34371
8.34152
8.33984
8.33911
8.33978
8.34235
8.34731
8.3551
8.36618
8.38092
8.39968
8.42272
8.45022
8.48218
8.51841
8.55845
8.60156
8.64673
8.69277
8.7384
8.78244
8.82389
8.86206
8.89651
8.92711
8.9539
8.97709
8.99697
9.01387
9.02816
9.04018
9.05024
9.05864
9.06562
9.07142
9.07623
9.08021
9.0835
9.08621
9.08845
9.0903
9.09182
9.09307
9.09411
9.09495
9.09565
9.09622
9.09669
9.09708
9.09739
9.09765
9.09786
9.09803
9.09816
9.09827
9.09835
9.0984
9.09844
9.09846
8.13921
8.13839
8.13679
8.1345
8.13171
8.12865
8.12566
8.12317
8.12169
8.12177
8.12401
8.12896
8.13717
8.14915
8.16535
8.18621
8.21208
8.2432
8.27966
8.32127
8.36753
8.41759
8.4702
8.52387
8.57698
8.62806
8.67588
8.71963
8.75885
8.79342
8.82349
8.84934
8.87137
8.89
8.90568
8.91882
8.92977
8.93889
8.94646
8.95273
8.95791
8.9622
8.96574
8.96866
8.97106
8.97304
8.97468
8.97602
8.97712
8.97803
8.97878
8.97939
8.9799
8.98031
8.98065
8.98092
8.98114
8.98132
8.98147
8.98158
8.98167
8.98173
8.98177
8.98179
7.93618
7.93518
7.93323
7.93043
7.92694
7.92304
7.91909
7.9156
7.91316
7.91243
7.91409
7.9188
7.92719
7.93981
7.95723
7.97995
8.00841
8.04297
8.08379
8.13077
8.18338
8.24062
8.30102
8.36268
8.42362
8.48196
8.53624
8.58553
8.62935
8.66767
8.70074
8.72896
8.75286
8.77296
8.78979
8.80382
8.81549
8.82517
8.83318
8.8398
8.84527
8.84978
8.8535
8.85657
8.85909
8.86117
8.86288
8.86429
8.86545
8.8664
8.86718
8.86782
8.86835
8.86878
8.86913
8.86942
8.86965
8.86984
8.86999
8.87011
8.8702
8.87026
8.87031
8.87033
7.7425
7.74132
7.739
7.73563
7.73138
7.72652
7.72146
7.71677
7.71314
7.71135
7.7122
7.71643
7.72475
7.73778
7.75616
7.78046
7.81126
7.84904
7.89409
7.94641
8.00548
8.07021
8.1388
8.20894
8.2781
8.34398
8.40483
8.4596
8.50785
8.54965
8.58541
8.6157
8.64117
8.66246
8.68019
8.69491
8.70711
8.71719
8.72552
8.73238
8.73804
8.74271
8.74655
8.74971
8.75231
8.75445
8.75621
8.75765
8.75884
8.75982
8.76062
8.76128
8.76182
8.76226
8.76263
8.76292
8.76316
8.76336
8.76351
8.76363
8.76372
8.76379
8.76383
8.76385
7.55781
7.55644
7.55374
7.54976
7.54467
7.53874
7.53241
7.52631
7.52126
7.51817
7.51797
7.52149
7.5295
7.54269
7.56176
7.58738
7.62024
7.66099
7.71009
7.76769
7.83337
7.90592
7.98321
8.06237
8.14025
8.21399
8.28152
8.34168
8.39413
8.43913
8.47725
8.50927
8.536
8.55821
8.57661
8.59181
8.60435
8.61469
8.6232
8.63021
8.63598
8.64072
8.64462
8.64783
8.65046
8.65263
8.65441
8.65588
8.65708
8.65807
8.65888
8.65954
8.66009
8.66054
8.66091
8.6612
8.66145
8.66164
8.6618
8.66192
8.66201
8.66208
8.66212
8.66214
7.38174
7.38018
7.37708
7.37247
7.36649
7.35939
7.35163
7.34391
7.33719
7.33255
7.33105
7.33363
7.34111
7.35423
7.37373
7.40038
7.43499
7.47841
7.53134
7.59415
7.66655
7.74729
7.83387
7.92274
8.00993
8.09188
8.16618
8.23162
8.28802
8.33585
8.37598
8.40939
8.43707
8.45991
8.47873
8.49421
8.50694
8.51739
8.52598
8.53303
8.53882
8.54358
8.54749
8.5507
8.55333
8.5555
8.55728
8.55874
8.55994
8.56093
8.56174
8.5624
8.56295
8.56339
8.56376
8.56406
8.5643
8.56449
8.56465
8.56477
8.56486
8.56493
8.56497
8.56499
7.21392
7.21218
7.20868
7.20344
7.19653
7.18817
7.17881
7.16926
7.16061
7.15415
7.15111
7.15254
7.15929
7.17212
7.19179
7.21917
7.25521
7.30097
7.35744
7.42531
7.50454
7.59387
7.69044
7.78983
7.88701
7.97758
8.05872
8.12927
8.18928
8.23958
8.28132
8.31575
8.34405
8.36726
8.38627
8.40183
8.41458
8.42502
8.43358
8.44059
8.44634
8.45105
8.45492
8.45809
8.4607
8.46284
8.46459
8.46604
8.46722
8.46819
8.46899
8.46964
8.47018
8.47062
8.47098
8.47127
8.47151
8.47171
8.47186
8.47198
8.47207
8.47214
8.47218
8.4722
7.05401
7.05209
7.04822
7.04234
7.03448
7.02478
7.01369
7.00206
6.9912
6.98266
6.97786
6.97795
6.98378
6.99611
7.01571
7.04351
7.08061
7.12833
7.188
7.26072
7.34683
7.4452
7.55256
7.66345
7.77142
7.87102
7.95905
8.03446
8.0977
8.15002
8.19296
8.22804
8.25664
8.27993
8.29891
8.31439
8.32701
8.33732
8.34575
8.35264
8.35828
8.36291
8.36669
8.3698
8.37234
8.37443
8.37615
8.37755
8.37871
8.37966
8.38044
8.38107
8.3816
8.38203
8.38238
8.38266
8.3829
8.38308
8.38323
8.38335
8.38344
8.3835
8.38354
8.38356
6.90165
6.89958
6.89536
6.88888
6.88007
6.86897
6.85599
6.84205
6.82868
6.81777
6.811
6.80958
6.81435
6.826
6.84529
6.87319
6.91098
6.96022
7.02267
7.09994
7.19293
7.30079
7.41989
7.54344
7.66313
7.77221
7.86709
7.94704
8.01304
8.0669
8.11059
8.14593
8.17451
8.19764
8.21638
8.2316
8.24397
8.25404
8.26225
8.26896
8.27444
8.27892
8.28259
8.2856
8.28806
8.29008
8.29174
8.2931
8.29422
8.29513
8.29588
8.2965
8.29701
8.29742
8.29776
8.29804
8.29826
8.29844
8.29859
8.2987
8.29878
8.29884
8.29889
8.2989
6.75652
6.75431
6.74978
6.74275
6.73301
6.72049
6.70549
6.68896
6.67275
6.65919
6.65024
6.64718
6.65076
6.66158
6.68035
6.70806
6.74614
6.79642
6.86114
6.94256
7.04232
7.16012
7.29204
7.42967
7.56217
7.68115
7.78277
7.86682
7.93504
7.98991
8.03388
8.06909
8.09735
8.12007
8.13838
8.15319
8.16519
8.17493
8.18286
8.18932
8.19459
8.1989
8.20242
8.2053
8.20767
8.2096
8.21119
8.21249
8.21356
8.21443
8.21515
8.21574
8.21623
8.21662
8.21695
8.21721
8.21742
8.2176
8.21774
8.21784
8.21793
8.21798
8.21802
8.21804
6.61829
6.61597
6.61118
6.60366
6.59306
6.57911
6.56196
6.54257
6.52314
6.5066
6.4953
6.49051
6.49283
6.50271
6.52076
6.54798
6.58593
6.63673
6.70312
6.78816
6.89447
7.02262
7.16862
7.32206
7.46862
7.59792
7.70603
7.79361
7.86343
7.91873
7.9625
7.99721
8.02484
8.04692
8.06464
8.0789
8.09042
8.09976
8.10733
8.1135
8.11852
8.12262
8.12598
8.12872
8.13096
8.1328
8.13431
8.13554
8.13655
8.13738
8.13807
8.13862
8.13908
8.13946
8.13977
8.14002
8.14022
8.14038
8.14052
8.14062
8.14069
8.14075
8.14079
8.1408
6.48661
6.48422
6.47925
6.47132
6.45994
6.44461
6.42521
6.40265
6.37955
6.35972
6.34591
6.33934
6.34038
6.34923
6.36639
6.39285
6.43024
6.48101
6.5484
6.63638
6.74884
6.88767
7.04919
7.2206
7.38265
7.52259
7.63677
7.72719
7.79789
7.85302
7.89611
7.92995
7.95669
7.97793
7.99489
8.00849
8.01945
8.0283
8.03547
8.0413
8.04605
8.04992
8.05308
8.05566
8.05777
8.0595
8.06092
8.06208
8.06303
8.06382
8.06446
8.06498
8.06541
8.06576
8.06605
8.06629
8.06648
8.06664
8.06676
8.06686
8.06693
8.06698
8.06701
8.06702
6.36119
6.35876
6.35368
6.34545
6.33342
6.31678
6.29507
6.26902
6.24171
6.21823
6.20181
6.19348
6.19324
6.20103
6.21716
6.24258
6.27902
6.32915
6.39679
6.48687
6.60487
6.75459
6.93327
7.12533
7.30452
7.45528
7.57491
7.66732
7.73811
7.79243
7.83437
7.867
7.89258
7.9128
7.92886
7.94171
7.95203
7.96035
7.96708
7.97254
7.97698
7.9806
7.98355
7.98596
7.98793
7.98955
7.99087
7.99195
7.99284
7.99357
7.99416
7.99465
7.99506
7.99538
7.99565
7.99587
7.99605
7.9962
7.99631
7.9964
7.99647
7.99651
7.99655
7.99656
6.24171
6.23928
6.23417
6.22578
6.21325
6.19544
6.17139
6.14148
6.10933
6.08182
6.06273
6.05271
6.05127
6.05798
6.07298
6.09712
6.1322
6.1811
6.24815
6.33935
6.46201
6.6226
6.82027
7.03642
7.23457
7.39613
7.52033
7.61371
7.68374
7.73662
7.77694
7.80803
7.83225
7.85127
7.86634
7.87834
7.88796
7.89571
7.90196
7.90703
7.91114
7.91449
7.91723
7.91946
7.92128
7.92277
7.92399
7.925
7.92582
7.92649
7.92704
7.92749
7.92786
7.92816
7.92841
7.92862
7.92878
7.92891
7.92902
7.9291
7.92916
7.92921
7.92924
7.92925
6.12787
6.12549
6.12043
6.11202
6.09919
6.0804
6.05407
6.01992
5.98208
5.95016
5.92841
5.91685
5.91432
5.91999
5.93377
5.95643
5.98976
6.03683
6.10242
6.19357
6.31973
6.49084
6.70948
6.95419
7.17328
7.34528
7.47286
7.56605
7.63441
7.68521
7.72349
7.75276
7.7754
7.79311
7.80708
7.81818
7.82705
7.83418
7.83994
7.84459
7.84837
7.85144
7.85395
7.85599
7.85766
7.85903
7.86015
7.86106
7.86181
7.86243
7.86293
7.86335
7.86369
7.86396
7.86419
7.86438
7.86453
7.86465
7.86475
7.86482
7.86488
7.86492
7.86494
7.86496
6.01939
6.0171
6.01218
6.0039
5.99099
5.97149
5.943
5.90424
5.85964
5.82291
5.79861
5.78573
5.78229
5.78697
5.79947
5.82046
5.85171
5.89637
5.95959
6.04939
6.17751
6.35832
6.59999
6.87916
7.12123
7.30287
7.43229
7.52396
7.58974
7.63784
7.6737
7.70088
7.72179
7.73807
7.75087
7.76102
7.76912
7.77561
7.78084
7.78508
7.78851
7.7913
7.79357
7.79542
7.79694
7.79817
7.79919
7.80002
7.8007
7.80125
7.80171
7.80209
7.80239
7.80264
7.80285
7.80302
7.80316
7.80327
7.80335
7.80342
7.80347
7.80351
7.80353
7.80354
5.91599
5.91382
5.90914
5.90114
5.8884
5.86853
5.83814
5.7944
5.74159
5.69969
5.67309
5.65921
5.65504
5.65883
5.67002
5.68919
5.71804
5.75975
5.81969
5.90672
6.0349
6.22395
6.4906
6.81215
7.07916
7.26897
7.39833
7.48705
7.54931
7.59416
7.62723
7.65212
7.67117
7.68594
7.69752
7.70668
7.71398
7.71982
7.72452
7.72832
7.7314
7.73391
7.73594
7.73761
7.73896
7.74007
7.74098
7.74172
7.74233
7.74283
7.74324
7.74358
7.74385
7.74407
7.74426
7.74441
7.74453
7.74463
7.74471
7.74477
7.74481
7.74485
7.74487
7.74488
5.81741
5.8154
5.81103
5.80346
5.79116
5.77133
5.73945
5.69045
5.6275
5.58014
5.55164
5.53714
5.53249
5.53547
5.54536
5.56259
5.58879
5.62704
5.68282
5.76557
5.89153
6.08654
6.37971
6.75443
7.04792
7.24359
7.37061
7.45487
7.51272
7.5538
7.58381
7.60624
7.62332
7.63652
7.64684
7.65499
7.66147
7.66666
7.67083
7.6742
7.67693
7.67914
7.68094
7.68241
7.68361
7.68459
7.6854
7.68605
7.68659
7.68703
7.68739
7.68769
7.68793
7.68813
7.68829
7.68843
7.68853
7.68862
7.68869
7.68875
7.68878
7.68882
7.68883
7.68884
5.7234
5.72157
5.71758
5.7106
5.69902
5.67969
5.64693
5.59257
5.51679
5.46386
5.43405
5.41941
5.41454
5.41683
5.42541
5.44063
5.46395
5.49833
5.54913
5.62607
5.74718
5.9448
6.26508
6.70787
7.02843
7.22664
7.34867
7.42694
7.47957
7.51644
7.54313
7.56298
7.57802
7.58962
7.59867
7.6058
7.61146
7.61599
7.61963
7.62256
7.62494
7.62687
7.62844
7.62972
7.63076
7.63161
7.63231
7.63288
7.63335
7.63374
7.63405
7.63431
7.63452
7.63469
7.63483
7.63495
7.63504
7.63512
7.63518
7.63523
7.63526
7.63529
7.6353
7.63531
5.6337
5.6321
5.62855
5.62229
5.61169
5.5934
5.56058
5.50107
5.40875
5.35047
5.32019
5.30592
5.30109
5.3028
5.31011
5.32325
5.34354
5.3737
5.41879
5.48845
5.60178
5.79745
6.14367
6.67522
7.02168
7.21785
7.33197
7.40276
7.44943
7.48174
7.50495
7.52212
7.53509
7.54507
7.55283
7.55894
7.56379
7.56767
7.57078
7.57329
7.57532
7.57697
7.57831
7.5794
7.58029
7.58102
7.58161
7.5821
7.5825
7.58283
7.5831
7.58332
7.5835
7.58364
7.58376
7.58386
7.58394
7.58401
7.58406
7.5841
7.58413
7.58415
7.58417
7.58417
5.54811
5.54674
5.54369
5.53826
5.52889
5.51221
5.48041
5.41652
5.30247
5.2396
5.20992
5.19659
5.19206
5.19331
5.19937
5.21041
5.22757
5.25324
5.29203
5.35302
5.4555
5.64327
6.01122
6.6604
7.02855
7.21673
7.31988
7.38182
7.42193
7.44941
7.46903
7.48347
7.49436
7.5027
7.5092
7.5143
7.51835
7.52158
7.52417
7.52626
7.52795
7.52932
7.53044
7.53135
7.53209
7.53269
7.53319
7.5336
7.53393
7.5342
7.53442
7.53461
7.53476
7.53488
7.53498
7.53506
7.53513
7.53518
7.53522
7.53526
7.53528
7.5353
7.53531
7.53531
5.46641
5.46528
5.46277
5.45825
5.45034
5.43582
5.40637
5.33975
5.19672
5.13093
5.10319
5.09137
5.08736
5.08825
5.0931
5.10204
5.11601
5.13702
5.16905
5.22019
5.30876
5.4813
5.86186
6.66899
7.04972
7.22259
7.3117
7.36361
7.3967
7.41917
7.43513
7.44684
7.45565
7.46239
7.46763
7.47174
7.475
7.4776
7.47968
7.48136
7.48272
7.48383
7.48472
7.48545
7.48605
7.48654
7.48694
7.48726
7.48753
7.48775
7.48793
7.48807
7.48819
7.48829
7.48837
7.48844
7.48849
7.48854
7.48857
7.4886
7.48861
7.48863
7.48864
7.48864
5.3884
5.38752
5.38557
5.38202
5.37575
5.3639
5.33835
5.27202
5.08993
5.02423
4.99998
4.99021
4.98692
4.98752
4.99121
4.99808
5.00884
5.0251
5.05006
5.09043
5.16226
5.31106
5.68754
6.70876
7.08536
7.23442
7.30666
7.34762
7.3734
7.39078
7.40307
7.41207
7.41882
7.42399
7.428
7.43114
7.43363
7.43562
7.43721
7.4385
7.43954
7.44038
7.44106
7.44162
7.44207
7.44245
7.44275
7.443
7.4432
7.44337
7.44351
7.44362
7.44371
7.44378
7.44385
7.4439
7.44394
7.44397
7.444
7.44402
7.44403
7.44404
7.44405
7.44405
5.31388
5.31327
5.31187
5.30935
5.30482
5.29609
5.27609
5.21511
4.97996
4.91943
4.90034
4.89306
4.89063
4.89101
4.8936
4.89842
4.90601
4.91752
4.93527
4.96426
5.01699
5.13291
5.47728
6.79042
7.13487
7.25097
7.30399
7.3334
7.35172
7.36401
7.37268
7.37901
7.38376
7.38739
7.3902
7.39241
7.39415
7.39554
7.39666
7.39756
7.39829
7.39888
7.39936
7.39975
7.40007
7.40033
7.40054
7.40071
7.40086
7.40097
7.40107
7.40115
7.40121
7.40126
7.40131
7.40134
7.40137
7.40139
7.40141
7.40143
7.40144
7.40145
7.40145
7.40145
5.24269
5.24233
5.2415
5.24
5.23729
5.23197
5.21911
5.17148
4.86404
4.81667
4.80435
4.79989
4.79841
4.79862
4.80014
4.80299
4.80747
4.81428
4.82483
4.84216
4.8742
4.94846
5.21635
6.92842
7.19637
7.27073
7.30294
7.32052
7.3314
7.33868
7.3438
7.34753
7.35033
7.35247
7.35413
7.35543
7.35646
7.35728
7.35793
7.35846
7.35889
7.35924
7.35952
7.35975
7.35994
7.36009
7.36021
7.36032
7.3604
7.36047
7.36053
7.36057
7.36061
7.36064
7.36067
7.36069
7.3607
7.36072
7.36073
7.36074
7.36074
7.36075
7.36075
7.36075
5.17467
5.17455
5.17427
5.17378
5.17288
5.1711
5.16661
5.14447
4.73851
4.71645
4.71214
4.71065
4.71015
4.71022
4.71072
4.71166
4.71313
4.71538
4.71886
4.7246
4.7353
4.76115
4.88522
7.14206
7.26615
7.29204
7.3028
7.30861
7.31221
7.3146
7.31629
7.31752
7.31844
7.31914
7.31969
7.32011
7.32045
7.32072
7.32094
7.32111
7.32125
7.32137
7.32146
7.32153
7.3216
7.32165
7.32169
7.32172
7.32175
7.32177
7.32179
7.32181
7.32182
7.32183
7.32184
7.32184
7.32185
7.32185
7.32186
7.32186
7.32186
7.32186
7.32186
7.32186
)
;

boundaryField
{
    left
    {
        type            zeroGradient;
    }
    right
    {
        type            zeroGradient;
    }
    interface
    {
        type            fixedValue;
        value           nonuniform List<scalar> 
64
(
5.14143
5.14143
5.14143
5.14143
5.14143
5.14143
5.14143
5.14143
4.66701
4.66701
4.66701
4.66701
4.66701
4.66701
4.66701
4.66701
4.66701
4.66701
4.66701
4.66701
4.66701
4.66701
4.66701
7.30287
7.30287
7.30287
7.30287
7.30287
7.30287
7.30287
7.30287
7.30287
7.30287
7.30287
7.30287
7.30287
7.30287
7.30287
7.30287
7.30287
7.30287
7.30287
7.30287
7.30287
7.30287
7.30287
7.30287
7.30287
7.30287
7.30287
7.30287
7.30287
7.30287
7.30287
7.30287
7.30287
7.30287
7.30287
7.30287
7.30287
7.30287
7.30287
7.30287
7.30287
)
;
    }
    bottom
    {
        type            fixedValue;
        value           uniform 10;
    }
    defaultFaces
    {
        type            empty;
    }
}


// ************************************************************************* //
