/*--------------------------------*- C++ -*----------------------------------*\
| =========                 |                                                 |
| \\      /  F ield         | OpenFOAM: The Open Source CFD Toolbox           |
|  \\    /   O peration     | Version:  5.x                                   |
|   \\  /    A nd           | Web:      www.OpenFOAM.org                      |
|    \\/     M anipulation  |                                                 |
\*---------------------------------------------------------------------------*/
FoamFile
{
    version     2.0;
    format      ascii;
    class       volScalarField;
    location    "19.7";
    object      gradTy;
}
// * * * * * * * * * * * * * * * * * * * * * * * * * * * * * * * * * * * * * //

dimensions      [0 -1 0 1 0 0 0];

internalField   nonuniform List<scalar> 
6300
(
1001.49
1004.45
1007.41
1010.34
1013.24
1016.1
1018.91
1021.66
1024.34
1026.95
1029.48
1031.91
1034.25
1036.48
1038.61
0.00669502
0.0200834
0.0334623
0.0468176
0.0601228
0.0733317
0.0863704
0.0991298
0.111457
0.123151
0.133959
0.143583
0.151699
0.157978
0.162128
0.0111598
0.0334796
0.0557933
0.0780828
0.10031
0.122407
0.144258
0.165692
0.18646
0.206229
0.22457
0.24097
0.254855
0.26564
0.272795
0.0156263
0.0468823
0.0781454
0.109405
0.140622
0.171719
0.202555
0.23291
0.262452
0.290721
0.317109
0.340859
0.361102
0.376924
0.387477
0.0200879
0.0602765
0.1005
0.140767
0.181052
0.221287
0.26133
0.300934
0.339711
0.37709
0.412279
0.444249
0.471766
0.493478
0.508087
0.0245339
0.0736301
0.122806
0.1721
0.221522
0.271036
0.320528
0.369768
0.418352
0.465633
0.510651
0.552077
0.588217
0.617116
0.636801
0.0289518
0.0869025
0.144992
0.203301
0.261894
0.320797
0.379968
0.439248
0.498285
0.556428
0.612604
0.665182
0.711906
0.749966
0.776339
0.033322
0.100034
0.166951
0.234209
0.301945
0.370278
0.439286
0.508957
0.579095
0.649176
0.71814
0.784132
0.844251
0.894497
0.930156
0.0376225
0.112956
0.18856
0.26463
0.341386
0.419066
0.497924
0.578181
0.659943
0.743022
0.826635
0.908939
0.986456
1.0536
1.1029
0.0418325
0.125601
0.209692
0.294354
0.379885
0.46666
0.555143
0.645881
0.739457
0.836319
0.936421
1.03851
1.13901
1.23054
1.30116
0.0459364
0.137919
0.230245
0.323193
0.417124
0.512529
0.610087
0.710726
0.815665
0.926357
1.04419
1.16967
1.30049
1.42833
1.53468
0.0499283
0.149886
0.250165
0.351036
0.452873
0.556228
0.661931
0.771253
0.886101
1.00923
1.14431
1.29542
1.46491
1.64752
1.81829
0.0538166
0.161527
0.269481
0.377896
0.487088
0.597557
0.710137
0.826236
0.948237
1.08013
1.22835
1.40273
1.61611
1.87844
2.17247
0.0576257
0.172915
0.288325
0.403964
0.520006
0.636757
0.754805
0.875295
1.00046
1.13465
1.2862
1.47098
1.71826
2.07757
2.6064
0.0613943
0.184175
0.306925
0.429613
0.552193
0.674638
0.79701
0.919658
1.04365
1.17176
1.31075
1.47664
1.7083
2.10711
2.97399
1040.46
1042.07
1043.59
1045.05
1046.42
1047.73
1048.96
1050.13
1051.24
1052.29
1053.28
1054.23
1055.14
1056
1056.84
1057.64
1058.42
1059.18
1059.93
1060.66
1061.39
1062.12
1062.85
1063.58
1064.32
1065.06
1065.82
1066.59
1067.38
1068.17
1068.98
1069.8
1070.63
1071.46
1072.3
1073.14
1073.98
1074.81
1075.63
1076.43
1077.21
1077.96
1078.67
1079.34
1079.95
1080.51
1081
1081.4
1081.72
1081.94
1082.06
1082.05
1081.92
1081.64
1081.2
1080.6
1079.8
1078.8
1077.58
1076.11
1074.38
1072.36
1070.02
1067.35
1064.31
1060.86
1056.99
1052.64
1047.79
1042.38
1036.37
1029.72
1022.36
1014.24
1005.31
995.5
984.745
972.978
960.133
946.138
930.926
914.429
896.58
877.321
856.597
834.363
810.585
785.24
758.321
729.834
0.163777
0.163578
0.16168
0.158144
0.153085
0.146662
0.139064
0.130494
0.121155
0.111243
0.100936
0.0903905
0.0797424
0.0691073
0.0585827
0.0482531
0.0381934
0.0284747
0.0191678
0.0103477
0.00209678
-0.00549366
-0.012323
-0.0182832
-0.0232631
-0.027155
-0.0298637
-0.0313156
-0.0314674
-0.0303122
-0.027878
-0.0242211
-0.01941
-0.0135066
-0.00654795
0.00146633
0.0105741
0.0208391
0.0323291
0.0450896
0.0591204
0.0743626
0.0907017
0.107988
0.126073
0.144846
0.164271
0.184409
0.205421
0.227552
0.2511
0.276387
0.303714
0.333339
0.365457
0.400203
0.437671
0.477946
0.521145
0.567447
0.617116
0.670511
0.728076
0.790314
0.857755
0.930921
1.01029
1.09626
1.18913
1.28909
1.3962
1.51042
1.63159
1.75941
1.89345
2.03304
2.17728
2.32492
2.47428
2.62321
2.76901
2.90844
3.03778
3.15292
3.24955
3.32344
3.37073
3.3883
3.37405
3.3272
0.275656
0.27533
0.272073
0.265996
0.25731
0.246303
0.233314
0.218704
0.202829
0.186025
0.168595
0.150802
0.132872
0.11499
0.0973147
0.0799784
0.0630992
0.0467879
0.0311564
0.0163249
0.0024276
-0.0103836
-0.021938
-0.0320488
-0.0405199
-0.0471583
-0.0517898
-0.0542781
-0.0545427
-0.0525726
-0.0484273
-0.042224
-0.0341076
-0.0242109
-0.0126136
0.000683372
0.015762
0.0327631
0.0518414
0.0731096
0.0965876
0.122172
0.14964
0.178688
0.209002
0.240345
0.272622
0.30593
0.34056
0.376965
0.415703
0.457365
0.5025
0.551562
0.604874
0.66263
0.724936
0.791875
0.863585
0.940328
1.02254
1.11082
1.20596
1.30884
1.42041
1.54159
1.67323
1.81604
1.97053
2.13701
2.31561
2.50624
2.70866
2.92241
3.14683
3.38095
3.62336
3.87211
4.1245
4.37702
4.62519
4.86355
5.08568
5.28444
5.45225
5.58153
5.66534
5.69795
5.6755
5.59646
0.391728
0.391275
0.386498
0.377575
0.364845
0.348767
0.329869
0.308704
0.285808
0.261676
0.236743
0.211381
0.185898
0.160544
0.135526
0.111014
0.0871558
0.064091
0.0419622
0.0209262
0.00116379
-0.017114
-0.0336624
-0.0482057
-0.0604463
-0.0700821
-0.076833
-0.0804734
-0.0808673
-0.0779967
-0.071972
-0.0630139
-0.0514019
-0.037397
-0.0211609
-0.00269966
0.0181462
0.0416599
0.0681631
0.0979091
0.130982
0.16723
0.206262
0.24752
0.290408
0.334453
0.379443
0.425502
0.473096
0.522971
0.576048
0.63329
0.69558
0.763613
0.837836
0.918449
1.00547
1.09888
1.19872
1.30528
1.41914
1.5412
1.67263
1.8148
1.96916
2.13714
2.32004
2.51893
2.73458
2.96743
3.21762
3.48503
3.76932
4.06997
4.38619
4.71685
5.06026
5.41396
5.77446
6.13703
6.49544
6.84193
7.16716
7.46047
7.71034
7.90504
8.03359
8.0868
8.05834
7.94563
0.514033
0.513467
0.506917
0.494663
0.477232
0.455322
0.429722
0.401229
0.370602
0.338514
0.305545
0.272171
0.238774
0.205655
0.173051
0.14115
0.110113
0.0800907
0.05124
0.0237408
-0.00218946
-0.0262848
-0.0482232
-0.0676266
-0.0840702
-0.0971058
-0.1063
-0.111287
-0.111835
-0.107904
-0.0996815
-0.0875654
-0.0720811
-0.0537343
-0.0328495
-0.00945278
0.0167535
0.0463172
0.0798809
0.117985
0.16087
0.208344
0.259747
0.314073
0.370216
0.427271
0.484795
0.542934
0.602418
0.664439
0.730465
0.802018
0.880463
0.966822
1.06167
1.16511
1.2769
1.39668
1.52425
1.6598
1.80402
1.95817
2.12392
2.30327
2.49836
2.71127
2.9439
3.19777
3.47393
3.77294
4.09489
4.43956
4.8065
5.19516
5.60483
6.03445
6.4824
6.94607
7.42151
7.90306
8.38292
8.85097
9.29463
9.6991
10.0479
10.3238
10.5104
10.5933
10.5625
10.4138
0.644928
0.644269
0.635546
0.619207
0.596074
0.567205
0.533753
0.496848
0.457516
0.416642
0.37495
0.333013
0.29127
0.250046
0.209583
0.170064
0.131633
0.0944284
0.0585977
0.0243234
-0.008157
-0.0385328
-0.0664048
-0.0912789
-0.11257
-0.12963
-0.141792
-0.148461
-0.149221
-0.143959
-0.132963
-0.116933
-0.0968475
-0.0736914
-0.0481196
-0.0202157
0.0105632
0.0452517
0.0850991
0.131212
0.18419
0.243836
0.309058
0.378048
0.448747
0.519452
0.589299
0.658468
0.728126
0.800183
0.876966
0.960865
1.05399
1.15785
1.27317
1.39978
1.53686
1.68331
1.83834
2.00185
2.17466
2.35846
2.55566
2.76913
3.00193
3.25706
3.53721
3.84453
4.18041
4.54544
4.93951
5.36206
5.81244
6.29014
6.79475
7.32571
7.88193
8.46124
9.05981
9.67154
10.2874
10.8951
11.4785
12.0179
12.4904
12.8714
13.1364
13.2635
13.2366
13.0486
0.787425
0.786705
0.77517
0.753568
0.723218
0.685741
0.642819
0.596027
0.546724
0.496021
0.444784
0.393656
0.343096
0.293422
0.244841
0.197492
0.151474
0.106875
0.063803
0.0224135
-0.0170632
-0.0542923
-0.0888084
-0.119993
-0.147067
-0.169105
-0.185093
-0.194042
-0.195174
-0.188166
-0.17339
-0.152034
-0.125929
-0.097019
-0.0666385
-0.0350079
-0.00114445
0.0368728
0.0814124
0.134674
0.198027
0.27142
0.353067
0.439684
0.527391
0.612992
0.694904
0.773428
0.850513
0.929257
1.01336
1.10657
1.21218
1.33253
1.46853
1.61952
1.78345
1.95774
2.14036
2.33066
2.52961
2.73961
2.96414
3.2073
3.47348
3.76696
4.09157
4.45032
4.84507
5.27629
5.74325
6.24461
6.77919
7.34653
7.94686
8.58073
9.24835
9.94882
10.6793
11.4341
12.2039
12.9744
13.726
14.4331
15.0649
15.5863
15.961
16.1553
16.143
15.9111
0.945481
0.944729
0.929307
0.90055
0.860655
0.812155
0.757512
0.698883
0.638017
0.576247
0.514541
0.453561
0.393734
0.33531
0.278415
0.223097
0.169364
0.117217
0.066683
0.0178481
-0.0291047
-0.073856
-0.115905
-0.154521
-0.188708
-0.217185
-0.23842
-0.250767
-0.252735
-0.243443
-0.223178
-0.193857
-0.158931
-0.122348
-0.0868401
-0.0528971
-0.0187143
0.0192238
0.0652915
0.123733
0.197537
0.287247
0.390052
0.499881
0.609199
0.711978
0.805518
0.890593
0.970645
1.05076
1.13678
1.23456
1.34932
1.48482
1.64248
1.82077
2.01528
2.22032
2.43148
2.64718
2.86879
3.09999
3.34593
3.6125
3.9059
4.2322
4.59692
5.00445
5.45737
5.95582
6.49763
7.07948
7.69893
8.35555
9.05082
9.78731
10.5676
11.3933
12.2639
13.1754
14.1194
15.0811
16.0376
16.9571
17.7983
18.5123
19.0456
19.3448
19.3658
19.084
1.12468
1.12387
1.10263
1.06355
1.01045
0.947382
0.877921
0.804949
0.730605
0.656383
0.583259
0.511819
0.442368
0.375013
0.309737
0.246442
0.184996
0.125264
0.0671445
0.0106033
-0.0442835
-0.0972765
-0.147906
-0.195388
-0.238532
-0.275648
-0.304502
-0.32239
-0.326465
-0.314472
-0.285959
-0.243702
-0.194273
-0.14608
-0.104743
-0.0710886
-0.0416516
-0.0100922
0.0313949
0.0907148
0.17419
0.284266
0.416967
0.56086
0.700462
0.824304
0.928352
1.01502
1.09071
1.16379
1.24328
1.33815
1.45665
1.60521
1.78678
1.99871
2.23198
2.47413
2.7161
2.95519
3.19417
3.43918
3.69802
3.9791
4.29098
4.64215
5.04064
5.49326
6.00412
6.57295
7.19436
7.86022
8.56516
9.30893
10.0954
10.9308
11.8215
12.7733
13.7894
14.8699
16.0096
17.1952
18.4026
19.5936
20.7147
21.6988
22.4671
22.935
23.0245
22.6861
1.33349
1.33236
1.30159
1.24663
1.1745
1.09166
1.00322
0.912825
0.822858
0.734786
0.649407
0.567073
0.487843
0.41159
0.338074
0.266996
0.198032
0.130865
0.0652127
0.000858094
-0.0623051
-0.124214
-0.184549
-0.24261
-0.297141
-0.346112
-0.386476
-0.414003
-0.423434
-0.409386
-0.368632
-0.303978
-0.227942
-0.160046
-0.111695
-0.0833204
-0.067768
-0.0538346
-0.0283147
0.022778
0.112403
0.248568
0.427624
0.627866
0.814265
0.964973
1.07605
1.15505
1.21434
1.26738
1.32744
1.40752
1.52046
1.67789
1.88715
2.1457
2.43569
2.72797
3.00465
3.26315
3.51061
3.7582
4.01783
4.30108
4.61922
4.98367
5.40617
5.89795
6.46713
7.11407
7.82682
8.58437
9.37521
10.2005
11.0693
11.9941
12.9873
14.0601
15.2218
16.4789
17.8331
19.2775
20.7909
22.3305
23.8281
25.1954
26.3209
27.0696
27.2988
26.8996
1.58617
1.58343
1.53525
1.45434
1.35383
1.24385
1.13117
1.01988
0.912173
0.809096
0.710957
0.61765
0.52883
0.444026
0.362705
0.284313
0.208292
0.1341
0.0612279
-0.0107837
-0.0823108
-0.153593
-0.22464
-0.295084
-0.363923
-0.429135
-0.487094
-0.531834
-0.554372
-0.542919
-0.485881
-0.380811
-0.250062
-0.146045
-0.0900585
-0.0772611
-0.091729
-0.114447
-0.125044
-0.100848
-0.016609
0.15089
0.407547
0.714566
0.979212
1.16246
1.26969
1.3232
1.3467
1.36059
1.38245
1.42929
1.51993
1.67562
1.91622
2.24711
2.63579
3.00392
3.31906
3.58666
3.82652
4.05951
4.30327
4.57245
4.88039
5.24123
5.67155
6.19077
6.81777
7.56004
8.39434
9.26018
10.1352
11.0288
11.9623
12.9586
14.0379
15.2184
16.5165
17.9477
19.5262
21.2599
23.1409
25.1271
27.1287
29.0397
30.7165
31.9518
32.4774
32.0326
1.91006
1.8998
1.81592
1.69026
1.54684
1.40003
1.25728
1.1219
0.994983
0.876453
0.765712
0.661929
0.564199
0.471615
0.383295
0.298394
0.216097
0.135619
0.0561914
-0.0229324
-0.102476
-0.183111
-0.2654
-0.349664
-0.435722
-0.52239
-0.606536
-0.68142
-0.734042
-0.741877
-0.672088
-0.494414
-0.233488
-0.0626845
-0.00603512
-0.0317257
-0.103574
-0.192263
-0.271623
-0.310685
-0.26527
-0.0749404
0.315171
0.862499
1.26157
1.4696
1.54093
1.53483
1.49318
1.44264
1.40176
1.38829
1.42601
1.55136
1.81556
2.26558
2.86573
3.35642
3.70217
3.95038
4.15266
4.34563
4.55244
4.78831
5.06573
5.39905
5.80924
6.32872
7.00275
7.87378
8.91674
9.923
10.8689
11.7998
12.7653
13.8036
14.9433
16.2077
17.6196
19.2049
20.9959
23.0305
25.3396
27.9019
30.5601
33.2216
35.7478
37.8565
39.0536
38.6754
2.36882
2.32212
2.15677
1.95169
1.74467
1.55032
1.37273
1.21174
1.06571
0.932598
0.810455
0.697504
0.592175
0.493082
0.398985
0.308751
0.221316
0.135658
0.0507564
-0.0344351
-0.121022
-0.210199
-0.303263
-0.401602
-0.506582
-0.619211
-0.739248
-0.862993
-0.978133
-1.05254
-1.01358
-0.727835
-0.0870705
0.185125
0.196622
0.0803285
-0.0911162
-0.283454
-0.476161
-0.642097
-0.722538
-0.588393
-0.0035396
1.22398
1.81907
1.97365
1.92368
1.79766
1.65252
1.51078
1.38169
1.27364
1.20594
1.22724
1.44736
2.06793
3.25334
3.91767
4.22578
4.38024
4.4922
4.61185
4.7598
4.94439
5.17061
5.44624
5.78962
6.24413
6.9041
7.93995
9.49203
10.6727
11.6243
12.521
13.4632
14.5028
15.6691
16.9846
18.4729
20.166
22.1149
24.4056
27.1739
30.5383
33.9866
37.5981
41.3805
45.0737
47.898
48.1891
3.15193
2.91532
2.55475
2.21587
1.92416
1.67635
1.46414
1.27992
1.11768
0.97282
0.841836
0.721979
0.611052
0.507242
0.409004
0.314968
0.223875
0.134509
0.0456442
-0.044019
-0.135928
-0.231772
-0.333611
-0.444052
-0.566496
-0.705432
-0.866682
-1.05701
-1.28093
-1.52652
-1.71048
-1.47254
0.590021
0.808253
0.583221
0.27172
-0.0486571
-0.374198
-0.719327
-1.0967
-1.48888
-1.75094
-1.24777
2.49603
3.01075
2.7721
2.41582
2.08784
1.80678
1.56057
1.33113
1.10074
0.857568
0.616702
0.50235
1.05676
4.39111
4.99169
4.97043
4.87112
4.82044
4.83709
4.91417
5.04029
5.20414
5.39565
5.60974
5.86349
6.26396
7.26251
10.6019
11.7521
12.4583
13.1763
14.0207
15.0189
16.1799
17.5125
19.0308
20.7584
22.7414
25.0925
28.1493
33.0536
37.1779
41.7279
47.1412
53.5415
60.3897
64.5974
4.98971
3.68689
2.92138
2.41203
2.04043
1.75111
1.51527
1.31648
1.14465
0.993118
0.857249
0.733655
0.619744
0.513448
0.413042
0.317026
0.224026
0.132722
0.0417696
-0.0502771
-0.145071
-0.244612
-0.351465
-0.46911
-0.602546
-0.759401
-0.952115
-1.20253
-1.55237
-2.08907
-3.01476
-4.84453
3.92301
2.06974
1.09441
0.475987
0.00135483
-0.436598
-0.915921
-1.52979
-2.44241
-4.0152
-7.15831
8.41799
5.28729
3.73997
2.86725
2.31054
1.91099
1.58633
1.2821
0.946385
0.506042
-0.175831
-1.40547
-3.95734
9.46556
6.96119
5.82751
5.29203
5.05185
4.9754
4.99805
5.082
5.19796
5.31271
5.37292
5.27176
4.76278
3.21443
14.8642
13.4711
13.2751
13.6499
14.3569
15.3007
16.4437
17.7732
19.2873
20.9829
22.838
24.7636
26.4642
36.692
39.7562
44.6144
51.4807
61.3642
76.6836
103.322
696.797
658.588
618.304
576.061
531.998
486.267
439.029
390.452
340.704
289.952
238.359
186.086
133.289
80.1213
26.7317
3.24045
3.10278
2.92785
2.72295
2.496
2.25464
2.00559
1.75426
1.50462
1.25922
1.01939
0.785403
0.556732
0.332255
0.110447
5.44844
5.21263
4.91299
4.56274
4.17602
3.76631
3.34522
2.92194
2.50302
2.09256
1.69252
1.30312
0.923238
0.550797
0.183063
7.73072
7.38629
6.9487
6.43895
5.87902
5.28932
4.68702
4.08521
3.49292
2.91545
2.35499
1.8113
1.2823
0.764628
0.254069
10.123
9.65308
9.05658
8.36533
7.61175
6.82492
6.02828
5.23895
4.46799
3.7213
3.00067
2.30477
1.63002
0.971341
0.322651
12.6679
12.0465
11.2592
10.354
9.37773
8.37029
7.36221
6.37427
5.41874
4.50107
3.62161
2.77707
1.96167
1.16805
0.387843
15.4189
14.6057
13.5798
12.4139
11.1749
9.91634
8.676
7.47715
6.33159
5.24259
4.20759
3.22019
2.27154
1.35135
0.448508
18.4463
17.3777
16.0406
14.5468
12.9916
11.4443
9.94831
8.52676
7.18784
5.93007
4.74595
3.62453
2.55291
1.51728
0.503344
21.8463
20.4183
18.6579
16.741
14.8005
12.9208
11.1463
9.49377
7.96295
6.54386
5.22159
3.97902
2.79829
1.6615
0.550928
25.7578
23.7909
21.4317
18.9584
16.5485
14.2921
12.2223
10.3391
8.62633
7.06081
5.6175
4.27165
2.99972
1.77948
0.589792
30.3903
27.5552
24.3192
21.1122
18.1424
15.4768
13.1116
11.0141
9.14244
7.45556
5.91593
4.49033
3.14943
1.8669
0.618547
36.0664
31.7207
27.1778
23.029
19.4319
16.3606
13.7333
11.4631
9.47379
7.70305
6.10029
4.6243
3.24075
1.92012
0.63604
43.242
36.0834
29.6423
24.3942
20.1956
16.8004
13.9979
11.631
9.58658
7.78252
6.15785
4.66582
3.26914
1.93676
0.641535
52.1787
39.7283
30.9131
24.7099
20.1558
16.6474
13.8267
11.4764
9.459
7.68258
6.08276
4.61195
3.2332
1.91623
0.634867
60.0181
39.7378
29.5718
23.3764
19.07
15.8066
13.1849
10.989
9.09039
7.40603
5.87861
4.466
3.13546
1.86009
0.616562
0.0648508
0.194506
0.324003
0.453175
0.581757
0.709343
0.835351
0.959013
1.07947
1.19618
1.30997
1.42587
1.55994
1.75588
2.12529
0.0680245
0.204006
0.339756
0.475015
0.609349
0.742035
0.871898
0.997064
1.1146
1.22001
1.30642
1.363
1.36935
1.27
0.852159
0.0712425
0.21366
0.355837
0.497482
0.638068
0.776671
0.911691
1.0404
1.15813
1.25698
1.32354
1.33501
1.25215
1.00518
0.472451
0.0745045
0.223472
0.372276
0.520667
0.668147
0.813779
0.955856
1.09133
1.21474
1.31634
1.37887
1.37254
1.24887
0.938776
0.378947
0.0777926
0.23339
0.388988
0.544468
0.699492
0.853337
1.0046
1.15062
1.28645
1.40276
1.48197
1.49161
1.37492
1.04581
0.422974
0.0810699
0.243298
0.40577
0.568567
0.731635
0.894673
1.05696
1.21698
1.37169
1.51486
1.63331
1.69846
1.64839
1.35682
0.621924
0.0842829
0.253029
0.422311
0.59246
0.763775
0.93651
1.11087
1.28701
1.46492
1.64408
1.82159
1.98532
2.08949
1.97566
1.1743
0.0873673
0.26238
0.438234
0.615522
0.794904
0.977193
1.16353
1.35578
1.55727
1.77439
2.01934
2.31352
2.68191
3.07188
2.80112
0.0902555
0.271136
0.453146
0.637109
0.82399
1.01503
1.21207
1.41811
1.63875
1.88534
2.18282
2.59014
3.25926
4.62686
8.1303
0.0928838
0.2791
0.466688
0.65665
0.850157
1.04869
1.25432
1.47027
1.70216
1.96092
2.26997
2.68486
3.35149
4.69852
8.1586
0.0951975
0.286103
0.478565
0.67371
0.87281
1.07739
1.28936
1.51132
1.74689
2.00152
2.28353
2.6047
2.97115
3.30263
2.89526
0.0971534
0.292016
0.488566
0.688002
0.891634
1.10092
1.31745
1.54287
1.77835
2.02306
2.26985
2.49302
2.61503
2.41973
1.37012
0.0987205
0.296747
0.496547
0.699362
0.906509
1.11938
1.33934
1.56741
1.80334
2.04311
2.27251
2.45153
2.47917
2.13005
1.019
0.0998781
0.300237
0.502419
0.707692
0.917386
1.13289
1.35555
1.58645
1.82563
2.07029
2.31009
2.51516
2.60485
2.36943
1.31157
0.100614
0.302451
0.50613
0.712931
0.924205
1.14139
1.36603
1.5997
1.84405
2.10076
2.37172
2.65886
2.9562
3.1799
2.69111
0.100924
0.303376
0.507657
0.715042
0.926891
1.1447
1.37019
1.60552
1.85386
2.12127
2.42202
2.79541
3.35862
4.48506
7.46881
0.100811
0.303021
0.507012
0.71403
0.925411
1.14265
1.3675
1.60225
1.85041
2.11856
2.4218
2.80007
3.36982
4.50031
7.47779
0.100286
0.301419
0.504251
0.709967
0.919839
1.13527
1.35789
1.58964
1.83303
2.09143
2.36941
2.67168
2.99153
3.23279
2.7262
0.0993679
0.298627
0.49947
0.702997
0.910377
1.12288
1.3419
1.56892
1.80519
2.05065
2.30008
2.531
2.66772
2.48453
1.40911
0.0980832
0.294726
0.492811
0.69333
0.897331
1.10593
1.32033
1.54172
1.77092
2.00707
2.24355
2.45569
2.566
2.35584
1.30225
0.0964641
0.289816
0.484444
0.681223
0.881063
1.08493
1.29388
1.50907
1.73177
1.96319
2.20386
2.45105
2.68671
2.81281
2.27238
0.0945478
0.284009
0.47457
0.666971
0.861973
1.06037
1.26306
1.47118
1.68652
1.91281
2.15957
2.45438
2.88343
3.73256
6.02324
0.0923745
0.27743
0.463401
0.650893
0.840497
1.03281
1.22845
1.42824
1.63363
1.84816
2.08181
2.36444
2.78834
3.65115
5.98756
0.0899854
0.270205
0.451163
0.633327
0.817118
1.0029
1.19093
1.38138
1.57436
1.77018
1.96996
2.17634
2.38838
2.54628
2.1476
0.0874207
0.262458
0.438074
0.61461
0.792336
0.971394
1.1517
1.33273
1.51309
1.68941
1.85346
1.98425
2.02595
1.82785
1.01348
0.0847166
0.254302
0.424331
0.595047
0.766605
0.939
1.11193
1.28451
1.45459
1.61712
1.76
1.85401
1.82998
1.53736
0.721428
0.0819039
0.24583
0.410097
0.574881
0.740271
0.906208
1.07238
1.23799
1.4013
1.55843
1.70043
1.8057
1.82046
1.61024
0.864714
0.0790064
0.237113
0.395491
0.554276
0.713534
0.873231
1.03319
1.19305
1.35227
1.5102
1.6663
1.82022
1.96711
2.05481
1.69124
0.0760406
0.228201
0.38059
0.533324
0.686473
0.840049
0.994035
1.14852
1.3041
1.46318
1.63362
1.83958
2.1548
2.81271
4.6142
0.073017
0.219123
0.365436
0.512067
0.659093
0.806558
0.954516
1.1032
1.25348
1.40824
1.57622
1.78301
2.10446
2.7764
4.60053
0.0699411
0.209893
0.350048
0.49052
0.631389
0.7727
0.914472
1.05674
1.19971
1.34409
1.49181
1.64675
1.81069
1.93985
1.647
0.0668144
0.200516
0.33443
0.46868
0.603357
0.7385
0.874056
1.00977
1.14494
1.27758
1.40234
1.5042
1.54102
1.39631
0.777551
0.0636348
0.190984
0.318568
0.446529
0.574983
0.703993
0.833503
0.963168
1.09188
1.21652
1.32872
1.40679
1.39735
1.18194
0.558319
0.0603977
0.181282
0.302433
0.424021
0.546205
0.669117
0.792821
0.917197
1.04162
1.16406
1.27877
1.37015
1.39665
1.25101
0.681449
0.0570966
0.17139
0.285984
0.401085
0.516904
0.633672
0.751653
0.871176
0.992695
1.11691
1.24499
1.37852
1.51545
1.61444
1.35549
0.0537239
0.161282
0.269174
0.377636
0.486928
0.597366
0.709395
0.82375
0.941878
1.06704
1.20735
1.38451
1.66053
2.22639
3.73229
0.0502725
0.150936
0.25196
0.353598
0.456139
0.559938
0.665502
0.773684
0.886155
1.00663
1.14409
1.32181
1.60429
2.18546
3.71679
0.046737
0.140335
0.234309
0.328921
0.424461
0.521267
0.619774
0.72062
0.824854
0.934386
1.05281
1.18633
1.34059
1.48464
1.30511
0.0431137
0.129468
0.216205
0.303588
0.39189
0.481397
0.572404
0.665184
0.759853
0.855942
0.951023
1.0364
1.08394
1.00846
0.58137
0.0394005
0.11833
0.197646
0.277606
0.358467
0.440469
0.523787
0.608417
0.693842
0.778173
0.85595
0.912713
0.912686
0.776452
0.368476
0.0355966
0.106919
0.17863
0.250988
0.324241
0.398611
0.474244
0.551081
0.628566
0.704922
0.775442
0.828456
0.835972
0.733129
0.384027
0.0317012
0.0952342
0.159159
0.223738
0.289226
0.355865
0.423849
0.49328
0.564054
0.635692
0.707053
0.77578
0.835857
0.860795
0.690502
0.0277137
0.0832728
0.139228
0.195847
0.253402
0.31217
0.372439
0.434533
0.498926
0.566628
0.640456
0.729089
0.86011
1.12401
1.83773
0.0236335
0.0710324
0.118829
0.167298
0.216725
0.267422
0.319749
0.374179
0.431488
0.493289
0.563546
0.652936
0.792059
1.0748
1.81924
0.0194606
0.0585121
0.0979583
0.138074
0.179156
0.221532
0.265587
0.311814
0.360918
0.414062
0.473321
0.54222
0.624246
0.70493
0.630712
0.0151962
0.0457147
0.0766167
0.108173
0.140679
0.174465
0.209907
0.247438
0.28753
0.330573
0.376381
0.422363
0.457339
0.4426
0.266606
0.010843
0.0326482
0.054816
0.0776064
0.101306
0.126238
0.152766
0.181274
0.212079
0.245148
0.279304
0.310138
0.324931
0.292239
0.150557
0.00640635
0.0193272
0.0325789
0.0464024
0.0610697
0.0768953
0.094242
0.113506
0.135043
0.15895
0.184518
0.209047
0.22547
0.217551
0.145216
0.00189375
0.00577437
0.00994118
0.0146077
0.0200232
0.0264896
0.0343796
0.0441517
0.0563515
0.0715798
0.0904325
0.113576
0.14289
0.18758
0.291317
-0.00268417
-0.0079791
-0.0130467
-0.0177113
-0.021758
-0.0249101
-0.026795
-0.0268932
-0.0244506
-0.0183208
-0.00665335
0.0138104
0.0496136
0.116585
0.263219
-0.00731363
-0.021892
-0.0363169
-0.0504627
-0.0641648
-0.077194
-0.0892145
-0.0997063
-0.107817
-0.112076
-0.109863
-0.0966192
-0.0653202
-0.00975403
0.0516887
-0.0119775
-0.0359127
-0.059783
-0.0835249
-0.107042
-0.130182
-0.152699
-0.174176
-0.193863
-0.210329
-0.220744
-0.219596
-0.197116
-0.140187
-0.0453943
-0.0166553
-0.0499793
-0.0833394
-0.116745
-0.150183
-0.183605
-0.216908
-0.24989
-0.282147
-0.312787
-0.339658
-0.357387
-0.352844
-0.296917
-0.139701
-0.0213239
-0.0640213
-0.106865
-0.149944
-0.193337
-0.237113
-0.28134
-0.326108
-0.371558
-0.417867
-0.464924
-0.510639
-0.544261
-0.523987
-0.318859
-0.025958
-0.0779618
-0.130227
-0.182925
-0.236225
-0.290307
-0.345397
-0.401853
-0.460371
-0.522429
-0.591123
-0.672285
-0.773106
-0.879426
-0.798425
-0.0305312
-0.0917203
-0.153289
-0.215487
-0.278569
-0.342801
-0.408503
-0.476163
-0.546725
-0.622381
-0.708666
-0.820272
-0.998128
-1.36494
-2.33066
-0.0350162
-0.105215
-0.175911
-0.247435
-0.320113
-0.39427
-0.470247
-0.548452
-0.629536
-0.714946
-0.808621
-0.922245
-1.09192
-1.43454
-2.35734
-0.0393854
-0.118363
-0.197958
-0.27858
-0.360627
-0.444473
-0.530441
-0.618738
-0.709338
-0.801764
-0.894716
-0.985282
-1.06561
-1.10123
-0.885722
-0.0436108
-0.13108
-0.21929
-0.308733
-0.399887
-0.493199
-0.589012
-0.687418
-0.787863
-0.888207
-0.982459
-1.05542
-1.07033
-0.942297
-0.494609
-0.0476639
-0.14328
-0.239763
-0.337692
-0.437646
-0.540181
-0.645777
-0.754676
-0.866451
-0.978871
-1.08498
-1.16585
-1.1743
-1.00534
-0.479552
-0.051516
-0.154877
-0.259229
-0.365242
-0.473607
-0.585032
-0.700242
-0.819928
-0.94458
-1.07391
-1.205
-1.32658
-1.40144
-1.31616
-0.765406
-0.0551389
-0.165784
-0.277536
-0.391154
-0.507436
-0.627249
-0.75159
-0.881723
-1.01945
-1.1677
-1.33161
-1.51974
-1.73977
-1.95022
-1.73184
-0.0585061
-0.175919
-0.294543
-0.415211
-0.538807
-0.666311
-0.798909
-0.938235
-1.087
-1.2506
-1.44139
-1.69072
-2.08471
-2.88205
-4.95193
-0.0615939
-0.185212
-0.310126
-0.437229
-0.567455
-0.701828
-0.841544
-0.988182
-1.14424
-1.31459
-1.51049
-1.7612
-2.14953
-2.93014
-4.97036
-0.064382
-0.1936
-0.324186
-0.45707
-0.593215
-0.733625
-0.879362
-1.03157
-1.19154
-1.36083
-1.54151
-1.7361
-1.9419
-2.10345
-1.79213
-0.0668539
-0.201035
-0.336643
-0.47464
-0.616005
-0.761712
-0.912673
-1.06956
-1.23236
-1.39912
-1.56285
-1.70318
-1.76496
-1.6051
-0.886763
-0.0689957
-0.207477
-0.347434
-0.489864
-0.63577
-0.78614
-0.941855
-1.10344
-1.2704
-1.43951
-1.60041
-1.72478
-1.74191
-1.49458
-0.714144
-0.0707957
-0.212891
-0.356504
-0.502664
-0.652425
-0.806846
-0.966949
-1.13356
-1.30693
-1.48557
-1.66331
-1.82085
-1.90247
-1.75424
-0.991415
-0.0722447
-0.217247
-0.363797
-0.512956
-0.665832
-0.823595
-0.987509
-1.15899
-1.33977
-1.53224
-1.74022
-1.96961
-2.22263
-2.44066
-2.1159
-0.0733361
-0.220524
-0.369271
-0.520659
-0.675835
-0.83606
-1.0028
-1.17795
-1.36447
-1.5681
-1.80222
-2.10193
-2.56704
-3.50399
-5.95358
-0.074068
-0.222714
-0.372905
-0.525721
-0.68232
-0.843988
-1.01223
-1.189
-1.37728
-1.58277
-1.81862
-2.11937
-2.58376
-3.51684
-5.95862
-0.0744441
-0.223827
-0.37471
-0.528147
-0.685273
-0.847336
-1.01573
-1.19204
-1.37813
-1.57634
-1.78992
-2.02314
-2.27495
-2.48193
-2.1326
-0.0744753
-0.223894
-0.374734
-0.528002
-0.684786
-0.846273
-1.01372
-1.18827
-1.37054
-1.55921
-1.74754
-1.91397
-1.99724
-1.83329
-1.02591
-0.0741801
-0.222969
-0.373064
-0.525404
-0.681021
-0.841062
-1.00674
-1.17914
-1.35848
-1.54228
-1.72035
-1.86254
-1.89116
-1.63146
-0.783385
-0.0735857
-0.221133
-0.369829
-0.52052
-0.674171
-0.83192
-0.995096
-1.16515
-1.34331
-1.52932
-1.71805
-1.88994
-1.98528
-1.8382
-1.03994
-0.072729
-0.218493
-0.365202
-0.51357
-0.664464
-0.818994
-0.978654
-1.14554
-1.32265
-1.51442
-1.72741
-1.97049
-2.24769
-2.49713
-2.1865
-0.071658
-0.215194
-0.359413
-0.504856
-0.65222
-0.802491
-0.957183
-1.1188
-1.2918
-1.48476
-1.71583
-2.0273
-2.52934
-3.54494
-6.15412
-0.0704327
-0.211416
-0.352767
-0.494798
-0.637945
-0.782904
-0.930887
-1.08414
-1.24705
-1.42862
-1.64838
-1.95175
-2.45432
-3.48603
-6.13076
-0.0691243
-0.207376
-0.345642
-0.483953
-0.622397
-0.761202
-0.900916
-1.04276
-1.18934
-1.34594
-1.52282
-1.73782
-2.01182
-2.30691
-2.10863
-0.0678119
-0.203322
-0.338478
-0.473005
-0.606585
-0.738854
-0.869447
-0.998077
-1.12464
-1.24915
-1.37076
-1.48289
-1.55462
-1.47038
-0.877424
-0.0665771
-0.199508
-0.331741
-0.462705
-0.591668
-0.717652
-0.839324
-0.954812
-1.06134
-1.15435
-1.22528
-1.25598
-1.20571
-0.987109
-0.453072
-0.0654952
-0.196175
-0.325876
-0.453782
-0.578805
-0.699429
-0.813478
-0.91775
-1.0074
-1.07484
-1.1077
-1.08531
-0.973653
-0.722878
-0.287118
-0.0646269
-0.193516
-0.32125
-0.446848
-0.568981
-0.685755
-0.794403
-0.890822
-0.968867
-1.01932
-1.02846
-0.97663
-0.838176
-0.587094
-0.217322
-0.0640101
-0.191653
-0.318096
-0.442306
-0.562861
-0.677705
-0.783803
-0.876635
-0.949476
-0.992452
-0.991528
-0.928088
-0.780892
-0.533721
-0.192571
-0.0636535
-0.190616
-0.316482
-0.440289
-0.560689
-0.675709
-0.782396
-0.876312
-0.950807
-0.996054
-0.997982
-0.937693
-0.793015
-0.545596
-0.198365
-0.0635333
-0.190335
-0.316287
-0.440621
-0.562236
-0.679479
-0.789836
-0.889457
-0.972432
-1.02972
-1.04762
-1.00588
-0.876463
-0.626767
-0.238526
-0.0635946
-0.190638
-0.317203
-0.442826
-0.566798
-0.68801
-0.804712
-0.91414
-1.01188
-1.09072
-1.13865
-1.13493
-1.04341
-0.804127
-0.340349
-0.0637544
-0.191265
-0.318762
-0.446161
-0.573258
-0.69965
-0.824618
-0.946924
-1.06442
-1.17318
-1.26552
-1.3249
-1.31293
-1.13736
-0.59279
-0.0639101
-0.191895
-0.320376
-0.449689
-0.580187
-0.712256
-0.846349
-0.98303
-1.123
-1.26701
-1.41523
-1.56438
-1.696
-1.72682
-1.29032
-0.0639487
-0.192172
-0.321397
-0.452374
-0.586001
-0.723433
-0.866263
-1.01683
-1.17877
-1.35791
-1.56425
-1.81595
-2.14894
-2.64088
-3.47676
42.4114
31.5751
25.0426
20.5621
17.1906
14.4912
12.2354
10.2902
8.57085
7.01954
5.59422
4.26271
2.99915
1.78168
0.59097
15.49
20.1652
19.1909
17.1065
14.9496
12.9475
11.1301
9.47944
7.96841
6.57076
5.2632
4.02546
2.83966
1.68977
0.56094
6.83572
12.6785
14.1101
13.7012
12.601
11.2756
9.90901
8.57171
7.28721
6.05938
4.88369
3.75211
2.65523
1.58321
0.526082
3.618
8.25506
10.3073
10.7758
10.4089
9.63216
8.66756
7.62727
6.56665
5.51179
4.47353
3.45464
2.45353
1.4663
0.487777
2.20511
5.62661
7.60441
8.43053
8.50135
8.11915
7.47865
6.69693
5.84205
4.95264
4.04991
3.1448
2.24219
1.34332
0.44741
1.4788
4.00072
5.70124
6.60971
6.90837
6.78548
6.38779
5.81739
5.14143
4.40272
3.62791
2.83323
2.02823
1.21829
0.406282
1.05506
2.94521
4.34808
5.21233
5.60812
5.64263
5.41684
5.01112
4.48437
3.87785
3.2197
2.52881
1.81769
1.0947
0.365536
0.784059
2.22809
3.36893
4.14026
4.55874
4.68051
4.57083
4.28889
3.88269
3.38881
2.83422
2.23841
1.6154
0.975389
0.32611
0.599224
1.72152
2.64636
3.31321
3.71539
3.87912
3.84443
3.65295
3.34187
2.94192
2.47735
1.96689
1.4249
0.862512
0.288726
0.467272
1.35205
2.10296
2.66996
3.03762
3.2155
3.2269
3.10004
2.86276
2.53989
2.15235
1.71727
1.24854
0.757549
0.253886
0.36988
1.07554
1.68726
2.16513
2.49162
2.6675
2.70537
2.62379
2.44308
2.18276
1.86035
1.491
1.08765
0.66138
0.221897
0.296166
0.864266
1.3645
1.76541
2.05022
2.21533
2.26677
2.21638
2.07868
1.86874
1.60093
1.28834
0.942681
0.574381