/*--------------------------------*- C++ -*----------------------------------*\
| =========                 |                                                 |
| \\      /  F ield         | OpenFOAM: The Open Source CFD Toolbox           |
|  \\    /   O peration     | Version:  5.x                                   |
|   \\  /    A nd           | Web:      www.OpenFOAM.org                      |
|    \\/     M anipulation  |                                                 |
\*---------------------------------------------------------------------------*/
FoamFile
{
    version     2.0;
    format      ascii;
    class       volScalarField;
    location    "0.1";
    object      gradTy;
}
// * * * * * * * * * * * * * * * * * * * * * * * * * * * * * * * * * * * * * //

dimensions      [0 -1 0 1 0 0 0];

internalField   nonuniform List<scalar> 
2048
(
-28.2579
-28.2662
-28.2822
-28.3049
-28.3326
-28.363
-28.3935
-28.4207
-28.4411
-28.4508
-28.4459
-28.4225
-28.377
-28.3064
-28.2079
-28.0795
-27.9201
-27.7295
-27.5087
-27.26
-26.9871
-26.695
-26.3896
-26.0779
-25.7667
-25.4627
-25.1719
-24.8989
-24.6471
-24.4187
-24.2143
-24.0338
-23.8762
-23.7398
-23.6228
-23.5232
-23.4389
-23.3679
-23.3084
-23.2586
-23.2172
-23.1828
-23.1543
-23.1307
-23.1112
-23.0952
-23.0819
-23.071
-23.062
-23.0546
-23.0486
-23.0436
-23.0395
-23.0361
-23.0334
-23.0311
-23.0293
-23.0278
-23.0266
-23.0257
-23.025
-23.0245
-23.0241
-23.024
-28.2444
-28.2532
-28.2701
-28.2941
-28.3236
-28.3562
-28.3893
-28.4195
-28.4429
-28.4558
-28.4539
-28.4333
-28.3904
-28.3218
-28.2248
-28.0972
-27.9378
-27.7462
-27.5234
-27.2716
-26.9945
-26.6972
-26.3862
-26.0686
-25.7518
-25.4428
-25.148
-24.872
-24.6185
-24.3892
-24.1849
-24.0051
-23.8486
-23.7137
-23.5983
-23.5002
-23.4175
-23.3479
-23.2897
-23.2411
-23.2007
-23.1672
-23.1394
-23.1165
-23.0976
-23.082
-23.0691
-23.0585
-23.0498
-23.0426
-23.0367
-23.0319
-23.0279
-23.0247
-23.022
-23.0198
-23.018
-23.0166
-23.0155
-23.0146
-23.0139
-23.0134
-23.013
-23.0129
-28.2187
-28.2283
-28.2468
-28.2733
-28.3062
-28.3431
-28.3812
-28.4169
-28.4463
-28.4652
-28.4692
-28.4541
-28.416
-28.3514
-28.2573
-28.1314
-27.9721
-27.7788
-27.5522
-27.2943
-27.0091
-26.7019
-26.3799
-26.0508
-25.7231
-25.4046
-25.1019
-24.8204
-24.5635
-24.3328
-24.1287
-23.9504
-23.7962
-23.6641
-23.5517
-23.4568
-23.377
-23.3101
-23.2544
-23.208
-23.1696
-23.1377
-23.1114
-23.0897
-23.0718
-23.057
-23.0449
-23.0349
-23.0267
-23.0199
-23.0144
-23.0098
-23.0061
-23.003
-23.0005
-22.9984
-22.9968
-22.9954
-22.9943
-22.9935
-22.9928
-22.9923
-22.992
-22.9919
-28.1817
-28.1925
-28.2133
-28.2434
-28.2811
-28.324
-28.3693
-28.4131
-28.4511
-28.4787
-28.4911
-28.4839
-28.4528
-28.394
-28.3043
-28.1809
-28.022
-27.8265
-27.5946
-27.3282
-27.0312
-26.7096
-26.3713
-26.0254
-25.6816
-25.349
-25.0352
-24.7459
-24.4843
-24.2519
-24.0485
-23.8726
-23.7219
-23.594
-23.4862
-23.3957
-23.3201
-23.2572
-23.205
-23.1617
-23.126
-23.0965
-23.0721
-23.0521
-23.0356
-23.0221
-23.0109
-23.0018
-22.9942
-22.988
-22.983
-22.9788
-22.9754
-22.9726
-22.9703
-22.9684
-22.9668
-22.9656
-22.9646
-22.9638
-22.9632
-22.9628
-22.9625
-22.9623
-28.1344
-28.1465
-28.1702
-28.2047
-28.2484
-28.2991
-28.3536
-28.4077
-28.4569
-28.4958
-28.5192
-28.5221
-28.5
-28.4488
-28.3649
-28.2451
-28.0871
-27.8891
-27.6508
-27.3737
-27.0616
-26.721
-26.3611
-25.9928
-25.6278
-25.2768
-24.9487
-24.6495
-24.3825
-24.1485
-23.9465
-23.7741
-23.6284
-23.5062
-23.4042
-23.3195
-23.2494
-23.1914
-23.1436
-23.1043
-23.0719
-23.0453
-23.0234
-23.0054
-22.9907
-22.9786
-22.9687
-22.9605
-22.9538
-22.9483
-22.9438
-22.9401
-22.9371
-22.9346
-22.9325
-22.9309
-22.9295
-22.9284
-22.9275
-22.9268
-22.9263
-22.9259
-22.9256
-22.9255
-28.0775
-28.0911
-28.118
-28.1576
-28.2084
-28.2683
-28.3339
-28.4008
-28.4636
-28.5163
-28.5531
-28.5683
-28.5571
-28.5151
-28.4385
-28.3235
-28.1672
-27.967
-27.7216
-27.4318
-27.1013
-26.7372
-26.3501
-25.9536
-25.5618
-25.188
-24.8424
-24.5318
-24.259
-24.024
-23.8245
-23.6572
-23.518
-23.403
-23.3084
-23.2307
-23.167
-23.115
-23.0724
-23.0376
-23.0091
-22.9858
-22.9668
-22.9512
-22.9384
-22.928
-22.9195
-22.9124
-22.9067
-22.902
-22.8981
-22.895
-22.8924
-22.8902
-22.8885
-22.887
-22.8859
-22.8849
-22.8842
-22.8836
-22.8831
-22.8827
-22.8826
-22.8824
-28.0115
-28.0268
-28.0572
-28.1023
-28.1611
-28.2315
-28.3101
-28.392
-28.4709
-28.54
-28.5924
-28.622
-28.6235
-28.5924
-28.5245
-28.4158
-28.2623
-28.0605
-27.8078
-27.5038
-27.1518
-26.7593
-26.3391
-25.9078
-25.4834
-25.0821
-24.7162
-24.3929
-24.1145
-23.8795
-23.6843
-23.5238
-23.3929
-23.2867
-23.2008
-23.1314
-23.0753
-23.0299
-22.9932
-22.9634
-22.9393
-22.9197
-22.9038
-22.8908
-22.8802
-22.8716
-22.8645
-22.8588
-22.8541
-22.8502
-22.847
-22.8444
-22.8423
-22.8406
-22.8391
-22.8379
-22.837
-22.8362
-22.8356
-22.8351
-22.8347
-22.8344
-22.8343
-22.8341
-27.9371
-27.954
-27.9879
-28.0389
-28.1063
-28.1885
-28.2819
-28.3811
-28.4788
-28.5668
-28.6371
-28.6829
-28.6988
-28.68
-28.6224
-28.5214
-28.3724
-28.1702
-27.9105
-27.5914
-27.2148
-26.789
-26.329
-25.8556
-25.3919
-24.9582
-24.5694
-24.2327
-23.9495
-23.7163
-23.5273
-23.3758
-23.2552
-23.1595
-23.0837
-23.0237
-22.976
-22.938
-22.9077
-22.8835
-22.864
-22.8483
-22.8357
-22.8255
-22.8172
-22.8105
-22.805
-22.8005
-22.7969
-22.7939
-22.7915
-22.7895
-22.7878
-22.7865
-22.7854
-22.7845
-22.7837
-22.7831
-22.7826
-22.7822
-22.7819
-22.7817
-22.7816
-22.7815
-27.8549
-27.8734
-27.9107
-27.9674
-28.0439
-28.1388
-28.2488
-28.3678
-28.487
-28.5966
-28.6871
-28.7509
-28.7824
-28.7773
-28.7314
-28.64
-28.4973
-28.2965
-28.031
-27.6963
-27.2925
-26.828
-26.3206
-25.7968
-25.2862
-24.8151
-24.4008
-24.0507
-23.7642
-23.5351
-23.3551
-23.215
-23.1068
-23.0234
-22.9591
-22.9094
-22.871
-22.841
-22.8175
-22.7991
-22.7845
-22.773
-22.7637
-22.7564
-22.7504
-22.7456
-22.7418
-22.7387
-22.7361
-22.734
-22.7324
-22.731
-22.7298
-22.7289
-22.7281
-22.7275
-22.7269
-22.7265
-22.7261
-22.7259
-22.7257
-22.7255
-22.7255
-22.7255
-27.7656
-27.7854
-27.8257
-27.888
-27.9736
-28.082
-28.2104
-28.3518
-28.4956
-28.6296
-28.7424
-28.8257
-28.874
-28.8836
-28.8508
-28.7709
-28.6369
-28.44
-28.1707
-27.8207
-27.3875
-26.8786
-26.3152
-25.7309
-25.1649
-24.6507
-24.2089
-23.8463
-23.559
-23.3372
-23.1691
-23.0433
-22.9497
-22.8803
-22.8288
-22.7905
-22.7619
-22.7403
-22.724
-22.7116
-22.7021
-22.6947
-22.6889
-22.6844
-22.6809
-22.6781
-22.6758
-22.674
-22.6725
-22.6714
-22.6704
-22.6696
-22.669
-22.6685
-22.668
-22.6676
-22.6673
-22.6671
-22.6669
-22.6667
-22.6666
-22.6666
-22.6666
-22.6666
-27.67
-27.6907
-27.7334
-27.8006
-27.8949
-28.0175
-28.166
-28.3327
-28.5046
-28.6661
-28.8034
-28.9073
-28.973
-28.998
-28.9795
-28.913
-28.7905
-28.6009
-28.3308
-27.9672
-27.5029
-26.9436
-26.3139
-25.6573
-25.0258
-24.4627
-23.992
-23.6186
-23.334
-23.1235
-22.9711
-22.8625
-22.7859
-22.7322
-22.6946
-22.6685
-22.6502
-22.6374
-22.6285
-22.6222
-22.6177
-22.6145
-22.6122
-22.6106
-22.6093
-22.6085
-22.6078
-22.6073
-22.6069
-22.6066
-22.6064
-22.6062
-22.6061
-22.6059
-22.6058
-22.6057
-22.6056
-22.6055
-22.6055
-22.6054
-22.6054
-22.6054
-22.6055
-22.6055
-27.569
-27.59
-27.6342
-27.7052
-27.8076
-27.9444
-28.1148
-28.3101
-28.5142
-28.7066
-28.8704
-28.9956
-29.0789
-29.1195
-29.1163
-29.0651
-28.9574
-28.7793
-28.5127
-28.1383
-27.6422
-27.0263
-26.3184
-25.5751
-24.8662
-24.248
-23.7479
-23.3669
-23.0898
-22.8954
-22.7628
-22.6746
-22.6172
-22.5808
-22.5582
-22.5448
-22.5373
-22.5335
-22.5319
-22.5317
-22.5323
-22.5332
-22.5343
-22.5355
-22.5366
-22.5375
-22.5384
-22.5392
-22.5399
-22.5404
-22.5409
-22.5413
-22.5416
-22.5418
-22.542
-22.5422
-22.5423
-22.5424
-22.5425
-22.5425
-22.5426
-22.5427
-22.5428
-22.5429
-27.4635
-27.4842
-27.5287
-27.6019
-27.7111
-27.862
-28.0558
-28.2835
-28.5246
-28.7519
-28.944
-29.0908
-29.191
-29.2469
-29.2595
-29.2258
-29.1364
-28.9747
-28.7173
-28.3368
-27.8097
-27.1308
-26.3306
-25.4827
-24.6823
-24.0028
-23.4741
-23.0905
-22.827
-22.6543
-22.5461
-22.4816
-22.4456
-22.4278
-22.4211
-22.4209
-22.4243
-22.4294
-22.4353
-22.4411
-22.4466
-22.4516
-22.456
-22.4598
-22.4631
-22.4659
-22.4683
-22.4702
-22.4719
-22.4732
-22.4744
-22.4753
-22.4761
-22.4767
-22.4772
-22.4776
-22.4779
-22.4781
-22.4784
-22.4786
-22.4787
-22.4789
-22.4791
-22.4791
-27.3546
-27.3742
-27.4174
-27.4909
-27.6049
-27.7689
-27.9876
-28.2523
-28.5363
-28.8029
-29.0251
-29.1928
-29.3087
-29.3789
-29.4076
-29.3932
-29.3259
-29.1866
-28.9456
-28.5657
-28.0101
-27.2622
-26.353
-25.378
-24.4694
-23.7226
-23.1682
-22.7889
-22.5466
-22.4021
-22.323
-22.2853
-22.2729
-22.2749
-22.2846
-22.2978
-22.3122
-22.3262
-22.3393
-22.351
-22.3613
-22.3701
-22.3777
-22.3841
-22.3895
-22.394
-22.3978
-22.4009
-22.4034
-22.4056
-22.4073
-22.4088
-22.41
-22.4109
-22.4117
-22.4123
-22.4128
-22.4132
-22.4136
-22.4139
-22.4141
-22.4144
-22.4145
-22.4146
-27.2433
-27.2609
-27.3012
-27.3723
-27.4885
-27.6639
-27.9087
-28.2155
-28.5501
-28.8614
-29.1147
-29.302
-29.4311
-29.514
-29.5585
-29.5651
-29.524
-29.4135
-29.1978
-28.8278
-28.2492
-27.4272
-26.3888
-25.2583
-24.2214
-23.4022
-22.8275
-22.4619
-22.2499
-22.1408
-22.0956
-22.0879
-22.1007
-22.1234
-22.1498
-22.1766
-22.2018
-22.2246
-22.2447
-22.262
-22.2769
-22.2894
-22.3
-22.3088
-22.3161
-22.3222
-22.3273
-22.3315
-22.3349
-22.3378
-22.3401
-22.342
-22.3436
-22.3449
-22.3459
-22.3468
-22.3475
-22.348
-22.3485
-22.3489
-22.3492
-22.3495
-22.3496
-22.3497
-27.1309
-27.1456
-27.1808
-27.2466
-27.3613
-27.5453
-27.8169
-28.172
-28.567
-28.9291
-29.2143
-29.4184
-29.5575
-29.6506
-29.7102
-29.7391
-29.7281
-29.6536
-29.4738
-29.1259
-28.5333
-27.6338
-26.4425
-25.1194
-23.9304
-23.0355
-22.4495
-22.11
-21.939
-21.8728
-21.8663
-21.8913
-21.9306
-21.9746
-22.018
-22.0581
-22.0939
-22.1251
-22.1519
-22.1746
-22.1937
-22.2097
-22.2231
-22.2342
-22.2433
-22.2509
-22.2572
-22.2624
-22.2666
-22.2701
-22.273
-22.2754
-22.2773
-22.2789
-22.2802
-22.2812
-22.2821
-22.2828
-22.2833
-22.2838
-22.2842
-22.2845
-22.2846
-22.2847
-27.0185
-27.0292
-27.0572
-27.1143
-27.2229
-27.4116
-27.7095
-28.1202
-28.5887
-29.0089
-29.3255
-29.5422
-29.6868
-29.787
-29.8604
-29.9126
-29.9355
-29.9046
-29.7724
-29.4621
-28.8694
-27.8923
-26.52
-24.9556
-23.5864
-22.6157
-22.0323
-21.7342
-21.6163
-21.6007
-21.6375
-21.6974
-21.7642
-21.8297
-21.8898
-21.9429
-21.989
-22.0282
-22.0613
-22.089
-22.1122
-22.1314
-22.1473
-22.1605
-22.1714
-22.1803
-22.1877
-22.1938
-22.1988
-22.2029
-22.2062
-22.209
-22.2113
-22.2131
-22.2146
-22.2159
-22.2169
-22.2177
-22.2184
-22.219
-22.2193
-22.2197
-22.2198
-22.2198
-26.9074
-26.9131
-26.9316
-26.9762
-27.0733
-27.2606
-27.5831
-28.0579
-28.6174
-29.1041
-29.4501
-29.6733
-29.8178
-29.9213
-30.0069
-30.083
-30.1433
-30.1633
-30.0917
-29.838
-29.2649
-28.2156
-26.63
-24.7585
-23.1769
-22.1356
-21.5744
-21.3367
-21.2848
-21.3275
-21.4114
-21.5079
-21.6028
-21.6896
-21.766
-21.8317
-21.8874
-21.9342
-21.9732
-22.0056
-22.0325
-22.0546
-22.0729
-22.088
-22.1004
-22.1106
-22.119
-22.1259
-22.1316
-22.1362
-22.14
-22.1432
-22.1457
-22.1478
-22.1495
-22.1509
-22.1521
-22.153
-22.1538
-22.1545
-22.1548
-22.1552
-22.1553
-22.1553
-26.7986
-26.7985
-26.8053
-26.8333
-26.9123
-27.0906
-27.4333
-27.9817
-28.6566
-29.219
-29.5901
-29.8117
-29.9492
-30.0518
-30.1476
-30.2476
-30.3481
-30.4261
-30.4289
-30.2538
-29.7276
-28.6196
-26.7849
-24.5161
-22.686
-21.5876
-21.0758
-20.9206
-20.9483
-21.0563
-21.1905
-21.3246
-21.4475
-21.5552
-21.6472
-21.7248
-21.7896
-21.8434
-21.8878
-21.9245
-21.9548
-21.9797
-22.0001
-22.0169
-22.0307
-22.042
-22.0513
-22.0589
-22.0652
-22.0703
-22.0745
-22.078
-22.0808
-22.0832
-22.0851
-22.0866
-22.0879
-22.0889
-22.0898
-22.0905
-22.0909
-22.0913
-22.0914
-22.0913
-26.6932
-26.6866
-26.6797
-26.687
-26.7407
-26.8996
-27.2551
-27.8869
-28.7114
-29.3592
-29.7474
-29.9567
-30.0796
-30.1767
-30.2803
-30.404
-30.5466
-30.6889
-30.7797
-30.7084
-30.2648
-29.1242
-27.0027
-24.2105
-22.0944
-20.9647
-20.538
-20.49
-20.6109
-20.7904
-20.977
-21.149
-21.2993
-21.427
-21.5339
-21.6226
-21.6957
-21.7559
-21.8054
-21.846
-21.8793
-21.9066
-21.929
-21.9473
-21.9623
-21.9747
-21.9848
-21.9931
-21.9998
-22.0054
-22.01
-22.0137
-22.0168
-22.0193
-22.0214
-22.0231
-22.0245
-22.0256
-22.0265
-22.0273
-22.0277
-22.0281
-22.0282
-22.0282
-26.5922
-26.5785
-26.5562
-26.539
-26.5596
-26.6863
-27.042
-27.7663
-28.7891
-29.5313
-29.9238
-30.1075
-30.2072
-30.2941
-30.4032
-30.5497
-30.7357
-30.9472
-31.139
-31.1986
-30.8827
-29.7532
-27.3101
-23.8153
-21.3784
-20.2611
-19.9644
-20.0507
-20.2773
-20.5331
-20.773
-20.9824
-21.1591
-21.3057
-21.4264
-21.5252
-21.6061
-21.6721
-21.7261
-21.7702
-21.8062
-21.8356
-21.8597
-21.8794
-21.8956
-21.9088
-21.9196
-21.9284
-21.9357
-21.9417
-21.9466
-21.9506
-21.9539
-21.9566
-21.9588
-21.9606
-21.9621
-21.9633
-21.9642
-21.9651
-21.9654
-21.9659
-21.9661
-21.9661
-26.4965
-26.4754
-26.4363
-26.3913
-26.3706
-26.4498
-26.7866
-27.609
-28.9009
-29.7431
-30.1203
-30.2625
-30.3302
-30.4026
-30.5149
-30.6829
-30.9123
-31.1963
-31.5002
-31.7186
-31.585
-30.5343
-27.7472
-23.2909
-20.5106
-19.4733
-19.361
-19.6091
-19.9524
-20.2873
-20.5804
-20.8258
-21.0274
-21.1916
-21.3249
-21.433
-21.5208
-21.592
-21.6499
-21.6971
-21.7355
-21.7669
-21.7925
-21.8134
-21.8305
-21.8445
-21.8559
-21.8653
-21.873
-21.8793
-21.8844
-21.8887
-21.8921
-21.895
-21.8973
-21.8993
-21.9009
-21.9021
-21.9031
-21.904
-21.9044
-21.9049
-21.9052
-21.9052
-26.4067
-26.3781
-26.3216
-26.246
-26.1764
-26.1902
-26.4803
-27.399
-29.0634
-30.0033
-30.3372
-30.4194
-30.4466
-30.5006
-30.614
-30.8019
-31.0737
-31.4316
-31.856
-32.26
-32.372
-31.4991
-28.3734
-22.5782
-19.4598
-18.6015
-18.7367
-19.1731
-19.6411
-20.0559
-20.4006
-20.6801
-20.9048
-21.085
-21.2296
-21.346
-21.4398
-21.5157
-21.5771
-21.627
-21.6675
-21.7005
-21.7274
-21.7494
-21.7673
-21.7819
-21.7939
-21.8037
-21.8118
-21.8183
-21.8237
-21.8282
-21.8318
-21.8348
-21.8373
-21.8393
-21.841
-21.8423
-21.8433
-21.8443
-21.8446
-21.8451
-21.8456
-21.8456
-26.3233
-26.2874
-26.2133
-26.1055
-25.9802
-25.9092
-26.1145
-27.112
-29.301
-30.3212
-30.5731
-30.5752
-30.5541
-30.5869
-30.6995
-30.9055
-31.2176
-31.6484
-32.1983
-32.8112
-33.238
-32.6806
-29.2772
-21.5889
-18.1934
-17.6514
-18.103
-18.7508
-19.348
-19.8413
-20.2349
-20.5458
-20.7913
-20.9858
-21.1405
-21.2641
-21.3632
-21.4431
-21.5075
-21.5597
-21.6021
-21.6365
-21.6645
-21.6874
-21.706
-21.7212
-21.7337
-21.7439
-21.7522
-21.759
-21.7646
-21.7692
-21.773
-21.7761
-21.7786
-21.7808
-21.7825
-21.7839
-21.7849
-21.7859
-21.7863
-21.7868
-21.7874
-21.7874
-26.2467
-26.2038
-26.1127
-25.9721
-25.7861
-25.6106
-25.6805
-26.712
-29.6501
-30.7054
-30.8245
-30.7262
-30.6508
-30.6604
-30.7709
-30.9929
-31.3423
-31.8429
-32.5188
-33.358
-34.1701
-34.1097
-30.5897
-20.1921
-16.6802
-16.6362
-17.4745
-18.3508
-19.0773
-19.6453
-20.0839
-20.423
-20.687
-20.894
-21.0574
-21.1872
-21.2909
-21.3741
-21.4412
-21.4953
-21.5392
-21.5748
-21.6038
-21.6274
-21.6467
-21.6624
-21.6752
-21.6857
-21.6943
-21.7013
-21.7071
-21.7118
-21.7157
-21.7189
-21.7215
-21.7237
-21.7255
-21.727
-21.728
-21.729
-21.7295
-21.7299
-21.7306
-21.7306
-26.177
-26.1275
-26.0208
-25.8482
-25.5987
-25.3005
-25.1721
-26.1463
-30.1636
-31.1626
-31.0856
-30.8679
-30.7346
-30.7204
-30.828
-31.0636
-31.4465
-32.0116
-32.8093
-33.8836
-35.146
-35.8096
-32.5029
-18.1957
-14.8974
-15.5782
-16.8679
-17.9811
-18.8323
-19.4691
-19.9478
-20.3117
-20.5916
-20.8092
-20.98
-21.1151
-21.2226
-21.3087
-21.3779
-21.4337
-21.4788
-21.5154
-21.5452
-21.5694
-21.5891
-21.6053
-21.6184
-21.6292
-21.638
-21.6452
-21.6511
-21.6559
-21.6599
-21.6632
-21.6659
-21.6681
-21.67
-21.6715
-21.6725
-21.6735
-21.6742
-21.6745
-21.6752
-21.6751
-26.1143
-26.0589
-25.9381
-25.7356
-25.423
-24.9879
-24.5879
-25.3381
-30.9183
-31.6942
-31.3472
-30.9956
-30.8036
-30.7666
-30.8707
-31.1177
-31.5295
-32.152
-33.0625
-34.3698
-36.1328
-37.7857
-35.2955
-15.3211
-12.8396
-14.5104
-16.3016
-17.6493
-18.6156
-19.3133
-19.8266
-20.2114
-20.5046
-20.7311
-20.908
-21.0474
-21.1581
-21.2465
-21.3174
-21.3745
-21.4207
-21.4581
-21.4885
-21.5132
-21.5334
-21.5498
-21.5632
-21.5742
-21.5831
-21.5905
-21.5965
-21.6014
-21.6055
-21.6088
-21.6116
-21.6139
-21.6158
-21.6173
-21.6184
-21.6193
-21.6202
-21.6204
-21.621
-21.621
-26.0583
-25.9977
-25.865
-25.6361
-25.2641
-24.6851
-23.9354
-24.1776
-32.0243
-32.2928
-31.5975
-31.1042
-30.8566
-30.7988
-30.8994
-31.1557
-31.5915
-32.2626
-33.2723
-34.798
-37.0862
-40.0107
-39.3664
-11.1695
-10.5339
-13.4769
-15.7939
-17.3612
-18.4286
-19.1779
-19.7199
-20.1218
-20.4257
-20.6593
-20.841
-20.9839
-21.097
-21.1872
-21.2595
-21.3177
-21.3647
-21.4028
-21.4337
-21.4588
-21.4792
-21.4959
-21.5095
-21.5207
-21.5298
-21.5372
-21.5433
-21.5483
-21.5524
-21.5558
-21.5587
-21.561
-21.5629
-21.5644
-21.5656
-21.5664
-21.5674
-21.5676
-21.568
-21.5682
-26.0088
-25.9438
-25.8017
-25.5508
-25.1269
-24.4072
-23.237
-22.51
-33.6367
-32.9366
-31.8218
-31.1896
-30.8927
-30.8173
-30.9149
-31.1783
-31.6329
-32.343
-33.4347
-35.1514
-37.9521
-42.4044
-45.2781
-5.17847
-8.06079
-12.532
-15.3622
-17.1214
-18.2722
-19.0627
-19.6271
-20.0422
-20.3544
-20.5935
-20.7789
-20.9243
-21.0394
-21.131
-21.2043
-21.2633
-21.3109
-21.3494
-21.3807
-21.4061
-21.4268
-21.4437
-21.4574
-21.4687
-21.4779
-21.4854
-21.4916
-21.4966
-21.5008
-21.5043
-21.5071
-21.5095
-21.5114
-21.5129
-21.5141
-21.5148
-21.516
-21.5162
-21.5163
-21.5168
-25.9654
-25.8972
-25.748
-25.4805
-25.0151
-24.1709
-22.5374
-20.1205
-35.9709
-33.5812
-32.0038
-31.2484
-30.912
-30.8231
-30.9182
-31.1866
-31.655
-32.3939
-33.5477
-35.4164
-38.6702
-44.805
-53.8116
3.43276
-5.5826
-11.7366
-15.0203
-16.9321
-18.1461
-18.9669
-19.5477
-19.9723
-20.2905
-20.5334
-20.7215
-20.8687
-20.9851
-21.0777
-21.1518
-21.2113
-21.2593
-21.2982
-21.3297
-21.3554
-21.3762
-21.3932
-21.4071
-21.4184
-21.4277
-21.4353
-21.4415
-21.4466
-21.4508
-21.4543
-21.4572
-21.4595
-21.4614
-21.463
-21.4643
-21.4649
-21.4661
-21.4665
-21.4662
-21.4671
-25.9277
-25.8575
-25.7036
-25.4253
-24.9314
-23.9931
-21.9144
-16.7155
-39.3211
-34.1495
-32.1274
-31.2787
-30.9151
-30.8171
-30.9106
-31.1822
-31.6594
-32.4169
-33.6117
-35.5846
-39.1807
-46.9319
-66.0343
15.7309
-3.38061
-11.151
-14.7772
-16.7938
-18.0493
-18.8898
-19.481
-19.9117
-20.2337
-20.479
-20.6687
-20.8172
-20.9344
-21.0276
-21.1021
-21.162
-21.2103
-21.2494
-21.2811
-21.3069
-21.3278
-21.3449
-21.3589
-21.3702
-21.3796
-21.3872
-21.3934
-21.3985
-21.4028
-21.4063
-21.4092
-21.4116
-21.4134
-21.4149
-21.4164
-21.4169
-21.4181
-21.4186
-21.4182
-21.4193
-25.8951
-25.824
-25.6678
-25.3842
-24.876
-23.8867
-21.491
-11.8997
-44.0819
-34.5181
-32.1792
-31.2799
-30.9026
-30.8002
-30.8929
-31.166
-31.6474
-32.4139
-33.6287
-35.6538
-39.4353
-48.3375
-83.3796
33.1499
-1.90143
-10.8228
-14.6347
-16.7036
-17.9793
-18.8293
-19.4256
-19.8592
-20.1829
-20.4294
-20.6199
-20.7689
-20.8865
-20.98
-21.0548
-21.1148
-21.1633
-21.2024
-21.2342
-21.26
-21.2811
-21.2982
-21.3122
-21.3236
-21.3329
-21.3405
-21.3468
-21.3519
-21.3562
-21.3597
-21.3626
-21.365
-21.3669
-21.3683
-21.37
-21.3704
-21.3714
-21.3721
-21.3717
-21.3727
)
;

boundaryField
{
    left
    {
        type            calculated;
        value           nonuniform List<scalar> 
32
(
-28.2579
-28.2444
-28.2187
-28.1817
-28.1344
-28.0775
-28.0115
-27.9371
-27.8549
-27.7656
-27.67
-27.569
-27.4635
-27.3546
-27.2433
-27.1309
-27.0185
-26.9074
-26.7986
-26.6932
-26.5922
-26.4965
-26.4067
-26.3233
-26.2467
-26.177
-26.1143
-26.0583
-26.0088
-25.9654
-25.9277
-25.8951
)
;
    }
    right
    {
        type            calculated;
        value           nonuniform List<scalar> 
32
(
-23.024
-23.0129
-22.9919
-22.9623
-22.9255
-22.8824
-22.8341
-22.7815
-22.7255
-22.6666
-22.6055
-22.5429
-22.4791
-22.4146
-22.3497
-22.2847
-22.2198
-22.1553
-22.0913
-22.0282
-21.9661
-21.9052
-21.8456
-21.7874
-21.7306
-21.6751
-21.621
-21.5682
-21.5168
-21.4671
-21.4193
-21.3727
)
;
    }
    interface
    {
        type            calculated;
        value           nonuniform List<scalar> 
64
(
-25.88
-25.8086
-25.6518
-25.3669
-24.8553
-23.8526
-21.3477
-9.08264
-46.8714
-34.6338
-32.1858
-31.2732
-30.8925
-30.7891
-30.8816
-31.1551
-31.6375
-32.4061
-33.6258
-35.6637
-39.4938
-48.792
-93.5377
43.3446
-1.41028
-10.7277
-14.5881
-16.6699
-17.9506
-18.8029
-19.4003
-19.8346
-20.1588
-20.4056
-20.5963
-20.7454
-20.8631
-20.9567
-21.0315
-21.0916
-21.14
-21.1792
-21.211
-21.2369
-21.2579
-21.275
-21.289
-21.3004
-21.3098
-21.3174
-21.3237
-21.3288
-21.333
-21.3366
-21.3395
-21.3419
-21.3437
-21.3452
-21.3469
-21.3473
-21.3482
-21.3491
-21.3486
-21.3495
)
;
    }
    bottom
    {
        type            calculated;
        value           nonuniform List<scalar> 
64
(
-28.2614
-28.2696
-28.2853
-28.3077
-28.3349
-28.3648
-28.3946
-28.4211
-28.4406
-28.4495
-28.4438
-28.4197
-28.3736
-28.3024
-28.2035
-28.0749
-27.9155
-27.7251
-27.5049
-27.257
-26.9852
-26.6944
-26.3905
-26.0803
-25.7705
-25.4679
-25.1781
-24.9058
-24.6546
-24.4263
-24.222
-24.0413
-23.8834
-23.7466
-23.6293
-23.5292
-23.4445
-23.3731
-23.3133
-23.2632
-23.2215
-23.1869
-23.1582
-23.1344
-23.1148
-23.0986
-23.0853
-23.0743
-23.0652
-23.0578
-23.0517
-23.0466
-23.0425
-23.0391
-23.0364
-23.0341
-23.0322
-23.0308
-23.0296
-23.0286
-23.0279
-23.0274
-23.027
-23.0269
)
;
    }
    defaultFaces
    {
        type            empty;
    }
}


// ************************************************************************* //
