/*--------------------------------*- C++ -*----------------------------------*\
| =========                 |                                                 |
| \\      /  F ield         | OpenFOAM: The Open Source CFD Toolbox           |
|  \\    /   O peration     | Version:  5.x                                   |
|   \\  /    A nd           | Web:      www.OpenFOAM.org                      |
|    \\/     M anipulation  |                                                 |
\*---------------------------------------------------------------------------*/
FoamFile
{
    version     2.0;
    format      ascii;
    class       volScalarField;
    location    "0.1";
    object      gradTx;
}
// * * * * * * * * * * * * * * * * * * * * * * * * * * * * * * * * * * * * * //

dimensions      [0 -1 0 1 0 0 0];

internalField   nonuniform List<scalar> 
2048
(
-0.00188119
-0.00550969
-0.00876808
-0.0113932
-0.0131217
-0.0137181
-0.0129385
-0.0105913
-0.00654308
-0.000723638
0.00686326
0.0161394
0.026957
0.0391039
0.0523034
0.0662106
0.0804067
0.0943968
0.107619
0.119469
0.129347
0.136718
0.141183
0.142535
0.140794
0.136208
0.129207
0.120349
0.110235
0.0994529
0.088517
0.0778447
0.0677435
0.0584174
0.0499802
0.0424739
0.0358879
0.0301755
0.0252679
0.0210851
0.0175435
0.0145612
0.0120612
0.00997344
0.00823543
0.00679233
0.00559669
0.00460784
0.0037912
0.00311755
0.00256227
0.00210471
0.00172754
0.00141628
0.00115882
0.000945101
0.000766792
0.000616993
0.000489932
0.000380659
0.000284857
0.000198687
0.000118335
3.95566e-05
-0.00566825
-0.0165989
-0.0264343
-0.0344134
-0.0397332
-0.0416808
-0.0395335
-0.0327073
-0.0207939
-0.00358136
0.0189176
0.0464678
0.0786294
0.114774
0.154088
0.195556
0.237941
0.279773
0.319367
0.354902
0.384551
0.406678
0.42005
0.42403
0.41868
0.404759
0.3836
0.356905
0.326516
0.294206
0.261525
0.229712
0.199675
0.172004
0.147021
0.124834
0.105398
0.0885631
0.0741178
0.0618185
0.0514137
0.0426586
0.0353242
0.0292024
0.0241085
0.0198805
0.0163786
0.0134832
0.0110926
0.00912096
0.00749606
0.00615731
0.00505393
0.00414344
0.00339036
0.00276522
0.00224368
0.00180556
0.00143396
0.00111429
0.000833877
0.000582084
0.00034889
0.000117814
-0.00957175
-0.0280427
-0.0447294
-0.0584088
-0.0677327
-0.0714934
-0.0684748
-0.0576748
-0.0383897
-0.0102592
0.0266915
0.0720638
0.125128
0.184856
0.24993
0.31871
0.389186
0.458937
0.525151
0.584734
0.634543
0.671723
0.694102
0.700547
0.691167
0.667303
0.631302
0.58614
0.535003
0.480914
0.426479
0.373745
0.324178
0.278703
0.237798
0.201593
0.16997
0.142649
0.119258
0.0993792
0.0825899
0.0684819
0.0566769
0.0468334
0.0386493
0.0318612
0.0262421
0.0215984
0.017766
0.0146063
0.0120033
0.00985923
0.00809259
0.00663502
0.00542955
0.00442891
0.0035941
0.00289291
0.00229825
0.00178644
0.00133667
0.000932987
0.00056467
0.000194125
-0.0137139
-0.0402249
-0.0643164
-0.0843235
-0.0983501
-0.104659
-0.101492
-0.0873756
-0.0612744
-0.0226665
0.0283993
0.0913411
0.165128
0.248348
0.339221
0.435543
0.534588
0.633016
0.726857
0.811641
0.882726
0.935818
0.967605
0.976334
0.962163
0.927152
0.874879
0.809829
0.736729
0.659981
0.583294
0.509511
0.440598
0.377742
0.321499
0.271948
0.228845
0.191739
0.160067
0.133222
0.110599
0.0916258
0.0757748
0.0625754
0.0516135
0.0425299
0.0350168
0.028812
0.0236941
0.0194768
0.016004
0.0131447
0.0107896
0.00884696
0.00724055
0.00590711
0.00479462
0.00386025
0.00306797
0.00238602
0.0017855
0.00124422
0.000759281
0.000266132
-0.0181771
-0.0534016
-0.0856492
-0.112835
-0.132502
-0.142331
-0.139941
-0.123305
-0.0909952
-0.0423139
0.022642
0.103064
0.197592
0.304439
0.421415
0.54584
0.674361
0.802766
0.925895
1.03775
1.13193
1.20236
1.24426
1.25507
1.23501
1.18705
1.11635
1.02926
0.932336
0.831534
0.731731
0.636536
0.548336
0.468475
0.397481
0.335298
0.28148
0.235353
0.196128
0.162989
0.135139
0.111835
0.0924041
0.0762501
0.0628529
0.0517641
0.0426012
0.0350401
0.0288079
0.0236755
0.0194515
0.0159755
0.0131135
0.0107537
0.00880255
0.00718298
0.00583164
0.00469648
0.00373384
0.00290553
0.00217574
0.00151227
0.000928769
0.000332011
-0.0230063
-0.067717
-0.109002
-0.14439
-0.170841
-0.185383
-0.184895
-0.166669
-0.128803
-0.0704065
0.00832642
0.106283
0.221715
0.352461
0.495996
0.649283
0.808478
0.968587
1.12324
1.26473
1.38454
1.47434
1.52741
1.54009
1.51266
1.44933
1.3573
1.24529
1.12209
0.995417
0.871373
0.754275
0.646811
0.550344
0.465245
0.391209
0.327508
0.273186
0.227193
0.18848
0.156046
0.128978
0.10646
0.087773
0.0722994
0.0595087
0.0489509
0.0402468
0.0330781
0.0271786
0.0223263
0.0183357
0.0150517
0.0123448
0.0101071
0.0082497
0.00669967
0.00539706
0.00429165
0.00334064
0.00250383
0.00173466
0.00107047
0.000390243
-0.0282095
-0.08321
-0.134485
-0.179228
-0.213796
-0.234462
-0.237207
-0.218462
-0.175731
-0.107912
-0.0153871
0.100294
0.236899
0.391882
0.562471
0.745446
0.936671
1.13053
1.31946
1.49385
1.64262
1.75452
1.82023
1.83456
1.79783
1.71595
1.59887
1.45835
1.30588
1.15119
1.00163
0.862111
0.735459
0.622872
0.524407
0.439388
0.366714
0.305086
0.253157
0.209623
0.173275
0.143028
0.117925
0.0971353
0.0799493
0.065763
0.0540671
0.0444342
0.0365073
0.0299888
0.024631
0.0202275
0.0166058
0.0136218
0.0111556
0.00910829
0.00739945
0.0059625
0.00474147
0.00369056
0.00276813
0.00190951
0.00118198
0.00043931
-0.0337594
-0.0998191
-0.162054
-0.217398
-0.261589
-0.290024
-0.297566
-0.27953
-0.232653
-0.15561
-0.0491177
0.0846277
0.242753
0.422301
0.620373
0.833799
1.05843
1.28829
1.5147
1.72598
1.90793
2.04551
2.12585
2.14157
2.0931
1.98864
1.84186
1.66847
1.48324
1.29814
1.12174
0.959365
0.813732
0.685657
0.5747
0.479675
0.399017
0.33103
0.274033
0.226456
0.186876
0.154038
0.126854
0.104389
0.0858499
0.0705693
0.0579866
0.0476341
0.0391226
0.0321289
0.0263848
0.021667
0.0177893
0.0145958
0.0119567
0.00976571
0.00793639
0.00639689
0.0050862
0.00395695
0.0029688
0.00203591
0.0012612
0.000477685
-0.0395958
-0.117387
-0.191514
-0.258764
-0.314258
-0.352365
-0.366542
-0.350626
-0.300342
-0.214133
-0.0932833
0.0590426
0.239098
0.44347
0.669284
0.913723
1.17303
1.4412
1.70869
1.96161
2.18198
2.34985
2.44747
2.46435
2.40099
2.26886
2.08667
1.87525
1.65333
1.4353
1.23082
1.04532
0.881126
0.738387
0.615966
0.512029
0.424459
0.351107
0.289938
0.239105
0.196974
0.162129
0.133356
0.109631
0.0900866
0.0740016
0.0607729
0.0499003
0.0409692
0.0336367
0.0276189
0.0226801
0.0186234
0.015284
0.0125247
0.0102333
0.00831936
0.00670699
0.00533075
0.00414315
0.00310747
0.00211421
0.0013069
0.000504075
-0.0456263
-0.135662
-0.222524
-0.303011
-0.371655
-0.421631
-0.444615
-0.432462
-0.379519
-0.283997
-0.14811
0.0235342
0.225986
0.455311
0.708852
0.984535
1.27949
1.58823
1.90072
2.20079
2.46602
2.6701
2.7885
2.80629
2.72403
2.55782
2.33329
2.07787
1.81496
1.56148
1.32787
1.11927
0.9372
0.780851
0.648168
0.53653
0.443188
0.365504
0.301072
0.247768
0.203755
0.167468
0.137583
0.112993
0.0927731
0.0761567
0.0625079
0.0513017
0.0421049
0.0345603
0.0283732
0.0232995
0.019135
0.0157086
0.0128775
0.0105254
0.00855961
0.00690146
0.00548155
0.0042539
0.00318713
0.00214632
0.00131935
0.000517808
-0.0517294
-0.154308
-0.2546
-0.349639
-0.433448
-0.497835
-0.532216
-0.525761
-0.470905
-0.365631
-0.213633
-0.0216514
0.203716
0.457938
0.73882
1.04551
1.37666
1.728
2.08955
2.4431
2.76103
3.00884
3.15268
3.17112
3.06481
2.85648
2.58127
2.27503
1.96659
1.67528
1.41183
1.18053
0.981605
0.812955
0.671385
0.553365
0.455451
0.374489
0.307701
0.252697
0.207451
0.170262
0.139713
0.11463
0.0940414
0.0771465
0.0632858
0.0519172
0.0425953
0.0349541
0.0286928
0.0235622
0.0193545
0.0158943
0.0130351
0.0106582
0.00866992
0.00699023
0.00554616
0.00429512
0.00321202
0.002136
0.00130114
0.00051927
-0.0577574
-0.172907
-0.287125
-0.397968
-0.499114
-0.580847
-0.629746
-0.631316
-0.575279
-0.459402
-0.289694
-0.0759993
0.172858
0.451682
0.759058
1.09592
1.4632
1.85873
2.27346
2.68755
3.06764
3.36877
3.54422
3.56307
3.42603
3.16548
2.82961
2.46493
2.10634
1.77516
1.48164
1.2285
1.01412
0.834734
0.685819
0.562828
0.461578
0.378398
0.310148
0.254188
0.208323
0.17074
0.139945
0.114711
0.0940347
0.0770915
0.0632075
0.0518308
0.0425102
0.034876
0.0286252
0.0235075
0.0193138
0.0158671
0.0130187
0.0106486
0.00866379
0.00698395
0.00553288
0.00427373
0.00318763
0.00208899
0.0012576
0.000510231
-0.0635415
-0.190973
-0.319352
-0.447131
-0.567919
-0.670391
-0.737601
-0.750048
-0.693535
-0.565634
-0.375922
-0.138705
0.134264
0.437102
0.769582
1.13508
1.53766
1.97832
2.45014
2.93252
3.38604
3.75268
3.96795
3.98697
3.81051
3.48505
3.0767
2.64527
2.23203
1.85947
1.53629
1.2627
1.03465
0.84636
0.691788
0.565303
0.461975
0.377623
0.308771
0.252561
0.206654
0.169146
0.138485
0.113413
0.0929009
0.0761154
0.0623759
0.0511282
0.0419205
0.0343845
0.0282186
0.0231747
0.0190452
0.0156533
0.0128494
0.0105137
0.00855493
0.00689359
0.00545046
0.00419756
0.00312056
0.00201287
0.00119686
0.00049389
-0.0688985
-0.207968
-0.350423
-0.496077
-0.638902
-0.766013
-0.856183
-0.883079
-0.82676
-0.684626
-0.471717
-0.208654
0.0890782
0.414993
0.77058
1.16239
1.59852
2.08437
2.61671
3.17564
3.71588
4.16347
4.42955
4.44851
4.22118
3.81486
3.32022
2.81319
2.34122
1.92657
1.57489
1.28283
1.04329
0.84815
0.689723
0.561261
0.457101
0.372591
0.303957
0.248155
0.202735
0.165728
0.135546
0.11091
0.0907873
0.0743408
0.0608929
0.0498936
0.040896
0.033537
0.0275203
0.0226027
0.0185802
0.0152784
0.0125481
0.0102702
0.00835679
0.0067301
0.00530786
0.00407513
0.0030183
0.0019165
0.00112906
0.000474513
-0.0736393
-0.223321
-0.379395
-0.543579
-0.710848
-0.867043
-0.985899
-1.03182
-0.976312
-0.816652
-0.576207
-0.284396
0.0387304
0.386374
0.762421
1.17735
1.64425
2.17423
2.76968
3.41364
4.05602
4.60411
4.93578
4.95447
4.66104
4.15388
3.55698
2.96527
2.43131
1.97486
1.59671
1.28879
1.0403
0.840557
0.680153
0.551238
0.447463
0.363759
0.296105
0.241314
0.196859
0.160733
0.131333
0.107377
0.0878373
0.0718866
0.0588568
0.0482081
0.0395035
0.0323886
0.0265756
0.0218283
0.0179491
0.0147671
0.0121346
0.00993405
0.0080823
0.00650422
0.00511402
0.00391545
0.00288886
0.00180898
0.00106481
0.000456641
-0.0775789
-0.236456
-0.405263
-0.588248
-0.782264
-0.972538
-1.12715
-1.19805
-1.14393
-0.961955
-0.688202
-0.364135
-0.0150789
0.35247
0.745654
1.17966
1.67342
2.24514
2.90505
3.64227
4.40437
5.07751
5.4948
5.51304
5.13309
4.50006
3.78283
3.09761
2.49958
2.0029
1.60127
1.28068
1.02612
0.824166
0.663694
0.535821
0.433592
0.351594
0.285616
0.232378
0.189313
0.154401
0.126044
0.102977
0.0841871
0.068865
0.0563601
0.046148
0.0378055
0.0309908
0.0254266
0.0208863
0.0171801
0.0141422
0.0116273
0.00952027
0.00774369
0.00622629
0.00487763
0.00372761
0.00274031
0.00169836
0.00101304
0.000444023
-0.0805482
-0.246821
-0.42701
-0.628562
-0.851355
-1.0812
-1.28029
-1.38408
-1.33185
-1.12071
-0.806117
-0.445705
-0.0704159
0.314665
0.721001
1.16922
1.6848
2.2943
3.01831
3.85616
4.75747
5.58641
6.11662
6.13423
5.64009
4.85007
3.99254
3.20584
2.54338
2.00951
1.58838
1.25887
1.00137
0.799676
0.641029
0.515634
0.416035
0.336562
0.272886
0.221679
0.180371
0.146958
0.119869
0.097865
0.0799635
0.0653805
0.0534885
0.0437836
0.0358601
0.029391
0.0241123
0.0198085
0.016299
0.0134247
0.0110434
0.00904264
0.00735236
0.00590622
0.00460696
0.00352036
0.00258024
0.00159013
0.000978748
0.000438586
-0.0824047
-0.253917
-0.443646
-0.662904
-0.91601
-1.19127
-1.44552
-1.59286
-1.54296
-1.29294
-0.927887
-0.526578
-0.125166
0.274453
0.68933
1.14616
1.67743
2.31905
3.1046
4.04877
5.1102
6.133
6.81356
6.83038
6.18432
5.19888
4.17969
3.28528
2.56023
1.99388
1.55819
1.22398
0.966842
0.767882
0.612891
0.491317
0.395338
0.319123
0.258294
0.209529
0.17029
0.138616
0.112979
0.0921834
0.0752833
0.0615285
0.0503203
0.041179
0.0337196
0.0276324
0.0226681
0.0186238
0.0153296
0.012634
0.0103983
0.0085138
0.0069188
0.00555331
0.0043097
0.0033015
0.00241522
0.00148616
0.000961356
0.000439844
-0.0830428
-0.257337
-0.454266
-0.689622
-0.9738
-1.30041
-1.62283
-1.82823
-1.78105
-1.47843
-1.05085
-0.603874
-0.17711
0.233365
0.651623
1.11086
1.6507
2.31706
3.1589
4.21233
5.45522
6.71843
7.60101
7.61692
6.76699
5.53927
4.33669
3.33111
2.548
1.9556
1.51119
1.17685
0.92345
0.729648
0.580037
0.463514
0.372035
0.299716
0.2422
0.196223
0.159311
0.12957
0.105534
0.0860612
0.0702517
0.057395
0.0469256
0.0383917
0.0314311
0.0257535
0.0211254
0.017358
0.0142929
0.011787
0.00970615
0.00794516
0.00645252
0.00517624
0.00399283
0.00307729
0.00225047
0.00138431
0.000954356
0.000445076
-0.0824017
-0.256787
-0.458107
-0.707104
-1.02201
-1.40558
-1.81168
-2.09512
-2.05097
-1.67645
-1.17161
-0.674398
-0.224014
0.192895
0.608932
1.06397
1.60447
2.28646
3.17627
4.33797
5.78251
7.34206
8.49832
8.5132
7.38754
5.86133
4.45481
3.33858
2.50509
1.89481
1.44824
1.11856
0.872231
0.685884
0.543232
0.432851
0.346637
0.278753
0.224937
0.182028
0.147649
0.119995
0.0976767
0.0796141
0.0649628
0.0530566
0.043367
0.0354725
0.0290362
0.0237881
0.0195122
0.0160339
0.0132075
0.0108991
0.0089793
0.00734694
0.00596208
0.00478292
0.00366261
0.00285195
0.00208954
0.00127905
0.000946697
0.000450369
-0.0804689
-0.252114
-0.4546
-0.713865
-1.05768
-1.50283
-2.01078
-2.39995
-2.35907
-1.88552
-1.28591
-0.734719
-0.263742
0.15442
0.562336
1.00637
1.53909
2.22607
3.15216
4.41586
6.0788
8.00026
9.52998
9.54374
8.04238
6.1519
4.52441
3.30339
2.43059
1.81216
1.37054
1.05034
0.814293
0.637516
0.503228
0.399933
0.319623
0.256617
0.206811
0.167188
0.135501
0.11005
0.0895327
0.0729443
0.0594993
0.0485804
0.0396989
0.0324659
0.026571
0.0217661
0.0178527
0.0146716
0.0120897
0.00998354
0.00822874
0.00672824
0.00545501
0.00438038
0.00332464
0.00262734
0.00193425
0.00116324
0.00092581
0.000452273
-0.0772801
-0.24332
-0.443422
-0.708649
-1.07773
-1.58725
-2.21755
-2.75096
-2.71356
-2.10289
-1.38851
-0.781279
-0.294378
0.119122
0.512888
0.939177
1.45543
2.13552
3.08278
4.43563
6.32705
8.68468
10.7272
10.7397
8.72324
6.39406
4.53526
3.22196
2.32442
1.70891
1.2796
0.973586
0.750787
0.585465
0.460749
0.365324
0.291438
0.233656
0.188094
0.151921
0.123039
0.0998704
0.0812131
0.0661408
0.0539331
0.0440246
0.0359686
0.0294103
0.024067
0.0197129
0.0161679
0.0132881
0.0109536
0.00905183
0.00746398
0.00609708
0.0049379
0.00397454
0.002984
0.00240304
0.00178479
0.00103072
0.000881554
0.000449458
-0.0729141
-0.23056
-0.424526
-0.690535
-1.07912
-1.6528
-2.4275
-3.15887
-3.12508
-2.32387
-1.47307
-0.810566
-0.31435
0.0879287
0.46158
0.863668
1.35488
2.01538
2.96546
4.38688
6.50613
9.37986
12.1297
12.141
9.41471
6.56677
4.47712
3.09185
2.18746
1.58682
1.17717
0.889763
0.68287
0.530621
0.416474
0.329546
0.26248
0.21018
0.16903
0.136417
0.110414
0.0895774
0.0728134
0.0592805
0.0483261
0.039439
0.0322164
0.0263385
0.0215508
0.0176504
0.0144757
0.0118981
0.00981127
0.00811381
0.00669326
0.00546053
0.00441646
0.00357013
0.00264533
0.00217684
0.00163994
0.000879107
0.000809838
0.000443552
-0.0674846
-0.214134
-0.398161
-0.659038
-1.05903
-1.69234
-2.63324
-3.63747
-3.60738
-2.54094
-1.53215
-0.819328
-0.322553
0.061464
0.409301
0.78126
1.23929
1.8672
2.79906
4.25996
6.59073
10.0598
13.7886
13.7986
10.0908
6.64481
4.34049
2.91211
2.02155
1.44815
1.0652
0.800375
0.611671
0.473822
0.371031
0.29307
0.233109
0.186462
0.14983
0.120841
0.0977545
0.0792731
0.0644152
0.0524284
0.0427305
0.034866
0.0284765
0.0232781
0.0190448
0.0155967
0.0127909
0.0105139
0.00867281
0.00717779
0.00592352
0.00482475
0.00389563
0.00317047
0.0023129
0.00194567
0.00149731
0.000711946
0.000714481
0.000438489
-0.0611298
-0.194467
-0.364873
-0.614196
-1.01514
-1.69771
-2.82327
-4.20456
-4.17822
-2.74244
-1.55736
-0.804852
-0.318446
0.0400263
0.356819
0.69344
1.11091
1.69353
2.58424
4.04697
6.55184
10.6833
15.7692
15.7779
10.7105
6.59925
4.11759
2.6836
1.82951
1.29554
0.945724
0.706914
0.538262
0.415844
0.324985
0.256313
0.203636
0.16274
0.130676
0.105334
0.0851714
0.069044
0.0560869
0.0456392
0.0371899
0.0303404
0.0247772
0.020252
0.0165676
0.0135671
0.011126
0.00914588
0.0075467
0.00625068
0.00516061
0.00419507
0.00337974
0.00277745
0.00199055
0.00170688
0.00135375
0.000539277
0.000606269
0.000438153
-0.0540025
-0.172075
-0.325471
-0.556626
-0.945935
-1.66009
-2.98025
-4.88302
-4.86042
-2.91093
-1.53964
-0.765273
-0.302129
0.0235915
0.304763
0.601713
0.972268
1.49781
2.32372
3.74283
6.35788
11.1881
18.1552
18.1627
11.2114
6.39858
3.80347
2.40921
1.61505
1.13192
0.820813
0.61081
0.463637
0.357385
0.278834
0.219638
0.174331
0.139216
0.111721
0.0900125
0.0727559
0.0589619
0.0478853
0.0389578
0.0317404
0.0258913
0.0211416
0.0172789
0.0141344
0.0115739
0.00949113
0.00780229
0.00643989
0.00533819
0.00440927
0.00357604
0.00287263
0.00239163
0.00168144
0.00145949
0.0012057
0.000376112
0.000499045
0.000442939
-0.0462618
-0.147535
-0.280989
-0.487549
-0.851046
-1.57061
-3.07887
-5.70211
-5.68323
-3.02095
-1.46993
-0.699905
-0.274357
0.0118419
0.253627
0.507544
0.826067
1.2842
2.02232
3.3465
5.97697
11.4827
21.0534
21.0596
11.5022
6.01099
3.39721
2.09393
1.38256
0.960344
0.692483
0.513396
0.38869
0.299062
0.233012
0.183356
0.14542
0.116058
0.093092
0.0749751
0.0605832
0.0490851
0.0398563
0.0324205
0.0264109
0.0215417
0.0175884
0.014374
0.0117574
0.00962706
0.00789438
0.00648985
0.005358
0.00444493
0.00367335
0.00297144
0.00237783
0.0020125
0.0013877
0.00120527
0.00104968
0.000238731
0.000403991
0.000446682
-0.0380689
-0.121448
-0.232617
-0.408754
-0.731526
-1.42133
-3.08304
-6.69905
-6.68383
-3.03635
-1.34013
-0.609543
-0.236521
0.00421805
0.203775
0.412313
0.675031
1.05738
1.68686
2.8621
5.38062
11.4364
24.5993
24.6043
11.4522
5.40806
2.90301
1.7447
1.13693
0.783858
0.562634
0.415877
0.314212
0.241403
0.187885
0.147727
0.11709
0.0934033
0.0748925
0.0602996
0.0487132
0.0394605
0.0320364
0.0260564
0.0212243
0.0173099
0.0141323
0.0115489
0.00944616
0.00773427
0.00634208
0.00521384
0.00430548
0.00357458
0.00295582
0.00238426
0.00189855
0.00163886
0.00111006
0.000949166
0.000882842
0.000139583
0.000324453
0.000435963
-0.0295868
-0.0944116
-0.181633
-0.322515
-0.590099
-1.20676
-2.94256
-7.92094
-7.9093
-2.90685
-1.14463
-0.496696
-0.190551
-1.2206e-05
0.155461
0.317272
0.521802
0.822269
1.32584
2.29972
4.54912
10.8675
28.9643
28.9681
10.8795
4.57011
2.33105
1.37014
0.883275
0.605393
0.432992
0.319315
0.240877
0.184855
0.143757
0.112961
0.0894925
0.0713632
0.0572042
0.0460476
0.0371932
0.0301243
0.0244539
0.0198874
0.0161981
0.0132099
0.0107844
0.00881262
0.00720786
0.00590142
0.00483904
0.00397824
0.00328575
0.00273003
0.00225898
0.00181679
0.00143774
0.00126936
0.000847619
0.000698983
0.000703499
8.22317e-05
0.000254275
0.00039368
-0.0209821
-0.066998
-0.129317
-0.231446
-0.431254
-0.925945
-2.58903
-9.42684
-9.41868
-2.56398
-0.882342
-0.365678
-0.138769
-0.00167614
0.108846
0.223523
0.368821
0.583751
0.948877
1.67583
3.47911
9.52765
34.363
34.3657
9.5361
3.49383
1.69783
0.979993
0.626624
0.427637
0.305073
0.224609
0.169247
0.129782
0.10087
0.0792274
0.0627467
0.0500228
0.04009
0.0322662
0.0260585
0.0211038
0.0171299
0.0139302
0.0113454
0.00925202
0.007553
0.00617185
0.00504784
0.0041328
0.00338874
0.00278595
0.00230134
0.00191349
0.00158453
0.00127057
0.000997925
0.000903048
0.000597802
0.000464189
0.000511814
5.82318e-05
0.000181992
0.000307559
-0.0124281
-0.0397395
-0.0768787
-0.138308
-0.261117
-0.585197
-1.93107
-11.2902
-11.2854
-1.91632
-0.55951
-0.222476
-0.0836951
-0.00161797
0.0640232
0.131994
0.218247
0.346404
0.566085
1.01277
2.19357
7.08547
41.0625
41.0641
7.09045
2.20224
1.02574
0.584421
0.371681
0.252952
0.180161
0.132506
0.0997751
0.0764719
0.0594145
0.0466542
0.0369417
0.0294459
0.0235961
0.0189893
0.0153347
0.0124182
0.0100794
0.00819631
0.00667526
0.00544342
0.00444371
0.00363106
0.00296972
0.00243135
0.00199358
0.00163897
0.00135402
0.00112658
0.000933691
0.000746526
0.000581086
0.000539782
0.000356679
0.000254076
0.0003104
4.77097e-05
0.000101032
0.000181966
-0.00410406
-0.0131168
-0.0253834
-0.0457779
-0.0870346
-0.201592
-0.848891
-13.6016
-13.6
-0.844042
-0.193147
-0.0743287
-0.0278225
-0.000629695
0.0210334
0.0434439
0.0719021
0.114276
0.187227
0.337256
0.75454
3.10613
49.3914
49.3919
3.10776
0.757385
0.341525
0.193256
0.122589
0.0833208
0.0592987
0.0435921
0.0328136
0.025144
0.0195323
0.0153354
0.0121417
0.00967738
0.00775438
0.00624017
0.00503905
0.00408056
0.00331195
0.00269315
0.00219333
0.00178855
0.00146006
0.00119304
0.000975738
0.000798836
0.000654995
0.000538484
0.000444899
0.000370429
0.000307345
0.000245024
0.000188492
0.000180511
0.000119609
7.56382e-05
0.000104842
2.45467e-05
2.23108e-05
4.81334e-05
)
;

boundaryField
{
    left
    {
        type            calculated;
        value           uniform 0;
    }
    right
    {
        type            calculated;
        value           uniform 0;
    }
    interface
    {
        type            calculated;
        value           nonuniform List<scalar> 
64
(
-0.00410406
-0.0131168
-0.0253834
-0.0457779
-0.0870346
-0.201592
-0.848891
-13.6016
-13.6
-0.844042
-0.193147
-0.0743287
-0.0278225
-0.000629695
0.0210334
0.0434439
0.0719021
0.114276
0.187227
0.337256
0.75454
3.10613
49.3914
49.3919
3.10776
0.757385
0.341525
0.193256
0.122589
0.0833208
0.0592987
0.0435921
0.0328136
0.025144
0.0195323
0.0153354
0.0121417
0.00967738
0.00775438
0.00624017
0.00503905
0.00408056
0.00331195
0.00269315
0.00219333
0.00178855
0.00146006
0.00119304
0.000975738
0.000798836
0.000654995
0.000538484
0.000444899
0.000370429
0.000307345
0.000245024
0.000188492
0.000180511
0.000119609
7.56382e-05
0.000104842
2.45467e-05
2.23108e-05
4.81334e-05
)
;
    }
    bottom
    {
        type            calculated;
        value           nonuniform List<scalar> 
64
(
-0.00188119
-0.00550969
-0.00876808
-0.0113932
-0.0131217
-0.0137181
-0.0129385
-0.0105913
-0.00654308
-0.000723638
0.00686326
0.0161394
0.026957
0.0391039
0.0523034
0.0662106
0.0804067
0.0943968
0.107619
0.119469
0.129347
0.136718
0.141183
0.142535
0.140794
0.136208
0.129207
0.120349
0.110235
0.0994529
0.088517
0.0778447
0.0677435
0.0584174
0.0499802
0.0424739
0.0358879
0.0301755
0.0252679
0.0210851
0.0175435
0.0145612
0.0120612
0.00997344
0.00823543
0.00679233
0.00559669
0.00460784
0.0037912
0.00311755
0.00256227
0.00210471
0.00172754
0.00141628
0.00115882
0.000945101
0.000766792
0.000616993
0.000489932
0.000380659
0.000284857
0.000198687
0.000118335
3.95566e-05
)
;
    }
    defaultFaces
    {
        type            empty;
    }
}


// ************************************************************************* //
