/*--------------------------------*- C++ -*----------------------------------*\
| =========                 |                                                 |
| \\      /  F ield         | OpenFOAM: The Open Source CFD Toolbox           |
|  \\    /   O peration     | Version:  5.x                                   |
|   \\  /    A nd           | Web:      www.OpenFOAM.org                      |
|    \\/     M anipulation  |                                                 |
\*---------------------------------------------------------------------------*/
FoamFile
{
    version     2.0;
    format      ascii;
    class       volScalarField;
    location    "0.1";
    object      T;
}
// * * * * * * * * * * * * * * * * * * * * * * * * * * * * * * * * * * * * * //

dimensions      [0 0 0 1 0 0 0];

internalField   nonuniform List<scalar> 
2048
(
9.79696
9.7969
9.79679
9.79663
9.79643
9.79622
9.79601
9.79582
9.79567
9.79561
9.79565
9.79583
9.79616
9.79667
9.79738
9.7983
9.79945
9.80082
9.8024
9.80418
9.80613
9.80822
9.8104
9.81263
9.81486
9.81703
9.81911
9.82107
9.82287
9.82451
9.82598
9.82728
9.82842
9.8294
9.83024
9.83096
9.83157
9.83208
9.83251
9.83287
9.83317
9.83342
9.83363
9.8338
9.83394
9.83405
9.83415
9.83423
9.83429
9.83435
9.83439
9.83443
9.83446
9.83448
9.8345
9.83452
9.83453
9.83454
9.83455
9.83456
9.83456
9.83457
9.83457
9.83457
9.39987
9.39969
9.39935
9.39886
9.39827
9.39762
9.39697
9.39639
9.39595
9.39574
9.39584
9.39633
9.39729
9.39878
9.40087
9.4036
9.40698
9.41103
9.41573
9.42102
9.42682
9.43303
9.43953
9.44616
9.45278
9.45924
9.46543
9.47123
9.47658
9.48143
9.48577
9.48961
9.49295
9.49585
9.49833
9.50044
9.50223
9.50373
9.505
9.50605
9.50693
9.50766
9.50826
9.50876
9.50917
9.50951
9.5098
9.51003
9.51022
9.51037
9.5105
9.51061
9.51069
9.51077
9.51082
9.51087
9.51091
9.51094
9.51097
9.51099
9.511
9.51101
9.51102
9.51102
9.0204
9.0201
9.01953
9.01871
9.0177
9.01659
9.01547
9.01445
9.01366
9.01325
9.01334
9.01408
9.0156
9.01799
9.02137
9.0258
9.03133
9.03797
9.04567
9.05438
9.06395
9.07421
9.08494
9.0959
9.10683
9.1175
9.12768
9.13722
9.146
9.15394
9.16103
9.16727
9.17271
9.1774
9.18142
9.18483
9.18772
9.19014
9.19218
9.19387
9.19528
9.19645
9.19742
9.19822
9.19889
9.19943
9.19988
9.20025
9.20056
9.20081
9.20101
9.20118
9.20132
9.20143
9.20153
9.2016
9.20167
9.20172
9.20176
9.20179
9.20181
9.20183
9.20184
9.20185
8.65794
8.65751
8.65668
8.6555
8.65405
8.65243
8.65078
8.64926
8.64805
8.64734
8.64734
8.64823
8.65019
8.65339
8.65796
8.66399
8.67157
8.6807
8.69135
8.70341
8.71671
8.731
8.74596
8.76123
8.77647
8.7913
8.80544
8.81864
8.83075
8.84167
8.85137
8.85989
8.86729
8.87366
8.8791
8.88371
8.8876
8.89086
8.89359
8.89586
8.89775
8.89932
8.90061
8.90169
8.90257
8.9033
8.9039
8.90439
8.9048
8.90513
8.90541
8.90563
8.90582
8.90597
8.9061
8.9062
8.90628
8.90635
8.9064
8.90644
8.90648
8.9065
8.90651
8.90652
8.31185
8.31128
8.31018
8.30861
8.30666
8.30447
8.30221
8.30009
8.29836
8.29725
8.29703
8.29796
8.30025
8.30413
8.30977
8.3173
8.32683
8.33838
8.35191
8.36731
8.38434
8.40268
8.42192
8.44157
8.46114
8.48016
8.49823
8.51505
8.5304
8.54418
8.55638
8.56705
8.57627
8.58418
8.59091
8.5966
8.60139
8.6054
8.60875
8.61153
8.61384
8.61575
8.61733
8.61864
8.61972
8.6206
8.62134
8.62194
8.62243
8.62284
8.62317
8.62344
8.62367
8.62385
8.62401
8.62413
8.62423
8.62431
8.62438
8.62443
8.62447
8.6245
8.62451
8.62452
7.98151
7.98079
7.9794
7.97739
7.97489
7.97205
7.96909
7.96627
7.96388
7.96225
7.96168
7.96251
7.965
7.96944
7.97602
7.98493
7.99631
8.0102
8.02658
8.0453
8.0661
8.08857
8.11217
8.1363
8.1603
8.18357
8.20559
8.22599
8.24451
8.26105
8.27561
8.28828
8.29919
8.30849
8.31638
8.32303
8.32861
8.33327
8.33715
8.34037
8.34304
8.34524
8.34707
8.34857
8.34981
8.35083
8.35167
8.35236
8.35293
8.35339
8.35378
8.35409
8.35435
8.35456
8.35474
8.35488
8.35499
8.35509
8.35516
8.35522
8.35527
8.3553
8.35532
8.35533
7.66631
7.66543
7.66371
7.66123
7.65811
7.65455
7.65079
7.64714
7.64396
7.64164
7.64059
7.64116
7.64372
7.64857
7.65597
7.66614
7.67926
7.69541
7.71459
7.73665
7.76127
7.78798
7.8161
7.84486
7.87343
7.90104
7.92706
7.95101
7.97263
7.99182
8.0086
8.02312
8.03555
8.0461
8.05501
8.06249
8.06874
8.07395
8.07828
8.08186
8.08483
8.08728
8.0893
8.09096
8.09233
8.09346
8.09439
8.09515
8.09577
8.09629
8.09671
8.09706
8.09734
8.09758
8.09777
8.09793
8.09805
8.09816
8.09824
8.09831
8.09836
8.09839
8.09842
8.09843
7.36566
7.3646
7.36254
7.35954
7.35574
7.35136
7.34668
7.34206
7.33794
7.33479
7.33308
7.33326
7.33573
7.34084
7.34892
7.36023
7.37498
7.39331
7.41524
7.44064
7.46918
7.50026
7.5331
7.5667
7.60002
7.63211
7.66217
7.68966
7.71431
7.73602
7.75487
7.77107
7.78485
7.7965
7.80628
7.81446
7.82127
7.82693
7.83161
7.83549
7.83869
7.84133
7.8435
7.84529
7.84677
7.84798
7.84897
7.84979
7.85046
7.85101
7.85147
7.85184
7.85214
7.85239
7.8526
7.85277
7.8529
7.85301
7.8531
7.85317
7.85323
7.85327
7.85329
7.85331
7.07895
7.07772
7.07528
7.07173
7.0672
7.06191
7.05619
7.05046
7.04523
7.04107
7.03854
7.03815
7.04038
7.04563
7.05424
7.06654
7.0828
7.1032
7.12783
7.1566
7.18913
7.22478
7.26257
7.30127
7.33958
7.3763
7.41048
7.44151
7.46908
7.49317
7.51393
7.53163
7.5466
7.55917
7.56967
7.57842
7.58568
7.59168
7.59665
7.60074
7.60412
7.6069
7.60919
7.61107
7.61261
7.61388
7.61492
7.61578
7.61648
7.61706
7.61754
7.61792
7.61824
7.61851
7.61872
7.6189
7.61904
7.61916
7.61925
7.61932
7.61938
7.61942
7.61945
7.61946
6.80563
6.80421
6.80139
6.79725
6.79192
6.78564
6.77875
6.77174
6.76523
6.75988
6.75636
6.75526
6.75709
6.76232
6.77132
6.78447
6.80209
6.82445
6.85172
6.88385
6.9205
6.96091
7.00394
7.04806
7.09163
7.13318
7.17157
7.2061
7.2365
7.26281
7.2853
7.30431
7.32027
7.3336
7.34467
7.35385
7.36144
7.3677
7.37286
7.37711
7.38061
7.38348
7.38584
7.38778
7.38937
7.39068
7.39175
7.39263
7.39335
7.39395
7.39443
7.39483
7.39516
7.39543
7.39565
7.39583
7.39598
7.3961
7.3962
7.39627
7.39633
7.39637
7.3964
7.39641
6.54514
6.54352
6.54031
6.53556
6.52939
6.52202
6.51383
6.50539
6.4974
6.49067
6.48598
6.484
6.4853
6.49036
6.49961
6.51345
6.53228
6.55647
6.58628
6.62177
6.66263
6.70805
6.75665
6.80657
6.85575
6.90235
6.94502
6.98301
7.01611
7.04447
7.06846
7.08859
7.10536
7.11926
7.13076
7.14024
7.14805
7.15448
7.15976
7.16409
7.16765
7.17058
7.17297
7.17494
7.17656
7.17788
7.17897
7.17986
7.18059
7.18119
7.18168
7.18209
7.18242
7.18269
7.18291
7.1831
7.18325
7.18337
7.18347
7.18354
7.1836
7.18364
7.18367
7.18368
6.29692
6.29511
6.29152
6.28614
6.27908
6.27054
6.26093
6.25086
6.2412
6.23289
6.22684
6.22383
6.22447
6.22924
6.23858
6.25296
6.27283
6.29868
6.33092
6.36973
6.4149
6.46559
6.52018
6.57635
6.63152
6.68341
6.73044
6.77184
6.80747
6.83766
6.86295
6.88396
6.90134
6.91565
6.92742
6.93708
6.94501
6.95151
6.95683
6.9612
6.96478
6.96771
6.97011
6.97208
6.9737
6.97502
6.97611
6.977
6.97773
6.97833
6.97882
6.97922
6.97955
6.97982
6.98005
6.98023
6.98038
6.9805
6.9806
6.98067
6.98073
6.98077
6.9808
6.98081
6.06045
6.05846
6.05448
6.04848
6.0405
6.03073
6.01956
6.00768
5.99612
5.98601
5.97844
5.97426
5.97411
5.97846
5.98777
6.00251
6.02324
6.05056
6.08506
6.12713
6.1767
6.23294
6.29397
6.35694
6.41856
6.47602
6.52747
6.57216
6.61014
6.64191
6.66825
6.68992
6.7077
6.72226
6.73415
6.74388
6.75182
6.75831
6.76362
6.76796
6.77151
6.77442
6.7768
6.77875
6.78034
6.78165
6.78272
6.7836
6.78432
6.78491
6.78539
6.78579
6.78612
6.78639
6.78661
6.78679
6.78694
6.78705
6.78715
6.78723
6.78728
6.78732
6.78734
6.78736
5.8352
5.83304
5.8287
5.82209
5.8132
5.80213
5.78926
5.77537
5.76166
5.74954
5.74027
5.7348
5.73375
5.73758
5.74672
5.76166
5.78304
5.81161
5.84818
5.89339
5.94742
6.00951
6.07752
6.14793
6.21654
6.27984
6.33575
6.3836
6.42367
6.45676
6.48387
6.50598
6.52396
6.53858
6.55047
6.56013
6.568
6.57442
6.57965
6.58392
6.5874
6.59025
6.59258
6.59449
6.59605
6.59733
6.59837
6.59923
6.59993
6.60051
6.60098
6.60137
6.60168
6.60195
6.60216
6.60234
6.60248
6.6026
6.60269
6.60277
6.60282
6.60286
6.60288
6.6029
5.62067
5.61837
5.61369
5.60651
5.5967
5.5843
5.56961
5.55349
5.53736
5.52298
5.51184
5.50497
5.50296
5.50618
5.51503
5.53001
5.55182
5.58139
5.61977
5.66794
5.72644
5.79469
5.87032
5.94894
6.02515
6.09459
6.15496
6.20575
6.24762
6.28173
6.30934
6.33163
6.34961
6.36413
6.37588
6.38539
6.3931
6.39937
6.40447
6.40863
6.41201
6.41478
6.41704
6.41888
6.42039
6.42163
6.42264
6.42347
6.42414
6.4247
6.42516
6.42553
6.42584
6.42609
6.4263
6.42647
6.42661
6.42672
6.42681
6.42688
6.42694
6.42697
6.42699
6.42701
5.41636
5.41394
5.40897
5.40128
5.39059
5.37683
5.3602
5.34161
5.32276
5.30586
5.2927
5.28435
5.28132
5.28388
5.29234
5.30718
5.3292
5.35948
5.39936
5.45026
5.51318
5.5879
5.67185
5.75961
5.84414
5.92002
5.98476
6.03823
6.08156
6.11634
6.14415
6.16638
6.18418
6.19845
6.20993
6.21919
6.22667
6.23274
6.23766
6.24166
6.24492
6.24758
6.24975
6.25152
6.25297
6.25415
6.25512
6.25591
6.25656
6.25709
6.25753
6.25789
6.25818
6.25842
6.25862
6.25879
6.25892
6.25903
6.25912
6.25918
6.25923
6.25927
6.25929
6.2593
5.2218
5.21929
5.21409
5.20594
5.19445
5.17934
5.16066
5.13933
5.11741
5.09771
5.08239
5.07252
5.06846
5.07032
5.07829
5.09285
5.11483
5.1455
5.18653
5.23982
5.30703
5.38849
5.48161
5.57964
5.6733
5.75589
5.82487
5.88066
5.92505
5.96014
5.98785
6.00977
6.02719
6.04107
6.05218
6.0611
6.06829
6.0741
6.07881
6.08263
6.08573
6.08826
6.09033
6.09201
6.09339
6.09451
6.09543
6.09618
6.0968
6.0973
6.09772
6.09805
6.09833
6.09856
6.09875
6.09891
6.09904
6.09914
6.09922
6.09928
6.09933
6.09936
6.09938
6.09939
5.03652
5.03395
5.02859
5.02008
5.00787
4.99146
4.97065
4.94629
4.92087
4.89807
4.88046
4.86907
4.86401
4.86516
4.87259
4.8867
4.9084
4.93912
4.98087
5.03614
5.1074
5.19584
5.29905
5.40876
5.5125
5.60202
5.67497
5.73263
5.77763
5.81264
5.83994
5.86133
5.87819
5.89155
5.90219
5.9107
5.91754
5.92306
5.92751
5.93113
5.93406
5.93645
5.93839
5.93998
5.94127
5.94233
5.9432
5.9439
5.94448
5.94496
5.94535
5.94567
5.94593
5.94615
5.94632
5.94647
5.94659
5.94669
5.94676
5.94682
5.94687
5.9469
5.94691
5.94693
4.86007
4.85748
4.85203
4.84328
4.83048
4.81285
4.78984
4.76214
4.73271
4.70648
4.68651
4.67364
4.66764
4.6681
4.67493
4.68847
4.70964
4.74005
4.78205
4.83877
4.91369
5.00924
5.12364
5.24677
5.36167
5.45824
5.53477
5.59376
5.63887
5.67339
5.69998
5.72061
5.73675
5.74947
5.75956
5.7676
5.77404
5.77922
5.78341
5.78679
5.78954
5.79177
5.79359
5.79507
5.79628
5.79726
5.79807
5.79873
5.79927
5.79971
5.80008
5.80037
5.80062
5.80082
5.80099
5.80112
5.80123
5.80133
5.8014
5.80145
5.80149
5.80152
5.80154
5.80155
4.69201
4.68943
4.68398
4.67512
4.66189
4.64318
4.61796
4.58657
4.55249
4.52247
4.5001
4.48586
4.47903
4.47886
4.48505
4.49789
4.5183
4.54803
4.58976
4.64729
4.72532
4.82799
4.95476
5.09356
5.22079
5.32442
5.40396
5.46364
5.50829
5.54192
5.5675
5.58718
5.60246
5.61444
5.62389
5.63141
5.63742
5.64224
5.64613
5.64927
5.65182
5.65389
5.65557
5.65694
5.65806
5.65897
5.65971
5.66032
5.66082
5.66123
5.66157
5.66184
5.66207
5.66225
5.66241
5.66253
5.66264
5.66272
5.66279
5.66284
5.66288
5.6629
5.66292
5.66293
4.53192
4.5294
4.52404
4.5152
4.50173
4.48215
4.45477
4.41931
4.37977
4.34559
4.32085
4.3054
4.29789
4.29716
4.30271
4.31473
4.33416
4.36283
4.40373
4.46134
4.54172
4.6513
4.79173
4.94911
5.08997
5.20043
5.28222
5.34182
5.38545
5.41778
5.44208
5.46061
5.4749
5.48605
5.49483
5.50178
5.50732
5.51177
5.51534
5.51823
5.52057
5.52247
5.52401
5.52526
5.52629
5.52712
5.52781
5.52836
5.52882
5.52919
5.5295
5.52975
5.52996
5.53013
5.53027
5.53039
5.53048
5.53056
5.53062
5.53066
5.5307
5.53072
5.53074
5.53075
4.3794
4.37698
4.37179
4.36312
4.34965
4.32945
4.30005
4.26015
4.21408
4.17535
4.14836
4.13196
4.12395
4.12276
4.12767
4.13879
4.15702
4.18427
4.22376
4.2806
4.36237
4.47832
4.63376
4.81355
4.96938
5.08615
5.1692
5.22788
5.26988
5.30051
5.32329
5.3405
5.35371
5.36396
5.37201
5.37836
5.38342
5.38747
5.39072
5.39335
5.39547
5.39719
5.39859
5.39973
5.40066
5.40142
5.40203
5.40254
5.40295
5.40329
5.40357
5.4038
5.40399
5.40414
5.40427
5.40437
5.40446
5.40453
5.40458
5.40462
5.40466
5.40468
5.40469
5.4047
4.23406
4.23178
4.22685
4.21851
4.20527
4.18479
4.15362
4.10893
4.05491
4.01127
3.98229
3.96524
3.95696
3.95541
3.9597
3.96984
3.98669
4.01218
4.04967
4.10485
4.18676
4.30816
4.47988
4.68722
4.85929
4.98143
5.0645
5.12134
5.16112
5.18969
5.21071
5.22648
5.23851
5.24782
5.2551
5.26084
5.2654
5.26904
5.27196
5.27432
5.27623
5.27777
5.27903
5.28005
5.28088
5.28156
5.28211
5.28256
5.28293
5.28324
5.28349
5.28369
5.28386
5.284
5.28411
5.2842
5.28428
5.28434
5.28439
5.28443
5.28446
5.28448
5.28449
5.2845
4.09553
4.09342
4.08883
4.08097
4.06824
4.04788
4.01535
3.96559
3.90168
3.85286
3.82228
3.80498
3.79667
3.7949
3.79859
3.80769
3.82301
3.84642
3.88136
3.93389
4.01448
4.13985
4.32885
4.57074
4.76006
4.88608
4.96771
5.02172
5.05871
5.0849
5.10397
5.11818
5.12898
5.1373
5.14379
5.14889
5.15294
5.15618
5.15877
5.16086
5.16255
5.16391
5.16502
5.16593
5.16666
5.16726
5.16775
5.16815
5.16848
5.16875
5.16897
5.16915
5.1693
5.16942
5.16952
5.1696
5.16967
5.16972
5.16977
5.1698
5.16983
5.16984
5.16985
5.16987
3.96346
3.96155
3.95738
3.95014
3.93819
3.91842
3.88513
3.83019
3.75374
3.69962
3.66804
3.65096
3.64289
3.64101
3.64414
3.65216
3.66581
3.68687
3.71873
3.76763
3.8452
3.97237
4.17905
4.46516
4.67211
4.79987
4.87834
4.92854
4.9622
4.98571
5.00269
5.01527
5.02478
5.03209
5.03777
5.04224
5.04578
5.04861
5.05087
5.05269
5.05416
5.05535
5.05632
5.0571
5.05775
5.05827
5.05869
5.05904
5.05933
5.05956
5.05975
5.05991
5.06004
5.06014
5.06023
5.0603
5.06036
5.06041
5.06045
5.06047
5.0605
5.06051
5.06052
5.06053
3.83752
3.83583
3.83214
3.82566
3.81474
3.7961
3.76287
3.70296
3.61027
3.55108
3.5193
3.50296
3.49539
3.49352
3.49613
3.50304
3.51493
3.53343
3.56174
3.60604
3.6787
3.80473
4.02833
4.37208
4.59591
4.72243
4.79587
4.84129
4.87116
4.89176
4.90653
4.91741
4.92562
4.9319
4.93678
4.94062
4.94365
4.94606
4.948
4.94956
4.95081
4.95183
4.95265
4.95333
4.95387
4.95432
4.95468
4.95498
4.95522
4.95542
4.95558
4.95572
4.95583
4.95592
4.95599
4.95606
4.9561
4.95615
4.95618
4.9562
4.95623
4.95624
4.95624
4.95625
3.71739
3.71594
3.71278
3.70716
3.69754
3.68056
3.64846
3.58435
3.47027
3.40675
3.37586
3.36081
3.35399
3.35224
3.35436
3.36017
3.37022
3.38598
3.41035
3.44918
3.51493
3.63596
3.87376
4.29388
4.53188
4.65332
4.71972
4.75948
4.78515
4.80269
4.81517
4.82433
4.83121
4.83647
4.84055
4.84375
4.84628
4.8483
4.84991
4.85121
4.85225
4.8531
4.85379
4.85435
4.8548
4.85517
4.85547
4.85572
4.85592
4.85609
4.85622
4.85634
4.85643
4.8565
4.85657
4.85662
4.85666
4.85669
4.85672
4.85674
4.85676
4.85677
4.85677
4.85678
3.60277
3.60158
3.59898
3.59431
3.5862
3.57145
3.54179
3.47511
3.33244
3.26624
3.23755
3.22436
3.21851
3.21697
3.21864
3.22333
3.23152
3.24443
3.26457
3.29714
3.35401
3.46529
3.71139
4.23402
4.48028
4.5919
4.64928
4.68261
4.7038
4.71814
4.7283
4.73573
4.74129
4.74555
4.74884
4.75142
4.75345
4.75508
4.75637
4.75742
4.75826
4.75894
4.75949
4.75994
4.76031
4.7606
4.76085
4.76104
4.76121
4.76134
4.76145
4.76154
4.76161
4.76167
4.76172
4.76176
4.7618
4.76182
4.76185
4.76186
4.76188
4.76189
4.76188
4.7619
3.49339
3.49246
3.49044
3.48679
3.48036
3.46835
3.44265
3.37639
3.19512
3.12923
3.10428
3.09346
3.08876
3.0875
3.08876
3.09236
3.09867
3.10867
3.12437
3.1501
3.19624
3.29226
3.53584
4.19739
4.4411
4.53738
4.58391
4.61022
4.62673
4.63783
4.64565
4.65136
4.65563
4.65888
4.6614
4.66338
4.66493
4.66617
4.66716
4.66796
4.6686
4.66912
4.66954
4.66989
4.67017
4.67039
4.67058
4.67073
4.67085
4.67096
4.67104
4.67111
4.67116
4.67121
4.67125
4.67128
4.6713
4.67132
4.67134
4.67135
4.67137
4.67137
4.67137
4.67138
3.38898
3.38832
3.38688
3.38428
3.37965
3.3708
3.35072
3.2899
3.05613
2.99556
2.976
2.96799
2.96457
2.96365
2.96452
2.96706
2.97151
2.97858
2.98975
3.00823
3.04212
3.11696
3.33986
4.1908
4.41379
4.4888
4.52297
4.54186
4.55359
4.56144
4.56696
4.57098
4.57398
4.57626
4.57803
4.57942
4.58051
4.58138
4.58207
4.58263
4.58308
4.58344
4.58374
4.58398
4.58418
4.58433
4.58446
4.58457
4.58466
4.58473
4.58479
4.58483
4.58487
4.58491
4.58493
4.58496
4.58497
4.58499
4.585
4.58501
4.58502
4.58502
4.58502
4.58503
3.28929
3.2889
3.28805
3.2865
3.28372
3.27834
3.26544
3.21799
2.91262
2.86532
2.85273
2.84784
2.84578
2.84522
2.84573
2.84722
2.84985
2.85404
2.86068
2.87173
2.89233
2.94028
3.11375
4.22348
4.397
4.44506
4.46582
4.47712
4.48409
4.48873
4.49199
4.49436
4.49613
4.49748
4.49852
4.49934
4.49998
4.50049
4.5009
4.50123
4.50149
4.50171
4.50188
4.50202
4.50214
4.50223
4.50231
4.50237
4.50242
4.50246
4.5025
4.50252
4.50255
4.50257
4.50258
4.5026
4.50261
4.50261
4.50262
4.50262
4.50263
4.50263
4.50263
4.50264
3.19409
3.19396
3.19368
3.19317
3.19225
3.19045
3.18595
3.16392
2.7609
2.73892
2.73452
2.73288
2.7322
2.73201
2.73218
2.73267
2.73354
2.73492
2.73711
2.74077
2.74765
2.76435
2.84471
4.30783
4.38821
4.40495
4.41188
4.41562
4.41792
4.41945
4.42052
4.4213
4.42188
4.42233
4.42267
4.42294
4.42315
4.42332
4.42345
4.42356
4.42365
4.42372
4.42377
4.42382
4.42386
4.42389
4.42391
4.42394
4.42395
4.42397
4.42398
4.42399
4.42399
4.424
4.42401
4.42401
4.42401
4.42402
4.42402
4.42402
4.42402
4.42402
4.42402
4.42402
)
;

boundaryField
{
    left
    {
        type            zeroGradient;
    }
    right
    {
        type            zeroGradient;
    }
    interface
    {
        type            fixedValue;
        value           nonuniform List<scalar> 
64
(
3.1476
3.1476
3.1476
3.1476
3.1476
3.1476
3.1476
3.1476
2.67671
2.67671
2.67671
2.67671
2.67671
2.67671
2.67671
2.67671
2.67671
2.67671
2.67671
2.67671
2.67671
2.67671
2.67671
4.38568
4.38568
4.38568
4.38568
4.38568
4.38568
4.38568
4.38568
4.38568
4.38568
4.38568
4.38568
4.38568
4.38568
4.38568
4.38568
4.38568
4.38568
4.38568
4.38568
4.38568
4.38568
4.38568
4.38568
4.38568
4.38568
4.38568
4.38568
4.38568
4.38568
4.38568
4.38568
4.38568
4.38568
4.38568
4.38568
4.38568
4.38568
4.38568
4.38568
4.38568
)
;
    }
    bottom
    {
        type            fixedValue;
        value           uniform 10;
    }
    defaultFaces
    {
        type            empty;
    }
}


// ************************************************************************* //
