/*--------------------------------*- C++ -*----------------------------------*\
| =========                 |                                                 |
| \\      /  F ield         | OpenFOAM: The Open Source CFD Toolbox           |
|  \\    /   O peration     | Version:  5.x                                   |
|   \\  /    A nd           | Web:      www.OpenFOAM.org                      |
|    \\/     M anipulation  |                                                 |
\*---------------------------------------------------------------------------*/
FoamFile
{
    version     2.0;
    format      ascii;
    class       volScalarField;
    location    "1.7";
    object      gradTy;
}
// * * * * * * * * * * * * * * * * * * * * * * * * * * * * * * * * * * * * * //

dimensions      [0 -1 0 1 0 0 0];

internalField   nonuniform List<scalar> 
2048
(
-15.6289
-15.6319
-15.6372
-15.6434
-15.6485
-15.6496
-15.6433
-15.6254
-15.5912
-15.5356
-15.4533
-15.3388
-15.1869
-14.9927
-14.752
-14.4614
-14.1189
-13.7241
-13.2784
-12.7858
-12.2525
-11.6874
-11.1011
-10.5057
-9.91378
-9.3372
-8.78657
-8.27036
-7.79466
-7.36307
-6.97695
-6.63577
-6.33758
-6.07941
-5.85772
-5.66868
-5.50844
-5.37331
-5.25983
-5.16487
-5.08566
-5.01974
-4.96501
-4.91964
-4.88209
-4.85105
-4.82542
-4.80428
-4.78686
-4.7725
-4.7607
-4.75099
-4.74302
-4.73648
-4.73114
-4.72678
-4.72324
-4.72039
-4.71813
-4.71635
-4.71501
-4.71404
-4.71342
-4.71311
-15.6261
-15.6296
-15.636
-15.6439
-15.6513
-15.6552
-15.6523
-15.6382
-15.6081
-15.5568
-15.4788
-15.3686
-15.2206
-15.0299
-14.7918
-14.503
-14.1608
-13.7647
-13.3158
-12.8181
-12.2778
-11.7039
-11.1079
-10.5024
-9.90072
-9.31559
-8.75807
-8.23694
-7.75831
-7.32561
-6.93989
-6.60029
-6.30448
-6.04918
-5.83058
-5.64465
-5.4874
-5.35505
-5.24409
-5.15139
-5.07415
-5.00995
-4.95668
-4.91256
-4.87607
-4.84592
-4.82104
-4.80052
-4.78361
-4.76969
-4.75824
-4.74883
-4.7411
-4.73476
-4.72958
-4.72536
-4.72193
-4.71917
-4.71697
-4.71525
-4.71395
-4.71301
-4.71241
-4.71211
-15.6203
-15.6249
-15.6334
-15.6444
-15.6561
-15.6654
-15.6688
-15.662
-15.6399
-15.5969
-15.5273
-15.4252
-15.2848
-15.1007
-14.868
-14.5825
-14.2412
-13.8429
-13.3882
-12.8806
-12.3267
-11.736
-11.121
-10.4957
-9.87517
-9.27346
-8.70271
-8.17224
-7.68818
-7.25359
-6.86893
-6.53257
-6.2415
-5.99182
-5.7792
-5.59926
-5.44774
-5.32069
-5.21453
-5.12608
-5.05257
-4.99159
-4.94108
-4.89931
-4.8648
-4.83632
-4.81284
-4.79348
-4.77754
-4.76442
-4.75364
-4.74477
-4.7375
-4.73154
-4.72666
-4.72269
-4.71946
-4.71686
-4.71479
-4.71318
-4.71195
-4.71107
-4.7105
-4.71021
-15.6113
-15.6173
-15.6287
-15.6442
-15.6619
-15.6789
-15.6915
-15.6951
-15.6843
-15.6533
-15.5958
-15.5054
-15.3761
-15.2018
-14.9769
-14.6967
-14.3572
-13.9561
-13.4934
-12.972
-12.3984
-11.7831
-11.14
-10.4856
-9.83721
-9.21125
-8.62141
-8.07775
-7.58635
-7.14963
-6.76705
-6.43588
-6.15202
-5.91068
-5.70683
-5.53554
-5.39222
-5.27272
-5.17335
-5.0909
-5.02261
-4.96613
-4.91947
-4.88096
-4.8492
-4.82303
-4.80148
-4.78373
-4.76913
-4.75712
-4.74725
-4.73915
-4.7325
-4.72705
-4.7226
-4.71896
-4.71602
-4.71364
-4.71175
-4.71027
-4.70915
-4.70834
-4.70782
-4.70756
-15.5985
-15.6063
-15.6213
-15.6423
-15.6676
-15.6942
-15.7185
-15.7354
-15.7393
-15.7236
-15.6817
-15.6065
-15.4914
-15.3299
-15.1157
-14.843
-14.5066
-14.103
-13.6307
-13.0919
-12.4929
-11.8452
-11.1649
-10.4716
-9.7863
-9.12848
-8.51401
-7.95387
-7.4539
-7.01548
-6.63658
-6.31293
-6.039
-5.8088
-5.61642
-5.4563
-5.32346
-5.21351
-5.12265
-5.04768
-4.98588
-4.93496
-4.89304
-4.85853
-4.83015
-4.8068
-4.7876
-4.77182
-4.75885
-4.74819
-4.73944
-4.73225
-4.72636
-4.72154
-4.71759
-4.71437
-4.71176
-4.70966
-4.70799
-4.70668
-4.70568
-4.70496
-4.7045
-4.70427
-15.5816
-15.5913
-15.6104
-15.6378
-15.6719
-15.71
-15.7482
-15.7813
-15.8029
-15.8058
-15.7827
-15.7259
-15.6283
-15.4827
-15.282
-15.0192
-14.6879
-14.2826
-13.8001
-13.2409
-12.611
-11.923
-11.1957
-10.4532
-9.72134
-9.02388
-8.37951
-7.8002
-7.2912
-6.8523
-6.47938
-6.16608
-5.90509
-5.68896
-5.51075
-5.36421
-5.24391
-5.14527
-5.06443
-4.99818
-4.94389
-4.89939
-4.86291
-4.833
-4.80846
-4.78833
-4.77181
-4.75825
-4.74712
-4.73799
-4.7305
-4.72436
-4.71932
-4.7152
-4.71183
-4.70909
-4.70686
-4.70506
-4.70363
-4.70251
-4.70166
-4.70104
-4.70065
-4.70044
-15.56
-15.5718
-15.5953
-15.6297
-15.6737
-15.7249
-15.7791
-15.831
-15.8733
-15.898
-15.8967
-15.8614
-15.7843
-15.6575
-15.4734
-15.2238
-14.9002
-14.4949
-14.0021
-13.4203
-12.7543
-12.0176
-11.2328
-10.4297
-9.64068
-8.89545
-8.21616
-7.6157
-7.09818
-6.66094
-6.29706
-5.99753
-5.7528
-5.55381
-5.39244
-5.26173
-5.15587
-5.07009
-5.00051
-4.944
-4.89805
-4.86063
-4.83012
-4.80522
-4.78487
-4.76824
-4.75462
-4.74348
-4.73435
-4.72687
-4.72074
-4.71572
-4.71161
-4.70824
-4.70549
-4.70325
-4.70143
-4.69997
-4.6988
-4.69788
-4.69718
-4.69668
-4.69635
-4.69618
-15.5333
-15.5473
-15.5753
-15.6171
-15.6718
-15.7373
-15.8097
-15.8829
-15.9488
-15.9983
-16.022
-16.011
-15.9571
-15.8522
-15.688
-15.4548
-15.1423
-14.7398
-14.238
-13.6321
-12.9251
-12.1309
-11.2767
-10.4
-9.54211
-8.74046
-8.02154
-7.39886
-6.87442
-6.44208
-6.09118
-5.8094
-5.5846
-5.4059
-5.26399
-5.15123
-5.06148
-4.98988
-4.93258
-4.8866
-4.8496
-4.81973
-4.79557
-4.77598
-4.76005
-4.7471
-4.73653
-4.72791
-4.72087
-4.71511
-4.7104
-4.70655
-4.7034
-4.70082
-4.69872
-4.69701
-4.69561
-4.69449
-4.69359
-4.69289
-4.69235
-4.69196
-4.69171
-4.69157
-15.5014
-15.5175
-15.5499
-15.5991
-15.6649
-15.7459
-15.8383
-15.9355
-16.0281
-16.1055
-16.1569
-16.1728
-16.1447
-16.0645
-15.9233
-15.7105
-15.4133
-15.0174
-14.5093
-13.8791
-13.1264
-12.2655
-11.3284
-10.3629
-9.42275
-8.55546
-7.79265
-7.1478
-6.61941
-6.19643
-5.86335
-5.60387
-5.40294
-5.24773
-5.12781
-5.03494
-4.96275
-4.90639
-4.86217
-4.8273
-4.79967
-4.77767
-4.76007
-4.74595
-4.73458
-4.72538
-4.71794
-4.71189
-4.70698
-4.70297
-4.69971
-4.69704
-4.69487
-4.69309
-4.69164
-4.69046
-4.6895
-4.68872
-4.6881
-4.68761
-4.68724
-4.68697
-4.68679
-4.68669
-15.4642
-15.4821
-15.5186
-15.575
-15.6521
-15.7494
-15.8635
-15.9874
-16.11
-16.2183
-16.3001
-16.345
-16.3449
-16.2919
-16.1771
-15.9889
-15.712
-15.3281
-14.8176
-14.1643
-13.3622
-12.4245
-11.389
-10.3169
-9.27898
-8.33614
-7.52588
-6.86038
-6.33263
-5.92482
-5.61536
-5.38326
-5.21033
-5.0818
-4.98623
-4.91495
-4.86152
-4.82123
-4.79065
-4.76726
-4.74924
-4.73525
-4.72433
-4.71573
-4.70893
-4.70352
-4.69919
-4.69572
-4.69293
-4.69067
-4.68884
-4.68736
-4.68615
-4.68517
-4.68437
-4.68372
-4.68319
-4.68275
-4.68241
-4.68213
-4.68192
-4.68177
-4.68167
-4.68161
-15.4219
-15.4412
-15.4812
-15.5441
-15.6321
-15.7463
-15.8839
-16.0373
-16.1933
-16.3358
-16.4504
-16.5263
-16.5557
-16.532
-16.4468
-16.2877
-16.0371
-15.6717
-15.1649
-14.4916
-13.6375
-12.6122
-11.4601
-10.26
-9.1062
-8.07728
-7.21711
-6.5344
-6.01378
-5.62842
-5.34925
-5.15004
-5.00932
-4.91056
-4.84147
-4.79321
-4.75947
-4.73583
-4.71921
-4.70748
-4.69915
-4.69319
-4.68891
-4.6858
-4.68352
-4.68184
-4.68059
-4.67965
-4.67893
-4.67839
-4.67796
-4.67763
-4.67738
-4.67717
-4.67701
-4.67687
-4.67675
-4.67666
-4.67658
-4.67651
-4.67646
-4.67642
-4.6764
-4.67639
-15.3747
-15.395
-15.4375
-15.5058
-15.6041
-15.7353
-15.898
-16.084
-16.2773
-16.4574
-16.6071
-16.7151
-16.775
-16.7822
-16.7295
-16.6042
-16.3865
-16.0478
-15.553
-14.8652
-13.9582
-12.8343
-11.544
-10.1899
-8.89868
-7.77264
-6.86174
-6.1677
-5.6629
-5.30877
-5.0674
-4.90689
-4.80257
-4.7364
-4.69564
-4.67152
-4.65811
-4.65143
-4.6489
-4.64882
-4.6501
-4.65207
-4.6543
-4.65656
-4.65869
-4.66064
-4.66236
-4.66387
-4.66516
-4.66627
-4.6672
-4.66798
-4.66864
-4.66918
-4.66962
-4.66998
-4.67027
-4.6705
-4.67068
-4.67081
-4.67091
-4.67099
-4.67104
-4.67107
-15.3231
-15.3437
-15.3876
-15.4599
-15.5671
-15.7149
-15.9041
-16.1264
-16.3615
-16.583
-16.7697
-16.9103
-17.001
-17.0399
-17.0221
-16.9354
-16.7578
-16.4556
-15.9835
-15.29
-14.3313
-13.0975
-11.6437
-10.1032
-8.64917
-7.41482
-6.45482
-5.75838
-5.28055
-4.96794
-4.77257
-4.65667
-4.59272
-4.56167
-4.55072
-4.55153
-4.55878
-4.56914
-4.5806
-4.592
-4.60269
-4.61236
-4.62091
-4.62834
-4.63471
-4.64013
-4.64471
-4.64855
-4.65176
-4.65444
-4.65666
-4.6585
-4.66002
-4.66127
-4.66229
-4.66313
-4.6638
-4.66433
-4.66476
-4.66509
-4.66533
-4.66552
-4.66565
-4.66572
-15.2679
-15.2879
-15.3317
-15.4059
-15.5201
-15.6835
-15.9006
-16.1631
-16.4456
-16.7128
-16.938
-17.1109
-17.2315
-17.3023
-17.3213
-17.2777
-17.1481
-16.8934
-16.4575
-15.7707
-14.7655
-13.411
-11.7632
-9.99579
-8.34858
-6.99516
-5.99116
-5.30502
-4.86798
-4.6086
-4.46786
-4.40238
-4.38245
-4.38859
-4.40851
-4.43467
-4.46262
-4.48985
-4.51503
-4.53759
-4.55736
-4.57444
-4.58903
-4.60138
-4.61178
-4.6205
-4.62777
-4.63382
-4.63884
-4.64299
-4.64643
-4.64926
-4.6516
-4.65351
-4.65508
-4.65636
-4.65739
-4.65821
-4.65887
-4.65938
-4.65977
-4.66006
-4.66025
-4.66038
-15.2097
-15.2284
-15.2703
-15.3439
-15.4623
-15.6396
-15.8854
-16.193
-16.53
-16.8475
-17.1124
-17.3162
-17.4648
-17.5665
-17.6236
-17.6272
-17.5535
-17.3587
-16.9753
-16.3124
-15.2705
-13.7861
-11.908
-9.86202
-7.98537
-6.50369
-5.46563
-4.80696
-4.42732
-4.23405
-4.15674
-4.14717
-4.17435
-4.21925
-4.27064
-4.32221
-4.37062
-4.41431
-4.45276
-4.48604
-4.51448
-4.53859
-4.55888
-4.57588
-4.59006
-4.60186
-4.61166
-4.61977
-4.62647
-4.63201
-4.63657
-4.64033
-4.64342
-4.64596
-4.64803
-4.64972
-4.65109
-4.65218
-4.65305
-4.65373
-4.65425
-4.65465
-4.6549
-4.65507
-15.1494
-15.1658
-15.2038
-15.274
-15.393
-15.5814
-15.8563
-16.2146
-16.6151
-16.9886
-17.2935
-17.5254
-17.6989
-17.8297
-17.9252
-17.9797
-17.9697
-17.8482
-17.5365
-16.9196
-15.8575
-14.2371
-12.0857
-9.69418
-7.545
-5.92907
-4.87343
-4.26459
-3.96165
-3.8482
-3.84294
-3.89416
-3.97091
-4.05554
-4.13854
-4.2152
-4.28353
-4.3431
-4.39424
-4.43768
-4.4743
-4.50501
-4.53064
-4.55196
-4.56966
-4.58433
-4.59645
-4.60647
-4.61473
-4.62154
-4.62715
-4.63176
-4.63554
-4.63865
-4.64119
-4.64326
-4.64493
-4.64627
-4.64734
-4.64818
-4.64882
-4.64932
-4.64963
-4.64984
-15.0882
-15.1013
-15.1333
-15.1964
-15.3116
-15.507
-15.8104
-16.2262
-16.7022
-17.1382
-17.4823
-17.738
-17.9319
-18.0889
-18.2225
-18.3307
-18.3919
-18.3574
-18.139
-17.5962
-16.539
-14.7826
-12.3071
-9.48149
-7.00909
-5.25876
-4.2106
-3.67967
-3.47517
-3.45558
-3.5304
-3.64647
-3.77444
-3.89913
-4.01338
-4.11447
-4.20197
-4.27665
-4.33976
-4.39274
-4.43699
-4.47382
-4.50439
-4.52971
-4.55064
-4.56794
-4.5822
-4.59396
-4.60365
-4.61162
-4.61818
-4.62357
-4.62799
-4.63162
-4.63458
-4.637
-4.63895
-4.64052
-4.64177
-4.64276
-4.6435
-4.64409
-4.64445
-4.6447
-15.0269
-15.0357
-15.0595
-15.112
-15.2179
-15.4145
-15.7444
-16.2252
-16.7932
-17.2993
-17.6801
-17.9535
-18.162
-18.3414
-18.5118
-18.6756
-18.8146
-18.8807
-18.7791
-18.3447
-17.3283
-15.4454
-12.5874
-9.20866
-6.35452
-4.47932
-3.47453
-3.05564
-2.97317
-3.06123
-3.22315
-3.40703
-3.58701
-3.75143
-3.89613
-4.02066
-4.12635
-4.21523
-4.28952
-4.35134
-4.40263
-4.44509
-4.48018
-4.50914
-4.53303
-4.55272
-4.56893
-4.58227
-4.59325
-4.60228
-4.6097
-4.61579
-4.62079
-4.62488
-4.62823
-4.63095
-4.63316
-4.63494
-4.63636
-4.63748
-4.63832
-4.63899
-4.63939
-4.63966
-14.9666
-14.9702
-14.9837
-15.0215
-15.1119
-15.3019
-15.6541
-16.2087
-16.8913
-17.4759
-17.8886
-18.1711
-18.3872
-18.5846
-18.7897
-19.01
-19.232
-19.4115
-19.4514
-19.1655
-18.2392
-16.2545
-12.9488
-8.85353
-5.55245
-3.577
-2.66474
-2.39788
-2.46203
-2.67052
-2.92513
-3.17857
-3.4104
-3.6136
-3.78749
-3.93421
-4.05693
-4.159
-4.24358
-4.31351
-4.37122
-4.4188
-4.458
-4.49026
-4.51682
-4.53866
-4.55662
-4.57139
-4.58352
-4.5935
-4.60169
-4.60841
-4.61392
-4.61844
-4.62213
-4.62514
-4.62758
-4.62954
-4.6311
-4.63235
-4.63327
-4.63402
-4.63444
-4.63471
-14.9082
-14.9058
-14.907
-14.9261
-14.994
-15.1675
-15.5344
-16.1717
-17.0011
-17.6728
-18.1094
-18.3902
-18.6056
-18.8157
-19.053
-19.3295
-19.6382
-19.9422
-20.1483
-20.0561
-19.2845
-17.2452
-13.4238
-8.38357
-4.56739
-2.53877
-1.78359
-1.71389
-1.94909
-2.289
-2.6401
-2.96347
-3.24607
-3.48647
-3.68794
-3.85536
-3.99381
-4.10797
-4.20194
-4.27922
-4.34274
-4.39493
-4.4378
-4.47302
-4.50195
-4.52572
-4.54525
-4.56128
-4.57445
-4.58526
-4.59414
-4.60143
-4.6074
-4.61229
-4.61628
-4.61954
-4.62218
-4.62431
-4.62601
-4.62736
-4.62836
-4.62916
-4.62961
-4.62987
-14.8526
-14.8437
-14.8309
-14.8275
-14.8651
-15.0097
-15.3791
-16.1075
-17.1297
-17.8964
-18.3439
-18.6096
-18.8153
-19.0327
-19.2988
-19.6303
-20.0275
-20.4646
-20.8599
-21.0104
-20.4753
-18.4606
-14.0607
-7.75056
-3.3565
-1.35377
-0.83716
-1.01337
-1.44242
-1.92219
-2.3715
-2.76373
-3.09513
-3.37061
-3.59772
-3.78419
-3.93698
-4.06208
-4.1645
-4.24837
-4.31707
-4.37336
-4.4195
-4.45735
-4.48839
-4.51385
-4.53476
-4.55191
-4.56599
-4.57755
-4.58703
-4.59481
-4.60118
-4.6064
-4.61066
-4.61414
-4.61696
-4.61923
-4.62105
-4.6225
-4.62356
-4.62441
-4.62487
-4.6251
-14.8006
-14.7847
-14.7566
-14.7274
-14.727
-14.8278
-15.1812
-16.0057
-17.2876
-18.154
-18.5932
-18.8276
-19.0142
-19.2335
-19.5248
-19.9088
-20.3943
-20.9701
-21.5744
-22.0178
-21.818
-19.9507
-14.9313
-6.88253
-1.86954
-0.0153759
0.163971
-0.308117
-0.950527
-1.57534
-2.12229
-2.58093
-2.95833
-3.26633
-3.51691
-3.72062
-3.8863
-4.02118
-4.13111
-4.22081
-4.29408
-4.35398
-4.403
-4.44314
-4.47603
-4.50299
-4.52509
-4.54322
-4.5581
-4.5703
-4.58031
-4.58852
-4.59524
-4.60075
-4.60525
-4.60892
-4.61189
-4.61429
-4.61621
-4.61774
-4.61886
-4.61974
-4.62022
-4.62041
-14.7528
-14.7298
-14.6857
-14.6279
-14.5819
-14.6218
-14.9326
-15.8509
-17.4904
-18.454
-18.8574
-19.042
-19.2002
-19.4163
-19.7291
-20.1623
-20.7338
-21.4501
-22.2783
-23.0628
-23.3126
-21.7721
-16.1432
-5.67201
-0.0500684
1.47617
1.20414
0.388317
-0.481981
-1.2532
-1.89488
-2.41617
-2.83608
-3.17368
-3.44537
-3.66446
-3.84156
-3.98505
-4.10157
-4.19637
-4.27362
-4.33667
-4.38818
-4.43031
-4.46479
-4.49304
-4.51619
-4.53516
-4.55072
-4.56348
-4.57395
-4.58253
-4.58955
-4.59531
-4.60001
-4.60384
-4.60696
-4.60947
-4.61147
-4.61308
-4.61424
-4.61514
-4.61563
-4.61579
-14.7096
-14.6797
-14.6192
-14.5313
-14.4332
-14.3934
-14.6248
-15.6202
-17.7618
-18.8052
-19.1353
-19.2502
-19.3714
-19.5799
-19.9106
-20.3887
-21.0416
-21.8962
-22.9567
-24.1242
-24.9487
-23.9844
-17.8568
-3.95882
2.1614
3.11059
2.26232
1.06113
-0.0449826
-0.959824
-1.6911
-2.27013
-2.7285
-3.09253
-3.38287
-3.61544
-3.80249
-3.95345
-4.07566
-4.17485
-4.25553
-4.32127
-4.37492
-4.41876
-4.45461
-4.48395
-4.50799
-4.52769
-4.54383
-4.55707
-4.56792
-4.57681
-4.5841
-4.59006
-4.59493
-4.59891
-4.60214
-4.60474
-4.60683
-4.60849
-4.60968
-4.61059
-4.6111
-4.61125
-14.6714
-14.6348
-14.5585
-14.4398
-14.2846
-14.1462
-14.25
-15.2794
-18.1362
-19.216
-19.4237
-19.4485
-19.5258
-19.7235
-20.0685
-20.5868
-21.3147
-22.3012
-23.5944
-25.176
-26.7027
-26.6436
-20.3091
-1.5058
4.82093
4.86413
3.31229
1.69501
0.353054
-0.698415
-1.51211
-2.14304
-2.63543
-3.02255
-3.32905
-3.57322
-3.76879
-3.92612
-4.05317
-4.15609
-4.23967
-4.30769
-4.36314
-4.40841
-4.44541
-4.47568
-4.50046
-4.52076
-4.5374
-4.55103
-4.56221
-4.57137
-4.57887
-4.58501
-4.59003
-4.59412
-4.59745
-4.60014
-4.60228
-4.60399
-4.60522
-4.60611
-4.60667
-4.60683
-14.6383
-14.5957
-14.5045
-14.3558
-14.1407
-13.8861
-13.8023
-14.7784
-18.6643
-19.693
-19.7173
-19.6332
-19.6619
-19.8465
-20.2028
-20.7559
-21.551
-22.659
-24.1768
-26.1878
-28.5341
-29.7915
-23.8483
2.03504
7.97005
6.69617
4.32353
2.27506
0.705911
-0.471216
-1.35846
-2.03477
-2.55648
-2.96331
-3.2835
-3.53745
-3.74015
-3.90281
-4.0339
-4.13991
-4.22589
-4.2958
-4.35275
-4.3992
-4.43716
-4.46819
-4.49359
-4.51439
-4.53144
-4.5454
-4.55685
-4.56622
-4.5739
-4.58019
-4.58533
-4.58952
-4.59293
-4.59568
-4.59787
-4.59962
-4.60088
-4.60175
-4.60237
-4.60257
-14.6105
-14.5624
-14.458
-14.2812
-14.0064
-13.6222
-13.2805
-14.0445
-19.4195
-20.2377
-20.0078
-19.7999
-19.7782
-19.9489
-20.3137
-20.8962
-21.7493
-22.9651
-24.6904
-27.1265
-30.3832
-33.4375
-28.9794
7.16844
11.6181
8.54671
5.2628
2.78781
1.0089
-0.279456
-1.23009
-1.94484
-2.4911
-2.91427
-3.24575
-3.50772
-3.71627
-3.88327
-4.01764
-4.12617
-4.21411
-4.28554
-4.3437
-4.39112
-4.42984
-4.46149
-4.48739
-4.50859
-4.52596
-4.5402
-4.55186
-4.56141
-4.56924
-4.57564
-4.58087
-4.58514
-4.58862
-4.59142
-4.59366
-4.59542
-4.59673
-4.59757
-4.59825
-4.59852
-14.5877
-14.5351
-14.4193
-14.2177
-13.8868
-13.366
-12.6921
-12.9732
-20.5068
-20.8435
-20.2841
-19.9444
-19.874
-20.0312
-20.4023
-21.0086
-21.9096
-23.2168
-25.1245
-27.9587
-32.1699
-37.5322
-36.4249
14.6168
15.7155
10.3355
6.09648
3.22219
1.2591
-0.123343
-1.12639
-1.87247
-2.43853
-2.87481
-3.21529
-3.48363
-3.69681
-3.86724
-4.0042
-4.11471
-4.20419
-4.27683
-4.33593
-4.38411
-4.42343
-4.45557
-4.48186
-4.50338
-4.52101
-4.53545
-4.54728
-4.55697
-4.56491
-4.5714
-4.57671
-4.58104
-4.58457
-4.58742
-4.58969
-4.59146
-4.59281
-4.59363
-4.59436
-4.5947
-14.5699
-14.5136
-14.3887
-14.1665
-13.7864
-13.132
-12.0582
-11.4174
-22.0739
-21.4895
-20.5325
-20.0629
-19.9489
-20.0942
-20.4697
-21.0944
-22.033
-23.4132
-25.4714
-28.6537
-33.7959
-41.9301
-47.2036
25.3988
20.1165
11.9643
6.79366
3.57045
1.45549
-0.00210178
-1.04625
-1.8166
-2.3979
-2.8442
-3.19153
-3.46472
-3.6814
-3.85443
-3.99335
-4.10536
-4.19599
-4.26954
-4.32936
-4.3781
-4.41788
-4.45038
-4.47697
-4.49873
-4.51655
-4.53114
-4.5431
-4.5529
-4.56092
-4.56748
-4.57285
-4.57723
-4.5808
-4.58368
-4.58597
-4.58773
-4.58913
-4.58995
-4.5907
-4.59109
-14.5566
-14.4976
-14.366
-14.1282
-13.7088
-12.9362
-11.4216
-9.1724
-24.3257
-22.1337
-20.7374
-20.1522
-20.0029
-20.1388
-20.5172
-21.1551
-22.1212
-23.5553
-25.7274
-29.1865
-35.1514
-46.3372
-62.7301
40.9291
24.5274
13.3234
7.32952
3.82882
1.59898
0.0859601
-0.988067
-1.77591
-2.36812
-2.82157
-3.17378
-3.4504
-3.66957
-3.84444
-3.98474
-4.09781
-4.18926
-4.26345
-4.32377
-4.37292
-4.41302
-4.44578
-4.47257
-4.4945
-4.51245
-4.52716
-4.53921
-4.54908
-4.55716
-4.56377
-4.56918
-4.57359
-4.57718
-4.5801
-4.58241
-4.58415
-4.58559
-4.58643
-4.58715
-4.58754
-14.5476
-14.4867
-14.3507
-14.1025
-13.6562
-12.7941
-10.856
-5.95862
-27.5422
-22.7025
-20.8836
-20.2105
-20.0368
-20.1663
-20.5464
-21.1927
-22.1763
-23.6453
-25.8926
-29.5415
-36.1278
-50.2442
-84.9369
63.1404
28.4391
14.3042
7.68873
3.99779
1.69225
0.143381
-0.949778
-1.74876
-2.34788
-2.80586
-3.16114
-3.43993
-3.66067
-3.83669
-3.97786
-4.09159
-4.18356
-4.25815
-4.31879
-4.36818
-4.40848
-4.44141
-4.46833
-4.49036
-4.5084
-4.52318
-4.53528
-4.5452
-4.55332
-4.55996
-4.56539
-4.56982
-4.57344
-4.57637
-4.57869
-4.5804
-4.58189
-4.58278
-4.5834
-4.58375
-14.5424
-14.4805
-14.3424
-14.0892
-13.6293
-12.7188
-10.4789
-1.4005
-32.0995
-23.079
-20.9588
-20.238
-20.0521
-20.1783
-20.5593
-21.2096
-22.2016
-23.6874
-25.9713
-29.7151
-36.6381
-52.8411
-116.421
94.6295
31.041
14.8195
7.86726
4.08114
1.73871
0.172571
-0.929752
-1.73405
-2.33646
-2.79659
-3.15334
-3.43315
-3.65463
-3.8312
-3.97278
-4.08683
-4.17904
-4.25382
-4.31461
-4.36412
-4.40452
-4.43752
-4.4645
-4.48658
-4.50466
-4.51947
-4.53161
-4.54154
-4.54968
-4.55634
-4.56178
-4.56622
-4.56984
-4.57279
-4.57512
-4.57679
-4.57833
-4.57928
-4.57974
-4.58012
)
;

boundaryField
{
    left
    {
        type            calculated;
        value           nonuniform List<scalar> 
32
(
-15.6289
-15.6261
-15.6203
-15.6113
-15.5985
-15.5816
-15.56
-15.5333
-15.5014
-15.4642
-15.4219
-15.3747
-15.3231
-15.2679
-15.2097
-15.1494
-15.0882
-15.0269
-14.9666
-14.9082
-14.8526
-14.8006
-14.7528
-14.7096
-14.6714
-14.6383
-14.6105
-14.5877
-14.5699
-14.5566
-14.5476
-14.5424
)
;
    }
    right
    {
        type            calculated;
        value           nonuniform List<scalar> 
32
(
-4.71311
-4.71211
-4.71021
-4.70756
-4.70427
-4.70044
-4.69618
-4.69157
-4.68669
-4.68161
-4.67639
-4.67107
-4.66572
-4.66038
-4.65507
-4.64984
-4.6447
-4.63966
-4.63471
-4.62987
-4.6251
-4.62041
-4.61579
-4.61125
-4.60683
-4.60257
-4.59852
-4.5947
-4.59109
-4.58754
-4.58375
-4.58012
)
;
    }
    interface
    {
        type            calculated;
        value           nonuniform List<scalar> 
64
(
-14.5407
-14.4786
-14.3399
-14.0855
-13.6224
-12.6991
-10.3554
1.26825
-34.7672
-23.2015
-20.9776
-20.2443
-20.0553
-20.1808
-20.562
-21.2132
-22.2072
-23.6971
-25.9898
-29.7571
-36.7681
-53.6891
-134.853
113.064
31.8913
14.9519
7.91157
4.10203
1.75065
0.180344
-0.924182
-1.72975
-2.33296
-2.7936
-3.1507
-3.43076
-3.65242
-3.82912
-3.9708
-4.08492
-4.17719
-4.25201
-4.31284
-4.36238
-4.4028
-4.43582
-4.46282
-4.48491
-4.503
-4.51782
-4.52996
-4.5399
-4.54804
-4.5547
-4.56014
-4.56458
-4.56821
-4.57116
-4.57349
-4.57515
-4.57671
-4.57769
-4.57806
-4.5785
)
;
    }
    bottom
    {
        type            calculated;
        value           nonuniform List<scalar> 
64
(
-15.6297
-15.6325
-15.6375
-15.6433
-15.6478
-15.6481
-15.641
-15.6221
-15.5868
-15.5301
-15.4466
-15.331
-15.1781
-14.983
-14.7416
-14.4507
-14.1081
-13.7136
-13.2687
-12.7774
-12.246
-11.6831
-11.0994
-10.5066
-9.91713
-9.34276
-8.79391
-8.27899
-7.80406
-7.37278
-6.98657
-6.645
-6.3462
-6.0873
-5.86481
-5.67497
-5.51395
-5.37809
-5.26395
-5.16841
-5.08868
-5.02232
-4.9672
-4.9215
-4.88367
-4.8524
-4.82658
-4.80527
-4.78771
-4.77324
-4.76134
-4.75156
-4.74352
-4.73693
-4.73155
-4.72715
-4.72359
-4.72072
-4.71843
-4.71664
-4.71529
-4.71431
-4.71368
-4.71337
)
;
    }
    defaultFaces
    {
        type            empty;
    }
}


// ************************************************************************* //
