/*--------------------------------*- C++ -*----------------------------------*\
| =========                 |                                                 |
| \\      /  F ield         | OpenFOAM: The Open Source CFD Toolbox           |
|  \\    /   O peration     | Version:  5.x                                   |
|   \\  /    A nd           | Web:      www.OpenFOAM.org                      |
|    \\/     M anipulation  |                                                 |
\*---------------------------------------------------------------------------*/
FoamFile
{
    version     2.0;
    format      ascii;
    class       volScalarField;
    location    "1.7";
    object      gradTx;
}
// * * * * * * * * * * * * * * * * * * * * * * * * * * * * * * * * * * * * * //

dimensions      [0 -1 0 1 0 0 0];

internalField   nonuniform List<scalar> 
2048
(
-0.000653561
-0.00180018
-0.00247592
-0.00235998
-0.00112017
0.00156266
0.00599467
0.0124493
0.021145
0.0322291
0.0457667
0.061732
0.0800009
0.10034
0.12239
0.14565
0.169453
0.192969
0.215217
0.235115
0.251574
0.263611
0.270481
0.271792
0.267562
0.258225
0.244558
0.227562
0.208335
0.18794
0.167315
0.147219
0.128214
0.110669
0.0947931
0.0806605
0.0682501
0.0574745
0.0482057
0.0402948
0.0335865
0.0279282
0.0231768
0.0192015
0.0158856
0.0131265
0.0108353
0.00893583
0.00736299
0.00606183
0.00498605
0.0040968
0.00336155
0.00275312
0.00224881
0.00182965
0.00147972
0.0011857
0.00093638
0.000722301
0.000535429
0.000368791
0.000216056
7.11993e-05
-0.00206227
-0.00571431
-0.00797598
-0.00790124
-0.00450491
0.00317215
0.01605
0.0349518
0.0605366
0.0932504
0.133293
0.180594
0.234795
0.295219
0.360823
0.430134
0.501192
0.571524
0.638187
0.697914
0.747383
0.783583
0.804222
0.808079
0.795217
0.766972
0.725736
0.674588
0.616867
0.555796
0.494194
0.434321
0.377828
0.325791
0.278794
0.237032
0.200415
0.168665
0.141387
0.118129
0.0984229
0.081814
0.0678756
0.05622
0.0465019
0.0384187
0.0317085
0.0261467
0.0215424
0.0177341
0.014586
0.011984
0.00983281
0.00805289
0.00657769
0.00535162
0.00432811
0.00346813
0.00273888
0.00211271
0.00156613
0.00107884
0.000632581
0.000208754
-0.0037586
-0.0105112
-0.0150076
-0.0157046
-0.0109782
0.000777579
0.0211127
0.0514201
0.0928183
0.146066
0.211507
0.289045
0.378121
0.477668
0.586035
0.700867
0.818986
0.936315
1.04792
1.14825
1.23156
1.29261
1.32733
1.33358
1.31145
1.26331
1.19339
1.10705
1.01008
0.907979
0.805481
0.70632
0.613165
0.527702
0.450795
0.382677
0.323124
0.271615
0.227456
0.189875
0.158084
0.131325
0.108894
0.0901553
0.0745438
0.0615672
0.0508009
0.0418814
0.0345002
0.0283971
0.0233533
0.0191855
0.0157405
0.0128905
0.0105288
0.00856621
0.00692797
0.00555149
0.00438425
0.00338197
0.00250699
0.00172687
0.00101405
0.000335668
-0.00589553
-0.0166569
-0.0243664
-0.0269099
-0.0220281
-0.00744487
0.0190621
0.0595041
0.1155
0.188145
0.277943
0.384785
0.507948
0.646051
0.796942
0.957506
1.12345
1.28913
1.44756
1.59068
1.71001
1.7976
1.8473
1.85575
1.82313
1.75305
1.65196
1.52798
1.38967
1.24505
1.10086
0.962287
0.832903
0.714875
0.609206
0.516038
0.43491
0.364984
0.305216
0.254482
0.211659
0.17568
0.145569
0.120445
0.0995383
0.0821761
0.0677821
0.0558648
0.0460081
0.0378618
0.0311318
0.0255725
0.0209786
0.017179
0.0140311
0.0114155
0.0092325
0.00739837
0.00584308
0.00450767
0.00334163
0.00230114
0.00135298
0.000449385
-0.00857378
-0.0244608
-0.0365914
-0.0423127
-0.0387274
-0.0228469
0.00829431
0.0574055
0.126668
0.217546
0.330704
0.466028
0.622663
0.799001
0.992528
1.19954
1.41479
1.63114
1.83945
2.02886
2.18762
2.30452
2.37064
2.38112
2.33615
2.24102
2.105
1.93959
1.75669
1.56714
1.3798
1.20126
1.03587
0.886059
0.752796
0.635963
0.534731
0.447852
0.373869
0.311266
0.258565
0.214389
0.177486
0.146747
0.1212
0.100008
0.0824555
0.0679344
0.0559319
0.0460174
0.0378304
0.03107
0.0254855
0.020868
0.0170434
0.0138662
0.0112147
0.00898717
0.0070984
0.00547687
0.0040608
0.00279565
0.00164556
0.000548346
-0.0118461
-0.0340918
-0.0519975
-0.0624152
-0.0618034
-0.0463988
-0.0123878
0.0437535
0.124856
0.232785
0.368351
0.531406
0.720984
0.93534
1.17178
1.42626
1.69278
1.96287
2.22516
2.46564
2.66862
2.81868
2.90334
2.91561
2.85579
2.73135
2.55526
2.34335
2.11154
1.87388
1.64149
1.42221
1.22096
1.0402
0.880618
0.74163
0.621896
0.519647
0.432945
0.359844
0.298495
0.247202
0.204447
0.168897
0.139397
0.114957
0.0947355
0.0780208
0.0642152
0.0528181
0.0434117
0.0356476
0.0292364
0.0239372
0.0195491
0.0159048
0.0128639
0.0103094
0.00814344
0.00628436
0.00466064
0.00320808
0.00189046
0.000631948
-0.0157218
-0.0455917
-0.0706991
-0.0874618
-0.0916886
-0.0787579
-0.043861
0.0175068
0.108947
0.232753
0.389827
0.579914
0.801918
1.05406
1.33369
1.63671
1.95677
2.28425
2.60558
2.90319
3.1566
3.34501
3.45106
3.46492
3.38693
3.22758
3.00483
2.74002
2.45399
2.16447
1.88481
1.62399
1.38713
1.17643
0.991971
0.832507
0.696011
0.580088
0.48225
0.400089
0.331366
0.274069
0.226422
0.186882
0.154125
0.127024
0.104625
0.0861288
0.0708635
0.0582696
0.0478809
0.0393102
0.0322357
0.0263902
0.0215516
0.0175341
0.0141824
0.0113668
0.00897966
0.00693119
0.00514184
0.00353902
0.00208804
0.000700201
-0.0201696
-0.0588855
-0.0926278
-0.117465
-0.128559
-0.120322
-0.0867505
-0.0221254
0.0780917
0.216643
0.394412
0.610882
0.864758
1.15431
1.47722
1.82976
2.20566
2.59459
2.98088
3.34303
3.65475
3.8882
4.01948
4.03469
3.93425
3.73284
3.45513
3.12965
2.7832
2.4376
2.10842
1.80538
1.53342
1.29402
1.08638
0.908315
0.756945
0.629148
0.521826
0.432079
0.357278
0.295098
0.243518
0.200803
0.165476
0.13629
0.112197
0.0923209
0.0759302
0.062417
0.0512763
0.0420896
0.0345098
0.0282492
0.0230688
0.0187688
0.0151822
0.0121692
0.00961466
0.00742317
0.00550856
0.00379132
0.00223984
0.000753466
-0.0251217
-0.0737898
-0.117545
-0.152224
-0.172359
-0.171268
-0.141488
-0.0757544
0.0316428
0.183907
0.381694
0.623968
0.909088
1.23546
1.60139
2.00407
2.43794
2.89256
3.35048
3.78599
4.16577
4.45289
4.61443
4.63075
4.50235
4.24979
3.90693
3.51155
3.09769
2.69156
2.31072
1.96511
1.65892
1.39245
1.1636
0.969013
0.804801
0.667015
0.551907
0.456068
0.376481
0.310524
0.25595
0.21085
0.173617
0.1429
0.117575
0.096702
0.0795039
0.0653347
0.0536599
0.0440374
0.0361014
0.0295493
0.0241296
0.0196326
0.0158823
0.0127318
0.0100605
0.00776948
0.00576739
0.00396939
0.00234811
0.000792258
-0.0304757
-0.0900206
-0.14505
-0.191335
-0.222819
-0.231586
-0.208362
-0.143877
-0.0309091
0.134203
0.351556
0.61917
0.934816
1.29709
1.70529
2.15817
2.65171
3.17621
3.71304
4.23217
4.69197
5.04374
5.24214
5.25934
5.09588
4.78071
4.36025
3.88427
3.39533
2.92423
2.48996
2.10194
1.7629
1.47137
1.2236
1.01478
0.839888
0.694064
0.572886
0.47244
0.389336
0.320676
0.264009
0.21728
0.178768
0.147043
0.120917
0.0994067
0.0816974
0.0671169
0.0551101
0.0452186
0.0370643
0.0303346
0.0247702
0.0201548
0.0163066
0.0130736
0.0103322
0.00798151
0.00592646
0.00407859
0.00241545
0.000817101
-0.0360985
-0.107201
-0.174595
-0.234199
-0.279463
-0.301093
-0.287558
-0.226939
-0.109999
0.0673643
0.304161
0.596835
0.942194
1.33906
1.78815
2.29053
2.84472
3.44293
4.06634
4.68083
5.23517
5.66553
5.90949
5.92731
5.71963
5.32741
4.81435
4.24553
3.67339
3.13314
2.64429
2.2147
1.84478
1.53068
1.26658
1.04602
0.862699
0.710823
0.585287
0.48169
0.396292
0.325952
0.268045
0.220392
0.181186
0.148936
0.122409
0.100589
0.0826389
0.0678703
0.0557152
0.0457064
0.0374587
0.0306547
0.0250311
0.0203685
0.0164817
0.013216
0.0104462
0.00807193
0.0059948
0.00412479
0.00244459
0.000828463
-0.0418308
-0.124875
-0.205489
-0.280028
-0.341613
-0.379448
-0.379204
-0.325405
-0.206054
-0.0166401
0.239956
0.557675
0.93185
1.36155
1.8494
2.3996
3.01445
3.6895
4.40725
5.13027
5.7966
6.32324
6.62418
6.6424
6.37857
5.89112
5.26749
4.59215
3.92856
3.31557
2.77185
2.30238
1.90422
1.5705
1.29297
1.06332
0.873887
0.717949
0.589733
0.484385
0.397856
0.326796
0.268439
0.220513
0.181149
0.148812
0.122244
0.100411
0.0824643
0.0677077
0.0555689
0.0455779
0.0373483
0.0305618
0.024955
0.0203081
0.0164355
0.0131812
0.0104202
0.00805397
0.00598178
0.00411409
0.0024383
0.000826755
-0.0474927
-0.142515
-0.236918
-0.32785
-0.408378
-0.466151
-0.48339
-0.439826
-0.319565
-0.117737
0.159668
0.502783
0.904806
1.36509
1.88871
2.48394
3.15817
3.91212
4.73167
5.57764
6.37674
7.02205
7.39513
7.4135
7.07791
6.47236
5.71686
4.92004
4.15696
3.46864
2.87089
2.36419
1.94114
1.59123
1.30342
1.06743
0.874238
0.716197
0.586919
0.481147
0.394572
0.323677
0.265594
0.217984
0.178942
0.146912
0.120624
0.0990403
0.0813117
0.0667433
0.0547654
0.044911
0.036797
0.0301083
0.0245847
0.0200087
0.0161961
0.0129915
0.0102715
0.00794088
0.00589681
0.00405262
0.00239943
0.000812417
-0.0528904
-0.159548
-0.267959
-0.376515
-0.478646
-0.560522
-0.600203
-0.570921
-0.45117
-0.235775
0.0643206
0.433648
0.862485
1.35058
1.90608
2.54228
3.27309
4.10649
5.03448
6.01875
6.97506
7.76734
8.23274
8.25106
7.82308
7.07064
6.15833
5.22409
4.35427
3.58943
2.93989
2.39967
1.95579
1.5935
1.29876
1.05926
0.864643
0.706394
0.577587
0.472627
0.387002
0.317075
0.259913
0.213145
0.17485
0.143472
0.117745
0.0966402
0.0793167
0.0650892
0.0533971
0.0437818
0.0358674
0.0293456
0.023962
0.0195041
0.0157908
0.0126687
0.010017
0.00774562
0.00574907
0.00394653
0.00233113
0.000786087
-0.0578255
-0.175371
-0.297611
-0.424709
-0.551065
-0.661677
-0.729727
-0.71967
-0.601744
-0.370546
-0.0447497
0.352159
0.806706
1.31929
1.90184
2.57363
3.35649
4.26795
5.30953
6.44786
7.58969
8.56464
9.14941
9.16746
8.61963
7.68415
6.58621
5.49822
4.51584
3.67516
2.97763
2.4087
1.94872
1.57822
1.28003
1.03985
0.846071
0.689412
0.562501
0.459483
0.375706
0.307464
0.251796
0.206327
0.16915
0.138722
0.113799
0.093368
0.076609
0.0628524
0.0515522
0.0422627
0.034619
0.0283224
0.0231268
0.0188265
0.0152455
0.0122334
0.00967303
0.00748054
0.00554744
0.00380197
0.00223705
0.000748806
-0.062104
-0.189382
-0.324824
-0.470967
-0.624025
-0.768476
-0.872042
-0.887411
-0.77251
-0.521786
-0.165856
0.260615
0.739655
1.27285
1.8767
2.57736
3.40587
4.3916
5.54972
6.85743
8.21695
9.41941
10.1601
10.1777
9.47307
8.30932
6.99307
5.73544
4.63687
3.72332
2.98333
2.3916
1.92082
1.54652
1.24842
1.01033
0.819538
0.666144
0.54243
0.442368
0.361234
0.295302
0.241623
0.197849
0.162104
0.13288
0.108963
0.0893714
0.0733104
0.060133
0.0493131
0.0404213
0.0331072
0.027084
0.022116
0.0180062
0.0145846
0.011705
0.00925455
0.00715728
0.00530044
0.00362512
0.00212159
0.000702229
-0.0655467
-0.201005
-0.348536
-0.513709
-0.695639
-0.879448
-1.02719
-1.07598
-0.965171
-0.689155
-0.296912
0.161717
0.663839
1.21317
1.83175
2.55331
3.41912
4.4726
5.7471
7.23794
8.85081
10.3367
11.283
11.2999
10.3886
8.94017
7.36951
5.92793
4.71264
3.73186
2.95674
2.3491
1.87329
1.49974
1.20522
0.971876
0.786086
0.637481
0.518125
0.421912
0.344109
0.281024
0.229755
0.188008
0.153957
0.126146
0.103404
0.0847869
0.0695329
0.0570233
0.0467554
0.0383199
0.031383
0.0256722
0.0209637
0.0170705
0.0138301
0.0111011
0.00877544
0.0067867
0.00501622
0.00342223
0.00199006
0.000648756
-0.0679996
-0.209721
-0.367726
-0.551273
-0.763732
-0.992705
-1.19511
-1.28784
-1.18207
-0.87218
-0.435356
0.0585535
0.582013
1.14243
1.76841
2.50181
3.3947
4.50639
5.89311
7.57772
9.48211
11.3207
12.5406
12.5568
11.3702
9.56767
7.70401
6.0673
4.73874
3.6994
2.89821
2.28241
1.80762
1.43939
1.15183
0.925707
0.746749
0.604291
0.49031
0.398713
0.324826
0.265037
0.216525
0.177075
0.144934
0.118706
0.0972728
0.0797385
0.0653784
0.0536067
0.0439476
0.0360145
0.0294924
0.0241245
0.0197005
0.0160444
0.0130022
0.0104377
0.00824827
0.00637876
0.0047026
0.00319955
0.00184853
0.000591514
-0.0693429
-0.215101
-0.381461
-0.581975
-0.825844
-1.10582
-1.37551
-1.52633
-1.42638
-1.07015
-0.57806
-0.0454333
0.497092
1.06294
1.68843
2.42373
3.33181
4.489
5.9789
7.86294
10.0978
12.3736
13.9609
13.9762
12.4205
10.1788
7.98288
6.14488
4.71143
3.62531
2.80875
2.19316
1.72557
1.3671
1.08966
0.873035
0.702537
0.567408
0.459668
0.373328
0.303839
0.24771
0.202236
0.165301
0.135237
0.110724
0.0907057
0.0743373
0.060938
0.0499578
0.0409509
0.0335552
0.0274763
0.0224744
0.0183536
0.01495
0.0121186
0.00972913
0.00768434
0.00594259
0.00436701
0.00296319
0.00170343
0.000534129
-0.0694981
-0.216828
-0.388948
-0.604179
-0.879249
-1.21571
-1.56765
-1.79585
-1.70238
-1.28192
-0.72122
-0.146502
0.412038
0.977073
1.5938
2.32052
3.23049
4.41738
5.99579
8.07773
10.6797
13.4943
15.5791
15.5935
13.5382
10.7557
8.19041
6.15221
4.6279
3.50991
2.68998
2.08335
1.62908
1.28457
1.02017
0.815044
0.654414
0.527611
0.42683
0.346269
0.281562
0.229382
0.187161
0.152906
0.125048
0.102349
0.0838228
0.0686819
0.0562922
0.0461425
0.037819
0.0309861
0.0253709
0.0207515
0.0169472
0.0138069
0.0111951
0.00898802
0.00709369
0.00548639
0.00401654
0.00271889
0.00156088
0.000480258
-0.0684328
-0.214719
-0.389587
-0.616378
-0.921017
-1.31846
-1.77009
-2.10221
-2.01575
-1.50563
-0.860234
-0.240698
0.329729
0.887154
1.4867
2.19413
3.09176
4.28971
5.93585
8.20452
11.2042
14.6765
17.4397
17.453
14.7171
11.2746
8.30919
6.08156
4.4866
3.35451
2.54417
1.95531
1.52022
1.19356
0.944754
0.752865
0.603283
0.485624
0.392372
0.317998
0.258367
0.210349
0.171543
0.140086
0.114524
0.0937091
0.0767295
0.0628581
0.051511
0.0422181
0.0345991
0.0283456
0.0232074
0.0189813
0.0155021
0.012632
0.0102454
0.00822541
0.00648519
0.00501743
0.00365782
0.00247173
0.00142573
0.000432939
-0.0661622
-0.208735
-0.383013
-0.617295
-0.948105
-1.40923
-1.9802
-2.45304
-2.37398
-1.73825
-0.989588
-0.323978
0.252824
0.795351
1.36936
2.04699
2.91758
4.10567
5.79247
8.22473
11.6404
15.9051
19.5992
19.6113
15.9423
11.7049
8.32079
5.92653
4.28749
3.16144
2.37412
1.81162
1.40113
1.09576
0.864773
0.68756
0.549978
0.4421
0.356813
0.288926
0.234582
0.190877
0.155592
0.127013
0.103805
0.0849176
0.069517
0.0569402
0.0466552
0.0382342
0.0313313
0.0256666
0.0210129
0.0171859
0.0140363
0.0114399
0.00928133
0.00745086
0.00586659
0.00454205
0.00329689
0.00222579
0.00130056
0.000393874
-0.0627473
-0.198989
-0.369132
-0.605984
-0.95751
-1.48217
-2.19351
-2.85831
-2.78693
-1.97498
-1.10278
-0.392382
0.183622
0.703589
1.24407
1.88189
2.71089
3.86664
5.56113
8.11974
11.9502
17.1521
22.1299
22.1409
17.1857
12.0086
8.20675
5.68283
4.03224
2.93399
2.18309
1.65501
1.27397
0.99284
0.781494
0.620103
0.495251
0.397625
0.320611
0.259414
0.210493
0.171192
0.139491
0.113833
0.0930096
0.07607
0.0622633
0.0509916
0.0417763
0.0342326
0.0280501
0.0229772
0.0188102
0.0153839
0.012565
0.0102428
0.00831282
0.00667255
0.00524465
0.00406556
0.00293906
0.0019839
0.00118494
0.000362846
-0.0582895
-0.185734
-0.348135
-0.581921
-0.946463
-1.53035
-2.40287
-3.33096
-3.26744
-2.20831
-1.19231
-0.442252
0.12393
0.613473
1.11301
1.70191
2.47546
3.57579
5.24002
7.87232
12.088
18.3706
25.1243
25.134
18.4006
12.14
7.94996
5.34884
3.72429
2.67634
1.97466
1.48825
1.14082
0.886357
0.696085
0.551374
0.439771
0.352714
0.284165
0.229775
0.186346
0.151491
0.123396
0.100671
0.0822371
0.0672473
0.0550338
0.0450655
0.0369176
0.0302489
0.0247842
0.0203009
0.0166185
0.0135911
0.011101
0.00905136
0.00734831
0.0058974
0.00462523
0.00359229
0.00258865
0.00174754
0.00107532
0.000337508
-0.0529234
-0.169348
-0.320497
-0.545095
-0.912686
-1.54592
-2.59719
-3.88778
-3.83219
-2.42688
-1.2498
-0.470496
0.0749568
0.526247
0.978244
1.51029
2.21579
3.23805
4.83061
7.46833
12.0012
19.4861
28.7008
28.7094
19.5123
12.0468
7.53643
4.92622
3.36885
2.39335
1.75259
1.3141
1.00367
0.777746
0.609596
0.482152
0.384124
0.307811
0.247817
0.200274
0.16235
0.131936
0.107437
0.0876317
0.0715719
0.0585173
0.0478834
0.0392063
0.0321151
0.0263121
0.0215574
0.0176571
0.0144538
0.0118204
0.0096549
0.00787402
0.00639477
0.00513115
0.00401339
0.00312559
0.00224879
0.00151696
0.000965609
0.000313751
-0.0468066
-0.15031
-0.28696
-0.496061
-0.854681
-1.52041
-2.75987
-4.5504
-4.50274
-2.61382
-1.26632
-0.474891
0.0372325
0.44277
0.841633
1.31029
1.93687
2.85996
4.33807
6.89879
11.6328
20.3856
33.0112
33.0185
20.4081
11.672
6.95729
4.42032
2.97271
2.09038
1.52069
1.13519
0.864353
0.668302
0.522957
0.413116
0.328813
0.263295
0.211855
0.171134
0.138677
0.112666
0.0917236
0.0748005
0.0610828
0.0499351
0.0408567
0.0334502
0.0273982
0.0224463
0.0183893
0.0150616
0.0123288
0.0100824
0.00823537
0.00671782
0.00545787
0.00437851
0.00341348
0.00266794
0.00192124
0.0012916
0.000848925
0.000286725
-0.04011
-0.129167
-0.248482
-0.435953
-0.772043
-1.44529
-2.86671
-5.34656
-5.30676
-2.74472
-1.23294
-0.454399
0.0105846
0.363537
0.704831
1.10507
1.64392
2.44933
3.77136
6.16203
10.9253
20.9034
38.2487
38.2548
20.9222
10.9581
6.21097
3.84025
2.54392
1.77302
1.28265
0.953967
0.724517
0.559164
0.436969
0.344841
0.27426
0.219481
0.17652
0.142537
0.115471
0.0937897
0.076342
0.0622472
0.0508254
0.0415455
0.0339896
0.0278261
0.0227904
0.0186705
0.0152954
0.0125272
0.010254
0.0083854
0.00684929
0.00558839
0.00454214
0.00364322
0.00282921
0.00222105
0.00160625
0.0010707
0.000719954
0.000252403
-0.0330066
-0.106502
-0.206183
-0.366457
-0.665744
-1.31298
-2.88331
-6.3116
-6.27953
-2.78497
-1.14175
-0.409449
-0.00583809
0.288714
0.56925
0.897623
1.34225
2.0149
3.14306
5.26568
9.82716
20.803
44.6592
44.6641
20.8182
9.85358
5.30517
3.19869
2.0914
1.44687
1.04195
0.77265
0.585618
0.451311
0.352311
0.277812
0.220817
0.17663
0.142004
0.114633
0.0928439
0.0753975
0.0613621
0.0500271
0.0408436
0.0333836
0.0273103
0.0223568
0.0183102
0.0149996
0.0122878
0.0100636
0.00823734
0.00673611
0.00550208
0.00449015
0.00365112
0.00292817
0.00226368
0.00178613
0.00130263
0.000854092
0.000577637
0.000209284
-0.0256624
-0.0828958
-0.16127
-0.289721
-0.538358
-1.11821
-2.76181
-7.49027
-7.46573
-2.68658
-0.98719
-0.342164
-0.013478
0.218201
0.436063
0.690659
1.03691
1.5658
2.46871
4.22823
8.30283
19.7548
52.5528
52.5565
19.7664
8.32306
4.25846
2.51134
1.62446
1.11726
0.801757
0.593182
0.448896
0.345566
0.269546
0.212421
0.168764
0.134946
0.108461
0.0875369
0.0708858
0.0575576
0.046838
0.0381825
0.031171
0.0254762
0.0208405
0.0170598
0.0139714
0.0114451
0.00937563
0.00767848
0.00628495
0.00513944
0.00419784
0.00342646
0.0027875
0.00223546
0.00171938
0.00136409
0.00100797
0.000642975
0.000427117
0.000159562
-0.0182276
-0.0588941
-0.11496
-0.208214
-0.394143
-0.860046
-2.43706
-8.93871
-8.92151
-2.38429
-0.76811
-0.256433
-0.0142242
0.151707
0.306219
0.48655
0.732586
1.11105
1.76596
3.07964
6.34642
17.3093
62.3183
62.3209
17.3174
6.36061
3.10087
1.7959
1.15228
0.789115
0.56484
0.417219
0.315387
0.242599
0.189124
0.14898
0.118323
0.094589
0.0760104
0.061337
0.0496636
0.0403217
0.0328096
0.0267448
0.0218325
0.017843
0.0145958
0.0119476
0.00978452
0.00801508
0.00656574
0.00537716
0.00440125
0.00359902
0.00293954
0.00239982
0.00195326
0.00156657
0.00119817
0.000955787
0.000719103
0.000440285
0.000279737
0.000108863
-0.0108303
-0.0349785
-0.0683979
-0.124543
-0.238923
-0.544481
-1.82206
-10.7268
-10.7167
-1.79098
-0.490328
-0.157792
-0.0102215
0.0888285
0.180459
0.287307
0.433382
0.659101
1.05322
1.86055
3.99978
12.866
74.4393
74.4409
12.8708
4.00813
1.87305
1.07086
0.683412
0.466734
0.333546
0.246121
0.185921
0.142943
0.111395
0.0877266
0.0696605
0.0556789
0.0447374
0.0360976
0.0292254
0.0237266
0.0193053
0.0157361
0.0128454
0.0104979
0.00858719
0.00702907
0.00575639
0.00471535
0.00386264
0.00316337
0.00258923
0.00211726
0.00172923
0.00141196
0.0011498
0.000922399
0.00070122
0.000562201
0.000432717
0.000250425
0.00014973
6.35951e-05
-0.0035705
-0.0115408
-0.022593
-0.0412417
-0.0796812
-0.187766
-0.802764
-12.9407
-12.9374
-0.792547
-0.169963
-0.0530073
-0.00365046
0.0291195
0.0593383
0.0945613
0.142761
0.2174
0.34829
0.619475
1.37547
5.63736
89.5113
89.5118
5.63893
1.37821
0.623587
0.354094
0.225395
0.153734
0.109781
0.0809681
0.0611438
0.046999
0.0366201
0.0288358
0.0228953
0.0182987
0.014702
0.0118622
0.00960354
0.00779639
0.00634343
0.00517056
0.00422067
0.0034493
0.00282147
0.0023095
0.00189134
0.00154928
0.00126911
0.00103935
0.000850711
0.000695633
0.000568113
0.000463949
0.000378028
0.000303436
0.000229013
0.00018454
0.000146187
7.79412e-05
4.64658e-05
2.51218e-05
)
;

boundaryField
{
    left
    {
        type            calculated;
        value           uniform 0;
    }
    right
    {
        type            calculated;
        value           uniform 0;
    }
    interface
    {
        type            calculated;
        value           nonuniform List<scalar> 
64
(
-0.0035705
-0.0115408
-0.022593
-0.0412417
-0.0796812
-0.187766
-0.802764
-12.9407
-12.9374
-0.792547
-0.169963
-0.0530073
-0.00365046
0.0291195
0.0593383
0.0945613
0.142761
0.2174
0.34829
0.619475
1.37547
5.63736
89.5113
89.5118
5.63893
1.37821
0.623587
0.354094
0.225395
0.153734
0.109781
0.0809681
0.0611438
0.046999
0.0366201
0.0288358
0.0228953
0.0182987
0.014702
0.0118622
0.00960354
0.00779639
0.00634343
0.00517056
0.00422067
0.0034493
0.00282147
0.0023095
0.00189134
0.00154928
0.00126911
0.00103935
0.000850711
0.000695633
0.000568113
0.000463949
0.000378028
0.000303436
0.000229013
0.00018454
0.000146187
7.79412e-05
4.64658e-05
2.51218e-05
)
;
    }
    bottom
    {
        type            calculated;
        value           nonuniform List<scalar> 
64
(
-0.000653561
-0.00180018
-0.00247592
-0.00235998
-0.00112017
0.00156266
0.00599467
0.0124493
0.021145
0.0322291
0.0457667
0.061732
0.0800009
0.10034
0.12239
0.14565
0.169453
0.192969
0.215217
0.235115
0.251574
0.263611
0.270481
0.271792
0.267562
0.258225
0.244558
0.227562
0.208335
0.18794
0.167315
0.147219
0.128214
0.110669
0.0947931
0.0806605
0.0682501
0.0574745
0.0482057
0.0402948
0.0335865
0.0279282
0.0231768
0.0192015
0.0158856
0.0131265
0.0108353
0.00893583
0.00736299
0.00606183
0.00498605
0.0040968
0.00336155
0.00275312
0.00224881
0.00182965
0.00147972
0.0011857
0.00093638
0.000722301
0.000535429
0.000368791
0.000216056
7.11993e-05
)
;
    }
    defaultFaces
    {
        type            empty;
    }
}


// ************************************************************************* //
