/*--------------------------------*- C++ -*----------------------------------*\
| =========                 |                                                 |
| \\      /  F ield         | OpenFOAM: The Open Source CFD Toolbox           |
|  \\    /   O peration     | Version:  5.x                                   |
|   \\  /    A nd           | Web:      www.OpenFOAM.org                      |
|    \\/     M anipulation  |                                                 |
\*---------------------------------------------------------------------------*/
FoamFile
{
    version     2.0;
    format      ascii;
    class       volScalarField;
    location    "1.7";
    object      T;
}
// * * * * * * * * * * * * * * * * * * * * * * * * * * * * * * * * * * * * * //

dimensions      [0 0 0 1 0 0 0];

internalField   nonuniform List<scalar> 
2048
(
9.88771
9.88769
9.88766
9.88761
9.88758
9.88758
9.88763
9.88777
9.88802
9.88843
9.88903
9.88986
9.89096
9.89236
9.89409
9.89618
9.89864
9.90148
9.90467
9.9082
9.91202
9.91607
9.92026
9.92452
9.92875
9.93288
9.93682
9.94052
9.94393
9.94703
9.94981
9.95226
9.95441
9.95627
9.95787
9.95923
9.96039
9.96136
9.96218
9.96287
9.96344
9.96392
9.96431
9.96464
9.96491
9.96514
9.96532
9.96548
9.9656
9.96571
9.96579
9.96586
9.96592
9.96597
9.96601
9.96604
9.96606
9.96609
9.9661
9.96611
9.96612
9.96613
9.96614
9.96614
9.66807
9.668
9.66789
9.66775
9.66764
9.66761
9.66774
9.66811
9.66883
9.67001
9.67175
9.67417
9.67739
9.68151
9.68662
9.69279
9.70006
9.70845
9.71792
9.72839
9.73973
9.75175
9.76422
9.77688
9.78947
9.80173
9.81344
9.82441
9.83452
9.84369
9.85189
9.85913
9.86546
9.87094
9.87564
9.87965
9.88305
9.88591
9.88832
9.89033
9.89201
9.89341
9.89457
9.89553
9.89632
9.89698
9.89752
9.89797
9.89834
9.89864
9.89889
9.8991
9.89927
9.89941
9.89952
9.89961
9.89969
9.89975
9.8998
9.89983
9.89986
9.89988
9.8999
9.8999
9.45809
9.45797
9.45776
9.4575
9.45727
9.45716
9.45729
9.45782
9.4589
9.46072
9.46346
9.46733
9.4725
9.47914
9.48742
9.49746
9.50932
9.52305
9.53858
9.5558
9.57447
9.59428
9.61486
9.63576
9.65654
9.67675
9.69601
9.71404
9.73061
9.7456
9.75898
9.77078
9.78106
9.78994
9.79755
9.80402
9.80951
9.81412
9.81799
9.82123
9.82393
9.82617
9.82803
9.82957
9.83085
9.8319
9.83277
9.83349
9.83408
9.83457
9.83497
9.8353
9.83557
9.83579
9.83597
9.83612
9.83624
9.83634
9.83641
9.83647
9.83652
9.83655
9.83657
9.83658
9.25738
9.2572
9.25686
9.25644
9.25602
9.25575
9.25579
9.25634
9.25765
9.25995
9.26353
9.26864
9.27555
9.28451
9.29574
9.30942
9.32566
9.34452
9.36595
9.38976
9.41566
9.4432
9.47183
9.50093
9.52982
9.5579
9.58461
9.60952
9.63236
9.65295
9.67126
9.68735
9.70134
9.71338
9.72368
9.73242
9.7398
9.74601
9.75121
9.75555
9.75916
9.76216
9.76465
9.76671
9.76841
9.76982
9.77098
9.77194
9.77273
9.77338
9.77391
9.77435
9.77471
9.77501
9.77525
9.77544
9.7756
9.77573
9.77584
9.77592
9.77598
9.77602
9.77605
9.77606
9.06559
9.06532
9.06482
9.06418
9.0635
9.06297
9.06279
9.06323
9.06458
9.06718
9.07138
9.07752
9.08594
9.09698
9.11091
9.12799
9.1484
9.17221
9.19937
9.22969
9.26277
9.29805
9.33479
9.37213
9.4092
9.44514
9.47923
9.51092
9.53984
9.56582
9.58882
9.60894
9.62636
9.64131
9.65404
9.66483
9.67392
9.68154
9.68791
9.69322
9.69764
9.70131
9.70434
9.70685
9.70893
9.71064
9.71205
9.71322
9.71417
9.71496
9.71561
9.71615
9.71658
9.71694
9.71724
9.71747
9.71767
9.71783
9.71795
9.71805
9.71812
9.71817
9.71821
9.71823
8.88235
8.88198
8.88129
8.88036
8.87934
8.87843
8.87789
8.87804
8.87926
8.88194
8.88653
8.89345
8.90314
8.91598
8.93237
8.9526
8.97694
9.0055
9.03828
9.07504
9.11533
9.15843
9.20341
9.24916
9.29452
9.33841
9.37988
9.41826
9.45311
9.48424
9.51167
9.53554
9.55611
9.57369
9.58862
9.60121
9.61179
9.62065
9.62803
9.63418
9.63928
9.64351
9.647
9.64989
9.65228
9.65425
9.65587
9.65721
9.65831
9.65922
9.65996
9.66057
9.66108
9.66149
9.66182
9.6621
9.66232
9.6625
9.66264
9.66276
9.66284
9.6629
9.66294
9.66296
8.70735
8.70686
8.70593
8.70465
8.70319
8.70178
8.70073
8.70041
8.70128
8.70382
8.70855
8.716
8.72667
8.74106
8.75961
8.78274
8.81076
8.84389
8.88214
8.92531
8.97287
9.02396
9.0774
9.1318
9.18568
9.23764
9.28654
9.33154
9.37217
9.40823
9.43981
9.46713
9.49056
9.51048
9.52732
9.54148
9.55334
9.56323
9.57146
9.5783
9.58397
9.58865
9.59253
9.59573
9.59837
9.60055
9.60234
9.60382
9.60503
9.60603
9.60685
9.60753
9.60808
9.60853
9.60891
9.60921
9.60945
9.60965
9.60981
9.60993
9.61003
9.61009
9.61014
9.61016
8.54026
8.53963
8.53842
8.53673
8.53475
8.53272
8.53099
8.53001
8.5303
8.53245
8.53707
8.54477
8.55616
8.57179
8.59223
8.61796
8.64941
8.68688
8.73049
8.78004
8.83496
8.89425
8.95647
9.01986
9.08255
9.1428
9.1992
9.25077
9.297
9.33775
9.37318
9.40364
9.4296
9.45156
9.47003
9.48551
9.49842
9.50916
9.51808
9.52547
9.53158
9.53663
9.5408
9.54424
9.54708
9.54941
9.55134
9.55292
9.55422
9.55529
9.55617
9.5569
9.55749
9.55797
9.55837
9.5587
9.55896
9.55917
9.55934
9.55947
9.55957
9.55964
9.55969
9.55971
8.38077
8.37999
8.37847
8.37632
8.37371
8.37093
8.36836
8.36651
8.36599
8.3675
8.37174
8.37943
8.39124
8.40783
8.42985
8.45788
8.49247
8.53406
8.58287
8.63877
8.70118
8.76895
8.84033
8.91315
8.98504
9.05385
9.11785
9.17594
9.22758
9.27274
9.3117
9.34495
9.37311
9.39679
9.41662
9.43315
9.4469
9.4583
9.46775
9.47555
9.482
9.48732
9.4917
9.49531
9.49829
9.50074
9.50276
9.50441
9.50578
9.5069
9.50782
9.50858
9.5092
9.5097
9.51012
9.51046
9.51073
9.51095
9.51113
9.51127
9.51137
9.51145
9.5115
9.51152
8.22861
8.22765
8.22579
8.22312
8.21981
8.21616
8.21258
8.20965
8.20808
8.20868
8.21227
8.21967
8.23162
8.24888
8.27216
8.30217
8.3396
8.38504
8.43886
8.50107
8.57111
8.64769
8.72873
8.81151
8.89308
8.97076
9.04248
9.10701
9.16386
9.21312
9.25525
9.29093
9.32093
9.34602
9.36691
9.38426
9.39862
9.4105
9.42031
9.42841
9.43508
9.44057
9.4451
9.44882
9.45189
9.45441
9.45648
9.45819
9.45959
9.46074
9.46169
9.46246
9.4631
9.46362
9.46405
9.4644
9.46468
9.4649
9.46509
9.46523
9.46534
9.46541
9.46546
9.46549
8.08346
8.08234
8.08011
8.07688
8.0728
8.06815
8.06339
8.05916
8.0563
8.05572
8.0584
8.06523
8.07705
8.09467
8.1189
8.15055
8.19048
8.23945
8.29807
8.36652
8.44434
8.53012
8.62139
8.71479
8.80662
8.89353
8.9731
9.04398
9.10577
9.15877
9.20368
9.24141
9.27289
9.29906
9.32073
9.33864
9.35342
9.3656
9.37563
9.38389
9.39068
9.39627
9.40087
9.40465
9.40776
9.41031
9.41241
9.41413
9.41555
9.41672
9.41767
9.41846
9.4191
9.41963
9.42006
9.42041
9.4207
9.42093
9.42111
9.42125
9.42136
9.42144
9.42149
9.42152
7.94508
7.94377
7.94117
7.93735
7.93242
7.92667
7.92056
7.91482
7.9104
7.90838
7.90988
7.91588
7.9273
7.945
7.96985
8.00279
8.04484
8.097
8.16014
8.23472
8.32046
8.41587
8.51806
8.62287
8.72563
8.8222
8.90973
8.98681
9.05323
9.10958
9.15685
9.1962
9.2288
9.25571
9.27787
9.29611
9.3111
9.32342
9.33354
9.34185
9.34868
9.35428
9.35889
9.36267
9.36578
9.36833
9.37043
9.37215
9.37357
9.37473
9.37568
9.37647
9.37711
9.37763
9.37806
9.37841
9.3787
9.37893
9.37911
9.37925
9.37936
9.37944
9.37949
9.37952
7.81316
7.81168
7.80871
7.80428
7.79846
7.79151
7.7839
7.77641
7.77015
7.76642
7.76647
7.77141
7.78219
7.79969
7.82484
7.85871
7.90247
7.9574
8.02472
8.10527
8.19902
8.30454
8.41846
8.53564
8.65013
8.75682
8.8524
8.93547
9.00615
9.06538
9.11454
9.15509
9.18842
9.21576
9.23815
9.25649
9.27151
9.28381
9.29389
9.30215
9.30892
9.31448
9.31904
9.32278
9.32585
9.32837
9.33044
9.33214
9.33354
9.33468
9.33562
9.33639
9.33702
9.33754
9.33797
9.33831
9.33859
9.33882
9.339
9.33914
9.33924
9.33932
9.33937
9.3394
7.68746
7.68581
7.68248
7.67744
7.67071
7.66248
7.65319
7.64372
7.63535
7.62962
7.62798
7.63163
7.64154
7.65858
7.68374
7.71815
7.76319
7.82043
7.89152
7.97776
8.0796
8.19573
8.32233
8.45301
8.58018
8.69748
8.80113
8.88992
8.96439
9.026
9.07656
9.11787
9.15155
9.17899
9.20134
9.21957
9.23444
9.24659
9.25652
9.26464
9.27129
9.27673
9.2812
9.28486
9.28786
9.29032
9.29234
9.294
9.29536
9.29648
9.2974
9.29815
9.29876
9.29927
9.29968
9.30002
9.30029
9.30051
9.30069
9.30082
9.30093
9.301
9.30105
9.30108
7.5677
7.5659
7.56222
7.5566
7.54895
7.53938
7.52827
7.51657
7.50579
7.49777
7.49421
7.49637
7.50521
7.52158
7.54644
7.58101
7.62686
7.6859
7.76024
7.85183
7.96173
8.089
8.22938
8.37492
8.51586
8.64429
8.75599
8.8501
8.92781
8.99122
9.04266
9.08428
9.11793
9.14517
9.16725
9.18517
9.19975
9.21161
9.22129
9.22919
9.23565
9.24093
9.24526
9.2488
9.25171
9.25409
9.25604
9.25764
9.25896
9.26004
9.26092
9.26165
9.26224
9.26273
9.26313
9.26345
9.26372
9.26393
9.2641
9.26423
9.26433
9.2644
9.26445
9.26447
7.45363
7.45169
7.44771
7.44154
7.433
7.42204
7.40898
7.39479
7.38125
7.37065
7.36494
7.36546
7.37309
7.38858
7.41286
7.44723
7.49341
7.55366
7.63064
7.72709
7.84494
7.98387
8.1393
8.30137
8.45735
8.5974
8.71701
8.81594
8.89625
8.96084
9.0126
9.05407
9.08734
9.11409
9.13567
9.15311
9.16724
9.17872
9.18806
9.19567
9.20188
9.20696
9.21111
9.21451
9.21729
9.21957
9.22144
9.22298
9.22424
9.22527
9.22612
9.22681
9.22738
9.22784
9.22823
9.22854
9.22879
9.22899
9.22915
9.22928
9.22938
9.22945
9.22949
9.22951
7.34499
7.34294
7.3387
7.33205
7.32265
7.31031
7.29517
7.27821
7.26154
7.24805
7.24001
7.23877
7.24506
7.25951
7.28297
7.31675
7.36276
7.4236
7.50253
7.6032
7.72872
7.87979
8.05174
8.23238
8.40486
8.55702
8.68425
8.78732
8.86949
8.93459
8.98611
9.02699
9.05952
9.08553
9.10639
9.12319
9.13676
9.14776
9.15668
9.16395
9.16987
9.1747
9.17865
9.18188
9.18452
9.18669
9.18847
9.18992
9.19112
9.1921
9.1929
9.19356
9.1941
9.19454
9.1949
9.19519
9.19543
9.19562
9.19578
9.1959
9.19599
9.19606
9.1961
9.19612
7.24151
7.23939
7.23496
7.2279
7.21773
7.20403
7.18671
7.16668
7.14647
7.12974
7.11921
7.11614
7.12104
7.13433
7.15674
7.18959
7.23492
7.29567
7.37575
7.47983
7.61255
7.77615
7.96632
8.16804
8.35872
8.52336
8.65771
8.76411
8.84732
8.9122
8.96292
9.00277
9.03425
9.05926
9.07923
9.09525
9.10816
9.11859
9.12704
9.13391
9.1395
9.14406
9.14778
9.15083
9.15332
9.15536
9.15703
9.1584
9.15952
9.16044
9.16119
9.16181
9.16232
9.16273
9.16307
9.16335
9.16357
9.16376
9.1639
9.16401
9.1641
9.16416
9.1642
9.16422
7.14297
7.1408
7.13625
7.12888
7.11806
7.10307
7.0835
7.06009
7.03581
7.01552
7.00236
6.99745
7.00094
7.01299
7.03416
7.06575
7.1099
7.16987
7.25018
7.35671
7.4959
7.67226
7.88258
8.10854
8.31933
8.49668
8.63742
8.74614
8.82945
8.89338
8.94274
8.98115
9.01128
9.03507
9.054
9.06913
9.08128
9.09108
9.09901
9.10545
9.11068
9.11494
9.11842
9.12126
9.12358
9.12549
9.12704
9.12832
9.12937
9.13023
9.13093
9.1315
9.13198
9.13236
9.13268
9.13294
9.13315
9.13332
9.13345
9.13356
9.13364
9.13369
9.13373
9.13375
7.04911
7.04694
7.04233
7.03478
7.02345
7.00731
6.98546
6.95832
6.92934
6.90512
6.88928
6.88258
6.8847
6.89546
6.91524
6.94526
6.98775
7.04621
7.1258
7.23358
7.37822
7.56732
7.79992
8.05417
8.28722
8.47724
8.62334
8.73319
8.81559
8.87781
8.92528
8.96188
8.99038
9.01278
9.03052
9.04466
9.05599
9.06511
9.07248
9.07845
9.0833
9.08725
9.09047
9.0931
9.09525
9.09701
9.09845
9.09963
9.10059
9.10139
9.10204
9.10257
9.103
9.10336
9.10365
9.10389
9.10408
9.10424
9.10437
9.10446
9.10454
9.10459
9.10462
9.10464
6.9597
6.95756
6.95299
6.94538
6.93372
6.9166
6.89252
6.86129
6.82683
6.79829
6.77978
6.77141
6.77226
6.78172
6.79998
6.82817
6.86855
6.92479
7.0026
7.11029
7.25899
7.46042
7.71763
8.00541
8.26304
8.46532
8.61537
8.72498
8.80542
8.86519
8.91025
8.94469
8.97135
8.9922
9.00865
9.02172
9.03218
9.04058
9.04735
9.05284
9.05729
9.06091
9.06386
9.06627
9.06824
9.06985
9.07117
9.07225
9.07313
9.07386
9.07445
9.07494
9.07534
9.07566
9.07593
9.07615
9.07633
9.07647
9.07658
9.07667
9.07674
9.07679
9.07682
9.07683
6.8745
6.87244
6.86798
6.86047
6.84869
6.83084
6.80465
6.76896
6.72799
6.69477
6.67367
6.66385
6.66355
6.67175
6.6884
6.71454
6.75237
6.80571
6.88068
6.98673
7.1377
7.35049
7.63473
7.96297
8.24759
8.46116
8.61337
8.72119
8.79857
8.85517
8.89737
8.92936
8.95398
8.97315
8.98822
9.00017
9.00971
9.01736
9.02352
9.02851
9.03255
9.03584
9.03852
9.0407
9.04249
9.04395
9.04514
9.04612
9.04692
9.04758
9.04811
9.04855
9.04892
9.04921
9.04945
9.04965
9.04981
9.04994
9.05004
9.05012
9.05019
9.05023
9.05025
9.05027
6.79331
6.79135
6.78709
6.77982
6.76816
6.74989
6.72184
6.68135
6.63252
6.59426
6.5708
6.55979
6.55854
6.56553
6.58052
6.60441
6.63933
6.68912
6.76017
6.86291
7.01391
7.23635
7.54991
7.92791
8.24181
8.46497
8.61708
8.72143
8.79467
8.84744
8.88636
8.91566
8.93808
8.95547
8.9691
8.97989
8.98848
8.99537
9.00091
9.00539
9.00902
9.01196
9.01437
9.01632
9.01792
9.01923
9.0203
9.02118
9.02189
9.02248
9.02296
9.02336
9.02368
9.02395
9.02416
9.02434
9.02448
9.0246
9.02469
9.02476
9.02482
9.02485
9.02488
9.02489
6.71591
6.71409
6.71011
6.70321
6.69192
6.67363
6.6441
6.59854
6.54001
6.49644
6.471
6.45918
6.45718
6.46305
6.47635
6.49783
6.52953
6.57519
6.64128
6.73894
6.88729
7.11669
7.46137
7.90182
8.24681
8.47684
8.62618
8.72528
8.79333
8.84166
8.87697
8.90337
8.92348
8.93902
8.95118
8.96077
8.96841
8.97452
8.97943
8.9834
8.98661
8.98922
8.99134
8.99308
8.99449
8.99565
8.99659
8.99737
8.998
8.99852
8.99894
8.99929
8.99958
8.99981
9
9.00016
9.00029
9.00039
9.00047
9.00053
9.00058
9.00062
9.00064
9.00065
6.6421
6.64045
6.63681
6.63043
6.61978
6.60191
6.57147
6.52075
6.44997
6.40099
6.37413
6.36194
6.35943
6.36428
6.37587
6.39485
6.42307
6.46409
6.52426
6.61505
6.75765
6.99009
7.36659
7.88699
8.26375
8.49675
8.64022
8.73226
8.79416
8.83754
8.86895
8.89231
8.91002
8.92367
8.93432
8.94272
8.94939
8.95472
8.95901
8.96247
8.96527
8.96754
8.96939
8.9709
8.97213
8.97314
8.97396
8.97463
8.97518
8.97564
8.97601
8.97631
8.97656
8.97676
8.97693
8.97706
8.97717
8.97726
8.97733
8.97739
8.97743
8.97746
8.97748
8.97749
6.57169
6.57023
6.56699
6.56126
6.55149
6.53455
6.50398
6.44831
6.36178
6.30759
6.2801
6.26802
6.26526
6.26919
6.27909
6.29549
6.32004
6.35601
6.40941
6.49158
6.625
6.8551
7.26205
7.8867
8.29388
8.52446
8.65863
8.74187
8.79676
8.83477
8.86209
8.88229
8.89756
8.9093
8.91845
8.92564
8.93136
8.93592
8.93958
8.94254
8.94493
8.94687
8.94845
8.94974
8.95079
8.95165
8.95235
8.95293
8.9534
8.95378
8.9541
8.95436
8.95457
8.95474
8.95488
8.955
8.95509
8.95517
8.95523
8.95528
8.95531
8.95534
8.95535
8.95536
6.5045
6.50324
6.50046
6.49548
6.48684
6.47135
6.44167
6.38177
6.27459
6.21593
6.18882
6.1774
6.17462
6.17773
6.18598
6.19976
6.22051
6.25113
6.29706
6.36899
6.48962
6.7104
7.14285
7.90568
8.33832
8.5595
8.68076
8.75359
8.80076
8.83309
8.85617
8.87317
8.88598
8.89581
8.90345
8.90947
8.91423
8.91804
8.92109
8.92355
8.92554
8.92716
8.92848
8.92955
8.93042
8.93113
8.93172
8.9322
8.93259
8.93291
8.93317
8.93339
8.93356
8.93371
8.93383
8.93392
8.934
8.93406
8.93411
8.93415
8.93418
8.9342
8.93422
8.93422
6.44036
6.43932
6.43703
6.43288
6.42558
6.41208
6.38455
6.32197
6.18731
6.12574
6.10028
6.09006
6.08748
6.08988
6.0965
6.10767
6.12456
6.14961
6.18752
6.24783
6.35207
6.55493
7.00217
7.95053
8.39792
8.6011
8.70585
8.76688
8.8058
8.83224
8.85102
8.8648
8.87516
8.8831
8.88927
8.89411
8.89795
8.90101
8.90347
8.90545
8.90705
8.90835
8.90941
8.91027
8.91097
8.91154
8.91201
8.9124
8.91271
8.91297
8.91318
8.91335
8.9135
8.91361
8.91371
8.91378
8.91385
8.9139
8.91394
8.91397
8.91399
8.91401
8.91402
8.91403
6.3791
6.3783
6.37651
6.37326
6.36746
6.35644
6.33252
6.27013
6.09844
6.03683
6.01449
6.00598
6.0038
6.00556
6.01062
6.01918
6.0322
6.05159
6.08113
6.12873
6.21326
6.3882
6.8306
8.03047
8.47299
8.64817
8.73308
8.78125
8.81156
8.83201
8.84648
8.85707
8.86502
8.8711
8.87581
8.87952
8.88245
8.88479
8.88667
8.88818
8.88941
8.8904
8.8912
8.89186
8.8924
8.89284
8.89319
8.89349
8.89373
8.89392
8.89408
8.89422
8.89432
8.89441
8.89448
8.89454
8.89459
8.89463
8.89466
8.89468
8.8947
8.89472
8.89472
8.89473
6.32059
6.32002
6.31875
6.31643
6.31225
6.30411
6.28537
6.22796
6.00603
5.94916
5.93153
5.92515
5.92351
5.92471
5.92825
5.93428
5.94346
5.95717
5.97818
6.01236
6.07442
6.21068
6.61533
8.15813
8.56286
8.6993
8.76163
8.7962
8.81775
8.83221
8.84241
8.84986
8.85545
8.85972
8.86303
8.86563
8.86769
8.86933
8.87064
8.8717
8.87256
8.87326
8.87382
8.87428
8.87466
8.87496
8.87521
8.87542
8.87559
8.87572
8.87584
8.87593
8.87601
8.87607
8.87612
8.87616
8.87619
8.87622
8.87624
8.87626
8.87627
8.87628
8.87629
8.87629
6.26468
6.26434
6.26359
6.26221
6.2597
6.25474
6.24268
6.1978
5.90747
5.8629
5.8515
5.84758
5.84657
5.84726
5.84935
5.8529
5.85832
5.86644
5.87892
5.89936
5.93706
6.02435
6.33913
8.35058
8.6654
8.75279
8.79066
8.81133
8.82412
8.83268
8.83871
8.84311
8.8464
8.84892
8.85087
8.8524
8.85361
8.85457
8.85535
8.85597
8.85648
8.85688
8.85722
8.85749
8.85771
8.85789
8.85804
8.85816
8.85826
8.85834
8.8584
8.85846
8.8585
8.85854
8.85857
8.85859
8.85861
8.85863
8.85864
8.85865
8.85866
8.85866
8.85867
8.85867
6.21124
6.21113
6.21088
6.21043
6.20959
6.20794
6.20373
6.18285
5.79933
5.77856
5.77456
5.77324
5.77291
5.77313
5.77382
5.77498
5.77677
5.77945
5.78356
5.79033
5.80292
5.83331
5.97909
8.63054
8.77633
8.80676
8.8194
8.82624
8.83047
8.83329
8.83527
8.83672
8.8378
8.83863
8.83927
8.83977
8.84017
8.84049
8.84074
8.84095
8.84111
8.84125
8.84136
8.84145
8.84152
8.84158
8.84163
8.84167
8.8417
8.84173
8.84175
8.84177
8.84178
8.84179
8.8418
8.84181
8.84182
8.84182
8.84183
8.84183
8.84183
8.84183
8.84183
8.84183
)
;

boundaryField
{
    left
    {
        type            zeroGradient;
    }
    right
    {
        type            zeroGradient;
    }
    interface
    {
        type            fixedValue;
        value           nonuniform List<scalar> 
64
(
6.18513
6.18513
6.18513
6.18513
6.18513
6.18513
6.18513
6.18513
5.73688
5.73688
5.73688
5.73688
5.73688
5.73688
5.73688
5.73688
5.73688
5.73688
5.73688
5.73688
5.73688
5.73688
5.73688
8.83361
8.83361
8.83361
8.83361
8.83361
8.83361
8.83361
8.83361
8.83361
8.83361
8.83361
8.83361
8.83361
8.83361
8.83361
8.83361
8.83361
8.83361
8.83361
8.83361
8.83361
8.83361
8.83361
8.83361
8.83361
8.83361
8.83361
8.83361
8.83361
8.83361
8.83361
8.83361
8.83361
8.83361
8.83361
8.83361
8.83361
8.83361
8.83361
8.83361
8.83361
)
;
    }
    bottom
    {
        type            fixedValue;
        value           uniform 10;
    }
    defaultFaces
    {
        type            empty;
    }
}


// ************************************************************************* //
