/*--------------------------------*- C++ -*----------------------------------*\
| =========                 |                                                 |
| \\      /  F ield         | OpenFOAM: The Open Source CFD Toolbox           |
|  \\    /   O peration     | Version:  5.x                                   |
|   \\  /    A nd           | Web:      www.OpenFOAM.org                      |
|    \\/     M anipulation  |                                                 |
\*---------------------------------------------------------------------------*/
FoamFile
{
    version     2.0;
    format      ascii;
    class       volScalarField;
    location    "9";
    object      gradTx;
}
// * * * * * * * * * * * * * * * * * * * * * * * * * * * * * * * * * * * * * //

dimensions      [0 -1 0 1 0 0 0];

internalField   nonuniform List<scalar> 
6300
(
280.65
279.826
278.176
275.7
272.394
268.259
263.297
257.515
250.93
243.569
235.474
226.706
217.346
207.495
197.278
281.462
280.639
278.992
276.517
273.212
269.075
264.105
258.307
251.695
244.292
236.138
227.289
217.827
207.854
197.497
283.086
282.266
280.623
278.153
274.851
270.711
265.729
259.904
253.241
245.758
237.485
228.477
218.809
208.587
197.945
285.518
284.702
283.069
280.61
277.317
273.179
268.186
262.327
255.597
248.001
239.559
230.314
220.335
209.732
198.648
288.753
287.946
286.327
283.888
280.616
276.492
271.497
265.609
258.808
251.08
242.427
232.873
222.478
211.349
199.644
292.783
291.989
290.395
287.989
284.753
280.664
275.689
269.793
262.934
255.075
246.186
236.264
225.346
213.531
200.998
297.595
296.819
295.261
292.907
289.733
285.709
280.792
274.928
268.05
260.088
250.968
240.641
229.1
216.424
202.807
303.17
302.42
300.912
298.631
295.552
291.636
286.831
281.064
274.241
266.246
256.948
246.22
233.98
220.249
205.228
309.482
308.765
307.323
305.142
302.195
298.44
293.819
288.244
281.591
273.696
264.346
253.301
240.339
225.356
208.513
316.498
315.821
314.462
312.406
309.631
306.099
301.749
296.488
290.173
282.588
273.428
262.289
248.709
232.314
213.098
324.178
323.548
322.284
320.377
317.812
314.561
310.577
305.774
300.011
293.044
284.478
273.705
259.884
242.084
219.776
332.475
331.895
330.734
328.993
326.666
323.745
320.209
316.008
311.04
305.087
297.724
288.157
275.028
256.351
230.13
341.337
340.808
339.753
338.18
336.1
333.53
330.491
326.997
323.039
318.527
313.162
306.159
295.708
278.15
247.705
350.715
350.233
349.276
347.859
346.01
343.771
341.213
338.436
335.58
332.807
330.224
327.596
323.481
312.824
281.658
360.56
360.119
359.244
357.957
356.293
354.317
352.138
349.939
348.022
346.885
347.318
350.506
357.782
367.992
359.951
187.715
178.949
170.211
161.589
153.166
145.021
137.221
129.824
122.879
116.422
110.481
105.072
100.208
95.8902
92.1177
88.8831
86.1755
83.9799
82.2783
81.0492
80.2677
79.9051
79.9288
80.3023
80.9846
81.9308
83.0927
84.4196
85.8597
87.3618
88.8771
90.361
91.7739
93.0816
94.2553
95.27
96.1033
96.734
97.1413
97.3048
97.2052
96.8265
96.1572
95.1921
93.9335
92.3902
90.5766
88.5099
86.2074
83.6836
80.9484
78.0058
74.8536
71.4848
67.8888
64.054
59.9687
55.6232
51.0095
46.121
40.9508
35.4902
29.7267
23.6426
17.2138
10.4099
3.19486
-4.47179
-12.6331
-21.3328
-30.6132
-40.5137
-51.07
-62.3135
-74.2707
-86.9637
-100.409
-114.619
-129.596
-145.336
-161.822
-179.021
-196.884
-215.343
-234.304
-253.654
-273.258
-292.962
-312.599
-331.997
187.797
178.903
170.037
161.294
152.761
144.517
136.634
129.169
122.171
115.676
109.708
104.285
99.4156
95.1014
91.3392
88.1208
85.4345
83.2652
81.5947
80.4016
79.6613
79.3455
79.4221
79.8545
80.6013
81.6171
82.852
84.2535
85.7672
87.3394
88.9191
90.46
91.9218
93.2712
94.4808
95.5278
96.3916
97.0523
97.489
97.68
97.6038
97.2416
96.5796
95.6115
94.3401
92.7763
90.938
88.8465
86.5229
83.9851
81.2444
78.3049
75.163
71.8094
68.2306
64.4123
60.3414
56.0075
51.4036
46.525
41.3675
35.9251
30.1875
24.1382
17.7533
11.0017
3.84517
-3.75921
-11.8574
-20.4958
-29.7189
-39.5678
-50.0787
-61.2834
-73.2085
-85.8766
-99.3057
-113.509
-128.493
-144.257
-160.788
-178.058
-196.021
-214.611
-233.735
-253.279
-273.103
-293.047
-312.935
-332.582
187.964
178.806
169.681
160.691
151.932
143.489
135.438
127.838
120.735
114.163
108.146
102.697
97.8196
93.5139
89.7735
86.5884
83.9455
81.8288
80.2201
79.0986
78.4402
78.2179
78.4001
78.9505
79.8278
80.9845
82.3684
83.9224
85.5871
87.3029
89.0137
90.6693
92.2283
93.6587
94.9371
96.0457
96.9689
97.6895
98.1869
98.4364
98.4108
98.0849
97.4392
96.4645
95.1642
93.5544
91.6607
89.5139
87.1441
84.5757
81.8239
78.8925
75.7748
72.4556
68.9149
65.1323
61.0906
56.7787
52.1915
47.3291
42.1932
36.7841
31.0962
25.1162
18.8206
12.1761
5.14041
-2.33529
-10.3033
-18.816
-27.9225
-37.6669
-48.0866
-59.2134
-71.0737
-83.6904
-97.0835
-111.27
-126.263
-142.069
-158.684
-176.09
-194.249
-213.1
-232.554
-252.492
-272.766
-293.202
-313.604
-333.767
188.226
178.655
169.123
159.748
150.639
141.893
133.587
125.784
118.528
111.848
105.763
100.279
95.3966
91.1085
87.4046
84.2719
81.6951
79.6576
78.141
77.1253
76.5883
76.5046
76.8445
77.573
78.6485
80.0219
81.6366
83.4288
85.33
87.2706
89.1844
91.0144
92.7165
94.2617
95.6344
96.8272
97.8342
98.6447
99.2385
99.5852
99.647
99.3853
98.7692
97.7828
96.4308
94.7379
92.7448
90.4994
88.0482
85.4277
82.6591
79.7458
76.6743
73.4184
69.9453
66.2231
62.227
57.9442
53.374
48.5252
43.4111
38.043
32.4247
26.5478
20.3897
13.9135
7.0692
-0.202238
-7.96445
-16.2802
-25.2066
-34.7919
-45.0746
-56.0848
-67.847
-80.3831
-93.7152
-107.866
-122.858
-138.71
-155.435
-173.03
-191.473
-210.714
-230.668
-251.213
-272.188
-293.395
-314.608
-335.583
188.599
178.441
168.332
158.415
148.819
139.655
131.007
122.937
115.485
108.673
102.51
96.9929
92.1135
87.8579
84.2096
81.1513
78.665
76.7329
75.3372
74.4596
74.0807
74.1783
74.7264
75.6928
77.0372
78.7089
80.646
82.775
85.0131
87.2734
89.4726
91.5401
93.427
95.1097
96.5873
97.8726
98.979
99.9083
100.642
101.141
101.345
101.193
100.629
99.6242
98.1847
96.3505
94.1887
91.778
89.1928
86.4899
83.6998
80.8241
77.8367
74.6913
71.332
67.7058
63.7743
59.5218
54.9557
50.1017
44.9932
39.6612
34.1244
28.3833
22.4164
16.1805
9.61297
2.63765
-4.82809
-12.8644
-21.5409
-30.9114
-41.0134
-51.8713
-63.5032
-75.9266
-89.1645
-103.246
-118.209
-134.09
-150.927
-168.744
-187.542
-207.293
-227.922
-249.305
-271.265
-293.569
-315.942
-338.083
189.107
178.149
167.256
156.611
146.372
136.668
127.59
119.195
111.515
104.559
98.3208
92.7845
87.9285
83.729
80.1617
77.2036
74.8336
73.0328
71.7843
71.073
70.8837
71.2004
72.003
73.2655
74.9514
77.0107
79.376
81.9608
84.661
87.3611
89.9468
92.3225
94.4282
96.2494
97.8136
99.1719
100.375
101.449
102.382
103.115
103.554
103.589
103.119
102.089
100.503
98.4314
95.9879
93.3048
90.5038
87.6743
84.8611
82.0603
79.2238
76.2697
73.1008
69.6258
65.7818
61.5487
56.9503
52.0428
46.8957
41.5728
36.1173
30.543
24.8298
18.9243
12.7438
6.18374
-0.869864
-8.52618
-16.8749
-25.9764
-35.862
-46.5416
-58.017
-70.2948
-83.395
-97.3555
-112.231
-128.09
-145.003
-163.037
-182.234
-202.599
-224.081
-246.56
-269.836
-293.632
-317.6
-341.347
189.789
177.756
165.817
154.214
143.15
132.774
123.181
114.418
106.498
99.4069
93.117
87.5923
82.7945
78.6863
75.2334
72.4061
70.1795
68.5342
67.4552
66.9317
66.9556
67.5197
68.6147
70.2254
72.3251
74.8689
77.7869
80.9775
84.3058
87.61
90.7202
93.4903
95.8354
97.7558
99.3326
100.691
101.953
103.191
104.405
105.509
106.343
106.706
106.413
105.349
103.519
101.044
98.1285
94.9981
91.8527
88.8323
86.0012
83.3451
80.7772
78.155
75.3077
72.0747
68.3475
64.0996
59.3881
54.3272
49.0497
43.6738
38.2801
32.9016
27.5192
22.0637
16.4206
10.4404
3.95639
-3.19061
-11.1239
-19.9115
-29.566
-40.064
-51.3732
-63.4759
-76.3838
-90.1432
-104.834
-120.565
-137.461
-155.649
-175.237
-196.289
-218.797
-242.657
-267.65
-293.437
-319.565
-345.497
190.703
177.223
163.886
151.034
138.93
127.748
117.572
108.424
100.282
93.0966
86.8069
81.3495
76.6641
72.6967
69.4012
66.7403
64.6857
63.2173
62.3234
61.9994
62.2468
63.0718
64.4812
66.4786
69.0564
72.1855
75.8022
79.7927
83.9821
88.135
91.9798
95.2668
97.8503
99.7535
101.162
102.346
103.56
104.964
106.584
108.288
109.804
110.766
110.812
109.71
107.458
104.288
100.575
96.7097
93.0184
89.7145
86.8866
84.4999
82.4059
80.3615
78.0675
75.2328
71.6605
67.3158
62.3271
56.9216
51.3441
45.7987
40.42
35.2646
30.3129
25.4725
20.5822
15.4224
9.7372
3.27744
-4.14232
-12.5975
-22.0543
-32.4168
-43.5847
-55.4953
-68.1435
-81.5858
-95.9365
-111.359
-128.053
-146.239
-166.126
-187.876
-211.559
-237.112
-264.311
-292.742
-321.798
-350.718
191.945
176.476
161.249
146.769
133.38
121.266
110.477
100.978
92.6847
85.4924
79.2946
73.9917
69.4966
65.7364
62.6521
60.199
58.345
57.0708
56.3685
56.2416
56.7042
57.7797
59.4985
61.8934
64.991
68.7974
73.2762
78.3183
83.708
89.1003
94.039
98.0528
100.841
102.459
103.312
103.955
104.887
106.424
108.637
111.335
114.058
116.14
116.862
115.723
112.713
108.313
103.236
98.1678
93.6229
89.9082
87.1337
85.2303
83.9601
82.9249
81.6029
79.4505
76.0836
71.4569
65.8642
59.7616
53.5904
47.6823
42.2369
37.3332
32.9456
28.952
25.1312
21.1603
16.6331
11.1278
4.33056
-3.84065
-13.2375
-23.6085
-34.7251
-46.4506
-58.757
-71.7174
-85.492
-100.317
-116.494
-134.374
-154.326
-176.672
-201.618
-229.19
-259.19
-291.135
-324.213
-357.296
193.673
175.375
157.533
140.924
125.989
112.87
101.521
91.7922
83.4979
76.453
70.4903
65.4676
61.2682
57.7998
54.9917
52.7923
51.1672
50.0983
49.5827
49.6327
50.2766
51.5589
53.5399
56.294
59.9024
64.4382
69.9362
76.3403
83.4268
90.7157
97.4265
102.6
105.513
106.263
105.761
105.144
105.34
106.903
109.99
114.341
119.232
123.47
125.586
124.427
119.966
113.308
105.882
98.8687
93.0284
88.7451
86.1235
85.0462
85.173
85.8986
86.3313
85.4143
82.3184
76.9867
70.1335
62.6987
55.4558
48.8977
43.2726
38.6574
35.0099
32.1818
29.8957
27.6985
24.9371
20.8384
14.7818
6.68143
-3.01751
-13.7254
-24.9875
-36.5676
-48.4266
-60.6739
-73.5321
-87.3242
-102.477
-119.522
-139.072
-161.719
-187.889
-217.764
-251.256
-287.889
-326.609
-365.686
196.162
173.608
152.033
132.665
115.974
101.922
90.2267
80.5354
72.5077
65.8515
60.3294
55.7549
51.9845
48.9101
46.4525
44.5563
43.1866
42.3272
41.9803
42.1666
42.9279
44.3298
46.4661
49.462
53.476
58.6913
65.2886
73.3766
82.8512
93.16
103.025
110.397
113.297
111.866
108.371
105.16
103.82
105.185
109.52
116.564
125.342
133.851
139.021
137.88
130.381
119.404
107.928
97.8776
90.1883
85.1859
82.8863
83.125
85.5207
89.2911
93.0004
94.5128
91.7699
84.7048
75.238
65.3571
56.3335
48.7678
42.8523
38.5869
35.8927
34.6301
34.5311
35.048
35.1662
33.3675
28.1758
19.5052
8.65566
-3.04397
-14.7908
-26.2817
-37.5354
-48.7485
-60.225
-72.3695
-85.7293
-101.06
-119.353
-141.685
-168.818
-201.123
-238.79
-281.626
-328.478
-376.648
199.929
170.421
143.348
120.547
102.156
87.5753
76.0444
66.8803
59.5401
53.6143
48.8015
44.8819
41.6963
39.1303
37.1031
35.5602
34.4691
33.8166
33.6084
33.871
34.655
36.0416
38.1524
41.1623
45.3175
50.9518
58.4919
68.4137
81.071
96.2404
112.208
124.629
127.314
120.438
110.568
102.477
98.4008
99.1852
105.146
116.285
131.836
149.035
161.541
160.484
145.799
126.215
107.918
93.4831
83.4761
77.7322
75.9912
78.0952
83.8858
92.7687
102.83
109.736
107.442
95.8781
80.9365
66.7787
55.11
46.2601
40.0546
36.2528
34.7127
35.4019
38.2783
42.9706
48.1545
50.7813
46.5783
35.466
21.5526
7.70562
-4.96188
-16.3364
-26.7012
-36.4419
-45.9536
-55.6624
-66.1408
-78.3291
-93.8117
-114.735
-142.294
-176.751
-218.874
-269.57
-328.439
-391.522
206.037
163.721
128.504
102.073
82.8466
68.8324
58.4497
50.5958
44.5332
39.7722
35.9851
32.95
30.5142
28.573
27.0546
25.9122
25.1188
24.6647
24.5573
24.8232
25.5129
26.7093
28.5423
31.2119
35.0273
40.4663
48.2632
59.5092
75.6704
98.168
126.493
152.879
155.092
133.317
110.197
94.0096
85.9786
85.7281
93.3099
109.651
135.951
170.973
203.584
202.707
168.265
131.171
102.341
82.7092
70.622
64.5113
63.5565
67.7541
77.7949
94.5469
117.198
138.202
136.462
111.911
85.5036
64.614
49.8251
39.943
33.794
30.6606
30.3213
33.023
39.4093
50.1838
64.8233
78.0283
74.9287
55.4592
34.3533
16.7565
3.00531
-7.84483
-16.7646
-24.4637
-31.3965
-37.845
-44.0879
-50.8515
-60.4334
-78.2236
-105.83
-141.336
-186.602
-245.738
-322.318
-412.869
216.872
146.794
101
73.2217
56.0277
44.8574
37.2114
31.7298
27.65
24.5258
22.0846
20.1534
18.6188
17.4056
16.4635
15.7607
15.279
15.0125
14.9675
15.164
15.64
16.4595
17.7262
19.6104
22.3976
26.5837
33.0662
43.5244
61.1425
91.7012
143.564
215.933
217.405
148.129
99.8402
73.7933
62.3495
60.9896
68.8579
88.6705
127.501
196.376
293.844
293.255
194.546
124.219
83.5181
61.0676
49.1594
43.8637
43.7004
48.9964
62.0374
87.8266
133.936
199.415
198.324
130.615
82.1216
53.6622
37.473
28.2487
23.19
21.0437
21.55
25.3372
34.2199
51.8295
83.5554
128.751
126.849
77.807
42.0996
20.2693
6.79488
-2.13264
-8.58504
-13.588
-17.536
-20.3223
-21.2836
-19.3138
-15.2329
-27.5739
-57.9899
-91.8592
-134.351
-196.778
-296.069
-446.084
237.987
94.8928
47.5492
29.1259
20.5323
15.8054
12.8549
10.8439
9.38947
8.2948
7.4489
6.78477
6.25998
5.84687
5.52736
5.29002
5.12851
5.04084
5.02944
5.10178
5.27212
5.56475
6.02029
6.70805
7.75239
9.39346
12.1431
17.2277
27.9776
54.5535
131.1
381.07
381.588
132.713
57.4514
32.5456
24.1971
22.9604
27.2034
40.3014
75.7828
180.601
525.294
525.085
179.949
74.6021
38.411
24.2431
18.1729
15.8242
15.9811
19.0843
27.9205
51.8422
122.777
356.482
356.11
121.642
49.8886
25.0395
15.09
10.5548
8.39154
7.60623
8.05342
10.3131
16.4628
33.1457
82.8885
247.289
246.648
80.9496
29.8616
11.7489
4.03668
0.0154971
-2.4924
-4.23088
-5.3475
-5.42687
-2.6994
9.18463
53.6154
49.1047
-5.17465
-29.9637
-53.3855
-94.7274
-196.765
-503.121
-352.823
-374.743
-395.545
-415.012
-432.977
-449.322
-463.976
-476.909
-488.12
-497.629
-505.47
-511.681
-516.301
-519.362
-520.886
-353.67
-375.849
-396.866
-416.5
-434.581
-450.996
-465.682
-478.615
-489.804
-499.279
-507.081
-513.255
-517.842
-520.88
-522.392
-355.394
-378.101
-399.557
-419.526
-437.836
-454.385
-469.123
-482.047
-493.185
-502.585
-510.303
-516.396
-520.915
-523.904
-525.39
-358.058
-381.59
-403.721
-424.194
-442.838
-459.567
-474.361
-487.248
-498.287
-507.555
-515.131
-521.091
-525.501
-528.411
-529.857
-361.769
-386.465
-409.529
-430.675
-449.74
-466.669
-481.489
-494.278
-505.143
-514.199
-521.558
-527.32
-531.567
-534.363
-535.75
-366.692
-392.959
-417.241
-439.221
-458.76
-475.862
-490.629
-503.214
-513.789
-522.522
-529.564
-535.044
-539.066
-541.705
-543.012
-373.082
-401.422
-427.241
-450.193
-470.2
-487.374
-501.934
-514.142
-524.258
-532.515
-539.112
-544.208
-547.928
-550.36
-551.562
-381.335
-412.391
-440.092
-464.094
-484.457
-501.482
-515.574
-527.144
-536.566
-544.149
-550.14
-554.729
-558.059
-560.226
-561.295
-392.082
-426.699
-456.626
-481.618
-502.034
-518.506
-531.717
-542.278
-550.693
-557.353
-562.548
-566.491
-569.331
-571.172
-572.077
-406.377
-445.683
-478.078
-503.702
-523.536
-538.773
-550.489
-559.539
-566.558
-572.003
-576.189
-579.333
-581.582
-583.033
-583.745
-426.09
-471.562
-506.284
-531.556
-549.616
-562.54
-571.907
-578.809
-583.98
-587.892
-590.85
-593.047
-594.61
-595.614
-596.105
-454.851
-508.173
-543.923
-566.604
-580.813
-589.846
-595.765
-599.792
-602.639
-604.713
-606.248
-607.376
-608.174
-608.686
-608.937
-500.562
-562.338
-594.612
-610.102
-617.168
-620.244
-621.492
-621.935
-622.051
-622.054
-622.03
-622.011
-622.001
-621.999
-621.999
-583.242
-645.984
-662.06
-662.001
-657.495
-652.446
-647.999
-644.383
-641.555
-639.398
-637.785
-636.613
-635.799
-635.287
-635.04
-763.311
-776.276
-745.62
-718.32
-698.344
-684.024
-673.646
-666.021
-660.37
-656.174
-653.076
-650.832
-649.272
-648.289
-647.812
369.977
369.564
368.747
367.544
365.992
364.157
362.158
360.211
358.701
358.335
360.449
367.744
386.522
435.28
585.175
378.813
378.421
377.643
376.492
374.995
373.204
371.221
369.234
367.604
367.013
368.776
375.431
391.818
426.203
483.688
387.911
387.536
386.787
385.668
384.19
382.375
380.275
378
375.774
374.046
373.695
376.347
384.602
401.073
422.277
397.259
396.899
396.177
395.083
393.606
391.731
389.44
386.722
383.588
380.11
376.518
373.362
371.67
372.644
375.747
406.845
406.504
405.813
404.753
403.288
401.364
398.89
395.723
391.628
386.24
379.026
369.351
356.875
342.724
331.531
416.657
416.341
415.695
414.691
413.277
411.366
408.81
405.356
400.556
393.628
383.232
367.274
343.232
310.739
279.702
426.677
426.394
425.814
424.902
423.599
421.804
419.343
415.912
410.951
403.411
391.288
370.799
335.448
277.734
206.481
436.881
436.643
436.15
435.371
434.25
432.692
430.539
427.518
423.124
416.364
405.143
384.634
343.183
254.122
83.9418
447.24
447.055
446.672
446.066
445.191
443.979
442.326
440.066
436.925
432.405
425.435
413.001
383.969
286.836
-156.612
457.716
457.593
457.338
456.933
456.352
455.561
454.523
453.214
451.671
450.136
449.509
452.882
472.037
560.036
997.524
468.265
468.21
468.093
467.909
467.646
467.302
466.896
466.511
466.395
467.223
470.791
481.79
512.285
590.519
753.189
478.841
478.855
478.883
478.924
478.981
479.072
479.242
479.61
480.449
482.395
486.901
497.143
519.366
562.35
622.011
489.394
489.479
489.65
489.914
490.28
490.772
491.438
492.368
493.72
495.775
499.015
504.16
512.015
522.583
532.46
499.876
500.029
500.34
500.817
501.475
502.337
503.439
504.819
506.486
508.319
509.793
509.28
502.767
483.281
449.967
510.238
510.457
510.901
511.58
512.512
513.721
515.233
517.058
519.121
521.097
521.935
518.551
502.514
453.568
344.538
520.434
520.715
521.283
522.152
523.342
524.88
526.798
529.117
531.8
534.651
536.997
536.591
525.102
465.566
163.596
530.422
530.76
531.442
532.485
533.913
535.76
538.072
540.908
544.347
548.541
553.954
562.314
581.04
645.909
950.327
540.162
540.551
541.336
542.535
544.177
546.301
548.967
552.266
556.352
561.57
568.849
580.82
604.919
659.88
771.508
549.619
550.052
550.927
552.262
554.089
556.45
559.41
563.062
567.552
573.153
580.471
590.886
607.351
634.481
670.427
558.761
559.231
560.182
561.632
563.613
566.168
569.359
573.262
577.963
583.528
589.928
596.733
602.36
602.942
594.531
567.561
568.063
569.075
570.617
572.721
575.428
578.798
582.894
587.755
593.307
599.088
603.38
600.857
577.631
513.019
575.999
576.524
577.583
579.196
581.391
584.213
587.719
591.979
597.049
602.911
609.266
614.742
613.715
581.043
386.863
584.058
584.6
585.692
587.352
589.609
592.505
596.102
600.485
605.773
612.155
620.038
630.603
648.533
696.597
900.4
591.726
592.278
593.389
595.076
597.365
600.294
603.924
608.348
613.72
620.341
628.932
641.331
662.408
703.979
781.393
598.996
599.552
600.671
602.365
604.657
607.579
611.18
615.538
620.779
627.142
635.164
646.013
662.034
686.451
716.382
605.864
606.42
607.536
609.222
611.494
614.375
617.895
622.099
627.037
632.775
639.417
647.084
655.813
665.075
672.398
612.331
612.882
613.988
615.654
617.89
620.708
624.121
628.135
632.721
637.764
642.94
647.4
649.204
645.026
633.739
618.4
618.944
620.034
621.672
623.863
626.611
629.914
633.757
638.068
642.642
646.944
649.541
646.732
629.897
587.483
624.075
624.61
625.681
627.288
629.432
632.11
635.318
639.038
643.212
647.693
652.114
655.417
653.985
632.514
512.016
629.363
629.888
630.939
632.514
634.609
637.223
640.35
643.987
648.123
652.768
658.045
664.561
675.138
703.881
828.252
634.269
634.786
635.816
637.359
639.408
641.961
645.013
648.572
652.661
657.385
663.1
670.865
683.657
708.819
755.969
638.802
639.309
640.32
641.833
643.839
646.333
649.309
652.771
656.739
661.296
666.712
673.659
683.569
698.47
716.679
642.966
643.464
644.459
645.945
647.912
650.352
653.252
656.602
660.387
664.594
669.244
674.376
679.998
685.803
690.287
646.767
647.259
648.24
649.703
651.638
654.032
656.866
660.114
663.72
667.568
671.423
674.732
676.283
674.033
667.263
650.21
650.697
651.667
653.114
655.026
657.388
660.178
663.361
666.863
670.518
673.965
676.289
675.191
665.383
639.79
653.299
653.783
654.746
656.183
658.081
660.427
663.201
666.371
669.877
673.596
677.269
680.202
680.131
667.675
594.798
656.036
656.518
657.478
658.911
660.806
663.151
665.931
669.13
672.723
676.688
681.07
686.183
693.653
711.91
787.782
658.421
658.903
659.864
661.299
663.199
665.553
668.355
671.599
675.29
679.473
684.344
690.505
699.668
716.113
745.383
660.455
660.939
661.903
663.345
665.255
667.626
670.455
673.74
677.493
681.761
686.706
692.722
700.608
711.391
723.571
662.136
662.623
663.594
665.045
666.97
669.364
672.221
675.539
679.318
683.561
688.307
693.619
699.519
705.679
710.476
663.462
663.953
664.932
666.396
668.34
670.76
673.649
677.002
680.798
684.992
689.498
694.089
698.232
700.893
700.975
664.431
664.926
665.914
667.394
669.36
671.811
674.74
678.139
681.98
686.19
690.61
694.848
697.956
697.88
691.791
665.039
665.539
666.537
668.033
670.024
672.509
675.487
678.953
682.885
687.222
691.832
696.372
699.875
699.022
678.641
665.283
665.788
666.796
668.309
670.325
672.847
675.878
679.425
683.486
688.045
693.086
698.595
704.799
713.707
738.586
665.16
665.669
666.686
668.214
670.254
672.81
675.894
679.523
683.719
688.516
693.995
700.316
707.828
717.28
729.09
664.666
665.179
666.204
667.744
669.803
672.388
675.515
679.21
683.513
688.493
694.3
701.189
709.491
719.195
728.064
663.8
664.314
665.345
666.894
668.966
671.571
674.725
678.458
682.814
687.878
693.837
701.059
710.161
721.668
733.466
662.558
663.074
664.107
665.66
667.739
670.352
673.516
677.255
681.602
686.621
692.479
699.603
709.141
723.92
747.329
660.942
661.457
662.489
664.041
666.119
668.731
671.89
675.611
679.902
684.763
690.222
696.448
704.464
720.159
777.718
658.95
659.463
660.49
662.037
664.107
666.711
669.857
673.554
677.783
682.47
687.415
692.029
694.436
687.306
634.474
656.584
657.093
658.113
659.648
661.705
664.294
667.426
671.109
675.324
679.979
684.82
689.122
691.011
686.169
668.685
653.848
654.351
655.359
656.876
658.913
661.479
664.594
668.277
672.536
677.341
682.579
687.871
692.241
693.792
691.024
650.746
651.24
652.231
653.725
655.731
658.264
661.351
665.028
669.347
674.383
680.281
687.238
695.41
704.394
711.712
647.284
647.767
648.736
650.197
652.161
654.646
657.681
661.316
665.636
670.809
677.229
685.741
697.995
716.132
737.752
643.468
643.938
644.879
646.3
648.209
650.626
653.577
657.111
661.309
666.35
672.705
681.626
696.476
725.432
779.076
639.31
639.763
640.671
642.042
643.885
646.214
649.052
652.427
656.376
660.959
666.38
673.371
685.142
717.568
857.923
634.819
635.253
636.124
637.437
639.202
641.43
644.136
647.328
650.978
654.969
658.945
661.776
659.445
634.732
498.568
630.01
630.423
631.25
632.498
634.176
636.294
638.867
641.892
645.323
648.969
652.288
653.746
649.272
629.271
580.864
624.898
625.286
626.065
627.241
628.823
630.825
633.265
636.159
639.495
643.177
646.904
649.813
649.863
643.518
629.811
619.499
619.861
620.586
621.682
623.157
625.031
627.33
630.101
633.404
637.336
642.07
647.846
654.876
662.858
669.506
613.833
614.165
614.831
615.838
617.195
618.922
621.053
623.655
626.853
630.92
636.494
644.985
659.21
683.104
714.084
607.918
608.219
608.821
609.731
610.956
612.512
614.432
616.777
619.677
623.439
628.875
638.121
656.812
698.409
780.443
601.778
602.045
602.58
603.385
604.466
605.832
607.498
609.497
611.881
614.778
618.591
624.679
638.487
685.611
904.035
595.436
595.668
596.132
596.829
597.758
598.922
600.318
601.933
603.706
605.462
606.708
605.855
597.006
553.836
337.39
588.917
589.113
589.504
590.09
590.868
591.832
592.97
594.24
595.522
596.483
596.265
592.563
579.343
542.372
462.877
582.244
582.404
582.723
583.199
583.828
584.603
585.513
586.524
587.538
588.305
588.225
585.86
578.157
560.421
533.416
575.444
575.568
575.815
576.182
576.665
577.262
577.971
578.788
579.703
580.697
581.753
582.844
583.922
584.887
585.458
568.541
568.63
568.805
569.064
569.405
569.825
570.336
570.966
571.794
573.027
575.24
579.818
589.748
609.608
638.152
561.561
561.614
561.719
561.872
562.068
562.308
562.602
562.992
563.58
564.661
567.066
573.057
588.659
628.281
710.922
554.526
554.546
554.582
554.629
554.681
554.733
554.787
554.862
555.004
555.358
556.384
559.601
570.872
617.059
841.335
547.463
547.449
547.419
547.364
547.275
547.139
546.943
546.668
546.26
545.57
544.163
540.534
528.822
482.146
257.271
540.392
540.348
540.256
540.105
539.882
539.567
539.138
538.55
537.692
536.265
533.467
527.061
511.034
470.964
387.766
533.335
533.264
533.116
532.877
532.532
532.057
531.428
530.603
529.497
527.894
525.259
520.251
509.927
489.714
460.731
526.312
526.218
526.02
525.706
525.253
524.637
523.837
522.836
521.628
520.222
518.682
517.114
515.672
514.536
513.812
519.339
519.226
518.989
518.612
518.067
517.328
516.371
515.198
513.874
512.628
512.108
513.87
521.187
539.054
566.635
512.43
512.303
512.039
511.615
510.999
510.152
509.038
507.649
506.046
504.512
503.933
506.75
519.361
556.806
638.854
505.592
505.46
505.183
504.734
504.072
503.143
501.883
500.231
498.151
495.716
493.383
492.81
500.271
543.565
768.292
498.831
498.702
498.43
497.983
497.312
496.345
494.985
493.096
490.481
486.833
481.595
473.271
456.281
404.311
173.928
492.144
492.028
491.78
491.369
490.738
489.804
488.44
486.45
483.509
479.039
471.932
459.734
436.566
388.94
299.91
485.522
485.429
485.229
484.89
484.357
483.544
482.315
480.45
477.578
473.06
465.791
453.795
433.822
402.306
364.295
478.95
478.89
478.758
478.527
478.152
477.556
476.617
475.134
472.769
468.977
462.916
453.379
439.08
420.166
402.514
472.405
472.385
472.338
472.247
472.082
471.79
471.283
470.413
468.933
466.454
462.438
456.252
447.527
437.132
428.703
465.859
465.884
465.933
466.002
466.083
466.157
466.187
466.102
465.772
464.983
463.451
460.87
457.119
452.718
449.266
459.281
459.351
459.497
459.731
460.07
460.537
461.156
461.947
462.91
464.011
465.178
466.282
467.148
467.626
467.66
452.641
452.751
452.985
453.37
453.952
454.795
455.991
457.656
459.934
462.976
466.933
471.841
477.431
482.825
486.304
445.909
446.05
446.351
446.856
447.635
448.793
450.485
452.927
456.407
461.292
468.012
476.908
487.834
499.335
507.591
439.066
439.222
439.561
440.135
441.037
442.404
444.445
447.462
451.886
458.316
467.563
480.547
497.822
518.079
534.838
432.101
432.254
432.591
433.171
434.098
435.531
437.713
441.007
445.954
453.369
464.504
481.188
505.722
539.234
573.948
425.015
425.145
425.436
425.95
426.791
428.123
430.195
433.389
438.288
445.823
457.577
476.358
507.37
559.534
637.389
417.824
417.911
418.113
418.486
419.127
420.185
421.886
424.574
428.774
435.332
445.753
463.018
494.314
561.972
755.117
-1262.5
-935.673
-819.114
-763.207
-730.585
-709.334
-694.607
-684.024
-676.263
-670.524
-666.289
-663.214
-661.074
-659.72
-659.064
-1067.33
-934.539
-843.786
-787.824
-751.982
-727.795
-710.765
-698.414
-689.294
-682.509
-677.475
-673.804
-671.239
-669.613
-668.823
-964.629
-904.189
-844.277
-798.446
-765.27
-741.266
-723.654
-710.543
-700.688
-693.261
-687.697
-683.609
-680.736
-678.908
-678.018
-904.157
-873.449
-834.969
-800.26
-772.171
-750.279
-733.397
-720.394
-710.382
-702.703
-696.874
-692.551
-689.491
-687.534
-686.579
-865.269
-848.085
-823.019
-797.458
-774.749
-755.794
-740.427
-728.149
-718.44
-710.842
-704.987
-700.596
-697.464
-695.449
-694.463
-838.573
-828.175
-811.392
-792.654
-774.704
-758.798
-745.29
-734.105
-725.015
-717.752
-712.065
-707.749
-704.642
-702.632
-701.645
-819.358
-812.677
-801.104
-787.281
-773.221
-760.117
-748.518
-738.59
-730.306
-723.548
-718.173
-714.042
-711.042
-709.089
-708.126
-805.043
-800.557
-792.357
-782.051
-771.058
-760.371
-750.565
-741.915
-734.52
-728.368
-723.396
-719.53
-716.697
-714.841
-713.923
-794.103
-790.996
-785.052
-777.279
-768.665
-759.993
-751.786
-744.353
-737.854
-732.348
-727.833
-724.281
-721.655
-719.925
-719.066
-785.581
-783.385
-778.998
-773.071
-766.296
-759.273
-752.45
-746.124
-740.482
-735.622
-731.582
-728.369
-725.974
-724.387
-723.596
-778.846
-777.276
-773.994
-769.432
-764.08
-758.396
-752.747
-747.402
-742.551
-738.309
-734.738
-731.869
-729.714
-728.278
-727.56
-773.462
-772.337
-769.859
-766.321
-762.077
-757.475
-752.812
-748.32
-744.18
-740.51
-737.386
-734.853
-732.937
-731.653
-731.009
-769.119
-768.321
-766.439
-763.681
-760.305
-756.578
-752.736
-748.977
-745.464
-742.314
-739.605
-737.389
-735.702
-734.566
-733.995
-765.592
-765.037
-763.607
-761.451
-758.761
-755.74
-752.581
-749.446
-746.481
-743.793
-741.46
-739.538
-738.065
-737.07
-736.568
-762.713
-762.343
-761.26
-759.574
-757.427
-754.981
-752.386
-749.78
-747.287
-745.007
-743.011
-741.355
-740.079
-739.213
-738.776
-760.351
-760.124
-759.312
-757.996
-756.285
-754.305
-752.179
-750.018
-747.93
-746.004
-744.306
-742.888
-741.79
-741.042
-740.663
-758.409
-758.294
-757.694
-756.672
-755.311
-753.713
-751.973
-750.186
-748.444
-746.824
-745.386
-744.178
-743.238
-742.596
-742.27
-756.808
-756.782
-756.351
-755.564
-754.486
-753.199
-751.78
-750.306
-748.857
-747.5
-746.287
-745.263
-744.462
-743.913
-743.634
-755.488
-755.531
-755.236
-754.638
-753.79
-752.757
-751.603
-750.391
-749.189
-748.055
-747.037
-746.171
-745.493
-745.026
-744.787
-754.398
-754.498
-754.311
-753.866
-753.204
-752.38
-751.445
-750.451
-749.457
-748.513
-747.66
-746.931
-746.357
-745.961
-745.759
-753.501
-753.646
-753.546
-753.225
-752.715
-752.061
-751.306
-750.493
-749.673
-748.889
-748.176
-747.564
-747.079
-746.744
-746.572
-752.764
-752.946
-752.917
-752.695
-752.308
-751.793
-751.187
-750.523
-749.847
-749.197
-748.601
-748.087
-747.679
-747.396
-747.25
-752.163
-752.374
-752.401
-752.26
-751.972
-751.571
-751.085
-750.544
-749.987
-749.447
-748.95
-748.518
-748.174
-747.934
-747.81
-751.677
-751.912
-751.983
-751.906
-751.699
-751.388
-751
-750.559
-750.099
-749.649
-749.233
-748.869
-748.577
-748.373
-748.268
-751.291
-751.543
-751.65
-751.624
-751.479
-751.241
-750.93
-750.569
-750.187
-749.81
-749.458
-749.149
-748.9
-748.725
-748.635
-750.99
-751.257
-751.391
-751.403
-751.307
-751.125
-750.875
-750.575
-750.254
-749.934
-749.634
-749.368
-749.153
-749.001
-748.923
-750.767
-751.043
-751.198
-751.239
-751.179
-751.038
-750.832
-750.579
-750.303
-750.027
-749.765
-749.532
-749.342
-749.209
-749.139
-750.613
-750.896
-751.064
-751.125
-751.089
-750.976
-750.801
-750.58
-750.336
-750.09
-749.855
-749.646
-749.475
-749.354
-749.291
-750.524
-750.811
-750.987
-751.057