/*--------------------------------*- C++ -*----------------------------------*\
| =========                 |                                                 |
| \\      /  F ield         | OpenFOAM: The Open Source CFD Toolbox           |
|  \\    /   O peration     | Version:  5.x                                   |
|   \\  /    A nd           | Web:      www.OpenFOAM.org                      |
|    \\/     M anipulation  |                                                 |
\*---------------------------------------------------------------------------*/
FoamFile
{
    version     2.0;
    format      ascii;
    class       volScalarField;
    location    "9";
    object      gradTy;
}
// * * * * * * * * * * * * * * * * * * * * * * * * * * * * * * * * * * * * * //

dimensions      [0 -1 0 1 0 0 0];

internalField   nonuniform List<scalar> 
6300
(
1140.63
1421.48
1701.1
1978.65
2253.31
2524.26
2790.65
3051.66
3306.47
3554.28
3794.33
4025.89
4248.33
4461.07
4663.67
0.608699
1.82712
3.04837
4.27343
5.50176
6.73066
7.9544
9.16338
10.3433
11.4745
12.5319
13.4855
14.3022
14.9484
15.394
1.01332
3.042
5.07633
7.11862
9.16882
11.2233
13.2735
15.3044
17.2927
19.2058
21.0013
22.6274
24.0258
25.1363
25.9042
1.41587
4.25108
7.09611
9.95564
12.8313
15.7199
18.6116
21.4874
24.3166
27.0541
29.6394
31.9962
34.0361
35.6657
36.7978
1.81492
5.45018
9.10113
12.7762
16.4802
20.2127
23.9648
27.7162
31.4311
35.0537
38.5048
41.6805
44.4552
46.6909
48.2546
2.20845
6.63336
11.0817
15.5673
20.1002
24.6851
29.3178
33.9806
38.6367
43.2232
47.6439
51.7642
55.4114
58.3861
60.487
2.59389
7.79283
13.0248
18.3103
23.6673
29.1089
34.6396
40.2503
45.9104
51.5568
57.0814
62.3184
67.0374
70.9522
73.7552
2.96812
8.91903
14.9138
20.9813
27.1492
33.4424
39.8799
46.4691
53.1958
60.0099
66.804
73.3878
79.4645
84.6268
88.3966
3.32759
10.001
16.7295
23.551
30.5046
37.6303
44.9671
52.5483
60.3915
68.4803
76.734
84.9608
92.8026
99.6903
104.868
3.66867
11.0275
18.4517
25.9878
33.6867
41.6055
49.808
58.3632
67.3387
76.783
86.6872
96.9152
107.091
116.46
123.818
3.98813
11.9882
20.0613
28.2607
36.6477
45.2955
54.2941
63.7553
73.8144
84.6223
96.3131
108.918
122.181
135.237
146.218
4.2836
12.8756
21.5438
30.345
39.3465
48.6327
58.3152
68.5467
79.538
91.575
105.021
120.259
137.475
156.082
173.541
4.55411
13.6864
22.8925
32.2279
41.7589
51.5715
61.785
72.5755
84.2123
97.1154
111.933
129.616
151.372
178.069
207.845
4.8004
14.4228
24.1112
33.914
43.8882
54.1072
64.6752
75.7548
87.6171
100.738
115.975
134.894
160.322
196.969
250.164
5.02492
15.0927
25.2146
35.4275
45.771
56.2916
67.0512
78.1481
89.7601
102.24
116.329
133.658
158.044
199.312
286.618
4839.83
4992.62
5138.04
5276.16
5407.11
5531.09
5648.39
5759.31
5864.22
5963.52
6057.63
6147.01
6232.1
6313.36
6391.26
6466.24
6538.76
6609.25
6678.13
6745.81
6812.67
6879.08
6945.38
7011.88
7078.84
7146.53
7215.13
7284.82
7355.7
7427.84
7501.28
7576
7651.96
7729.08
7807.26
7886.36
7966.26
8046.78
8127.74
8208.97
8290.23
8371.31
8451.96
8531.92
8610.96
8688.82
8765.26
8840.08
8913.06
8984.02
9052.78
9119.18
9183.04
9244.2
9302.46
9357.63
9409.51
9457.89
9502.54
9543.23
9579.74
9611.83
9639.25
9661.76
9679.07
9690.9
9696.91
9696.76
9690.06
9676.36
9655.2
9626.08
9588.46
9541.79
9485.47
9418.89
9341.43
9252.46
9151.33
9037.39
8910
8768.54
8612.43
8441.12
8254.14
8051.09
7831.69
7595.79
7343.35
7074.51
15.5977
15.6199
15.4783
15.1781
14.73
14.1493
13.4539
12.6636
11.7982
10.8764
9.91568
8.93115
7.93594
6.94105
5.9557
4.98761
4.04346
3.12928
2.25087
1.41411
0.625296
-0.108763
-0.780693
-1.38274
-1.90715
-2.34675
-2.6957
-2.95037
-3.11006
-3.17756
-3.15909
-3.06374
-2.90219
-2.68506
-2.42127
-2.1169
-1.77486
-1.39562
-0.978621
-0.52426
-0.0356143
0.480416
1.01305
1.54877
2.07333
2.57434
3.04344
3.47773
3.88009
4.25834
4.62356
4.98791
5.3625
5.7556
6.17154
6.61066
7.07014
7.54561
8.03304
8.53058
9.03978
9.56597
10.118
10.7072
11.346
12.0463
12.8179
13.6676
14.5983
15.6091
16.6956
17.8513
19.068
20.3374
21.6514
23.0016
24.3791
25.7731
27.1698
28.5507
29.8925
31.1656
32.3351
33.3618
34.2038
34.8197
35.1716
35.2289
34.9714
34.3917
26.2556
26.2939
26.0495
25.532
24.761
23.7641
22.5739
21.2252
19.7526
18.1888
16.5633
14.9015
13.2252
11.5523
9.89772
8.27356
6.69033
5.15744
3.68398
2.27936
0.95377
-0.281423
-1.41366
-2.42943
-3.31486
-4.05678
-4.64414
-5.06965
-5.33137
-5.43394
-5.38872
-5.21286
-4.92674
-4.55067
-4.10134
-3.58935
-3.01849
-2.38717
-1.69147
-0.929222
-0.103798
0.773396
1.68262
2.59804
3.492
4.34027
5.12667
5.84592
6.50411
7.11693
7.70627
8.29585
8.90704
9.55524
10.2479
10.9841
11.7568
12.5555
13.3708
14.1975
15.0376
15.9005
16.8025
17.7648
18.8105
19.9618
21.237
22.6485
24.2011
25.8926
27.7142
29.6529
31.694
33.823
36.0262
38.2909
40.6041
42.9497
45.3067
47.6461
49.9293
52.1068
54.1189
55.8967
57.3661
58.4528
59.088
59.2156
58.7981
57.8214
37.3175
37.3744
37.0133
36.2501
35.1165
33.6566
31.9214
29.9643
27.8377
25.5895
23.2624
20.8924
18.5093
16.1373
13.7959
11.5007
9.26494
7.10033
5.01837
3.03123
1.1526
-0.601749
-2.21372
-3.66311
-4.92846
-5.98859
-6.82483
-7.42392
-7.78101
-7.90222
-7.80561
-7.51984
-7.07993
-6.52089
-5.87078
-5.14572
-4.34839
-3.47063
-2.4994
-1.42444
-0.245848
1.0209
2.34391
3.67883
4.97706
6.19587
7.30717
8.30257
9.19395
10.0098
10.789
11.5731
12.3987
13.2913
14.2618
15.3056
16.4063
17.542
18.6923
19.8455
21.0028
22.1788
23.4004
24.7023
26.123
27.6989
29.46
31.426
33.6041
35.9887
38.5637
41.3067
44.1933
47.2011
50.3116
53.5098
56.7814
60.1091
63.4679
66.8212
70.1168
73.2851
76.2384
78.8739
81.0779
82.7343
83.7337
83.9855
83.428
82.0371
48.9752
49.0543
48.5536
47.4986
45.9393
43.9428
41.5853
38.9447
36.0946
33.101
30.0203
26.8991
23.7745
20.6756
17.6249
14.6399
11.7347
8.92194
6.21403
3.62475
1.17043
-1.12907
-3.24979
-5.16366
-6.83942
-8.24458
-9.34877
-10.1284
-10.5721
-10.6859
-10.4967
-10.0506
-9.40651
-8.62411
-7.75007
-6.80813
-5.79613
-4.69079
-3.45882
-2.07115
-0.517173
1.18499
2.98556
4.80987
6.57387
8.20363
9.6518
10.9062
11.9897
12.9526
13.8619
14.7876
15.7906
16.9121
18.1668
19.5417
21.0024
22.5041
24.0061
25.4843
26.9375
28.3882
29.8789
31.4653
33.2083
35.1654
37.384
39.8942
42.7056
45.8064
49.1673
52.7495
56.5135
60.4267
64.4663
68.6184
72.8732
77.2185
81.6319
86.074
90.4824
94.7672
98.8102
102.467
105.573
107.956
109.45
109.915
109.252
107.421
61.4603
61.5667
60.8898
59.471
57.3891
54.7464
51.6548
48.2245
44.5559
40.7355
36.8342
32.9082
29.0004
25.1424
21.3574
17.6622
14.0697
10.591
7.23746
4.02265
0.964141
-1.91494
-4.58471
-7.00801
-9.14087
-10.9347
-12.3408
-13.3173
-13.8388
-13.9067
-13.5583
-12.8671
-11.9331
-10.8601
-9.72797
-8.57234
-7.37918
-6.09429
-4.64347
-2.95844
-1.00307
1.20607
3.59163
6.02626
8.36241
10.4712
12.2737
13.7543
14.9571
15.9709
16.9091
17.8887
19.01
20.3392
21.8964
23.6522
25.5371
27.4632
29.352
31.1568
32.8732
34.5373
36.217
38.0003
39.9823
42.2527
44.885
47.9257
51.3873
55.2461
59.4488
63.9269
68.6153
73.4664
78.4548
83.5747
88.8304
94.2252
99.7497
105.37
111.021
116.592
121.933
126.847
131.103
134.45
136.643
137.463
136.753
134.444
75.063
75.2039
74.291
72.3951
69.6434
66.1936
62.2097
57.8454
53.234
48.4845
43.6819
38.8896
34.1528
29.5026
24.9592
20.5355
16.2398
12.0789
8.06025
4.19475
0.498889
-3.00267
-6.27494
-9.27086
-11.9307
-14.1834
-15.9517
-17.1616
-17.7585
-17.7273
-17.1135
-16.0332
-14.66
-13.1815
-11.7399
-10.3908
-9.09467
-7.73706
-6.16574
-4.23545
-1.85486
0.972503
4.1263
7.38361
10.4774
13.1789
15.3582
17.0014
18.1956
19.0969
19.8957
20.7848
21.9287
23.4365
25.3386
27.5754
30.0111
32.4744
34.8169
36.955
38.8826
40.662
42.4042
44.2475
46.3389
48.8168
51.7956
55.3488
59.4945
64.188
69.3308
74.7985
80.4799
86.3049
92.2506
98.3318
104.583
111.041
117.725
124.62
131.667
138.745
145.665
152.168
157.935
162.604
165.807
167.208
166.549
163.71
90.1718
90.3552
89.105
86.549
82.9007
78.4076
73.3107
67.8212
62.1105
56.3101
50.5151
44.7914
39.1813
33.7098
28.3897
23.2254
18.2171
13.3633
8.66423
4.12438
-0.244172
-4.41846
-8.36085
-12.0153
-15.3042
-18.1271
-20.3639
-21.886
-22.5799
-22.3842
-21.3379
-19.6185
-17.5359
-15.447
-13.6163
-12.1306
-10.8962
-9.68519
-8.2025
-6.15846
-3.34756
0.271241
4.51422
8.97868
13.1592
16.6407
19.2165
20.8971
21.8579
22.3722
22.7545
23.316
24.3256
25.9684
28.3005
31.2144
34.447
37.6612
40.5781
43.058
45.1068
46.8418
48.4473
50.1392
52.1403
54.6612
57.8806
61.92
66.8138
72.484
78.7458
85.3627
92.1382
98.9698
105.851
112.843
120.039
127.532
135.394
143.651
152.267
161.124
169.996
178.55
186.344
192.865
197.566
199.916
199.484
196.042
107.337
107.567
105.796
102.273
97.3721
91.4884
84.9744
78.1129
71.1144
64.1261
57.2448
50.529
44.0098
37.699
31.5958
25.6912
19.9724
14.4258
9.03989
3.80852
-1.26565
-6.16666
-10.8597
-15.2844
-19.3469
-22.9127
-25.803
-27.8011
-28.68
-28.2638
-26.5294
-23.7249
-20.4186
-17.339
-14.9938
-13.5066
-12.6619
-12.0228
-11.046
-9.18414
-6.00205
-1.32729
4.58468
10.984
16.8487
21.4081
24.3649
25.8303
26.1641
25.8387
25.3563
25.2028
25.8115
27.5088
30.4258
34.3953
38.9103
43.2768
46.9695
49.7822
51.7837
53.2087
54.3662
55.5859
57.1936
59.5
62.7847
67.2612
73.0148
79.9278
87.6489
95.6979
103.715
111.562
119.291
127.06
135.064
143.49
152.491
162.161
172.519
183.475
194.784
206.02
216.581
225.744
232.705
236.624
236.749
232.615
127.398
127.658
125.007
119.978
113.254
105.473
97.1342
88.5971
80.0984
71.783
63.731
55.9787
48.5337
41.3852
34.5118
27.8856
21.4762
15.2535
9.18995
3.26341
-2.53916
-8.21679
-13.7473
-19.0772
-24.1068
-28.673
-32.5286
-35.3293
-36.6466
-36.0433
-33.2636
-28.5553
-22.9769
-18.1753
-15.1377
-13.9598
-14.1339
-14.8491
-15.1662
-14.1136
-10.8088
-4.71038
3.95015
13.7559
22.4144
28.4793
31.6572
32.3893
31.4153
29.5271
27.4801
25.9876
25.7257
27.2881
31.0308
36.786
43.5828
49.8579
54.6226
57.6694
59.2855
59.9553
60.1901
60.4681
61.2349
62.924
65.9666
70.7572
77.5398
86.2014
96.0728
106.072
115.528
124.317
132.665
140.929
149.472
158.613
168.613
179.669
191.902
205.306
219.664
234.451
248.82
261.784
272.21
278.784
280.134
275.229
151.764
151.935
147.636
140.114
130.655
120.254
109.576
99.0231
88.8159
79.0583
69.7837
60.9842
52.6289
44.6743
37.071
29.7671
22.7109
15.852
9.14282
2.54015
-3.99195
-10.4779
-16.923
-23.3008
-29.5327
-35.4549
-40.7713
-44.9918
-47.3768
-46.955
-42.7729
-34.6373
-24.4149
-16.4704
-12.6028
-12.4651
-14.8256
-18.2479
-21.2575
-22.2851
-19.6371
-11.782
1.66711
18.1803
31.7146
39.7073
42.4709
41.4042
37.9829
33.4439
28.8054
25.0003
23.0129
23.9276
28.738
37.6762
49.0059
58.613
64.7487
67.6155
68.1488
67.3272
65.9508
64.6455
63.9469
64.3979
66.6303
71.3834
79.3571
90.7312
104.31
117.228
128.297
137.703
146.156
154.391
163.015
172.496
183.209
195.478
209.593
225.758
243.921
263.475
283.074
301.471
317.252
328.456
332.517
326.931
183.139
182.642
174.9
163.035
149.407
135.428
121.832
108.947
96.8827
85.6353
75.1499
65.3484
56.1458
47.4565
39.1981
31.2916
23.6614
16.2352
8.94264
1.71593
-5.51027
-12.7966
-20.194
-27.7331
-35.4025
-43.107
-50.5899
-57.2948
-62.1462
-63.2788
-57.9728
-43.7221
-22.5711
-8.89351
-4.69543
-7.37167
-13.9873
-22.2394
-30.2012
-35.7478
-35.9622
-26.9074
-5.02743
26.8948
48.9946
58.4648
58.7999
53.8093
46.1595
37.504
28.9307
21.3959
16.1216
14.9578
20.5014
35.1228
56.9092
72.3661
79.5812
80.9207
78.962
75.4971
71.608
67.9485
65.0027
63.3057
63.6634
67.3709
76.2765
92.0851
113.494
131.046
143.456
152.461
159.956
167.291
175.32
184.6
195.557
208.623
224.328
243.325
266.168
292.424
319.053
344.914
368.876
388.404
398.782
393.538
227.784
223.776
208.095
188.486
168.657
150.046
133.059
117.685
103.767
91.1104
79.5267
68.8463
58.9197
49.6151
40.8157
32.4155
24.3161
16.4237
8.64601
0.889592
-6.94313
-14.9562
-23.2616
-31.978
-41.2215
-51.0779
-61.5283
-72.266
-82.2694
-88.8731
-86.0521
-62.7432
-9.96597
12.3329
13.1098
3.39347
-10.7933
-26.6493
-42.6229
-56.8892
-65.6352
-60.5015
-26.1842
49.751
84.4582
90.3734
82.7945
70.0403
55.7816
41.443
27.5579
14.534
3.30892
-3.67297
-0.80953
22.2489
73.9232
97.9835
102.87
98.9712
91.9399
84.2737
76.9304
70.2199
64.2561
59.251
55.8689
55.869
63.2513
85.3698
128.226
152.262
163.51
169.385
173.98
179.182
185.816
194.279
204.861
217.96
234.311
255.341
283.491
320.824
356.125
391.077
426.868
461.512
487.528
488.488
304.294
281.71
246.937
214.248
186.147
162.319
141.958
124.323
108.831
95.0371
82.6003
71.2569
60.796
51.045
41.8576
33.1056
24.6724
16.447
8.31919
0.173833
-8.11529
-16.6935
-25.7358
-35.4618
-46.1556
-58.1908
-72.0497
-88.291
-107.284
-128.035
-143.63
-124.196
46.5292
64.5513
46.0255
20.5965
-5.19445
-30.8881
-57.5009
-85.9769
-115.292
-136.117
-107.269
131.975
161.38
141.712
114.24
88.4361
65.518
44.7285
24.9454
5.08237
-15.6128
-36.4797
-51.2001
-31.8311
130.7
151.209
138.809
121.53
105.83
92.5838
81.3403
71.4151
62.1283
52.8585
43.2034
33.7364
29.0049
48.7908
170.056
191.89
191.298
188.147
187.125
189.007
193.675
200.9
210.536
222.608
237.551
257.098
287.581
352.139
393.688
436.018
486.498
547.032
612.34
651.66
484.172
357.183
282.766
233.392
197.477
169.592
146.924
127.87
111.446
97.0043
84.0957
72.393
61.6472
51.6607
42.2701
33.3349
24.7279
16.3287
8.01677
-0.335448
-8.8714
-17.7623
-27.2249
-37.551
-49.157
-62.676
-79.138
-100.35
-129.765
-174.617
-251.644
-403.503
322.914
169.396
88.8796
38.3193
0.263826
-33.8029
-69.6945
-113.854
-177.171
-283.257
-491.319
516.36
308.963
204.281
143.279
102.673
72.1864
46.5629
22.4465
-3.17166
-34.2874
-78.1366
-150.678
-292.064
391.984
251.817
181.769
141.809
116.185
98.0061
83.8484
71.6881
59.9735
47.0186
30.2649
4.78303
-40.5477
-133.92
355.059
263.806
222.762
203.838
196.08
194.812
197.844
204.043
212.693
223.112
234.151
243.098
242.592
416.573
430.11
469.21
531.629
625.657
774.551
1036.35
6761.04
6396.51
6010.45
5604.1
5178.94
4736.54
4278.62
3806.89
3323.09
2828.96
2326.19
1816.41
1301.25
782.269
261.009
33.4068
31.9101
30.0495
27.8985
25.5364
23.0392
20.4736
17.8929
15.336
12.8274
10.3796
7.99423
5.66523
3.38039
1.12359
56.1449
53.5861
50.4038
46.7313
42.7101
38.4744
34.1393
29.7952
25.5062
21.3118
17.2299
13.2613
9.39305
5.6029
1.86202
79.6104
75.8829
71.246
65.9105
60.0965
54.0072
47.8126
41.6414
35.5815
29.6835
23.9672
18.4279
13.0428
7.77615
2.58362
104.152
99.085
92.7827
85.5647
77.755
69.6428
61.4599
53.3744
45.4935
37.8727
30.527
23.4403
16.5742
9.87524
3.28
130.187
123.518
115.231
105.806
95.7124
85.3456
75.0068
64.8999
55.1427
45.7852
36.827
28.2317
19.9385
11.8705
3.94124
158.244
149.564
138.812
126.714
113.939
101.017
88.3191
76.0725
64.3891
53.2959
42.7623
32.72
23.0771
13.7271
4.55572
189.013
177.681
163.735
148.296
132.31
116.463
101.178
86.6799
73.0426
60.2443
48.2042
36.8077
25.922
15.405
5.11023
223.441
208.406
190.148
170.42
150.54
131.341
113.25
96.4252
80.8552
66.4322
53.0004
40.3832
28.3974
16.86
5.59036
262.885
242.343
218.022
192.685
168.084
145.103
124.05
104.913
87.5184
71.6268
56.9801
43.3256
30.4233
18.0469
5.98137
309.393
280.052
246.904
214.207
184.002
156.929
132.929
111.654
92.6757
75.5735
59.9655
45.5144
31.9223
18.9224
6.26939
366.104
321.56
275.329
233.232
196.783
165.68
139.079
116.094
95.9535
78.0231
61.7916
46.8423
32.8281
19.4505
6.44302
437.417
364.739
299.606
246.602
204.209
169.921
141.608
117.687
97.0175
78.7709
62.3332
47.2334
33.096
19.6079
6.49502
525.677
400.364
311.739
249.356
203.521
168.18
139.741
116.026
95.6549
77.7067
61.5345
46.6606
32.7138
19.3895
6.42404
601.799
399.287
297.619
235.552
192.332
159.531
133.144
111.016
91.8661
74.8635
59.435
45.1592
31.708
18.8117
6.23563
5.21539
15.6605
26.1478
36.7022
47.3437
58.0859
68.9347
79.8921
90.9688
102.225
113.874
126.542
141.903
164.249
204.416
5.37737
16.1439
26.9437
37.7921
48.6926
59.6292
70.554
81.3695
91.9016
101.857
110.754
117.753
121.077
115.449
80.0291
5.53109
16.6037
27.7051
38.8447
50.0152
61.179
72.2471
83.0418
93.2324
102.222
108.948
111.512
106.466
87.335
42.1944
5.67743
17.0433
28.4393
39.875
51.341
62.7936
74.1281
85.1315
95.3949
104.157
110.029
110.554
101.633
77.2807
31.6138
5.816
17.4616
29.1453
40.8832
52.6747
64.4883
76.2371
87.7329
98.5976
108.095
114.819
116.152
107.513
82.0263
33.2274
5.94506
17.853
29.8129
41.8532
53.9916
66.2262
78.5198
90.7702
102.747
113.957
123.351
128.672
125.089
102.959
47.1012
6.0616
18.2081
30.424
42.754
55.2402
67.9212
80.8308
93.9956
107.425
121.076
134.71
147.37
155.542
147.311
87.602
6.16185
18.5146
30.9552
43.5452
56.352
69.4555
82.9625
97.0348
111.948
128.204
146.741
169.181
197.384
227.406
208.306
6.24182
18.7597
31.3821
44.1848
57.256
70.7077
84.6996
99.4882
115.534
133.745
156.06
186.984
237.957
341.609
605.054
6.2979
18.932
31.683
44.637
57.8943
71.5827
85.881
101.066
117.615
136.43
159.397
190.858
241.943
344.837
606.363
6.32728
19.0226
31.8424
44.8774
58.2317
72.0323
86.444
101.695
118.119
136.229
156.83
181.101
209.943
237.895
212.72
6.32824
19.0264
31.8517
44.8951
58.2578
72.0555
86.4219
101.506
117.449
134.296
151.712
168.164
178.556
167.841
97.0331
6.30008
18.9416
31.7088
44.69
57.9804
71.6818
85.8989
100.718
116.15
131.962
147.258
159.432
161.823
139.513
66.9401
6.24304
18.7692
31.4165
44.2693
57.416
70.9484
84.9553
99.5029
114.583
129.985
144.97
157.489
162.238
146.087
79.4199
6.15805
18.5121
30.9809
43.6435
56.5825
69.8838
83.634
97.915
112.791
128.292
144.39
160.937
177.164
187.739
155.906
6.04655
18.1749
30.4099
42.8247
55.4961
68.5056
81.9423
95.9114
110.562
126.182
143.495
164.604
196.011
258.835
426.82
5.91041
17.7633
29.7132
41.8266
54.1735
66.829
79.8788
93.432
107.658
122.893
139.961
161.117
193.035
256.898
426.211
5.75184
17.284
28.9023
40.6655
52.6351
64.8769
77.464
90.4834
104.049
118.33
133.584
150.151
167.871
181.724
154.157
5.57334
16.7446
27.99
39.36
50.9064
62.6833
74.7469
87.1531
99.9427
113.086
126.292
138.381
145.388
135.31
77.0618
5.37762
16.1534
26.9907
37.9311
49.0164
60.2889
71.7901
83.5543
95.5878
107.798
119.772
130.137
134.765
122.345
66.5449
5.16755
15.519
25.9192
36.4006
46.9951
57.7343
68.6487
79.7665
91.1083
102.669
114.367
125.875
135.979
139.501
109.7
4.94605
14.8503
24.7908
34.7907
44.8724
55.0565
65.3642
75.8212
86.4742
97.4435
109.092
122.584
141.76
179.795
284.519
4.71599
14.1562
23.6204
33.1234
42.6773
52.2917
61.9746
71.738
81.6184
91.7433
102.535
115.342
134.441
173.773
281.964
4.48013
13.4449
22.4227
31.4198
40.4391
49.478
58.5276
67.5717
76.5909
85.5777
94.5753
103.729
113.067
119.93
100.892
4.24102
12.7244
21.211
29.7001
38.1861
46.6557
55.083
63.4212
71.5842
79.4025
86.5053
91.9844
93.4095
84.07
46.7242
4.00088
12.0014
19.9972
27.9819
35.9436
43.8615
51.6989
59.3908
66.8151
73.7221
79.5609
83.0531
81.2253
67.657
31.5155
3.76152
11.2813
18.7905
26.2789
33.7308
41.122
48.4144
55.5448
62.4036
68.7817
74.2441
77.8143
77.1921
66.918
34.9793
3.52432
10.5684
17.598
24.6005
31.5591
38.4502
45.241
51.8861
58.3243
64.4754
70.2394
75.4849
79.8598
81.2223
64.8448
3.29021
9.8653
16.4237
22.952
29.4335
35.8471
42.1676
48.3698
54.4429
60.436
66.5933
73.7579
84.6173
107.844
173.397
3.05972
9.17353
15.2699
21.3355
27.3543
33.3076
39.1753
44.9419
50.6157
56.281
62.246
69.4631
80.7841
105.07
172.351
2.83305
8.49364
14.1372
19.7509
25.3199
30.8267
36.252
41.5774
46.7931
51.9163
57.0278
62.3164
67.9457
72.4344
61.4527
2.61015
7.82534
13.0248
18.1969
23.3279
28.4015
33.3972
38.288
43.0335
47.5582
51.6849
54.9314
55.8977
50.5404
28.2773
2.39072
7.16773
11.9312
16.6709
21.3752
26.0296
30.6142
35.0985
39.4262
43.4751
46.9518
49.1286
48.2393
40.3854
18.9148
2.17431
6.51938
10.8536
15.169
19.4566
23.7053
27.8999
32.0167
36.0114
39.788
43.1203
45.4536
45.4162
39.6852
20.9122
1.9603
5.87837
9.78874
13.686
17.5645
21.4178
25.2387
29.0187
32.7469
36.4083
39.9812
43.4234
46.5457
48.0407
38.9171
1.748
5.24254
8.73269
12.2157
15.6893
19.152
22.6051
26.0559
29.5279
33.0888
36.9316
41.6142
48.8038
63.7688
104.636
1.53667
4.60958
7.6813
10.7515
13.821
16.8924
19.9725
23.0775
26.246
29.5725
33.2978
38.0626
45.6607
61.5073
103.786
1.3256
3.97729
6.63067
9.28754
11.9509
14.626
17.3217
20.0542
22.8535
25.7781
28.941
32.5421
36.7882
40.888
36.1656
1.11413
3.34369
5.57736
7.81865
10.0723
12.3447
14.6448
16.9837
19.3733
21.8172
24.2787
26.5726
28.0161
26.3938
15.4946
0.901717
2.70709
4.51852
6.34085
8.1801
10.0437
11.9402
13.8773
15.8544
17.843
19.7319
21.1924
21.3719
18.3408
8.77439
0.687916
2.06616
3.4519
4.851
6.27058
7.71926
9.20685
10.7422
12.3269
13.9372
15.4815
16.701
16.9561
14.8255
7.59705
0.472402
1.41991
2.37579
3.34663
4.34046
5.36732
6.43971
7.57235
8.78069
10.0763
11.4559
12.878
14.196
14.8492
11.9509
0.254977
0.767716
1.28912
1.82604
2.38703
2.98332
3.63018
4.34926
5.17322
6.15611
7.39972
9.12628
11.8963
17.3379
30.8892
0.035586
0.109409
0.191499
0.288471
0.408758
0.56379
0.770008
1.05278
1.4547
2.05408
3.00734
4.64878
7.7401
14.1928
29.6496
-0.185674
-0.55473
-0.916613
-1.26552
-1.59396
-1.89168
-2.14378
-2.32695
-2.40155
-2.29446
-1.86379
-0.836601
1.24828
4.79294
7.8335
-0.408552
-1.22393
-2.03387
-2.83392
-3.61829
-4.3792
-5.10585
-5.78253
-6.38451
-6.86839
-7.14995
-7.05741
-6.25835
-4.25808
-0.992385
-0.632651
-1.89696
-3.15812
-4.41338
-5.65915
-6.89081
-8.10299
-9.29041
-10.4499
-11.5834
-12.6966
-13.7696
-14.6
-14.1887
-8.92923
-0.857453
-2.57225
-4.28656
-5.99958
-7.71
-9.41622
-11.1176
-12.818
-14.5338
-16.313
-18.2717
-20.6507
-23.8047
-27.4866
-25.6157
-1.08235
-3.24791
-5.41596
-7.58771
-9.76392
-11.9452
-14.1333
-16.3352
-18.5742
-20.9182
-23.5552
-26.9943
-32.6431
-44.641
-76.5805
-1.30664
-3.92188
-6.54284
-9.17283
-11.8145
-14.4695
-17.1394
-19.8268
-22.5418
-25.3204
-28.2821
-31.8037
-37.073
-47.9476
-77.8607
-1.52959
-4.5919
-7.66349
-10.7499
-13.8557
-16.9837
-20.1336
-23.2995
-26.4653
-29.5957
-32.6202
-35.3998
-37.6104
-38.0335
-29.8267
-1.75034
-5.25549
-8.77385
-12.3136
-15.8817
-19.4828
-23.1166
-26.7722
-30.4134
-33.9448
-37.1285
-39.3912
-39.3894
-34.1126
-17.5198
-1.968
-5.90989
-9.86935
-13.8575
-17.8847
-21.9591
-26.0845
-30.2548
-34.4379
-38.5353
-42.2764
-44.955
-44.8315
-38.05
-18.0232
-2.18155
-6.55208
-10.9448
-15.3744
-19.8549
-24.3998
-29.0213
-33.7285
-38.5217
-43.3731
-48.1619
-52.4648
-54.8972
-51.1855
-29.6513
-2.38992
-7.17879
-11.9947
-16.8558
-21.7803
-26.7873
-31.8984
-37.1422
-42.565
-48.2543
-54.3847
-61.2732
-69.2293
-76.6975
-67.5072
-2.59201
-7.78665
-13.0132
-18.2931
-23.6483
-29.1023
-34.6831
-40.4315
-46.4231
-52.8287
-60.0805
-69.34
-83.8997
-113.777
-192.741
-2.7867
-8.37229
-13.9945
-19.6779
-25.4475
-31.329
-37.3512
-43.5516
-49.9931
-56.8152
-64.3817
-73.7255
-87.9321
-116.769
-193.887
-2.97289
-8.93242
-14.9332
-21.0028
-27.1686
-33.4576
-39.8953
-46.5037
-53.2985
-60.2842
-67.4482
-74.7335
-81.8038
-86.2314
-71.2596
-3.14951
-9.46382
-15.824
-22.2606
-28.804
-35.4828
-42.3204
-49.326
-56.4708
-63.6289
-70.4297
-75.89
-77.5099
-69.1647
-37.2057
-3.3155
-9.96327
-16.6615
-23.4441
-30.3451
-37.3972
-44.6284
-52.0512
-59.6332
-67.2209
-74.3415
-79.7127
-80.1353
-68.4959
-32.6322
-3.46979
-10.4276
-17.4402
-24.5451
-31.7808
-39.1868
-46.8029
-54.6651
-62.7909
-71.1366
-79.4671
-86.971
-91.1362
-84.6487
-48.4756
-3.61139
-10.8537
-18.1547
-25.5551
-33.0978
-40.8299
-48.806
-57.0952
-65.7951
-75.0619
-85.166
-96.5465
-109.534
-121.415
-106.525
-3.73944
-11.2388
-18.8
-26.466
-34.2829
-42.303
-50.5911
-59.2394
-68.4047
-78.4048
-89.9772
-105.005
-128.697
-176.771
-302.185
-3.85322
-11.5808
-19.3722
-27.2716
-35.3264
-43.5895
-52.1254
-61.0237
-70.4336
-80.6549
-92.3875
-107.445
-130.926
-178.417
-302.813
-3.9523
-11.8783
-19.8691
-27.9691
-36.2248
-44.686
-53.4073
-62.4519
-71.8981
-81.8543
-92.4872
-104.034
-116.481
-126.653
-108.579
-4.03642
-12.1308
-20.29
-28.558
-36.98
-45.6011
-54.464
-63.6004
-73.0073
-82.5824
-91.9509
-99.997
-103.613
-94.5026
-52.595
-4.10555
-12.338
-20.6349
-29.0397
-37.5963
-46.3475
-55.3299
-64.5602
-73.9987
-83.4529
-92.3314
-99.0349
-99.5814
-85.1266
-40.5563
-4.15978
-12.5004
-20.9046
-29.4155
-38.077
-46.9327
-56.0227
-65.3744
-74.978
-84.722
-94.2208
-102.347
-105.966
-96.6627
-53.8936
-4.19929
-12.6185
-21.0999
-29.6863
-38.4222
-47.3545
-56.533
-66.0128
-75.8587
-86.1601
-97.0621
-108.787
-121.322
-131.438
-112.382
-4.22443
-12.6932
-21.222
-29.8529
-38.6305
-47.6044
-56.8333
-66.3958
-76.4217
-87.1798
-99.3304
-114.664
-138.358
-186.468
-313.72
-4.2357
-12.7259
-21.2729
-29.9171
-38.7018
-47.6766
-56.901
-66.456
-76.4751
-87.2311
-99.387
-114.732
-138.435
-186.538
-313.75
-4.23389
-12.7189
-21.2562
-29.8831
-38.6405
-47.5746
-56.738
-66.1929
-76.0155
-86.3087
-97.2277
-108.993
-121.567
-131.666
-112.485
-4.22006
-12.6753
-21.1768
-29.7579
-38.4559
-47.3124
-56.3717
-65.6734
-75.228
-84.9503
-94.4788
-102.692
-106.416
-97.1266
-54.129
-4.19566
-12.5995
-21.0417
-29.5511
-38.1606
-46.9085
-55.8362
-64.9771
-74.3227
-83.725
-92.642
-99.506
-100.299
-85.9939
-41.0914
-4.1625
-12.4967
-20.8597
-29.2742
-37.7685
-46.379
-55.1514
-64.1375
-73.3767
-82.8353
-92.2292
-100.534
-104.666
-96.1079
-53.9421
-4.12286
-12.3738
-20.6416
-28.9413
-37.2949
-45.7361
-54.3172
-63.121
-72.277
-81.9889
-92.571
-104.459
-117.844
-129.559
-112.43
-4.07949
-12.239
-20.4009
-28.5705
-36.7599
-44.9951
-53.3274
-61.8586
-70.79
-80.5365
-92.0042
-107.342
-132.178
-183.038
-315.172
-4.03571
-12.1022
-20.1545
-28.1853
-36.1925
-44.1856
-52.1985
-60.317
-68.7357
-77.8873
-88.7478
-103.628
-128.439
-180.073
-313.989
-3.99528
-11.9751
-19.9225
-27.8158
-35.6341
-43.3614
-50.9954
-58.5656
-66.1711
-74.0498
-82.6985
-93.0142
-106.07
-119.964
-108.476
-3.96222
-11.8702
-19.7278
-27.4978
-35.1381
-42.6012
-49.8353
-56.7887
-63.4154
-69.6759
-75.4899
-80.4962
-83.1157
-77.48
-45.645
-3.94049
-11.8001
-19.5935
-27.2693
-34.7644
-41.9989
-48.8691
-55.2372
-60.9129
-65.6104
-68.8406
-69.6341
-65.8927
-53.1882
-24.1009
-3.9335
-11.7757
-19.5406
-27.1656
-34.5708
-41.6487
-48.2505
-54.1655
-59.0882
-62.5625
-63.8818
-61.9198
-54.8926
-40.2723
-15.8303
-3.9436
-11.8048
-19.5842
-27.2139
-34.6037
-41.6282
-48.1076
-53.7814
-58.268
-61.0095
-61.2002
-57.7213
-49.1641
-34.1762
-12.572
-3.97166
-11.8905
-19.7315
-27.4281
-34.8895
-41.985
-48.5231
-54.2204
-58.658
-61.2262
-61.0655
-57.0479
-47.9002
-32.6739
-11.7718
-4.01667
-12.0298
-19.9784
-27.8051
-35.4285
-42.7279
-49.5213
-55.5326
-60.3448
-63.3361
-63.6075
-59.9355
-50.8562
-35.1123
-12.8055
-4.07559
-12.2138
-20.3096
-28.3225
-36.1915
-43.8211
-51.0613
-57.6761
-63.2942
-67.3331
-68.8862
-66.5765
-58.4388
-42.1075
-16.1333
-4.14342
-12.4269
-20.6978
-28.9392
-37.1197
-45.1834
-53.0341
-60.51
-67.3384
-73.0541
-76.8453
-77.2628
-71.7095
-55.7977
-23.8304
-4.21351
-12.6484
-21.1059
-29.5974
-38.1281
-46.6922
-55.2655
-63.7915
-72.1531
-80.1093
-87.1449
-92.0932
-92.1713
-80.6352
-42.4257
-4.27802
-12.8539
-21.4899
-30.2278
-39.1123
-48.1932
-57.5279
-67.1852
-77.247
-87.8012
-98.8912
-110.303
-120.696
-123.992
-93.4102
-4.32864
-13.0175
-21.8027
-30.7556
-39.959
-49.5164
-59.5643
-70.2954
-81.9966
-95.1185
-110.411
-129.215
-154.145
-190.871
-252.89
424.274
316.783
251.748
207.001
173.241
146.153
123.477
103.896
86.5694
70.9209
56.5326
43.0837
30.316
18.0109
5.97424
155.098
202.344
192.879
172.148
150.592
130.527
112.274
95.6702
80.4514
66.3603
53.167
40.6706
28.6934
17.0756
5.66865
68.5221
127.283
141.83
137.864
126.905
113.638
99.9242
86.4797
73.5484
61.1745
49.3163
37.8958
26.8208
15.9934
5.31462
36.3081
82.923
103.632
108.433
104.818
97.0576
87.3845
76.9304
66.2565
55.6291
45.1603
34.8805
24.7755
14.8077
4.92609
22.1497
56.5511
76.4789
84.8424
85.6071
81.8027
75.3848
67.532
58.9307
49.9722
40.8721
31.7428
22.6346
13.5617
4.51704
14.8646
40.2287
57.3547
66.5271
69.5672
68.3606
64.3799
58.6515
51.8516
44.4122
36.6034
28.5897
20.4687
12.2958
4.10058
10.6106
29.6262
43.7523
52.4687
56.4748
56.8433
54.5871
50.5135
45.2151
39.1079
32.476
25.5105
18.3385
11.045
3.68819
7.88786
22.4185
33.9054
41.6802
45.907
47.1472
46.0551
43.2249
39.1393
34.1669
28.5795
22.574
16.2923
9.83797
3.2893
6.02955
17.3241
26.6356
33.3546
37.412
39.0697
38.7288
36.807
33.6784
29.6521
24.9726
19.8288
14.3657
8.69619
2.91111
4.70205
13.6063
21.1656
26.8764
30.5826
32.3792
32.4993
31.2263
28.8401
25.5902
21.6876
17.3049
12.5822
7.63445
2.55866
3.72157
10.8221
16.9786
21.7897
25.0786
26.8521
27.2364
26.418
24.6008
21.9811
18.7355
15.0166
10.9547
6.66146
2.23499
2.97891
8.69325
13.7256
17.7596
20.6262
22.2889
22.8081
22.3026
20.9181
18.8062
16.1116
12.9661
9.4875
5.78086
1.94147
2.40528
7.03775
11.1656
14.5396
17.0092
18.5194
19.091
18.7969
17.74
16.0355
13.8005
11.1467
8.17847
4.9923
1.67816
1.95525
5.73249
9.12882
11.9472
14.0582
15.4011
15.9744
15.8207
15.0111
13.633
11.7798
9.54531
7.02059
4.29249
1.4441
1.59773
4.69158
7.49314
9.84584
11.6402
12.8169
13.3624
13.2994
12.6768
11.56
10.0235
8.14528
6.00379
3.67611
1.23763
1.31072
3.85353
6.16897
8.13194
9.65077
10.6708
11.1726
11.1664
10.6853
9.77823
8.50425
6.92789
5.11613
3.13659
1.05667
1.07829
3.17326
5.08943
6.72627
8.00749
8.88435
9.33534
9.36297
8.98932
8.25101
7.19479
5.87378
4.34485
2.66671
0.898875
0.888605
2.6171
4.20372
5.56739
6.6448
7.39341
7.7918
7.83797
7.54635
6.94437
6.06901
4.96393
3.67708
2.25905
0.761835
0.732732
2.15939
3.47275
4.60717
5.51029
6.14549
6.49267
6.54734
6.31873
5.82738
5.10261
4.18017
3.10032
1.9063
0.64315
0.603789
1.7803
2.86594
3.80747
4.56168
5.09742
5.3965
5.45325
5.2734
4.87236
4.27334
3.5056
2.60277
1.60152
0.54052
0.496404
1.46429
2.35912
3.13777
3.76466
4.21359
4.46847
4.52333
4.38154
4.05467
3.56114
2.92476
2.17348
1.3382
0.45179
0.406315
1.19896
1.93294
2.57336
3.09113
3.46439
3.67923
3.72985
3.61809
3.35263
2.94803
2.42362
1.80247
1.11036
0.374969
0.330096
0.974329
1.57167
2.09406
2.51788
2.82509
3.00393
3.04904
2.96126
2.74711
2.41803
1.9896
1.48067
0.912544
0.308238
0.264952
0.782236
1.26241
1.68315
2.02552
2.27487
2.42141
2.46042
2.39211
2.22131
1.95696
1.61143
1.19994
0.739826
0.249948
0.208563
0.615891
0.994382
1.32661
1.59769
1.79597
1.9135
1.94624
1.89405
1.76042
1.55219
1.27902
0.952933
0.587753
0.198609
0.15897
0.469549
0.758446
1.0125
1.22036
1.37308
1.46439
1.49098
1.45246
1.35128
1.19247
0.983321
0.733037
0.452302
0.152869
0.114481
0.338245
0.546677
0.730408
0.88129
0.992772
1.06018
1.08088
1.05434
0.98211
0.867648
0.716144
0.534258
0.329817
0.1115
0.0735961
0.217572
0.352034
0.471096
0.569533
0.643023