/*--------------------------------*- C++ -*----------------------------------*\
| =========                 |                                                 |
| \\      /  F ield         | OpenFOAM: The Open Source CFD Toolbox           |
|  \\    /   O peration     | Version:  5.x                                   |
|   \\  /    A nd           | Web:      www.OpenFOAM.org                      |
|    \\/     M anipulation  |                                                 |
\*---------------------------------------------------------------------------*/
FoamFile
{
    version     2.0;
    format      ascii;
    class       volScalarField;
    location    "9";
    object      T;
}
// * * * * * * * * * * * * * * * * * * * * * * * * * * * * * * * * * * * * * //

dimensions      [0 0 0 1 0 0 0];

internalField   nonuniform List<scalar> 
6300
(
11.4043
14.2087
17.0008
19.7722
22.5148
25.2201
27.88
30.4861
33.0303
35.5047
37.9016
40.2141
42.4358
44.5611
46.5857
11.4083
14.2209
17.0211
19.8007
22.5515
25.265
27.933
30.5471
33.0991
35.581
37.985
40.3037
42.5307
44.6603
46.6878
11.4165
14.2453
17.0618
19.8577
22.6248
25.3547
28.0391
30.6693
33.2371
35.7342
38.1523
40.4839
42.7218
44.86
46.8936
11.4286
14.2817
17.1227
19.9431
22.7348
25.4895
28.1984
30.8532
33.445
35.9651
38.405
40.7563
43.0113
45.163
47.2059
11.4448
14.3303
17.2037
20.0568
22.8815
25.6691
28.4113
31.0991
33.7235
36.2752
38.7451
41.1238
43.4025
45.5733
47.6295
11.4649
14.3908
17.3047
20.1986
23.0645
25.8937
28.6777
31.4075
34.0736
36.6662
39.1751
41.5899
43.9004
46.0968
48.171
11.4889
14.463
17.4253
20.3682
23.2835
26.1628
28.9976
31.7787
34.4962
37.1397
39.698
42.1591
44.5108
46.7411
48.8393
11.5168
14.5466
17.5652
20.5648
23.5378
26.4759
29.3705
32.2125
34.9918
37.6973
40.3167
42.8363
45.2411
47.5159
49.6461
11.5483
14.6413
17.7236
20.7878
23.8264
26.8317
29.7952
32.7081
35.5601
38.3399
41.034
43.6268
46.1001
48.4336
50.6072
11.5833
14.7466
17.8998
21.0359
24.1479
27.2285
30.2699
33.2635
36.1996
39.0669
41.8514
44.5355
47.0972
49.5097
51.7435
11.6217
14.8619
18.0926
21.3076
24.5002
27.6638
30.7914
33.8753
36.9069
39.8756
42.7678
45.5651
48.2419
50.7628
53.0836
11.6631
14.9864
18.301
21.6011
24.8808
28.1344
31.3557
34.5386
37.6759
40.7594
43.7777
46.7139
49.5408
52.2144
54.6678
11.7073
15.1194
18.5235
21.9145
25.2871
28.6365
31.9577
35.2463
38.4976
41.7071
44.8682
47.9703
50.9914
53.8844
56.5544
11.7542
15.2601
18.7588
22.2456
25.716
29.1658
32.5914
35.9901
39.3602
42.7017
46.0163
49.3062
52.5682
55.7758
58.8247
11.8034
15.4079
19.0057
22.5927
26.1649
29.7186
33.2512
36.7614
40.25
43.7218
47.1877
50.6682
54.1978
57.8238
61.5576
48.3465
49.8743
51.329
52.7112
54.0222
55.264
56.4392
57.551
58.6029
59.599
60.5433
61.4403
62.2945
63.1104
63.8927
64.6457
65.3741
66.082
66.7737
67.4533
68.1245
68.7911
69.4563
70.1232
70.7947
71.473
72.1602
72.8579
73.5672
74.2888
75.0232
75.7701
76.5292
77.2997
78.0806
78.8706
79.6684
80.4723
81.2806
82.0914
82.9024
83.7115
84.5162
85.3141
86.1027
86.8796
87.6425
88.3892
89.1177
89.826
90.5124
91.1752
91.8125
92.4227
93.0039
93.5542
94.0715
94.5537
94.9986
95.4038
95.7672
96.0864
96.3587
96.5818
96.7528
96.8687
96.9263
96.9219
96.8518
96.7114
96.4962
96.2012
95.821
95.35
94.7824
94.1122
93.333
92.4387
91.4227
90.2787
89.0004
87.5817
86.0168
84.3003
82.4277
80.3952
78.2002
75.841
73.3175
70.631
48.45
49.978
51.4317
52.8119
54.12
55.3579
56.5286
57.6352
58.6814
59.6714
60.6093
61.4998
62.3474
63.1567
63.9324
64.6791
65.4011
66.103
66.7889
67.4629
68.1289
68.7906
69.4513
70.1143
70.7822
71.4576
72.1425
72.8385
73.5467
74.268
75.0024
75.7499
76.5101
77.282
78.0646
78.8566
79.6567
80.4632
81.2743
82.088
82.9023
83.7147
84.5229
85.3244
86.1165
86.8967
87.6627
88.4123
89.1435
89.8544
90.5433
91.2085
91.8484
92.4612
93.0452
93.5984
94.1187
94.6041
95.0522
95.4608
95.8276
96.1502
96.4263
96.6534
96.8286
96.9493
97.012
97.0133
96.9493
96.8157
96.6078
96.3204
95.9483
95.4858
94.9269
94.2656
93.4956
92.6105
91.6038
90.469
89.1995
87.7892
86.2319
84.5221
82.655
80.6266
78.4337
76.0748
73.5496
70.8593
48.6585
50.1867
51.6386
53.0148
54.3168
55.5469
56.7083
57.8042
58.8389
59.8165
60.7416
61.6189
62.4532
63.2493
64.0118
64.7455
65.4549
66.1446
66.8187
67.4816
68.137
68.7889
69.4407
70.0956
70.7565
71.426
72.1063
72.7988
73.505
74.2253
74.96
75.7089
76.4712
77.246
78.0321
78.8283
79.6329
80.4444
81.2611
82.0809
82.9017
83.7211
84.5364
85.345
86.1442
86.9311
87.7034
88.4588
89.1953
89.9112
90.6049
91.2749
91.9198
92.5378
93.1274
93.6864
94.2129
94.7046
95.1592
95.5745
95.948
96.2777
96.5611
96.7959
96.9797
97.1096
97.1826
97.1953
97.1437
97.0236
96.8301
96.5582
96.2023
95.7568
95.2154
94.5722
93.8206
92.9541
91.9661
90.8498
89.5983
88.205
86.6635
84.9675
83.1118
81.0916
78.9036
76.5455
74.0169
71.3188
48.9751
50.5038
51.9527
53.3226
54.6152
55.8332
56.9801
58.0597
59.0765
60.0351
60.9406
61.7979
62.6119
63.3878
64.1304
64.8445
65.5349
66.2061
66.8626
67.5085
68.148
68.7849
69.4231
70.0657
70.7159
71.3765
72.0496
72.7371
73.4401
74.1593
74.8946
75.6457
76.4115
77.191
77.9826
78.7849
79.5963
80.4154
81.2404
82.0694
82.9002
83.7302
84.5566
85.3763
86.1863
86.9835
87.7653
88.5293
89.2736
89.9967
90.6974
91.3744
92.0265
92.6523
93.2501
93.818
94.3538
94.8552
95.3196
95.7447
96.1283
96.4683
96.7624
97.0087
97.2049
97.3485
97.4367
97.4663
97.4334
97.3336
97.162
96.9135
96.5822
96.1622
95.6474
95.0314
94.3077
93.4695
92.5099
91.4219
90.1981
88.8313
87.3143
85.6401
83.8024
81.7956
79.6155
77.2592
74.7256
72.0157
49.4048
50.9342
52.3789
53.7398
55.0191
56.2201
57.3467
58.4035
59.3956
60.3283
61.2069
62.0368
62.8234
63.572
64.2877
64.9755
65.6402
66.2866
66.9191
67.5422
68.1601
68.7769
69.3964
70.0223
70.6579
71.3063
71.9698
72.6504
73.3493
74.0673
74.8039
75.5585
76.3296
77.1156
77.9147
78.7254
79.5459
80.375
81.2111
82.0524
82.8968
83.7415
84.5833
85.4186
86.2437
87.055
87.8495
88.6248
89.3792
90.1114
90.8207
91.5064
92.1677
92.8037
93.4126
93.9925
94.541
95.0554
95.5331
95.9714
96.3681
96.7213
97.0291
97.29
97.5022
97.6636
97.7718
97.8238
97.8158
97.7434
97.6014
97.3843
97.0862
96.7008
96.2217
95.6424
94.9562
94.1563
93.2355
92.1862
91.0006
89.6707
88.1882
86.545
84.7334
82.7463
80.5783
78.2252
75.6855
72.9595
49.9546
51.4849
52.9238
54.2725
55.534
56.7121
57.8118
58.8386
59.7984
60.6972
61.541
62.3358
63.0874
63.8013
64.4829
65.1373
65.7696
66.3846
66.9868
67.581
68.1714
68.7624
69.3581
69.9624
70.5791
71.2116
71.8627
72.5345
73.2287
73.9456
74.6847
75.4447
76.2234
77.0185
77.8276
78.6487
79.4804
80.3216
81.1712
82.028
82.8898
83.7539
84.6163
85.4725
86.3178
87.1476
87.9583
88.7474
89.5134
90.2558
90.9746
91.6701
92.3423
92.9905
93.6135
94.2089
94.7739
95.3052
95.7997
96.2544
96.6671
97.036
97.36
97.638
97.869
98.0518
98.1844
98.2642
98.2875
98.2497
98.1454
97.9685
97.7124
97.3707
96.9367
96.4038
95.7652
95.0139
94.1426
93.1434
92.0078
90.7266
89.2905
87.6894
85.9138
83.9547
81.8045
79.4575
76.9106
74.1641
50.634
52.1656
53.5967
54.9292
56.1669
57.315
58.3798
59.368
60.2868
61.143
61.9435
62.6949
63.4034
64.0748
64.7148
65.3287
65.9216
66.4984
67.0639
67.6226
68.1794
68.7386
69.3047
69.8822
70.4751
71.0876
71.7229
72.384
73.0726
73.7891
74.5327
75.3011
76.0909
76.8984
77.7202
78.5539
79.3984
80.2531
81.1182
81.9932
82.8767
83.7656
84.6551
85.5391
86.411
87.2645
88.095
88.8999
89.6783
90.4308
91.1589
91.8642
92.5479
93.2105
93.8505
94.4656
95.0518
95.6047
96.1201
96.5945
97.0256
97.412
97.7535
98.05
98.3018
98.5087
98.6695
98.7823
98.8435
98.8483
98.7904
98.6629
98.4585
98.1701
97.7908
97.3139
96.7328
96.0408
95.2305
94.2936
93.221
92.0026
90.6269
89.082
87.3554
85.4353
83.3111
80.9745
78.4205
75.6484
51.4559
52.989
54.4096
55.7204
56.9268
58.0359
59.056
59.9955
60.863
61.6668
62.4146
63.1136
63.7705
64.3914
64.9821
65.548
66.0944
66.6261
67.148
67.6649
68.1814
68.7023
69.2326
69.777
70.3405
70.9279
71.5436
72.1913
72.8735
73.591
74.3424
75.124
75.9302
76.7548
77.5928
78.4409
79.2985
80.1669
81.0479
81.9433
82.8527
83.7733
84.6988
85.6202
86.5273
87.4112
88.2655
89.0874
89.8773
90.6377
91.3725
92.0858
92.7809
93.4593
94.1202
94.7604
95.3741
95.9547
96.496
96.9935
97.4447
97.8493
98.2081
98.5229
98.7958
99.0281
99.2203
99.3712
99.4774
99.5335
99.532
99.4644
99.322
99.0968
98.7818
98.3704
97.8568
97.2347
96.4971
95.6358
94.6411
93.5015
92.2038
90.7328
89.0725
87.2068
85.1206
82.8016
80.2416
77.4383
52.4375
53.9727
55.3788
56.6602
57.8249
58.8832
59.846
60.7244
61.529
62.2692
62.9538
63.5908
64.187
64.749
65.2826
65.7932
66.286
66.7657
67.2371
67.7051
68.1745
68.6502
69.1375
69.6418
70.169
70.725
71.3157
71.9463
72.621
73.3414
74.106
74.9087
75.7402
76.5894
77.4478
78.3113
79.1804
80.0594
80.9542
81.8701
82.8097
83.771
84.7454
85.7187
86.6741
87.5973
88.4794
89.3179
90.1155
90.8783
91.614
92.3305
93.0345
93.7298
94.4165
95.0899
95.7407
96.3579
96.9317
97.4557
97.9277
98.3488
98.7224
99.0528
99.3446
99.6019
99.8272
100.021
100.18
100.298
100.365
100.37
100.301
100.15
99.9078
99.5708
99.1336
98.5915
97.9383
97.1666
96.2664
95.225
94.0268
92.6529
91.0823
89.2926
87.2624
84.9728
82.4102
79.5693
53.6026
55.1404
56.5255
57.7659
58.8743
59.8657
60.7554
61.5577
62.2853
62.9494
63.5595
64.1242
64.6507
65.1453
65.614
66.0619
66.4939
66.9147
67.3288
67.741
68.156
68.579
69.0154
69.4713
69.9536
70.4697
71.0276
71.6353
72.2999
73.0257
73.8118
74.6495
75.5218
76.4081
77.2929
78.1707
79.0453
79.9264
80.827
81.7596
82.7327
83.7468
84.7905
85.8399
86.8643
87.8393
88.7528
89.604
90.4006
91.1545
91.8797
92.5899
93.2971
94.0094
94.7288
95.4483
96.1523
96.8203
97.4354
97.9892
98.4804
98.9134
99.2954
99.6346
99.9397
100.218
100.476
100.716
100.938
101.132
101.285
101.378
101.396
101.328
101.168
100.912
100.558
100.105
99.5469
98.879
98.0915
97.171
96.0994
94.8532
93.4041
91.7217
89.7747
87.5341
84.9766
82.0906
54.9854
56.5258
57.8789
59.0597
60.09
60.9926
61.7887
62.4964
63.1309
63.7048
64.2285
64.7103
65.1577
65.5767
65.9729
66.351
66.7155
67.0707
67.4209
67.7704
68.1237
68.4859
68.8625
69.2603
69.6869
70.1516
70.6651
71.2397
71.888
72.6206
73.4407
74.3376
75.2807
76.2259
77.1451
78.0321
78.8978
79.7624
80.6508
81.5878
82.5936
83.6768
84.8244
85.9938
87.1224
88.1669
89.1125
89.9657
90.7438
91.4688
92.1636
92.8502
93.549
94.2756
95.0372
95.8256
96.6124
97.3551
98.0241
98.6091
99.1134
99.5479
99.9262
100.262
100.569
100.86
101.146
101.436
101.731
102.022
102.287
102.492
102.612
102.636
102.561
102.389
102.123
101.764
101.311
100.76
100.104
99.3312
98.4201
97.342
96.0587
94.5283
92.7066
90.5485
88.0129
85.0738
56.6379
58.1791
59.4783
60.5682
61.4874
62.2708
62.947
63.5382
64.0616
64.5305
64.9552
65.3439
65.7032
66.0388
66.3554
66.6572
66.9481
67.2317
67.5117
67.7918
68.0762
68.3694
68.6769
69.0053
69.3629
69.7606
70.2121
70.7354
71.3524
72.0866
72.9564
73.9568
75.0335
76.0787
77.0408
77.9214
78.7488
79.5615
80.4019
81.3139
82.34
83.5112
84.8239
86.2035
87.4986
88.6335
89.6022
90.4321
91.1602
91.8234
92.4558
93.0899
93.7574
94.488
95.3035
96.2018
97.1324
97.9925
98.7304
99.3415
99.8434
100.26
100.614
100.928
101.219
101.506
101.809
102.144
102.525
102.947
103.371
103.723
103.962
104.082
104.091
103.999
103.818
103.554
103.211
102.789
102.283
101.686
100.978
100.123
99.0656
97.7511
96.1198
94.1032
91.6269
88.6292
58.6482
60.1787
61.3769
62.3204
63.0781
63.7012
64.2253
64.6753
65.0686
65.4176
65.7315
66.0173
66.2806
66.5259
66.7568
66.9768
67.1887
67.3954
67.5998
67.8047
68.0135
68.2299
68.4587
68.7056
68.9789
69.2894
69.6533
70.0938
70.6451
71.355
72.2813
73.4632
74.8292
76.0481
77.0512
77.8847
78.618
79.3177
80.0468
80.8728
81.8743
83.1387
84.7239
86.5317
88.1023
89.3362
90.2885
91.0418
91.667
92.2189
92.7422
93.2782
93.8714
94.5747
95.4472
96.528
97.7506
98.8024
99.6157
100.227
100.693
101.058
101.358
101.621
101.869
102.126
102.42
102.783
103.256
103.864
104.557
105.112
105.481
105.685
105.76
105.735
105.629
105.456
105.222
104.932
104.591
104.198
103.743
103.19
102.44
101.427
100.084
98.3166
95.9885
92.9446
61.1936
62.6546
63.6402
64.3379
64.8605
65.2717
65.6082
65.8919
66.137
66.3527
66.5457
66.7208
66.8816
67.0311
67.1717
67.3055
67.4344
67.5602
67.6846
67.8096
67.9373
68.0703
68.2117
68.3657
68.5385
68.739
68.9816
69.2901
69.707
70.3092
71.2353
72.7019
74.8342
76.3253
77.303
77.9893
78.5329
79.0285
79.5494
80.1761
81.0272
82.3011
84.3002
87.1985
89.1878
90.4409
91.2581
91.8329
92.2759
92.6522
93.0069
93.3806
93.8235
94.4145
95.2873
96.6468
98.6109
99.9522
100.788
101.321
101.682
101.945
102.153
102.332
102.504
102.691
102.926
103.261
103.79
104.654
105.936
106.768
107.232
107.47
107.57
107.583
107.535
107.44
107.308
107.148
106.97
106.793
106.648
106.539
106.188
105.573
104.657
103.333
101.377
98.399
64.7341
65.8129
66.3156
66.6054
66.8011
66.9476
67.0645
67.1618
67.2452
67.3183
67.3835
67.4424
67.4965
67.5468
67.594
67.6389
67.6822
67.7244
67.7662
67.8082
67.8512
67.8961
67.9439
67.9964
68.0557
68.1256
68.2123
68.328
68.4994
68.7943
69.4087
70.9793
75.7598
77.3391
77.9717
78.2966
78.5141
78.6999
78.8968
79.1533
79.5685
80.4163
82.5785
89.1712
91.3299
92.1704
92.5733
92.8106
92.9773
93.1134
93.2411
93.3798
93.5591
93.8451
94.4232
95.8914
100.365
101.827
102.392
102.658
102.809
102.91
102.985
103.049
103.112
103.184
103.284
103.458
103.836
104.84
107.958
108.95
109.307
109.448
109.503
109.515
109.503
109.474
109.432
109.385
109.342
109.34
109.495
110.233
110.313
110.147
109.814
109.257
108.235
105.978
67.4995
63.8592
60.0046
55.9483
51.7044
47.2887
42.718
38.0092
33.1798
28.2468
23.2272
18.1374
12.9936
7.81139
2.60633
67.7213
64.0711
60.2043
56.1338
51.8743
47.4422
42.8544
38.1285
33.2821
28.3325
23.2965
18.1908
13.0314
7.83399
2.61384
68.1676
64.4974
60.6056
56.5062
52.2151
47.7495
43.1274
38.3671
33.4865
28.5034
23.4348
18.2973
13.1069
7.879
2.62881
68.8442
65.1428
61.2124
57.0684
52.7285
48.2117
43.5372
38.7244
33.7922
28.7587
23.6411
18.4561
13.2193
7.94605
2.65108
69.7599
66.015
62.0305
57.8245
53.417
48.8297
44.0837
39.1999
34.1981
29.097
23.9141
18.6659
13.3677
8.03452
2.68048
70.9272
67.1245
63.0681
58.7797
54.2836
49.6045
44.7664
39.7919
34.7021
29.5161
24.2517
18.9249
13.5508
8.14355
2.71669
72.3636
68.4854
64.3352
59.9406
55.3313
50.5366
45.5838
40.4979
35.301
30.0127
24.6507
19.2305
13.7665
8.27193
2.7593
74.0921
70.1158
65.8443
61.314
56.5624
51.6249
46.5328
41.3134
35.9899
30.5821
25.1069
19.5793
14.0123
8.4181
2.8078
76.1439
72.039
67.6099
62.9065
57.9775
52.8658
47.6074
42.2315
36.7618
31.2176
25.6148
19.9666
14.2849
8.58003
2.86151
78.5609
74.284
69.6473
64.7224
59.5732
54.2517
48.7978
43.2419
37.607
31.9107
26.1669
20.3869
14.5803
8.7553
2.91961
81.4015
76.8859
71.9703
66.7602
61.3392
55.7679
50.0884
44.3297
38.5122
32.6502
26.7544
20.8332
14.8934
8.94097
2.98113
84.7488
79.885
74.5853
69.0065
63.2533
57.3903
51.4563
45.475
39.4605
33.4222
27.3662
21.2972
15.2187
9.13374
3.04499
88.7236
83.3171
77.4769
71.4248
65.2748
59.0815
52.87
46.6516
40.4313
34.2106
27.9902
21.77
15.55
9.32998
3.10999
93.4971
87.1798
80.5775
73.9386
67.3374
60.7887
54.2885
47.8287
41.4009
34.9976
28.6129
22.2419
15.8806
9.5259
3.17489
99.2372
91.3243
83.7117
76.412
69.3453
62.4451
55.6648
48.9721
42.3444
35.7647
29.2209
22.7032
16.2042
9.71777
3.23848
11.8504
15.5491
19.2417
22.9241
26.5926
30.2439
33.8757
37.4871
41.0799
44.6611
48.2466
51.8701
55.6015
59.6005
64.3071
11.8946
15.6817
19.463
23.2346
26.9928
30.7345
34.4569
38.1589
41.8416
45.511
49.1819
52.8865
56.6905
60.7228
65.2145
11.94
15.8182
19.6907
23.5539
27.4041
31.2377
35.0516
38.8432
42.6116
46.3587
50.0925
53.8326
57.6195
61.5247
65.6409
11.9867
15.9584
19.9247
23.882
27.8264
31.7541
35.661
39.5429
43.3955
47.2147
50.9977
54.745
58.4649
62.1784
65.9178
12.0346
16.1023
20.1647
24.2185
28.2598
32.2843
36.2871
40.2621
44.2015
48.0947
51.9263
55.6752
59.3133
62.8127
66.1678
12.0837
16.2495
20.4105
24.5634
28.7043
32.8289
36.9316
41.0051
45.0388
49.0162
52.9113
56.6809
60.2568
63.5455
66.4716
12.1337
16.3998
20.6616
24.9161
29.1597
33.3881
37.5957
41.7749
45.914
49.9939
53.9822
57.8197
61.3982
64.5287
66.9528
12.1847
16.5529
20.9176
25.2759
29.625
33.9609
38.2788
42.5717
46.8292
51.0342
55.1565
59.137
62.8492
66.0007
67.9316
12.2364
16.7084
21.1775
25.6418
30.0989
34.5456
38.9784
43.3922
47.7798
52.1307
56.4279
60.6394
64.6879
68.3188
70.4246
12.2887
16.8656
21.4406
26.0123
30.5792
35.1394
39.6905
44.2298
48.7547
53.2633
57.7575
62.2534
66.8151
71.6942
78.0158
12.3414
17.0239
21.7056
26.3858
31.0638
35.7387
40.4098
45.0766
49.74
54.4045
59.0845
63.8203
68.7203
74.066
80.5307
12.3942
17.1826
21.9713
26.7603
31.5498
36.3399
41.1312
45.9248
50.7234
55.5338
60.3713
65.2718
70.3142
75.6591
81.5612
12.4469
17.341
22.2364
27.134
32.0347
36.9396
41.8502
46.7684
51.6975
56.6428
61.613
66.6231
71.6962
76.8634
82.1479
12.4992
17.4983
22.4998
27.5051
32.5161
37.5346
42.5629
47.6034
52.6592
57.7331
62.8256
67.929
73.0112
77.9843
82.6768
12.5509
17.6538
22.7601
27.8719
32.9917
38.1221
43.2661
48.4268
53.6072
58.8092
64.0292
69.2479
74.4002
79.2982
83.4715
12.6018
17.8069
23.0161
28.2325
33.4592
38.6994
43.9568
49.2353
54.5391
59.8713
65.2321
70.6113
75.9639
81.1133
85.2753
12.6517
17.9568
23.2669
28.5856
33.9166
39.2639
44.6318
50.0253
55.4499
60.9122
66.4208
71.9913
77.667
83.6121
90.5852
12.7003
18.1029
23.5113
28.9296
34.362
39.8132
45.2881
50.7925
56.3334
61.9196
67.5648
73.2965
79.1812
85.3949
92.3788
12.7476
18.2448
23.7486
29.2634
34.7938
40.3451
45.9228
51.5333
57.1841
62.8844
68.6472
74.4938
80.4649
86.6408
93.1545
12.7932
18.382
23.9778
29.5856
35.2105
40.8579
46.5339
52.2451
57.9991
63.8043
69.6697
75.6029
81.6043
87.6501
93.6632
12.8372
18.514
24.1984
29.8955
35.6108
41.3499
47.1193
52.9259
58.7772
64.681
70.6434
76.6628
82.711
88.6799
94.2636
12.8793
18.6406
24.4098
30.1923
35.9937
41.8201
47.678
53.5745
59.5176
65.5155
71.5758
77.7008
83.8706
89.9751
95.4915
12.9196
18.7615
24.6116
30.4754
36.3587
42.2676
48.2088
54.1896
60.2185
66.3051
72.4616
78.7058
85.0736
91.6765
99.0056
12.9579
18.8766
24.8035
30.7444
36.705
42.6917
48.7109
54.7701
60.8779
67.0445
73.2847
79.6232
86.1113
92.8713
100.191
12.9943
18.9856
24.9853
30.999
37.0326
43.0922
49.1842
55.3158
61.495
67.7314
74.0378
80.4346
86.9581
93.6753
100.687
13.0286
19.0887
25.157
31.2394
37.3415
43.4693
49.629
55.8272
62.0709
68.3679
74.7264
81.1562
87.6681
94.2725
100.97
13.061
19.1857
25.3186
31.4654
37.6317
43.8232
50.0459
56.3056
62.6086
68.9601
75.3638
81.8189
88.3118
94.8029
101.212
13.0913
19.2767
25.4702
31.6774
37.9036
44.1546
50.4359
56.7529
63.111
69.5143
75.9638
82.4532
88.9547
95.3878
101.553
13.1197
19.3618
25.6119
31.8754
38.1577
44.4641
50.7999
57.1704
63.5806
70.0347
76.5345
83.0769
89.6428
96.1566
102.293
13.1462
19.4411
25.7439
32.0599
38.3942
44.7521
51.1387
57.5591
64.0184
70.5215
77.0737
83.6824
90.365
97.1852
104.443
13.1707
19.5147
25.8664
32.231
38.6136
45.0192
51.4528
57.9194
64.4242
70.9727
77.5719
84.2347
90.9892
97.9078
105.166
13.1934
19.5827
25.9795
32.3891
38.8162
45.2659
51.7429
58.252
64.7983
71.3868
78.0242
84.7211
91.4974
98.3924
105.467
13.2142
19.6451
26.0835
32.5343
39.0024
45.4925
52.0094
58.5576
65.1415
71.7653
78.4333
85.1502
91.9209
98.7502
105.637
13.2332
19.7021
26.1784
32.6669
39.1725
45.6997
52.2531
58.837
65.4554
72.1114
78.8067
85.5399
92.3014
99.0655
105.782
13.2504
19.7538
26.2644
32.7871
39.3267
45.8876
52.4744
59.0912
65.7416
72.4284
79.152
85.9077
92.6778
99.4116
105.985
13.2659
19.8001
26.3415
32.895
39.4652
46.0566
52.6737
59.3207
66.0012
72.7182
79.4731
86.2636
93.0771
99.8662
106.431
13.2796
19.8411
26.4099
32.9907
39.5882
46.2068
52.8512
59.5255
66.2338
72.9799
79.7675
86.6013
93.4912
100.474
107.729
13.2915
19.8769
26.4696
33.0742
39.6955
46.3382
53.0066
59.7053
66.4386
73.2111
80.028
86.898
93.8381
100.891
108.16
13.3017
19.9074
26.5204
33.1455
39.7873
46.4506
53.1399
59.8597
66.6147
73.4096
80.2499
87.1437
94.1043
101.156
108.332
13.3101
19.9326
26.5625
33.2045
39.8634
46.5439
53.2507
59.9883
66.7615
73.5747
80.4327
87.3408
94.3051
101.331
108.419
13.3167
19.9525
26.5958
33.2512
39.9237
46.618
53.3389
60.091
66.8789
73.7069
80.5788
87.4969
94.4605
101.462
108.478
13.3215
19.9671
26.6201
33.2854
39.9679
46.6726
53.4041
60.1674
66.9669
73.807
80.6907
87.6192
94.5877
101.578
108.545
13.3246
19.9762
26.6353
33.307
39.996
46.7074
53.4462
60.2172
67.0253
73.8749
80.7697
87.7115
94.6971
101.709
108.678
13.3258
19.9799
26.6415
33.3158
40.0077
46.7223
53.4646
60.2399
67.0531
73.9096
80.814
87.7713
94.786
101.867
109.06
13.3252
19.978
26.6385
33.3118
40.0028
46.7168
53.459
60.2347
67.0495
73.9091
80.8198
87.789
94.8261
101.946
109.172
13.3227
19.9706
26.6263
33.2947
39.9811
46.6908
53.4289
60.2011
67.0131
73.8713
80.783
87.7574
94.8068
101.947
109.191
13.3184
19.9576
26.6046
33.2645
39.9425
46.6439
53.3739
60.1384
66.9431
73.7946
80.7006
87.6714
94.7218
101.875
109.155
13.3121
19.939
26.5736
33.2212
39.8868
46.5759
53.2939
60.0462
66.839
73.6783
80.5714
87.5279
94.5634
101.711
109.042
13.3041
19.9148
26.5332
33.1645
39.814
46.4869
53.1886
59.9247
66.7009
73.5228
80.3961
87.3272
94.3251
101.416
108.728
13.2941
19.8849
26.4834
33.0947
39.7241
46.3768
53.0583
59.774
66.5294
73.3296
80.1788
87.078
94.0194
100.967
107.765
13.2823
19.8494
26.4242
33.0117
39.6171
46.2458
52.903
59.5943
66.3252
73.1008
79.9247
86.7971
93.7072
100.617
107.431
13.2686
19.8084
26.3556
32.9155
39.4932
46.0938
52.7227
59.3857
66.0883
72.8364
79.6351
86.488
93.3925
100.333
107.268
13.2531
19.7618
26.2779
32.8064
39.3524
45.921
52.5177
59.1481
65.8183
72.535
79.3059
86.1406
93.0507
100.049
107.139
13.2358
19.7099
26.1911
32.6846
39.1951
45.7278
52.288
58.8814
65.5143
72.1941
78.9305
85.7387
92.6453
99.6986
106.968
13.2168
19.6526
26.0955
32.5502
39.0215
45.5144
52.034
58.5859
65.1762
71.8121
78.5032
85.2662
92.1358
99.1957
106.644
13.196
19.5902
25.9912
32.4036
38.8321
45.2813
51.7564
58.2624
64.8049
71.3899
78.0241
84.7175
91.4915
98.4203
105.843
13.1736
19.5228
25.8786
32.2453
38.6274
45.0293
51.456
57.9121
64.4025
70.9316
77.5019
84.1105
90.7374
97.2994
103.432
13.1495
19.4507
25.758
32.0757
38.408
44.7592
51.1338
57.5365
63.9717
70.443
76.9511
83.4887
90.026
96.4742
102.611
13.124
19.374
25.6297
31.8953
38.1746
44.4717
50.791
57.137
63.5142
69.9269
76.3778
82.865
89.374
95.8622
102.244
13.097
19.2929
25.4943
31.7047
37.9279
44.1678
50.4285
56.7144
63.0305
69.3825
75.7772
82.2239
88.7342
95.3214
101.991
13.0687
19.2079
25.352
31.5045
37.6688
43.8484
50.0472
56.2695
62.5203
68.8066
75.1387
81.5364
88.0384
94.7206
101.701
13.0392
19.1191
25.2036
31.2956
37.3982
43.5147
49.6485
55.8033
61.984
68.1969
74.4528
80.7744
87.2152
93.9106
101.183
13.0086
19.027
25.0495
31.0786
37.1172
43.1679
49.2338
55.3179
61.4237
67.5555
73.7193
79.9273
86.2129
92.6971
99.9251
12.9769
18.9318
24.8903
30.8545
36.8268
42.8096
48.8053
54.816
60.8439
66.8901
72.9532
79.0243
85.0703
90.9644
96.147
12.9443
18.834
24.7266
30.6241
36.5284
42.4414
48.365
54.3008
60.2499
66.2113
72.1795
78.1366
84.0308
89.7234
94.8782
12.911
18.7339
24.5591
30.3883
36.2231
42.0649
47.9151
53.7751
59.6456
65.5259
71.4117
77.2904
83.1289
88.8535
94.3373
12.8771
18.6318
24.3884
30.1481
35.9121
41.6814
47.4573
53.2408
59.0331
64.8349
70.647
76.47
82.3039
88.1484
94.0016
12.8426
18.5282
24.2152
29.9043
35.5965
41.2924
46.993
52.6991
58.4123
64.135
69.8729
75.6398
81.4692
87.4348
93.6614
12.8077
18.4235
24.04
29.6579
35.2774
40.8992
46.5236
52.1513
57.7834
63.4229
69.0766
74.7642
80.5378
86.5374
93.1034
12.7726
18.3179
23.8635
29.4096
34.9561
40.5032
46.0508
51.5989
57.148
62.699
68.2552
73.8267
79.4472
85.2441
91.7884
12.7373
18.2119
23.6863
29.1603
34.6336
40.1058
45.5764
51.0447
56.5097
61.9699
67.4211
72.8531
78.2318
83.4296
87.8747
12.702
18.1058
23.509
28.9109
34.3111
39.7086
45.1024
50.4913
55.8734
61.2452
66.5987
71.9145
77.1399
82.1352
86.5592
12.6668
17.9999
23.332
28.6623
33.9896
39.3129
44.6307
49.9414
55.2428
60.5314
65.8007
71.0366
76.2057
81.2351
86
12.6317
17.8946
23.156
28.415
33.6701
38.92
44.1629
49.3968
54.6196
59.8293
65.0241
70.203
75.3663
80.5164
85.6571
12.5968
17.79
22.9814
28.1697
33.3536
38.5311
43.7001
48.8585
54.0041
59.136
64.2566
69.3781
74.5341
79.8019
85.3151
12.5623
17.6863
22.8084
27.9271
33.0407
38.147
43.2437
48.3278
53.3967
58.4487
63.4869
68.5274
73.6219
78.9146
84.758
12.5281
17.5837
22.6373
27.6874
32.732
37.7688
42.7949
47.8065
52.7995
57.7695
62.7138
67.6371
72.57
77.6426
83.4413
12.4943
17.4823
22.4684
27.4509
32.428
37.3971
42.3549
47.2968
52.2168
57.1065
61.9535
66.7384
71.4189
75.864
79.5052
12.4609
17.382
22.3014
27.2176
32.1288
37.0324
41.9249
46.8012
51.6539
56.4714
61.2347
65.91
70.4293
74.6413
78.2081
12.4277
17.2827
22.1363
26.9873
31.8341
36.6744
41.505
46.3207
51.114
55.8723
60.5752
65.1881
69.6511
73.8646
77.6972
12.3948
17.1842
21.9726
26.7593
31.5432
36.3224
41.0943
45.8547
50.597
55.3101
59.9765
64.5684
69.0441
73.35
77.4474
12.362
17.0861
21.8097
26.5328
31.2547
35.9745
40.6905
45.4001
50.0988
54.7788
59.4279
64.0275
68.5529
72.9781
77.2955
12.3293
16.9879
21.6469
26.3066
30.967
35.6282
40.2901
44.952
49.6122
54.2674
58.9118
63.5364
68.1292
72.6788
77.1836
12.2963
16.8893
21.4833
26.0792
30.678
35.2807
39.8887
44.5038
49.1276
53.762
58.4078
63.0655
67.7335
72.4085
77.086
12.2631
16.7897
21.3181
25.8494
30.3855
34.9285
39.4814
44.0483
48.6345
53.247
57.894
62.5856
67.3309
72.1342
76.9874
12.2294
16.6888
21.1504
25.6158
30.0875
34.5685
39.0634
43.5782
48.1219
52.7064
57.3477
62.0666
66.8859
71.8233
76.8726
12.1951
16.5862
20.9796
25.3774
29.7823
34.1981
38.6304
43.087
47.5796
52.1247
56.7459
61.476
66.3569
71.4325
76.7185
12.1603
16.4817
20.8054
25.1335
29.4688
33.8155
38.1795
42.5697
46.9996
51.4888
56.067
60.7789
65.6907
70.8933
76.4754
12.1249
16.3754
20.6278
24.8841
29.1468
33.4199
37.7093
42.0238
46.3771
50.7896
55.2935
59.9411
64.8207
70.0885
76.0114
12.089
16.2675
20.4472
24.6297
28.817
33.0122
37.2207
41.45
45.7121
50.0254
54.4188
58.9405
63.6791
68.8268
74.9186
105.008
94.8454
86.295
78.4631
71.0308
63.8514
56.8442
49.9593
43.1637
36.434
29.7532
23.1082
16.4889
9.88677
3.29451
106.833
96.9242
88.1423
80.0484
72.3858
65.0088
57.8299
50.7935
43.8617
37.0076
30.2115
23.4581
16.7354
10.0333
3.34314
107.593
98.2178
89.5096
81.3323
73.5407
66.0269
58.7154
51.5538
44.5045
37.54
30.6393
23.7861
16.9671
10.1714
3.38899
107.975
99.0456
90.5061
82.3462
74.5009
66.9028
59.4953
52.2348
45.0875
38.0272
31.0334
24.0897
17.1824
10.2999
3.43172
108.199
99.5999
91.2368
83.1395
75.2877
67.6445
60.1718
52.836
45.6088
38.4672
31.392
24.3674
17.3801
10.4182
3.47109
108.344
99.9881
91.7808
83.7602
75.9277
68.2661
60.7518
53.3604
46.0697
38.8601
31.7146
24.6187
17.5596
10.5259
3.507
108.446
100.27
92.1928
84.2483
76.4471
68.7839
61.2448
53.8135
46.473
39.2074
32.002
24.8439
17.7212
10.6231
3.53943
108.521
100.482
92.51
84.6347
76.869
69.2135
61.6615
54.2022
46.8232
39.5118
32.2559
25.0439
17.8653
10.71
3.56847
108.578
100.644
92.7578
84.9429
77.2123
69.5696
62.0124
54.5339
47.1253
39.7768
32.4784
25.2202
17.9928
10.7871
3.59426
108.622
100.771
92.9539
85.1906
77.4925
69.8647
62.307
54.8157
47.3845
40.0061
32.6721
25.3744
18.1047
10.8549
3.61699
108.656
100.871
93.1106
85.3909
77.722
70.1093
62.554
55.0543
47.606
40.2033
32.8398
25.5086
18.2025
10.9143
3.6369
108.684
100.951
93.2369
85.5538
77.9105
70.3122
62.761
55.256
47.7946
40.3724
32.9844
25.6247
18.2873
10.9659
3.65424
108.706
101.016
93.3394
85.6869
78.0657
70.4808
62.9342
55.4261
47.9546
40.5168
33.1084
25.7247
18.3606
11.0106
3.66926
108.724
101.068
93.423
85.7961
78.194
70.6209
63.0791
55.5693
48.0902
40.6397
33.2144
25.8105
18.4236
11.0492
3.68221
108.738
101.111
93.4915
85.886
78.3
70.7375
63.2004
55.6897
48.2048
40.744
33.3047
25.8838
18.4776
11.0822
3.69333
108.75
101.146
93.5479
85.9602
78.388
70.8345
63.3019
55.7909
48.3015
40.8323
33.3814
25.9462
18.5237
11.1104
3.70284
108.76
101.175
93.5943
86.0215
78.4609
70.9153
63.3866
55.8758
48.3829
40.907
33.4464
25.9992
18.5629
11.1345
3.71094
108.768
101.199
93.6327
86.0723
78.5214
70.9826
63.4574
55.947
48.4513
40.9698
33.5013
26.0441
18.5961
11.1549
3.71782
108.775
101.219
93.6644
86.1143
78.5716
71.0385
63.5165
56.0065
48.5087
41.0227
33.5476
26.082
18.6241
11.1721
3.72364
108.781
101.235
93.6906
86.1491
78.6133
71.085
63.5657
56.0561
48.5566
41.067
33.5864
26.1138
18.6478
11.1866
3.72854
108.785
101.249
93.7122
86.1778
78.6477
71.1235
63.6064
56.0974
48.5966
41.1039
33.6188
26.1404
18.6675
11.1988
3.73264
108.789
101.26
93.7299
86.2014
78.676
71.1552
63.6401
56.1315
48.6297
41.1345
33.6457
26.1625
18.684
11.2089
3.73607
108.792
101.269
93.7444
86.2207
78.6992
71.1812
63.6678
56.1595
48.6569
41.1598
33.6679
26.1808
18.6976
11.2173
3.73889
108.794
101.276
93.7561
86.2363
78.718
71.2023
63.6902
56.1823
48.679
41.1803
33.686
26.1957
18.7087
11.2241
3.7412
108.796
101.282
93.7654
86.2487
78.7329
71.2191
63.7081
56.2005
48.6967
41.1968
33.7005
26.2076
18.7176
11.2296
3.74306
108.798
101.286
93.7727
86.2584
78.7446
71.2322
63.7221
56.2147
48.7106
41.2097
33.7119
26.217
18.7245
11.2339
3.74451
108.799
101.29
93.7781
86.2656
78.7533
71.242
63.7325
56.2254
48.721
41.2193
33.7204
26.224
18.7298
11.2372
3.74561
108.8
101.292
93.7818
86.2706
78.7593
71.2488
63.7398
56.2328
48.7282
41.226
33.7264
26.2289
18.7334
11.2394
3.74637
108.8
101.293
93.7839
86.2735
78.7628
71.2527
63.744
56.2371
48.7324
41.23
33.7299
26.2319
18.7356
11.2408
3.74683
108.8
101.294
93.7846
86.2743
78.7639
71.254
63.7454
56.2386
48.7339
41.2314
33.7311
26.2329
18.7364
11.2413
3.747
108.8
101.293
93.7837
86.2732
78.7626
71.2526
63.7439
56.2371
48.7325
41.2302
33.7301
26.2321
18.7358
11.2409
3.74688
108.8
101.292
93.7814
86.2701
78.7589
71.2485
63.7396
56.2328
48.7284
41.2264
33.7268
26.2294
18.7339
11.2397
3.74647
108.799
101.289
93.7774
86.2648
78.7526
71.2415
63.7323
56.2255
48.7214
41.22
33.7212
26.2248
18.7305
11.2376
3.74577
108.798
101.285
93.7716
86.2572
78.7435
71.2315
63.7218
56.2149
48.7112
41.2107
33.7131
26.2182
18.7255
11.2346
3.74475
108.796
101.281
93.7639
86.247
78.7314
71.218
63.7076
56.2008
48.6976
41.1982
33.7022
26.2093
18.719
11.2306
3.7434
108.794
101.274
93.7538
86.2338
78.7157
71.2007
63.6895
56.1826
48.6803
41.1823
33.6884
26.1981
18.7107
11.2255
3.74168
108.791
101.266