/*--------------------------------*- C++ -*----------------------------------*\
| =========                 |                                                 |
| \\      /  F ield         | OpenFOAM: The Open Source CFD Toolbox           |
|  \\    /   O peration     | Version:  5.x                                   |
|   \\  /    A nd           | Web:      www.OpenFOAM.org                      |
|    \\/     M anipulation  |                                                 |
\*---------------------------------------------------------------------------*/
FoamFile
{
    version     2.0;
    format      ascii;
    class       volScalarField;
    location    "12.6";
    object      gradTy;
}
// * * * * * * * * * * * * * * * * * * * * * * * * * * * * * * * * * * * * * //

dimensions      [0 -1 0 1 0 0 0];

internalField   nonuniform List<scalar> 
6300
(
1026.18
1078.47
1130.53
1182.19
1233.31
1283.73
1333.29
1381.84
1429.22
1475.3
1519.93
1562.98
1604.33
1643.89
1681.58
0.115247
0.345792
0.576451
0.807147
1.03755
1.26695
1.49414
1.71723
1.93353
2.13943
2.33037
2.50096
2.64526
2.7573
2.83172
0.192013
0.576181
0.960697
1.34555
1.73032
2.11401
2.49474
2.86955
3.23406
3.58227
3.90648
4.19738
4.4445
4.63716
4.76562
0.26863
0.806191
1.34456
1.88397
2.42412
2.96394
3.50118
4.03206
4.55075
5.04899
5.51576
5.93737
6.298
6.58101
6.77089
0.344937
1.03536
1.72734
2.42157
3.11817
3.81632
4.51385
5.2066
5.88772
6.54695
7.16997
7.73808
8.22883
8.61762
8.88082
0.420677
1.26293
2.1078
2.95671
3.81053
4.66919
5.53113
6.39254
7.24633
8.08087
8.87875
9.61582
10.2613
10.7795
11.1346
0.495498
1.48784
2.48414
3.48683
4.4979
5.51858
6.54871
7.58586
8.62387
9.65108
10.6479
11.5847
12.4204
13.1038
13.5802
0.568964
1.70873
2.854
4.00843
5.17549
6.3583
7.55903
8.77797
10.0119
11.2512
12.4767
13.6543
14.7311
15.6346
16.2792
0.640569
1.92404
3.21461
4.51722
5.83713
7.17983
8.55081
9.95476
11.3939
12.8647
14.3527
15.8239
17.2146
18.4234
19.3151
0.709807
2.13219
3.56304
5.00855
6.47573
7.97279
9.50926
11.0959
12.7437
14.4605
16.2449
18.0732
19.8791
21.5286
22.806
0.77625
2.33179
3.89668
5.47799
7.08421
8.72598
10.4171
12.1755
14.0237
15.988
18.0925
20.3442
22.6993
25.0051
26.9275
0.839629
2.52195
4.21373
5.92233
7.65685
9.42946
11.2572
13.1646
15.1872
17.3747
19.7923
22.5108
25.5679
28.8639
31.946
0.899916
2.70254
4.51383
6.34049
8.19108
10.0774
12.0171
14.038
16.1849
18.5305
21.1903
24.3377
28.1967
32.9352
38.2311
0.957374
2.87439
4.79836
6.7345
8.68923
10.6715
12.6954
14.7848
16.9833
19.3713
22.1
25.4521
29.9446
36.4475
45.9589
1.01253
3.03918
5.07054
7.10964
9.15947
11.2236
13.3074
15.4219
17.5913
19.8707
22.3854
25.4247
29.6807
36.9498
52.5669
1714.36
1742.82
1769.92
1795.69
1820.16
1843.36
1865.34
1886.18
1905.93
1924.68
1942.52
1959.51
1975.76
1991.36
2006.38
2020.92
2035.07
2048.91
2062.52
2075.99
2089.39
2102.79
2116.26
2129.87
2143.66
2157.7
2172.01
2186.64
2201.61
2216.93
2232.61
2248.66
2265.05
2281.78
2298.83
2316.16
2333.75
2351.56
2369.55
2387.68
2405.9
2424.14
2442.35
2460.48
2478.45
2496.21
2513.69
2530.84
2547.61
2563.95
2579.8
2595.13
2609.88
2624
2637.44
2650.14
2662.05
2673.11
2683.24
2692.39
2700.48
2707.46
2713.25
2717.76
2720.94
2722.69
2722.92
2721.52
2718.39
2713.41
2706.43
2697.33
2685.95
2672.13
2655.7
2636.49
2614.33
2589.03
2560.4
2528.27
2492.44
2452.73
2408.97
2361
2308.68
2251.9
2190.56
2124.62
2054.06
1978.92
2.86178
2.85889
2.82568
2.76314
2.67329
2.5589
2.4233
2.27007
2.1028
1.92493
1.73958
1.54952
1.35711
1.16436
0.972931
0.784253
0.599567
0.42002
0.246738
0.0808952
-0.0762337
-0.223243
-0.358595
-0.480652
-0.587759
-0.67835
-0.751112
-0.805146
-0.840121
-0.856376
-0.854915
-0.837278
-0.805291
-0.760735
-0.705024
-0.638995
-0.56287
-0.476443
-0.379417
-0.271834
-0.154462
-0.0290216
0.101828
0.234784
0.366406
0.493717
0.614736
0.72881
0.836676
0.940251
1.04222
1.1455
1.25271
1.36578
1.48561
1.61215
1.74456
1.88166
2.02238
2.16625
2.31368
2.46609
2.62582
2.79585
2.97944
3.17975
3.39945
3.64039
3.90349
4.18865
4.49494
4.82083
5.16443
5.52376
5.89682
6.28154
6.67558
7.07597
7.47879
7.87878
8.26906
8.64103
8.98448
9.28788
9.53903
9.72584
9.83734
9.86466
9.80199
9.64721
4.81778
4.81309
4.7561
4.64868
4.49446
4.29853
4.06682
3.80569
3.52144
3.21999
2.90667
2.58612
2.26225
1.93832
1.617
1.30055
0.990908
0.689861
0.39918
0.120738
-0.143388
-0.390858
-0.619052
-0.825123
-1.00612
-1.1592
-1.28189
-1.37247
-1.43022
-1.45572
-1.45084
-1.41855
-1.36241
-1.28591
-1.19173
-1.08131
-0.95475
-0.811156
-0.64936
-0.468818
-0.27045
-0.057157
0.166171
0.393222
0.617313
0.832639
1.03537
1.22432
1.40106
1.56942
1.73472
1.90267
2.07834
2.26529
2.4651
2.6773
2.89986
3.13001
3.36528
3.60438
3.84782
4.09814
4.3596
4.63777
4.93873
5.26834
5.63152
6.03166
6.47027
6.947
7.45993
8.00606
8.58189
9.18397
9.80906
10.454
11.1155
11.7892
12.469
13.1466
13.8108
14.4471
15.0379
15.563
16.0009
16.3297
16.5296
16.5844
16.4833
16.2223
6.84866
6.84245
6.75904
6.60145
6.37559
6.08952
5.75256
5.37446
4.9647
4.53202
4.08409
3.62743
3.16745
2.7085
2.25409
1.80708
1.36993
0.944848
0.534085
0.14007
-0.23441
-0.586098
-0.911222
-1.20554
-1.46452
-1.68361
-1.85874
-1.98687
-2.06658
-2.09861
-2.08603
-2.03395
-1.94867
-1.83634
-1.70162
-1.54668
-1.37098
-1.17191
-0.94613
-0.691317
-0.407787
-0.0996032
0.225285
0.55605
0.880965
1.18981
1.47595
1.73754
1.97758
2.20308
2.42348
2.6488
2.88777
3.14635
3.4268
3.72759
4.04427
4.37105
4.70271
5.03628
5.37212
5.71414
6.06935
6.44687
6.85674
7.30858
7.81037
8.36748
8.9821
9.65319
10.3771
11.1484
11.9615
12.8109
13.6925
14.6027
15.5378
16.4932
17.462
18.4335
19.3925
20.3184
21.1855
21.9636
22.6193
23.1189
23.4306
23.5283
23.3944
23.0222
8.98983
8.98249
8.86828
8.652
8.34289
7.95325
7.49698
6.98824
6.4404
5.86542
5.27348
4.67298
4.07062
3.47162
2.88001
2.29897
1.73111
1.1788
0.644469
0.130881
-0.358627
-0.81995
-1.2481
-1.6372
-1.98068
-2.27165
-2.5036
-2.6713
-2.77191
-2.80606
-2.77842
-2.6975
-2.5742
-2.41935
-2.24098
-2.04232
-1.82125
-1.57151
-1.28513
-0.955602
-0.581081
-0.166585
0.275436
0.726781
1.16722
1.57912
1.95133
2.28119
2.57444
2.84347
3.10453
3.37461
3.6683
3.99525
4.35851
4.7543
5.17344
5.60435
6.03664
6.46417
6.88677
7.3104
7.74617
8.20859
8.71351
9.27606
9.90871
10.6196
11.4117
12.2825
13.2249
14.2298
15.2876
16.3907
17.5339
18.7142
19.9297
21.177
22.4501
23.7374
25.0205
26.2731
27.4602
28.539
29.4615
30.1772
30.6384
30.8045
30.6475
30.1565
11.2838
11.276
11.124
10.8358
10.4257
9.91247
9.31654
8.6579
7.95476
7.22277
6.47475
5.72078
4.96854
4.2237
3.49037
2.77155
2.0696
1.38658
0.724733
0.0867918
-0.523635
-1.10176
-1.64136
-2.1347
-2.57257
-2.94481
-3.24109
-3.45242
-3.57304
-3.60256
-3.54764
-3.4222
-3.24527
-3.03634
-2.80971
-2.57036
-2.31297
-2.02405
-1.68641
-1.28488
-0.812161
-0.27345
0.311882
0.912913
1.49425
2.02525
2.48734
2.87718
3.2058
3.49493
3.77221
4.066
4.40049
4.7914
5.24291
5.74687
6.28514
6.83515
7.3769
7.89862
8.39936
8.88861
9.38405
9.9085
10.4867
11.142
11.8937
12.7542
13.7274
14.8077
15.9822
17.2342
18.5478
19.9118
21.3208
22.7744
24.2747
25.8229
27.4166
29.046
30.6915
32.3211
33.8894
35.3384
36.6
37.601
38.2699
38.5445
38.3805
37.7592
13.7839
13.7763
13.5755
13.1944
12.6564
11.9903
11.2259
10.3912
9.51032
8.60288
7.68425
6.76576
5.8555
4.95892
4.07956
3.21963
2.38061
1.56372
0.77044
0.00297743
-0.735238
-1.43908
-2.10128
-2.71206
-3.25899
-3.72732
-4.10088
-4.36413
-4.50532
-4.52063
-4.41838
-4.22102
-3.9624
-3.67882
-3.39674
-3.12439
-2.85012
-2.54679
-2.17974
-1.7167
-1.13835
-0.447555
0.325586
1.12723
1.89358
2.5704
3.12714
3.56111
3.89378
4.16323
4.41586
4.69853
5.05119
5.5
6.05146
6.68968
7.37958
8.07746
8.74561
9.3629
9.92809
10.4575
10.9797
11.5307
12.1483
12.8686
13.7214
14.7261
15.8882
17.1967
18.6274
20.1491
21.7347
23.3673
25.0428
26.7667
28.5497
30.4025
32.3307
34.3307
36.3845
38.4562
40.4895
42.4066
44.1126
45.5019
46.468
46.9149
46.771
46.0032
16.5608
16.5545
16.2859
15.7784
15.0712
14.2092
13.2364
12.191
11.104
9.99916
8.89362
7.79905
6.72292
5.66954
4.64099
3.63788
2.66006
1.7072
0.779339
-0.122547
-0.995899
-1.83591
-2.63475
-3.38083
-4.05807
-4.64571
-5.11892
-5.45103
-5.61827
-5.60742
-5.42548
-5.10745
-4.71493
-4.31856
-3.96921
-3.68062
-3.42859
-3.16077
-2.81076
-2.31407
-1.62592
-0.739739
0.298729
1.39281
2.42228
3.28889
3.94411
4.39129
4.67317
4.85615
5.01668
5.23069
5.56386
6.0612
6.73548
7.55847
8.46289
9.36294
10.1879
10.9025
11.5087
12.0369
12.5344
13.0571
13.6623
14.4047
15.3306
16.4719
17.8381
19.4102
21.1415
22.9723
24.8538
26.7611
28.6951
30.6738
32.7242
34.8731
37.1415
39.5376
42.0512
44.6466
47.2563
49.7784
52.0807
54.0117
55.4133
56.1357
56.0592
55.1222
19.7147
19.7098
19.3396
18.6496
17.7082
16.5873
15.3508
14.05
12.723
11.3962
10.087
8.80569
7.55757
6.34446
5.16585
4.01982
2.90374
1.8149
0.751071
-0.288876
-1.30425
-2.29165
-3.24383
-4.14829
-4.98572
-5.72843
-6.33966
-6.77483
-6.98714
-6.94006
-6.62804
-6.10067
-5.47253
-4.89011
-4.45374
-4.18375
-4.02936
-3.8927
-3.65259
-3.18678
-2.39829
-1.25087
0.192117
1.75173
3.18574
4.31203
5.06091
5.45971
5.59519
5.58153
5.54067
5.59143
5.84034
6.36779
7.20554
8.31019
9.55265
10.7567
11.7892
12.5983
13.2019
13.6604
14.053
14.4646
14.979
15.6765
16.6295
17.8937
19.4917
21.3942
23.512
25.7227
27.9352
30.1165
32.2825
34.4775
36.7561
39.1714
41.7677
44.5747
47.5995
50.8156
54.1485
57.466
60.5826
63.2831
65.3357
66.5059
66.5858
65.4499
23.398
23.3905
22.8529
21.8822
20.6031
19.131
17.557
15.946
14.3407
12.767
11.2393
9.76362
8.34094
6.96889
5.64306
4.35794
3.10755
1.88599
0.687866
-0.49109
-1.65335
-2.79853
-3.92199
-5.01263
-6.05005
-7.00077
-7.81419
-8.41979
-8.72977
-8.65442
-8.14094
-7.23926
-6.16456
-5.25166
-4.69901
-4.52076
-4.60494
-4.77397
-4.81987
-4.52459
-3.68805
-2.18814
-0.0830421
2.29085
4.39161
5.87788
6.68103
6.90649
6.73114
6.3452
5.93183
5.66587
5.71476
6.22658
7.29026
8.86245
10.6967
12.3964
13.7111
14.5887
15.1029
15.3775
15.5432
15.7228
16.0308
16.5791
17.4791
18.8333
20.7053
23.067
25.7472
28.4687
31.06
33.4922
35.8265
38.1591
40.5894
43.207
46.0885
49.2959
52.8703
56.8141
61.0607
65.4404
69.6814
73.4845
76.5264
78.4436
78.8602
77.496
27.8662
27.8336
26.9885
25.5576
23.7748
21.8206
19.8159
17.8332
15.9122
14.0714
12.3162
10.6449
9.05118
7.52658
6.06151
4.64596
3.26984
1.92334
0.597143
-0.717224
-2.02684
-3.33649
-4.64713
-5.95329
-7.23885
-8.47042
-9.58751
-10.49
-11.0268
-10.9992
-10.2124
-8.62658
-6.62323
-5.09415
-4.40487
-4.47965
-5.05811
-5.83228
-6.47812
-6.64148
-5.93279
-3.99664
-0.745106
3.22333
6.48229
8.4273
9.13281
8.93026
8.1702
7.14826
6.1107
5.28691
4.92253
5.29067
6.64265
9.03727
12.0343
14.5902
16.2621
17.1021
17.3486
17.2509
17.0132
16.7958
16.7362
16.9747
17.6745
19.0269
21.2132
24.2807
27.9224
31.4016
34.4132
37.0081
39.3719
41.699
44.1521
46.8616
49.9389
53.4877
57.6078
62.3752
67.7797
73.6128
79.4092
84.7805
89.3346
92.5402
93.697
92.1176
33.6088
33.4454
31.9662
29.7388
27.192
24.5821
22.042
19.6308
17.3677
15.2518
13.2722
11.4142
9.66166
7.99838
6.4086
4.87717
3.38953
1.93156
0.489537
-0.949987
-2.40001
-3.8727
-5.37834
-6.92316
-8.50493
-10.1044
-11.6693
-13.0862
-14.1357
-14.4368
-13.4337
-10.6146
-6.39853
-3.72698
-3.01013
-3.71288
-5.22909
-7.07496
-8.83074
-10.0137
-9.94462
-7.69895
-2.43927
5.17753
10.465
12.7615
12.8921
11.7567
9.98625
7.97378
5.98173
4.24644
3.07557
2.93813
4.49367
8.34464
14.0068
18.0569
20.0108
20.47
20.0897
19.3257
18.4538
17.6411
17.0123
16.7058
16.93
18.0195
20.4518
24.6672
30.3311
35.0073
38.3657
40.8562
42.9694
45.0567
47.3444
49.9858
53.109
56.8555
61.412
67.0177
73.8799
81.8366
89.7472
97.2514
104.083
109.585
112.472
110.947
41.7617
40.9507
38.0203
34.3786
30.6989
27.2422
24.0815
21.214
18.6105
16.2348
14.0522
12.0309
10.143
8.36376
6.67114
5.04489
3.46609
1.91652
0.378068
-1.16782
-2.74068
-4.36152
-6.05313
-7.83978
-9.74541
-11.7879
-13.9638
-16.2112
-18.322
-19.7519
-19.2699
-14.6142
-3.94967
0.454879
0.428718
-1.77481
-4.92539
-8.44735
-12.0082
-15.1885
-17.0907
-15.7414
-7.52793
10.4854
18.7542
20.2137
18.4737
15.4971
12.1501
8.76926
5.48247
2.39271
-0.260013
-1.85275
-0.961229
5.04331
18.2998
24.5412
25.9107
25.0458
23.3824
21.5551
19.808
18.2207
16.8235
15.6719
14.9385
15.0777
17.1217
22.9668
34.1608
40.509
43.5668
45.246
46.6026
48.1241
50.0255
52.4146
55.3797
59.0551
63.7033
69.8486
78.4014
90.1241
100.668
110.688
120.742
130.393
137.595
137.752
55.7027
51.5059
45.097
39.0714
33.8836
29.4748
25.6976
22.4165
19.5243
16.9395
14.5994
12.4551
10.4675
8.60426
6.83797
5.14421
3.50059
1.88555
0.277447
-1.34662
-3.01199
-4.7481
-6.59063
-8.58457
-10.7883
-13.2786
-16.1548
-19.5322
-23.4877
-27.8194
-31.1151
-27.2655
7.51384
11.0171
7.00309
1.52718
-4.08659
-9.76326
-15.7331
-22.203
-28.9182
-33.6676
-26.7279
29.8252
36.8484
32.2726
25.8353
19.7703
14.3625
9.42918
4.69951
-0.0902121
-5.12176
-10.2207
-13.7786
-8.70076
32.6943
38.0403
35.0277
30.771
26.9104
23.6685
20.9317
18.5265
16.2805
14.0357
11.69
9.39297
8.31767
13.5637
44.9678
50.7482
50.7519
50.0994
49.9973
50.6434
52.0034
54.0124
56.6265
59.8522
63.8371
69.2113
78.3564
100.107
112.341
124.074
137.977
154.727
172.859
183.719
88.4399
65.2441
51.6196
42.5563
35.9447
30.7965
26.5983
23.0577
19.9948
17.291
14.8639
12.653
10.6123
8.7048
6.89997
5.17105
3.49368
1.84447
0.199723
-1.46594
-3.18137
-4.98128
-6.90991
-9.02701
-11.418
-14.213
-17.6234
-22.02
-28.1106
-37.3777
-53.2484
-84.4547
64.0146
32.4034
15.6823
5.0275
-3.15717
-10.6568
-18.7372
-28.8637
-43.5753
-68.4249
-117.37
120.487
71.6436
47.0105
32.6598
23.0964
15.8909
9.79536
4.00272
-2.22505
-9.88643
-20.8075
-39.0311
-74.7415
98.9984
63.5742
45.9352
35.9245
29.5466
25.0537
21.5769
18.6025
15.7353
12.544
8.37126
1.94846
-9.58938
-33.5077
92.6715
69.3043
58.8804
54.1586
52.3131
52.133
53.0449
54.7375
56.9908
59.5544
61.9683
63.1416
60.1568
123.792
124.731
134.331
151.11
177.065
218.588
291.923
1891.3
1789.39
1681.45
1567.83
1448.93
1325.2
1197.11
1065.15
929.806
791.56
650.889
508.255
364.109
218.891
73.0347
9.37775
8.96312
8.44451
7.8429
7.18085
6.48001
5.75934
5.03401
4.31504
3.60948
2.92084
2.2497
1.59433
0.951338
0.316214
15.7631
15.0537
14.1661
13.1385
12.0111
10.822
9.60409
8.38297
7.17688
5.99707
4.84869
3.73201
2.64348
1.57685
0.524041
22.3565
21.3217
20.0273
18.5334
16.9026
15.1926
13.4518
11.7167
10.0124
8.35319
6.74487
5.18618
3.67074
2.18853
0.727146
29.2574
27.8486
26.0872
24.0645
21.8725
19.5934
17.2931
15.0193
12.8024
10.6583
8.59135
6.59709
4.66478
2.7794
0.923169
36.5853
34.727
32.4075
29.7639
26.9288
24.0148
21.1074
18.2643
15.5191
12.8859
10.365
7.94596
5.61188
3.34112
1.10932
44.4899
42.0656
39.0513
35.6539
32.0631
28.4291
24.8568
21.4109
18.123
15.0009
12.0362
9.20973
6.49558
3.86385
1.28233
53.1675
49.9936
46.0775
41.7369
37.2403
32.781
28.4796
24.399
20.5604
16.9579
13.5688
10.3609
7.29673
4.33632
1.43847
62.8856
58.6628
53.5273
47.9751
42.3793
36.9743
31.8813
27.1448
22.7615
18.7011
14.9199
11.368
7.99393
4.74613
1.5737
74.0264
68.2423
61.3917
54.255
47.3261
40.8539
34.9254
29.5368
24.6391
20.1647
16.0411
12.1969
8.56465
5.08048
1.68384
87.1645
78.8865
69.5406
60.3256
51.815
44.1886
37.4286
31.437
26.0927
21.277
16.8824
12.8137
8.98705
5.32718
1.765
103.176
90.5974
77.5575
65.6905
55.4188
46.6558
39.1627
32.689
27.0169
21.9677
17.3973
13.1881
9.24242
5.47607
1.81395
123.284
102.767
84.3987
69.4585
57.5121
47.8519
39.8764
33.1388
27.3175
22.1791
17.5504
13.2988
9.31822
5.52058
1.82866
148.121
112.786
87.809
70.2311
57.3177
47.3618
39.351
32.6716
26.9345
21.8801
17.3261
13.1379
9.2109
5.45928
1.80874
169.455
112.446
83.8178
66.3374
54.1643
44.9252
37.4932
31.2613
25.8681
21.08
16.7354
12.7155
8.92802
5.29679
1.75576
1.0617
3.1861
5.31322
7.44394
9.57765
11.7116
13.8405
15.9565
18.0512
20.1227
22.1949
24.3663
26.929
30.6619
37.5488
1.1056
3.31746
5.53085
7.74513
9.95687
12.158
14.3331
16.4555
18.4813
20.341
21.9253
23.0561
23.3838
21.9311
14.9112
1.14901
3.44767
5.74771
8.04788
10.3432
12.6221
14.8618
17.021
19.0263
20.7498
21.9699
22.3028
21.0744
17.0657
8.10831
1.19193
3.57686
5.96433
8.35379
10.7406
13.1129
15.4461
17.6931
19.7666
21.5076
22.6297
22.6332
20.695
15.6365
6.34626
1.2341
3.7042
6.17944
8.6613
11.1478
13.6305
16.0897
18.4851
20.7374
22.6944
24.0659
24.3114
22.4818
17.1456
6.9467
1.27493
3.82788
6.38979
8.96539
11.5572
14.164
16.7773
19.3759
21.9126
24.2871
26.2833
27.4298
26.7031
22.0311
10.1125
1.31358
3.94527
6.59048
9.25795
11.956
14.6925
17.4747
20.3091
23.1999
26.1418
29.0902
31.8483
33.6636
31.9484
19.0465
1.34905
4.05318
6.77555
9.52901
12.3278
15.1889
18.1354
21.2026
24.451
27.9911
32.0288
36.9203
43.0748
49.6332
45.4737
1.38032
4.14834
6.93889
9.76837
12.6558
15.6255
18.7117
21.9699
25.4988
29.4938
34.3737
41.1142
52.2042
74.7598
132.169
1.40642
4.22776
7.07503
9.96722
12.9265
15.9806
19.1682
22.5485
26.2224
30.3812
35.4256
42.2865
53.3701
75.6803
132.536
1.42661
4.28909
7.17982
10.1193
13.1308
16.2426
19.4903
22.9226
26.6087
30.6528
35.215
40.5253
46.7381
52.6085
46.7023
1.44034
4.33071
7.25059
10.221
13.2653
16.4096
19.6838
23.1198
26.7457
30.5636
34.4838
38.1363
40.3427
37.7133
21.6298
1.4473
4.35175
7.28608
10.2713
13.33
16.4861
19.7642
23.1845
26.7487
30.4026
33.9376
36.7506
37.3043
32.1601
15.4291
1.44739
4.35193
7.28605
10.2704
13.3266
16.4774
19.7454
23.1485
26.6888
30.3234
33.8919
36.9328
38.2219
34.6525
19.0385
1.44066
4.33147
7.25101
10.2192
13.2571
16.387
19.6323
23.0167
26.5626
30.2894
34.2117
38.3304
42.5126
45.5081
38.2468
1.4273
4.29096
7.18199
10.1194
13.1234
16.2161
19.4221
22.7721
26.3102
30.1187
34.3943
39.6829
47.6263
63.4854
105.532
1.40763
4.23133
7.08058
9.97313
12.9279
15.9659
19.1115
22.3964
25.8693
29.6229
33.8726
39.1908
47.2419
63.275
105.487
1.38206
4.15388
6.94894
9.78337
12.6743
15.6406
18.7037
21.8897
25.2329
28.7818
32.608
36.7999
41.3133
44.883
38.1652
1.35113
4.0602
6.7898
9.55413
12.3681
15.2476
18.21
21.2734
24.453
27.7474
31.0887
34.1849
36.0391
33.634
19.1841
1.31545
3.95216
6.60642
9.29021
12.016
14.7967
17.6458
20.5758
23.5929
26.6796
29.739
32.4316
33.7217
30.7486
16.8123
1.27569
3.83186
6.40238
8.99695
11.6254
14.2979
17.025
19.8171
22.684
25.6303
28.6432
31.6516
34.3641
35.4759
28.1127
1.2326
3.70151
6.18152
8.67994
11.204
13.761
16.3586
19.0061
21.7194
24.534
27.5499
31.0763
36.1171
46.0879
73.3446
1.18691
3.56338
5.94773
8.34494
10.7595
13.1956
15.657
18.1491
20.6839
23.2973
26.1016
29.4487
34.4458
44.6948
72.7478
1.13934
3.4197
5.7049
7.99767
10.2999
12.6123
14.9339
17.2621
19.5935
21.9275
24.2757
26.6745
29.1267
30.9369
26.0461
1.0906
3.27259
5.45671
7.64367
9.833
12.0223
14.2058
16.3725
18.5009
20.5472
22.4143
23.8625
24.2529
21.8318
12.1226
1.0413
3.12393
5.20643
7.28787
9.36594
11.4359
13.4891
15.5092
17.4649
19.2911
20.8433
21.7847
21.331
17.7873
8.29338
0.991954
2.97531
4.95678
6.93427
8.9043
10.8611
12.7951
14.6903
16.5184
18.2249
19.696
20.6754
20.5544
17.8746
9.38956
0.942973
2.82795
4.70982
6.58573
8.45167
10.3018
12.1278
13.9179
15.656
17.3217
18.8899
20.3297
21.5545
21.9931
17.6342
0.894647
2.68271
4.4669
6.244
8.00986
9.75911
11.4852
13.1811
14.8438
16.4858
18.1726
20.133
23.1001
29.4427
47.3436
0.84716
2.54012
4.22883
5.90996
7.57945
9.23237
10.8632
12.4673
14.0456
15.6185
17.265
19.2369
22.3012
28.8653
47.1261
0.800607
2.40043
3.99596
5.58391
7.16041
8.72079
10.2596
11.7712
13.251
14.6997
16.1312
17.5818
19.0716
20.1647
16.9295
0.755007
2.26369
3.76829
5.26574
6.75244
8.22402
9.67482
11.097
12.4778
13.7927
14.9838
15.8992
16.1172
14.4695
7.99927
0.71032
2.12976
3.54553
4.95494
6.35488
7.74155
9.10975
10.4513
11.7503
12.9714
14.0277
14.7007
14.4582
12.1232
5.68575
0.666457
1.99835
3.32714
4.65064
5.96645
7.27178
8.56307
9.83488
11.0767
12.2645
13.3375
14.1378
14.2522
12.6255
6.79861
0.623295
1.86907
3.11239
4.35164
5.58521
6.81166
8.02982
9.23919
10.4405
11.637
12.8366
14.0509
15.2553
16.0444
13.3075
0.580693
1.74147
2.90044
4.05651
5.20886
6.35721
7.50258
8.64898
9.80753
11.0074
12.3252
13.9708
16.5465
21.9117
36.3982
0.53851
1.6151
2.69047
3.76394
4.83523
5.90475
6.97456
8.05024
9.14579
10.2956
11.5862
13.2447
15.9005
21.4446
36.222
0.496617
1.48958
2.48178
3.47286
4.46277
5.45206
6.44238
7.43765
8.4463
9.48589
10.5916
11.8259
13.2484
14.5654
12.7363
0.454909
1.36458
2.27385
3.18256
4.09071
4.99859
5.90672
6.81573
7.72527
8.63019
9.5077
10.2764
10.6696
9.8707
5.66949
0.4133
1.23986
2.0663
2.89262
3.71883
4.54492
5.37043
6.19341
7.00741
7.79347
8.49929
8.98755
8.91863
7.53869
3.55946
0.37172
1.11521
1.85884
2.60274
3.34703
4.09163
4.83586
5.5773
6.30895
7.01247
7.64194
8.08562
8.07806
7.01172
3.62976
0.330109
0.990453
1.65119
2.31261
2.975
3.63859
4.30324
4.968
5.63002
6.28288
6.91362
7.49706
7.97276
8.09285
6.39284
0.288411
0.865432
1.44307
2.0218
2.60216
3.18482
3.77057
4.3606
4.95749
5.56869
6.21817
6.98337
8.11447
10.438
16.8544
0.246577
0.739988
1.2342
1.72986
2.22775
2.72894
3.23496
3.74849
4.27505
4.82797
5.44243
6.21567
7.42817
9.94108
16.6673
0.204566
0.613996
1.02436
1.4364
1.85109
2.26973
2.69419
3.12739
3.57437
4.04459
4.5565
5.14301
5.83891
6.51838
5.78697
0.162354
0.487371
0.813361
1.14113
1.47171
1.80652
2.14741
2.4968
2.85762
3.23236
3.61888
3.99452
4.2612
4.07558
2.43625
0.119933
0.360087
0.601159
0.843934
1.08946
1.33915
1.59478
1.85836
2.13131
2.41205
2.68894
2.92182
2.99773
2.64244
1.33085
0.0773183
0.232186
0.387805
0.544873
0.704385
0.86773
1.03674
1.21351
1.39972
1.59456
1.7897
1.95828
2.0339
1.87356
1.16311
0.0345502
0.103783
0.173481
0.244169
0.316712
0.392461
0.473397
0.562217
0.662257
0.777014
0.909089
1.05951
1.23415
1.48695
2.11764
-0.00830246
-0.0249167
-0.0414904
-0.0577651
-0.073109
-0.0863126
-0.0953056
-0.0967339
-0.0852668
-0.0523849
0.0159259
0.144164
0.380376
0.838271
1.86119
-0.05114
-0.153618
-0.256624
-0.36028
-0.46433
-0.567903
-0.669135
-0.764495
-0.847495
-0.906192
-0.91864
-0.845924
-0.62706
-0.202412
0.309952
-0.0938303
-0.281924
-0.471256
-0.662449
-0.855788
-1.051
-1.2469
-1.44068
-1.62642
-1.79191
-1.91211
-1.93725
-1.77713
-1.30373
-0.454765
-0.13621
-0.409338
-0.684542
-0.963051
-1.24584
-1.53349
-1.82599
-2.12228
-2.4192
-2.70884
-2.97136
-3.15698
-3.14449
-2.66562
-1.26142
-0.178087
-0.535275
-0.895477
-1.2606
-1.6324
-2.01248
-2.40229
-2.80324
-3.21684
-3.64438
-4.08374
-4.514
-4.83546
-4.66986
-2.84479
-0.219247
-0.659084
-1.10293
-1.55341
-2.0131
-2.48457
-2.97068
-3.47521
-4.00456
-4.57145
-5.20216
-5.94625
-6.86433
-7.82621
-7.11166
-0.259462
-0.780068
-1.30572
-1.83975
-2.38549
-2.94635
-3.52609
-4.12973
-4.76596
-5.4539
-6.24154
-7.25731
-8.86239
-12.1463
-20.7592
-0.298494
-0.897511
-1.50261
-2.11784
-2.74724
-3.39484
-4.06472
-4.7614
-5.49119
-6.26682
-7.12217
-8.15872
-9.69411
-12.7651
-20.9969
-0.336105
-1.01069
-1.6924
-2.38599
-3.09622
-3.82768
-4.58453
-5.36983
-6.18431
-7.02406
-7.87662
-8.7133
-9.45897
-9.79936
-7.8898
-0.372054
-1.11887
-1.87385
-2.64248
-3.43031
-4.24271
-5.08436
-5.95776
-6.85962
-7.77207
-8.64172
-9.33069
-9.50482
-8.39561
-4.41431
-0.406105
-1.22135
-2.04574
-2.88554
-3.74719
-4.63725
-5.56191
-6.52566
-7.52727
-8.54945
-9.53192
-10.3052
-10.4414
-8.986
-4.30481
-0.438035
-1.31742
-2.20685
-3.11329
-4.04418
-5.00755
-6.0121
-7.06699
-8.18034
-9.35408
-10.567
-11.7217
-12.483
-11.8161
-6.92323
-0.467645
-1.40648
-2.35606
-3.32396
-4.31847
-5.34904
-6.42709
-7.56744
-8.79115
-10.1311
-11.6421
-13.4109
-15.5159
-17.5806
-15.7591
-0.494779
-1.48802
-2.49245
-3.51602
-4.56755
-5.65737
-6.79858
-8.00971
-9.32089
-10.7891
-12.5377
-14.8663
-18.5762
-26.0431
-45.2173
-0.519339
-1.56174
-2.61547
-3.68855
-4.78988
-5.9298
-7.12126
-8.38222
-9.74128
-11.2518
-13.03
-15.3618
-19.0268
-26.3746
-45.3437
-0.541296
-1.62756
-2.72495
-3.84133
-4.98523
-6.16622
-7.39544
-8.68634
-10.0561
-11.5284
-13.1376
-14.931
-16.9192
-18.6348
-16.1715
-0.560687
-1.68559
-2.82116
-3.97487
-5.15464
-6.36894
-7.62652
-8.93538
-10.2995
-11.7094
-13.1166
-14.3645
-15.0005
-13.7962
-7.74871
-0.577616
-1.73615
-2.90469
-4.09018
-5.29991
-6.54138
-7.82173
-9.14579
-10.5107
-11.8918
-13.206
-14.2224
-14.3593
-12.3205
-5.88808
-0.592232
-1.77972
-2.97637
-4.18854
-5.42296
-6.6866
-7.98633
-9.32752
-10.7104
-12.1202
-13.5019
-14.6905
-15.2285
-13.8956
-7.73816
-0.604731
-1.81688
-3.03717
-4.27133
-5.52554
-6.80656
-8.12189
-9.48001
-10.8909
-12.368
-13.9313
-15.6101
-17.3965
-18.8207
-16.0594
-0.615351
-1.84833
-3.08824
-4.34006
-5.60933
-6.90248
-8.2275
-9.59554
-11.0253
-12.5553
-14.2801
-16.4544
-19.8156
-26.6518
-44.7675
-0.624373
-1.87492
-3.13096
-4.39656
-5.67637
-6.97606
-8.30299
-9.66795
-11.0896
-12.6072
-14.3162
-16.4739
-19.8209
-26.649
-44.765
-0.632131
-1.89763
-3.16696
-4.44305
-5.72944
-7.0305
-8.35184
-9.70071
-11.0871
-12.5257
-14.0404
-15.6671
-17.4083
-18.8067
-16.0485
-0.639013
-1.91764
-3.19817
-4.48227
-5.77214
-7.07066
-8.3813
-9.70717
-11.048
-12.391
-13.6864
-14.7804
-15.2331
-13.8506
-7.70571
-0.645462
-1.93627
-3.22683
-4.51737
-5.80866
-7.1022
-8.39995
-9.703
-11.007
-12.2889
-13.472
-14.3385
-14.3319
-12.2012
-5.79784
-0.651978
-1.95502
-3.25543
-4.55182
-5.84347
-7.13061
-8.41466
-9.6979
-10.9811
-12.2552
-13.4771
-14.5027
-14.9054
-13.5186
-7.49558
-0.659113
-1.97555
-3.28672
-4.58945
-5.88126
-7.16097
-8.42971
-9.6926
-10.9612
-12.2572
-13.6183
-15.0989
-16.7214
-18.0552
-15.4211
-0.667473
-1.9997
-3.32379
-4.63455
-5.9273
-7.19875
-8.44862
-9.68309
-10.9218
-12.2139
-13.6761
-15.5962
-18.7373
-25.3468
-42.935
-0.677708
-2.02944
-3.37005
-4.69202
-5.98797
-7.25132
-8.47801
-9.67038
-10.8452
-12.052
-13.4156
-15.2452
-18.3442
-25.0137
-42.7973
-0.690488
-2.06685
-3.42915
-4.76746
-6.07114
-7.32914
-8.53104
-9.66959
-10.7461
-11.781
-12.8312
-14.0124
-15.4712
-16.962
-14.9521
-0.70646
-2.11396
-3.50485
-4.86682
-6.18587
-7.44574
-8.62783
-9.71163
-10.6758
-11.499
-12.1556
-12.5863
-12.5757
-11.3407
-6.47777
-0.726177
-2.17257
-3.60054
-4.99589
-6.34154
-7.61615
-8.79267
-9.83653
-10.7031
-11.3323
-11.6365
-11.4664
-10.5301
-8.23859
-3.62313
-0.750014
-2.24393
-3.71879
-5.15935
-6.54639
-7.8545
-9.04942
-10.0843
-10.8948
-11.3912
-11.4465
-10.8784
-9.42545
-6.75012
-2.59535
-0.778079
-2.32848
-3.86076
-5.35987
-6.8059
-8.17128
-9.41706
-10.4878
-11.3045
-11.756
-11.6892
-10.9044
-9.16944
-6.28888
-2.28688
-0.810122
-2.42556
-4.0257
-5.59714
-7.12125
-8.57091
-9.90606
-11.0674
-11.9675
-12.4804
-12.4303
-11.5901
-9.70874
-6.60627
-2.37543
-0.845481
-2.53323
-4.21046
-5.86715
-7.48814
-9.04987
-10.5156
-11.828
-12.8992
-13.5954
-13.7197
-12.9986
-11.0958
-7.7071
-2.82505
-0.883056
-2.64814
-4.40941
-6.16183
-7.89601
-9.59532
-11.2312
-12.756
-14.091
-15.1071
-15.5958
-15.2276
-13.5144
-9.84481
-3.80797
-0.921331
-2.76564
-4.61442
-6.46903
-8.32794
-10.1846
-12.0238
-13.8155
-15.5038
-16.9849
-18.0666
-18.3901
-17.2913
-13.6262
-5.88744
-0.958445
-2.87997
-4.81529
-6.77312
-8.76126
-10.7857
-12.8489
-14.9466
-17.0601
-19.1395
-21.0637
-22.54
-22.8498
-20.2362
-10.7697
-0.992318
-2.98468
-5.00045
-7.05604
-9.16918
-11.3596
-13.6499
-16.0664
-18.6396
-21.4014
-24.3713
-27.4993
-30.4381
-31.6044
-24.0358
-1.02081
-3.07308
-5.15786
-7.29887
-9.52326
-11.8639
-14.3628
-17.0769
-20.0876
-23.5183
-27.5687
-32.5892
-39.2568
-49.0377
-65.4284
119.417
89.1904
70.8895
58.2921
48.7855
41.157
34.7709
29.2565
24.3769
19.9702
15.9185
12.1315
8.53635
5.07146
1.68221
43.6579
56.9689
54.3101
48.4754
42.4064
36.7561
31.6162
26.9403
22.6545
18.6864
14.9712
11.4524
8.07972
4.80826
1.59622
19.2898
35.8364
39.9352
38.8205
35.7357
32.0002
28.1385
24.3526
20.7111
17.2267
13.8874
10.6714
7.55271
4.50373
1.4966
10.222
23.3476
29.1801
30.5331
29.5162
27.3314
24.6078
21.6641
18.6584
15.6657
12.7177
9.82281
6.97716
4.17007
1.38727
6.23642
15.9231
21.5351
23.891
24.1071
23.0363
21.2294
19.0183
16.5962
14.0735
11.5108
8.93983
6.37472
3.81948
1.27217
4.18557
11.3279
16.1508
18.7344
19.5912
19.252
18.1314
16.5185
14.6037
12.5088
10.3096
8.05262
5.76533
3.46332
1.15501
2.98799
8.34305
12.3215
14.7767
15.9055
16.0099
15.375
14.2281
12.7361
11.0162
9.14829
7.18631
5.16607
3.11148
1.039
2.22155
6.3141
9.54962
11.7399
12.9309
13.2809
12.9738
12.1771
11.0266
9.62609
8.05219
6.36036
4.59057
2.77202
0.926824
1.6985
4.8802
7.5035
9.39669
10.5403
11.0079
10.9124
10.3715
9.49045
8.35627
7.03785
5.58843
4.04887
2.45101
0.8205
1.32492
3.83399
5.96427
7.5739
8.61882
9.12572
9.16019
8.80199
8.12991
7.21425
6.11438
4.87899
3.5476
2.15262
0.721452
1.04909
3.05076
4.78648
6.14313
7.07083
7.57145
7.68046
7.45029
6.93838
6.20002
5.28492
4.23613
3.09042
1.87932
0.630543
0.840261
2.45216
3.87186
5.01012
5.81929
6.289
6.43614
6.29411
5.90398
5.30842
4.5482
3.66051
2.6786
1.63217
0.548167
0.679071
1.98699
3.1526
4.10556
4.80339
5.23043
5.39251
5.31011
5.01213
4.53108
3.89992
3.15025
2.31154
1.41108
0.474344
0.552745
1.62061
2.58095
3.3781
3.97544
4.35577
4.51856
4.47572
4.24732
3.8579
3.33388
2.70177
1.98732
1.21515
0.408815
0.452534
1.32888
2.12257
2.78933
3.29812
3.6321
3.78732
3.77012
3.59424
3.27814
2.84283
2.31043
1.70316
1.04291
0.351127
0.372263
1.09451
1.75231
2.3102
2.74212
3.03252
3.17576
3.17465
3.03849
2.78109
2.41917
1.97104
1.45575
0.892561
0.300701
0.30746
0.904864
1.45141
1.9185
2.28437
2.53507
2.66438
2.67292
2.56686
2.35658
2.05533
1.67825
1.24158
0.762105
0.256897
0.254815
0.750521
1.20567
1.59707
1.90655
2.12187
2.23682
2.25071
2.16758
1.99519
1.74411
1.42682
1.0571
0.649509
0.219051
0.211834
0.624327
1.00419
1.33249
1.59408
1.77835
1.8794
1.89584
1.83023
1.68842
1.47883
1.21177
0.898904
0.552782
0.18651
0.17661
0.520784
0.83849
1.1142
1.33529
1.49259
1.58072
1.59792
1.54577
1.4287
1.25344
1.02852
0.763787
0.470037
0.158651
0.147664
0.435614
0.70194
0.933845
1.12076
1.25484
1.33125
1.34813
1.30638
1.20936
1.06251
0.872884
0.648812
0.399532
0.134896
0.123838
0.365455
0.589282
0.784716
0.942895
1.05713
1.12312
1.13903
1.10533
1.02462
0.901267
0.741159
0.55133
0.339685
0.114721
0.10422
0.307645
0.496332
0.661448
0.795538
0.892891
0.949744
0.964352
0.936922
0.869458
0.765537
0.630062
0.468989
0.289081
0.0976521
0.0880821
0.260064
0.419744
0.559715
0.673682
0.756768
0.805694
0.818857
0.796301
0.739604
0.65171
0.536731
0.399723
0.246472
0.0832738
0.0748477
0.221023
0.356837
0.476032
0.573264
0.644357
0.686467
0.698157
0.679379
0.631404
0.556684
0.458689
0.341731
0.210768
0.0712202
0.0640573