/*--------------------------------*- C++ -*----------------------------------*\
| =========                 |                                                 |
| \\      /  F ield         | OpenFOAM: The Open Source CFD Toolbox           |
|  \\    /   O peration     | Version:  5.x                                   |
|   \\  /    A nd           | Web:      www.OpenFOAM.org                      |
|    \\/     M anipulation  |                                                 |
\*---------------------------------------------------------------------------*/
FoamFile
{
    version     2.0;
    format      ascii;
    class       volScalarField;
    location    "12.6";
    object      gradTx;
}
// * * * * * * * * * * * * * * * * * * * * * * * * * * * * * * * * * * * * * //

dimensions      [0 -1 0 1 0 0 0];

internalField   nonuniform List<scalar> 
6300
(
52.2518
52.0958
51.7837
51.3156
50.6917
49.9124
48.9791
47.8941
46.6612
45.2863
43.7783
42.149
40.4143
38.5934
36.7097
52.4055
52.2495
51.9375
51.4692
50.8447
50.0643
49.1287
48.0399
46.801
45.4175
43.8976
42.2527
40.4985
38.6546
36.7449
52.7128
52.557
52.2451
51.7767
51.1515
50.369
49.4294
48.3335
47.0834
45.6832
44.1398
42.4639
40.6706
38.7799
36.817
53.1737
53.0182
52.7068
52.2388
51.6132
50.8287
49.8843
48.7792
47.5137
46.0899
44.5127
42.7908
40.9383
38.9757
36.9303
53.7877
53.6329
53.3229
52.8563
52.2315
51.4461
50.4975
49.3831
48.1003
46.6482
45.0282
43.2462
41.3142
39.2528
37.0917
54.554
54.4006
54.093
53.6297
53.0079
52.2244
51.2745
50.153
48.8541
47.3722
45.7038
43.8496
41.8178
39.6277
37.3124
55.4713
55.32
55.0166
54.559
53.9439
53.1667
52.2209
51.0982
49.7886
48.2806
46.5632
44.6287
42.4779
40.1261
37.6096
56.5373
56.3892
56.092
55.6434
55.0397
54.2752
53.3418
52.2282
50.9193
49.3962
47.6375
45.6221
43.3369
40.7875
38.011
57.749
57.6051
57.3163
56.8805
56.2938
55.5502
54.6406
53.5511
52.2619
50.7454
48.9662
46.8831
44.4582
41.6743
38.5615
59.1019
58.9633
58.6852
58.2659
57.7023
56.9889
56.1167
55.0713
53.8293
52.3551
50.5966
48.4839
45.9364
42.8881
39.3386
60.591
60.4583
60.1927
59.7932
59.258
58.5838
57.7637
56.7855
55.6264
54.2467
52.5789
50.5173
47.9136
44.6011
40.4847
62.21
62.0837
61.8314
61.4535
60.9503
60.3218
59.5662
58.6779
57.6418
56.4239
54.9527
53.0907
50.5974
47.1162
42.285
63.9525
63.8324
63.5931
63.2363
62.7652
62.1841
61.4989
60.7154
59.8365
58.8518
57.715
56.293
54.2667
50.9792
45.3807
65.8124
65.6976
65.4694
65.1307
64.6872
64.1478
63.5269
62.8457
62.1343
61.4293
60.7599
60.097
59.1948
57.1507
51.4325
67.7843
67.6734
67.4532
67.1272
66.7022
66.1902
65.6122
65.0033
64.423
63.9686
63.7957
64.1376
65.2622
66.9935
65.5217
34.9511
33.3432
31.7441
30.1703
28.6372
27.1593
25.7491
24.4174
23.1731
22.0231
20.9726
20.025
19.1824
18.4458
17.8148
17.2886
16.8652
16.5421
16.3163
16.1838
16.1402
16.1802
16.2978
16.4859
16.7368
17.0418
17.3914
17.7756
18.184
18.6062
19.0324
19.4531
19.86
20.2454
20.6027
20.9257
21.2088
21.446
21.6317
21.7602
21.8259
21.8241
21.7513
21.6055
21.3864
21.0954
20.7351
20.3091
19.8205
19.2721
18.6654
18.0005
17.2761
16.4897
15.6381
14.7177
13.7252
12.6577
11.5128
10.2886
8.9829
7.5932
6.11591
4.54604
2.87699
1.10045
-0.793407
-2.81561
-4.97792
-7.29236
-9.77068
-12.424
-15.2626
-18.2957
-21.5313
-24.9764
-28.6366
-32.5159
-36.6165
-40.9377
-45.4756
-50.2219
-55.1631
-60.2799
-65.5464
-70.9304
-76.3934
-81.8916
-87.3774
-92.8011
34.9607
33.3289
31.7063
30.1102
28.5567
27.0606
25.6349
24.2905
23.0363
21.8789
20.8234
19.8728
19.0291
18.2927
17.6633
17.1397
16.7199
16.4014
16.1811
16.0551
16.0191
16.0679
16.1954
16.3949
16.6583
16.9769
17.3409
17.74
18.1632
18.5998
19.0394
19.4723
19.89
20.2851
20.6512
20.9825
21.2738
21.5194
21.7134
21.8497
21.9222
21.9256
21.8556
21.7102
21.4891
21.1942
20.8292
20.3983
19.9059
19.3553
18.7485
18.0855
17.3648
16.5831
15.7365
14.8209
13.8326
12.7686
11.6267
10.4055
9.10353
7.71903
6.24894
4.68865
3.03161
1.26928
-0.608636
-2.61383
-4.75879
-7.05621
-9.51843
-12.1569
-14.9822
-18.0035
-21.2291
-24.666
-28.3202
-32.1965
-36.2977
-40.6246
-45.1743
-49.9399
-54.9088
-60.0626
-65.3755
-70.8147
-76.3406
-81.9072
-87.4645
-92.9597
34.9805
33.2998
31.6292
29.9874
28.3921
26.8593
25.4025
24.0328
22.7589
21.5872
20.5221
19.566
18.7202
17.9847
17.3587
16.8405
16.4281
16.1187
15.9093
15.7962
15.7752
15.8414
15.9889
16.2109
16.4996
16.8458
17.2393
17.6688
18.1225
18.5885
19.0553
19.5127
19.9518
20.3657
20.7488
21.0963
21.4038
21.6662
21.8773
22.0301
22.1173
22.1317
22.0679
21.923
21.6971
21.3934
21.0173
20.5754
20.0742
19.5187
18.9117
18.2531
17.5405
16.7692
15.9337
15.0284
14.0486
12.991
11.8543
10.6381
9.34272
7.96778
6.51161
4.97038
3.33767
1.60446
-0.240638
-2.21076
-4.32002
-6.58261
-9.01207
-11.6206
-14.4191
-17.4168
-20.622
-24.0419
-27.6832
-31.5521
-35.6531
-39.9894
-44.5609
-49.3634
-54.3869
-59.6144
-65.0209
-70.5724
-76.2268
-81.934
-87.6383
-93.2808
35.012
33.2549
31.5091
29.7962
28.1365
26.5474
25.0435
23.6361
22.3335
21.1412
20.0627
19.0995
18.2517
17.5184
16.898
16.3884
15.9871
15.6914
15.4981
15.404
15.4052
15.4971
15.6743
15.9304
16.2574
16.646
17.085
17.562
18.0633
18.5751
19.084
19.5784
20.0492
20.4899
20.8967
21.2669
21.598
21.8858
22.1242
22.3044
22.4162
22.4495
22.3961
22.2515
22.0164
21.6959
21.2992
20.8371
20.32
19.7557
19.1484
18.4979
17.7999
17.0472
16.2309
15.3427
14.3759
13.3271
12.1959
10.9845
9.69605
8.33316
6.8965
5.3836
3.7883
2.10064
0.30734
-1.60734
-3.66037
-5.86861
-8.24757
-10.8106
-13.5687
-16.5309
-19.705
-23.0982
-26.7181
-30.5723
-34.6688
-39.0144
-43.6137
-48.4674
-53.5697
-58.907
-64.4555
-70.1802
-76.0349
-81.9628
-87.899
-93.7738
35.0579
33.1923
31.34
29.5272
27.7778
26.1117
24.5444
23.0874
21.748
20.5305
19.4366
18.466
17.6175
16.8887
16.277
15.7795
15.3934
15.1157
14.9436
14.874
14.9038
15.0292
15.2455
15.547
15.9259
16.3727
16.8753
17.4194
17.9884
18.5651
19.1329
19.6775
20.189
20.6622
21.0963
21.4931
21.8535
22.176
22.454
22.6761
22.8273
22.8913
22.8547
22.7098
22.4576
22.1073
21.6745
21.1773
20.6329
20.0538
19.4465
18.8102
18.1375
17.416
16.6312
15.7694
14.8207
13.7812
12.6526
11.4414
10.1562
8.80445
7.39088
5.91525
4.37173
2.74882
1.03004
-0.80469
-2.77717
-4.90865
-7.21779
-9.71938
-12.4241
-15.3395
-18.4719
-21.8276
-25.4145
-29.243
-33.3248
-37.6729
-42.2991
-47.2118
-52.4127
-57.8939
-63.6345
-69.5989
-75.7355
-81.9774
-88.2457
-94.4537
35.1221
33.109
31.1125
29.1658
27.298
25.5323
23.8855
22.3682
20.9861
19.7409
18.6318
17.6561
16.8101
16.0897
15.4908
15.0097
14.6429
14.3874
14.2406
14.2003
14.2642
14.4297
14.6936
15.0513
15.4961
16.0184
16.6054
17.24
17.9016
18.5673
19.2143
19.8235
20.383
20.8898
21.3491
21.7706
22.163
22.5292
22.8633
23.1492
23.363
23.4773
23.4681
23.3217
23.0392
22.6368
22.1417
21.5849
20.9947
20.3918
19.7857
19.1744
18.5447
17.8754
17.1418
16.3206
15.3959
14.3629
13.2277
12.0047
10.7115
9.36445
7.97432
6.5444
5.06926
3.53488
1.91963
0.196282
-1.66497
-3.69274
-5.91076
-8.3354
-10.9757
-13.8354
-16.9167
-20.2232
-23.7627
-27.5478
-31.5964
-35.9299
-40.5708
-45.5398
-50.8507
-56.5055
-62.4896
-68.7679
-75.2822
-81.9519
-88.6766
-95.3439
35.2112
33.0005
30.8117
28.6892
26.6699
24.7807
23.0389
21.4533
20.0259
18.7545
17.6342
16.6586
15.821
15.1149
14.5344
14.0746
13.7314
13.5019
13.3838
13.376
13.4776
13.6879
14.006
14.4295
14.9538
15.5705
16.2662
17.021
17.8082
18.5956
19.3493
20.0403
20.652
21.1848
21.6555
22.0892
22.5091
22.9279
23.341
23.7252
24.041
24.2402
24.2783
24.1286
23.7924
23.299
22.6968
22.0395
21.3742
20.7335
20.1318
19.5642
19.008
18.4269
17.7778
17.0201
16.1267
15.0913
13.9288
12.6684
11.3441
9.98607
8.61475
7.23838
5.85187
4.43722
2.96476
1.39577
-0.312984
-2.20284
-4.30604
-6.64072
-9.21097
-12.0119
-15.0367
-18.2829
-21.7564
-25.4726
-29.457
-33.743
-38.369
-43.3743
-48.7919
-54.6412
-60.9194
-67.5951
-74.6033
-81.8446
-89.1879
-96.4799
35.3353
32.859
30.4141
28.0629
25.8531
23.8158
21.9666
20.3094
18.84
17.5496
16.4273
15.4616
14.6419
13.9585
13.4037
12.971
12.6558
12.4552
12.3678
12.3935
12.5337
12.7905
13.166
13.662
14.2777
15.0082
15.8412
16.7547
17.7138
18.6716
19.5738
20.3707
21.0336
21.5686
22.0144
22.4265
22.8561
23.3337
23.8594
24.3989
24.886
25.234
25.3579
25.2033
24.771
24.1171
23.3305
22.5048
21.7173
21.0183
20.4281
19.9368
19.5064
19.0758
18.5694
17.9143
17.0613
16.0021
14.7702
13.4236
12.025
10.6264
9.26215
7.94665
6.67476
5.42261
4.14871
2.79642
1.29974
-0.405689
-2.36789
-4.60667
-7.11387
-9.86563
-12.8374
-16.015
-19.3998
-23.0106
-26.8826
-31.0654
-35.6201
-40.6138
-46.1102
-52.1577
-58.7753
-65.9414
-73.5866
-81.5883
-89.7707
-97.916
35.5108
32.6706
29.8804
27.2316
24.7868
22.579
20.617
18.8944
17.3957
16.102
14.994
14.0538
13.2656
12.6166
12.0964
11.6975
11.4146
11.245
11.1881
11.2457
11.4215
11.7213
12.1521
12.7215
13.4359
14.2975
15.2998
16.4218
17.6205
18.8269
19.9493
20.893
21.5987
22.0797
22.421
22.7379
23.1329
23.6693
24.357
25.147
25.9302
26.5498
26.8374
26.6769
26.0677
25.1252
24.0197
22.9144
21.932
21.1457
20.5813
20.2208
20.0046
19.8329
19.5745
19.093
18.292
17.1613
15.7762
14.2534
12.7054
11.2169
9.83901
8.59186
7.46898
6.43908
5.44538
4.40485
3.21299
1.76118
-0.0314248
-2.18597
-4.66441
-7.40229
-10.3415
-13.4481
-16.7172
-20.1719
-23.8597
-27.8513
-32.2382
-37.1282
-42.6337
-48.8519
-55.8395
-63.5959
-72.0545
-81.0695
-90.4041
-99.7367
35.7654
32.4088
29.1419
26.1053
23.3783
20.9869
18.9219
17.1561
15.6555
14.3864
13.3186
12.4263
11.6884
11.0885
10.6141
10.2564
10.0099
9.87199
9.84322
9.92712
10.1304
10.463
10.9381
11.5718
12.3816
13.3834
14.5856
15.9777
17.5155
19.1025
20.5811
21.7573
22.4863
22.7911
22.8621
22.9358
23.2053
23.7858
24.7065
25.904
27.2091
28.3425
28.961
28.7956
27.8434
26.3673
24.7077
23.146
21.8634
20.9529
20.44
20.2964
20.4381
20.714
20.9003
20.7309
19.9971
18.686
16.9801
15.1189
13.2995
11.6478
10.2272
9.05782
8.12903
7.40321
6.8093
6.231
5.50045
4.41869
2.82622
0.701192
-1.84125
-4.64885
-7.60418
-10.6466
-13.7672
-16.9967
-20.3986
-24.0672
-28.131
-32.755
-38.1298
-44.4368
-51.7948
-60.2376
-69.7192
-80.0883
-91.0379
-102.077
36.1477
32.0164
28.0704
24.5319
21.4855
18.9237
16.795
15.0347
13.581
12.3804
11.3899
10.5757
9.91191
9.37911
8.96329
8.6549
8.44829
8.34138
8.33564
8.43625
8.6526
8.99893
9.4952
10.1679
11.0501
12.1805
13.597
15.3231
17.339
19.5335
21.6475
23.2647
23.9838
23.8384
23.2981
22.8508
22.8291
23.4113
24.6563
26.5052
28.734
30.8758
32.2121
32.0465
30.3721
27.8725
25.254
22.9745
21.2584
20.1865
19.7661
19.9603
20.6775
21.7235
22.7375
23.1807
22.5327
20.7786
18.407
15.9236
13.6519
11.7453
10.2534
9.17692
8.49649
8.1771
8.15047
8.27621
8.29344
7.8115
6.45062
4.18939
1.36378
-1.68254
-4.74122
-7.73253
-10.6597
-13.5729
-16.553
-19.7131
-23.2164
-27.2997
-32.2822
-38.507
-46.1864
-55.382
-66.1037
-78.269
-91.5413
-105.159
36.7503
31.3556
26.4107
22.2488
18.8939
16.2362
14.137
12.4717
11.1413
10.0713
9.20689
8.50818
7.94636
7.50087
7.15737
6.90644
6.74276
6.66475
6.67454
6.77835
6.98727
7.31861
7.79791
8.46168
9.36101
10.5651
12.1621
14.2506
16.9045
20.0798
23.4283
26.0643
26.7252
25.4532
23.5995
22.1519
21.5822
22.0818
23.7355
26.5584
30.3829
34.5678
37.625
37.4685
34.0881
29.5479
25.3113
21.9908
19.725
18.4815
18.2063
18.8706
20.4426
22.7781
25.3962
27.2008
26.6606
23.7594
19.9944
16.4227
13.4781
11.2453
9.68104
8.72544
8.34376
8.52916
9.27195
10.4774
11.805
12.4697
11.3713
8.49016
4.88659
1.3016
-1.97514
-4.91048
-7.57202
-10.0526
-12.4474
-14.8644
-17.466
-20.5488
-24.6447
-30.4814
-38.3935
-48.3271
-60.4075
-74.8535
-91.5451
-109.375
37.7656
30.0453
23.6224
18.8028
15.2975
12.7437
10.8534
9.42561
8.32612
7.46573
6.78485
6.24312
5.81295
5.47544
5.21784
5.03202
4.91357
4.8614
4.87777
4.96879
5.14535
5.42494
5.83464
6.41595
7.23268
8.38329
10.0188
12.3634
15.7183
20.3759
26.2341
31.7069
32.249
27.9044
23.315
20.188
18.7946
19.0894
21.1299
25.1686
31.5116
39.8822
47.6639
47.5316
39.4729
30.785
24.0484
19.4875
16.7189
15.3811
15.2933
16.4729
19.1075
23.4252
29.2254
34.5964
34.1874
27.9834
21.3028
16.0183
12.2788
9.78217
8.23186
7.44721
7.37416
8.0783
9.72692
12.5024
16.2706
19.6667
18.8587
13.831
8.38251
3.84183
0.299339
-2.48256
-4.74472
-6.65535
-8.30931
-9.74955
-11.0218
-12.3383
-14.4995
-19.4661
-27.6887
-38.1794
-51.3033
-68.2024
-89.9067
-115.466
39.6286
26.8658
18.5242
13.4632
10.3303
8.29524
6.90318
5.90647
5.16626
4.60134
4.16212
3.81712
3.54584
3.33468
3.17472
3.06039
2.98872
2.95912
2.97332
3.03585
3.15483
3.34368
3.624
4.03094
4.62327
5.50293
6.85404
9.02081
12.6556
18.9423
29.5936
44.4485
44.808
30.7072
20.9238
15.727
13.5751
13.5824
15.6461
20.4594
29.7194
46.0431
69.0972
69.0071
45.762
29.2112
19.6514
14.4026
11.6517
10.4803
10.5545
11.9796
15.348
21.9367
33.6715
50.314
50.058
32.8925
20.6
13.3887
9.28919
6.95604
5.67985
5.14402
5.28515
6.26715
8.55894
13.0973
21.2719
32.9167
32.422
19.7773
10.5709
4.94458
1.47857
-0.802975
-2.42347
-3.62751
-4.47876
-4.87616
-4.51365
-2.91102
-0.314096
-3.76151
-13.7169
-24.2386
-36.7613
-54.63
-82.7148
-124.97
43.359
17.3185
8.70111
5.34667
3.7815
2.92055
2.38339
2.0177
1.75376
1.55576
1.4035
1.28481
1.19199
1.12005
1.06578
1.02716
1.00318
0.99363
0.999168
1.02147
1.06357
1.13057
1.23087
1.37879
1.5999
1.94347
2.51442
3.5639
5.77363
11.223
26.8988
78.0617
78.1881
27.2916
11.9272
6.88039
5.24604
5.11361
6.20217
9.3464
17.7541
42.5106
123.855
123.823
42.4097
17.5693
9.04566
5.72011
4.30952
3.78554
3.87001
4.68739
6.95091
13.037
31.0493
90.3639
90.2766
30.7834
12.5796
6.27753
3.75578
2.60766
2.06153
1.86586
1.98511
2.56972
4.15568
8.45551
21.2755
63.6468
63.4801
20.7719
7.60391
2.93628
0.952119
-0.0752665
-0.701831
-1.10756
-1.30156
-1.09686
0.208999
5.0848
22.5755
21.315
1.07104
-7.41582
-14.5198
-26.3444
-55.1153
-141.268
-98.6293
-104.768
-110.596
-116.053
-121.09
-125.675
-129.785
-133.413
-136.558
-139.226
-141.426
-143.169
-144.465
-145.324
-145.751
-98.8628
-105.075
-110.965
-116.47
-121.54
-126.145
-130.264
-133.893
-137.032
-139.69
-141.879
-143.611
-144.899
-145.751
-146.175
-99.3379
-105.701
-111.717
-117.317
-122.453
-127.096
-131.231
-134.858
-137.983
-140.62
-142.786
-144.495
-145.763
-146.602
-147.019
-100.073
-106.672
-112.88
-118.625
-123.857
-128.552
-132.703
-136.32
-139.418
-142.019
-144.144
-145.817
-147.054
-147.87
-148.276
-101.099
-108.03
-114.505
-120.442
-125.794
-130.547
-134.707
-138.297
-141.346
-143.888
-145.953
-147.569
-148.761
-149.545
-149.934
-102.463
-109.842
-116.664
-122.839
-128.328
-133.131
-137.278
-140.811
-143.779
-146.23
-148.206
-149.743
-150.871
-151.612
-151.978
-104.238
-112.208
-119.468
-125.92
-131.543
-136.368
-140.458
-143.885
-146.725
-149.042
-150.893
-152.322
-153.366
-154.048
-154.385
-106.538
-115.281
-123.076
-129.828
-135.553
-140.337
-144.296
-147.544
-150.189
-152.316
-153.997
-155.284
-156.217
-156.825
-157.125
-109.544
-119.298
-127.725
-134.758
-140.499
-145.129
-148.84
-151.804
-154.166
-156.034
-157.49
-158.595
-159.39
-159.906
-160.16
-113.558
-124.639
-133.764
-140.976
-146.553
-150.835
-154.125
-156.664
-158.632
-160.158
-161.33
-162.21
-162.839
-163.245
-163.444
-119.113
-131.933
-141.712
-148.823
-153.9
-157.529
-160.157
-162.091
-163.538
-164.631
-165.458
-166.071
-166.507
-166.787
-166.924
-127.239
-142.263
-152.325
-158.701
-162.69
-165.222
-166.877
-168
-168.792
-169.368
-169.793
-170.105
-170.326
-170.467
-170.537
-140.17
-157.551
-166.619
-170.962
-172.935
-173.786
-174.124
-174.237
-174.259
-174.251
-174.237
-174.226
-174.219
-174.215
-174.214
-163.539
-181.148
-185.633
-185.588
-184.297
-182.857
-181.59
-180.559
-179.752
-179.135
-178.674
-178.337
-178.104
-177.957
-177.886
-214.339
-217.863
-209.174
-201.453
-195.804
-191.752
-188.814
-186.653
-185.051
-183.86
-182.979
-182.341
-181.898
-181.618
-181.482
69.6908
69.5821
69.3659
69.0453
68.6262
68.1203
67.5491
66.9524
66.4031
66.0355
66.1041
67.121
70.2651
78.9499
106.192
71.4974
71.3899
71.1753
70.8553
70.4335
69.9181
69.3256
68.6894
68.0749
67.6096
67.5419
68.3539
70.9633
76.9303
87.2442
73.3767
73.2698
73.0557
72.7337
72.3036
71.7672
71.1304
70.4093
69.641
68.9055
68.3667
68.3364
69.3276
71.8895
75.4896
75.328
75.2221
75.0088
74.6848
74.2453
73.6836
72.9915
72.1598
71.1821
70.0625
68.8361
67.6077
66.5991
66.1252
66.2658
77.3507
77.2468
77.0364
76.7139
76.2695
75.6884
74.9472
74.0097
72.8197
71.2914
69.3047
66.7242
63.4971
59.9321
57.1706
79.4433
79.3432
79.1397
78.8251
78.3863
77.8019
77.0369
76.0329
74.6899
72.8363
70.1836
66.2876
60.6276
53.1793
46.1889
81.603
81.5092
81.3177
81.0201
80.6017
80.0384
79.2904
78.2892
76.9124
74.9337
71.9237
67.074
58.9981
46.1066
30.3842
83.8256
83.7407
83.5669
83.2964
82.9151
82.4008
81.7174
80.8039
79.5505
77.7449
74.939
70.0987
60.711
40.9984
3.69315
86.1049
86.0313
85.8809
85.6469
85.3182
84.8781
84.3019
83.5522
82.5695
81.2485
79.3647
76.279
69.5922
48.1057
-48.8716
88.4328
88.3728
88.2503
88.0605
87.796
87.4474
87.0044
86.4598
85.8205
85.1406
84.6226
84.9575
88.749
107.636
202.964
90.8
90.7551
90.6638
90.5231
90.3294
90.0796
89.7751
89.4307
89.0968
88.9178
89.2858
91.2327
97.4204
114.078
149.326
93.1959
93.1671
93.1088
93.0197
92.8988
92.747
92.5711
92.3918
92.2623
92.3125
92.8498
94.5601
98.8183
107.606
120.205
95.6093
95.597
95.5724
95.5354
95.4865
95.4283
95.3669
95.3157
95.3
95.3662
95.5964
96.1151
97.0678
98.4836
99.8733
98.0285
98.0328
98.0418
98.0562
98.0777
98.1089
98.153
98.2122
98.2775
98.3033
98.1397
97.3657
94.9929
89.3764
80.5472
100.442
100.463
100.504
100.569
100.659
100.777
100.926
101.102
101.279
101.369
101.104
99.7235
95.1676
82.4974
55.1308
102.839
102.875
102.948
103.061
103.218
103.422
103.678
103.987
104.338
104.677
104.841
104.283
100.974
85.8216
10.7515
105.207
105.258
105.361
105.52
105.74
106.026
106.39
106.842
107.401
108.106
109.074
110.75
115.003
130.752
206.002
107.538
107.602
107.733
107.934
108.212
108.575
109.037
109.619
110.36
111.347
112.814
115.424
121.044
134.36
161.835
109.821
109.897
110.053
110.291
110.621
111.051
111.597
112.283
113.145
114.252
115.756
118.005
121.739
128.129
136.795
112.047
112.134
112.311
112.583
112.956
113.443
114.058
114.821
115.755
116.877
118.178
119.55
120.585
120.314
117.82
114.21
114.306
114.501
114.799
115.209
115.742
116.413
117.239
118.231
119.373
120.549
121.324
120.336
114.038
97.1611
116.303
116.407
116.616
116.935
117.374
117.942
118.657
119.537
120.599
121.843
123.196
124.317
123.772
115.104
64.8298
118.322
118.43
118.65
118.985
119.444
120.038
120.784
121.706
122.838
124.232
126.001
128.463
132.846
145.061
197.582
120.262
120.374
120.6
120.945
121.416
122.024
122.785
123.726
124.889
126.357
128.322
131.27
136.477
147.023
166.909
122.121
122.235
122.465
122.814
123.289
123.899
124.659
125.589
126.726
128.134
129.957
132.505
136.398
142.494
150.096
123.898
124.012
124.243
124.592
125.065
125.668
126.411
127.306
128.368
129.619
131.085
132.803
134.785
136.914
138.613
125.592
125.706
125.935
126.28
126.746
127.335
128.053
128.902
129.877
130.949
132.035
132.912
133.067
131.629
128.362
127.204
127.316
127.542
127.882
128.337
128.91
129.602
130.408
131.314
132.267
133.127
133.518
132.451
127.61
115.893
128.735
128.845
129.066
129.399
129.843
130.399
131.067
131.843
132.714
133.644
134.542
135.132
134.453
128.362
95.3391
130.185
130.293
130.51
130.834
131.266
131.806
132.453
133.207
134.068
135.041
136.167
137.624
140.209
147.813
181.639
131.557
131.663
131.874
132.191
132.611
133.135
133.762
134.495
135.34
136.327
137.557
139.329
142.477
149.049
161.748
132.853
132.956
133.163
133.471
133.88
134.389
134.995
135.7
136.508
137.441
138.568
140.075
142.362
146.028
150.727
134.073
134.174
134.376
134.677
135.076
135.571
136.157
136.83
137.586
138.415
139.313
140.274
141.285
142.284
143.024
135.219
135.319
135.517
135.812
136.203
136.685
137.253
137.901
138.608
139.338
140.009
140.433
140.214
138.717
135.887
136.294
136.391
136.586
136.877
137.261
137.734
138.292
138.925
139.611
140.299
140.874
141.036
140.025
136.073
126.837
137.296
137.393
137.586
137.873
138.253
138.722
139.276
139.909
140.607
141.335
142.021
142.449
141.875
137.094
111.427
138.229
138.325
138.516
138.801
139.178
139.646
140.202
140.846
141.576
142.397
143.343
144.554
146.642
152.616
178.901
139.091
139.186
139.376
139.66
140.037
140.504
141.064
141.719
142.478
143.369
144.479
146.044
148.708
154.029
164.027
139.884
139.979
140.168
140.451
140.827
141.295
141.857
142.516
143.283
144.185
145.293
146.768
148.925
152.189
156.15
140.607
140.702
140.891
141.174
141.55
142.018
142.578
143.234
143.99
144.854
145.85
147.012
148.37
149.862
151.077
141.262
141.356
141.546
141.829
142.204
142.672
143.231
143.88
144.616
145.428
146.288
147.117
147.718
147.723
146.901
141.846
141.941
142.131
142.414
142.791
143.259
143.817
144.462
145.186
145.965
146.745
147.376
147.475
146.155
142.209
142.362
142.457
142.647
142.932
143.309
143.779
144.338
144.986
145.712
146.498
147.3
148
148.214
146.407
134.83
142.808
142.904
143.095
143.38
143.76
144.232
144.796
145.451
146.192
147.016
147.924
148.956
150.354
153.438
165.681
143.184
143.28
143.472
143.76
144.142
144.618
145.188
145.852
146.612
147.471
148.457
149.655
151.319
154.106
158.872
143.49
143.587
143.78
144.069
144.454
144.935
145.511
146.184
146.957
147.834
148.839
150.025
151.5
153.395
155.427
143.726
143.823
144.017
144.308
144.696
145.181
145.763
146.444
147.225
148.105
149.092
150.19
151.386
152.585
153.446
143.89
143.988
144.183
144.476
144.867
145.356
145.944
146.632
147.418
148.299
149.264
150.282
151.267
152.006
152.116
143.984
144.082
144.278
144.572
144.965
145.458
146.051
146.747
147.542
148.43
149.395
150.393
151.316
151.86
150.915
144.005
144.104
144.3
144.596
144.991
145.486
146.085
146.789
147.597
148.504
149.499
150.553
151.624
152.742
154.621
143.956
144.054
144.25
144.546
144.942
145.44
146.043
146.755
147.579
148.514
149.559
150.697
151.894
153.094
154.175
143.835
143.932
144.128
144.422
144.818
145.316
145.921
146.64
147.479
148.445
149.549
150.796
152.16
153.523
154.531
143.643
143.739
143.933
144.225
144.618
145.114
145.718
146.439
147.286
148.276
149.438
150.809
152.422
154.196
155.64
143.38
143.475
143.666
143.955
144.342
144.832
145.431
146.146
146.99
147.985
149.176
150.652
152.569
155.092
157.804
143.048
143.142
143.329
143.611
143.991
144.472
145.059
145.76
146.585
147.554
148.713
150.183
152.292
155.854
161.902
142.648
142.739
142.921
143.196
143.566
144.034
144.605
145.284
146.077
146.987
148.03
149.267
151.003
154.886
170.252
142.182
142.27
142.446
142.711
143.069
143.522
144.073
144.727
145.482
146.324
147.21
147.999
148.218
145.94
131.457
141.652
141.736
141.904
142.159
142.502
142.936
143.466
144.096
144.822
145.628
146.454
147.123
147.164
145.467
140.52
141.06
141.139
141.3
141.542
141.868
142.281
142.788
143.394
144.103
144.914
145.802
146.68
147.313
147.248
146.198
140.409
140.484
140.635
140.862
141.168
141.558
142.037
142.616
143.31
144.143
145.155
146.404
147.943
149.709
151.195
139.703
139.773
139.913
140.124
140.408
140.769
141.214
141.756
142.417
143.243
144.339
145.922
148.412
152.362
157.273
138.946
139.01
139.138
139.331
139.59
139.918
140.321
140.809
141.404
142.154
143.182
144.807
147.865
154.343
166.811
138.142
138.199
138.315
138.488
138.72
139.012
139.366
139.786
140.28
140.868
141.606
142.694
144.938
152.159
185.056
137.294
137.345
137.448
137.602
137.805
138.059
138.361
138.707
139.088
139.473
139.784
139.775
138.551
132.142
99.6579
136.407
136.453
136.542
136.676
136.853
137.069
137.322
137.602
137.889
138.127
138.181
137.697
135.76
130.228
118.285
135.487
135.526
135.603
135.718
135.868
136.05
136.261
136.49
136.72
136.905
136.949
136.624
135.464
132.765
128.663
134.536
134.569
134.635
134.732
134.858
135.009
135.183
135.375
135.577
135.779
135.968
136.127
136.234
136.272
136.239
133.558
133.586
133.641
133.722
133.825
133.949
134.09
134.249
134.432
134.659
135.006
135.663
137.049
139.824
143.837
132.559
132.582
132.627
132.693
132.776
132.873
132.982
133.105
133.25
133.453
133.827
134.688
136.896
142.514
154.267
131.54
131.559
131.596
131.648
131.713
131.785
131.862
131.942
132.025
132.126
132.305
132.775
134.373
140.938
172.904
130.506
130.521
130.551
130.592
130.64
130.691
130.738
130.773
130.784
130.741
130.577
130.075
128.399
121.72
89.6229
129.458
129.471
129.495
129.527
129.563
129.596
129.619
129.62
129.576
129.437
129.082
128.188
125.894
120.152
108.255
128.398
128.409
128.43
128.457
128.484
128.506
128.513
128.494
128.43
128.28
127.96
127.269
125.782
122.853
118.669
127.327
127.338
127.358
127.382
127.406
127.422
127.422
127.397
127.339
127.238
127.091
126.899
126.669
126.424
126.219
126.246
126.258
126.279
126.305
126.33
126.346
126.346
126.322
126.275
126.226
126.252
126.552
127.563
129.965
133.668
125.155
125.168
125.194
125.226
125.257
125.279
125.283
125.259
125.208
125.158
125.218
125.709
127.489
132.599
143.731
124.051
124.068
124.101
124.143
124.187
124.223
124.236
124.212
124.137
124.011
123.883
123.966
125.1
131.049
161.565
122.932
122.955
122.998
123.056
123.12
123.178
123.212
123.198
123.099
122.863
122.4
121.491
119.364
112.434
81.236
121.795
121.825
121.882
121.961
122.055
122.148
122.22
122.239
122.153
121.869
121.222
119.859
116.959
110.671
98.678
120.634
120.673
120.747
120.854
120.986
121.128
121.262
121.352
121.34
121.125
120.54
119.291
116.906
112.867
107.831
119.444
119.493
119.588
119.727
119.905
120.113
120.332
120.533
120.663
120.636
120.316
119.509
117.997
115.753
113.527
118.219
118.277
118.395
118.57
118.802
119.086
119.412
119.76
120.093
120.347
120.428
120.213
119.596
118.623
117.716
116.949
117.019
117.158
117.371
117.659
118.027
118.474
118.995
119.574
120.176
120.744
121.193
121.438
121.445
121.315
115.63
115.708
115.868
116.116
116.459
116.91
117.481
118.187
119.036
120.027
121.138
122.313
123.442
124.358
124.862
114.253
114.339
114.515
114.791
115.181
115.706
116.393
117.277
118.397
119.791
121.486
123.461
125.591
127.556
128.799
112.814
112.904
113.09
113.384
113.807
114.387
115.166
116.201
117.563
119.343
121.635
124.499
127.851
131.251
133.639
111.31
111.4
111.587
111.886
112.32
112.927
113.759
114.894
116.437
118.537
121.385
125.196
130.076
135.644
140.177
109.742
109.827
110.004
110.29
110.711
111.307
112.14
113.301
114.922
117.207
120.464
125.146
131.821
140.754
149.901
108.112
108.186
108.343
108.597
108.976
109.52
110.292
111.385
112.943
115.2
118.551
123.707
131.996
145.711
166.015
106.428
106.487
106.611
106.816
107.124
107.573
108.218
109.143
110.477
112.431
115.383
120.09
128.4
146.089
196.267
-354.728
-262.708
-229.861
-214.092
-204.884
-198.88
-194.717
-191.723
-189.527
-187.901
-186.7
-185.828
-185.221
-184.836
-184.65
-299.786
-262.38
-236.804
-221.022
-210.909
-204.079
-199.267
-195.776
-193.196
-191.276
-189.85
-188.81
-188.083
-187.622
-187.398
-270.872
-253.831
-236.939
-224.012
-214.65
-207.872
-202.897
-199.191
-196.405
-194.303
-192.728
-191.571
-190.757
-190.239
-189.987
-253.847
-245.175
-234.317
-224.522
-216.592
-210.41
-205.641
-201.965
-199.134
-196.962
-195.313
-194.089
-193.223
-192.669
-192.398
-242.898
-238.033
-230.951
-223.732
-217.318
-211.963
-207.62
-204.149
-201.403
-199.254
-197.597
-196.354
-195.468
-194.898
-194.619
-235.381
-232.426
-227.677
-222.379
-217.305
-212.808
-208.989
-205.826
-203.255
-201.2
-199.591
-198.369
-197.49
-196.921
-196.641
-229.97
-228.062
-224.779
-220.865
-216.887
-213.179
-209.898
-207.089
-204.745
-202.832
-201.311
-200.141
-199.292
-198.74
-198.467
-225.938
-224.648
-222.315
-219.392
-216.277
-213.25
-210.474
-208.025
-205.932
-204.19
-202.782
-201.687
-200.885
-200.36
-200.1
-222.857
-221.955
-220.258
-218.047
-215.603
-213.143
-210.817
-208.712
-206.871
-205.311
-204.032
-203.026
-202.283
-201.793
-201.549
-220.456
-219.811
-218.552
-216.861
-214.934
-212.94
-211.004
-209.21
-207.611
-206.234
-205.089
-204.178
-203.5
-203.05
-202.826
-218.558
-218.089
-217.141
-215.835
-214.309
-212.692
-211.087
-209.57
-208.194
-206.991
-205.978
-205.165
-204.555
-204.148
-203.945
-217.039
-216.696
-215.975
-214.958
-213.744
-212.432
-211.105
-209.829
-208.653
-207.611
-206.725
-206.007
-205.464
-205.1
-204.918
-215.814
-215.563
-215.009
-214.212
-213.244
-212.178
-211.083
-210.014
-209.015
-208.12
-207.351
-206.723
-206.245
-205.923
-205.761
-214.818
-214.635
-214.209
-213.582
-212.807
-211.941
-211.039
-210.146
-209.302
-208.538
-207.876
-207.331
-206.913
-206.631
-206.489
-214.003
-213.873
-213.545
-213.05
-212.429
-211.726
-210.983
-210.24
-209.53
-208.882
-208.315
-207.845
-207.484
-207.239
-207.115
-213.333
-213.244
-212.992
-212.602
-212.104
-211.533
-210.924
-210.307
-209.712
-209.164
-208.682
-208.28
-207.969
-207.758
-207.651
-212.781
-212.723
-212.532
-212.225
-211.827
-211.364
-210.865
-210.354
-209.858
-209.398
-208.99
-208.648
-208.382
-208.201
-208.109
-212.323
-212.29
-212.148
-211.908
-211.591
-211.217
-210.809
-210.388
-209.976
-209.591
-209.248
-208.958
-208.733
-208.579
-208.5
-211.943
-211.93
-211.826
-211.641
-211.39
-211.089
-210.757
-210.412
-210.071
-209.751
-209.464
-209.22
-209.03
-208.9
-208.833
-211.626
-211.63
-211.557
-211.417
-211.219
-210.979
-210.711
-210.429
-210.149
-209.884
-209.645
-209.442
-209.282
-209.172
-209.116
-211.362
-211.379
-211.332
-211.227
-211.074
-210.884
-210.669
-210.441
-210.212
-209.994
-209.797
-209.629
-209.496
-209.404
-209.357
-211.14
-211.168
-211.142
-211.068
-210.952
-210.804
-210.633
-210.449
-210.264
-210.087
-209.925
-209.786
-209.677
-209.6
-209.561
-210.954
-210.991
-210.982
-210.933
-210.847
-210.734
-210.601
-210.456
-210.307
-210.164
-210.033
-209.92
-209.83
-209.768
-209.736
-210.797
-210.841
-210.847
-210.818
-210.759
-210.675
-210.573
-210.46
-210.343
-210.23
-210.125
-210.034
-209.961
-209.91
-209.884
-210.664
-210.714
-210.733
-210.721
-210.683
-210.624
-210.549
-210.464
-210.373
-210.285
-210.202
-210.13
-210.072
-210.031
-210.01
-210.55
-210.606
-210.635
-210.638
-210.618
-210.581
-210.529
-210.466
-210.399
-210.332
-210.269
-210.213
-210.167
-210.135
-210.119
-210.453
-210.513
-210.551
-210.566
-210.563
-210.543
-210.511
-210.468
-210.421
-210.372
-210.326
-210.284
-210.249
-210.225
-210.212
-210.368
-210.432
-210.478
-210.504
-210.514
-210.511
-210.495
-210.47
-210.44
-210.407
-210.375
-210.345
-210.321
-210.303
-210.293
-210.293
-210.361