/*--------------------------------*- C++ -*----------------------------------*\
| =========                 |                                                 |
| \\      /  F ield         | OpenFOAM: The Open Source CFD Toolbox           |
|  \\    /   O peration     | Version:  5.x                                   |
|   \\  /    A nd           | Web:      www.OpenFOAM.org                      |
|    \\/     M anipulation  |                                                 |
\*---------------------------------------------------------------------------*/
FoamFile
{
    version     2.0;
    format      ascii;
    class       volScalarField;
    location    "9.4";
    object      gradTx;
}
// * * * * * * * * * * * * * * * * * * * * * * * * * * * * * * * * * * * * * //

dimensions      [0 -1 0 1 0 0 0];

internalField   nonuniform List<scalar> 
6300
(
235.912
235.218
233.829
231.743
228.96
225.478
221.302
216.437
210.898
204.709
197.904
190.536
182.672
174.4
165.822
236.596
235.903
234.515
232.43
229.647
226.164
221.98
217.102
211.54
205.314
198.459
191.023
183.073
174.698
166.003
237.962
237.271
235.887
233.806
231.025
227.538
223.344
218.441
212.835
206.541
199.586
192.014
183.892
175.307
166.373
240.009
239.322
237.945
235.872
233.097
229.611
225.406
220.473
214.809
208.419
201.32
193.548
185.164
176.258
166.952
242.733
242.052
240.687
238.63
235.87
232.394
228.185
223.225
217.499
210.997
203.718
195.686
186.95
177.602
167.774
246.127
245.456
244.11
242.079
239.349
235.899
231.704
226.735
220.957
214.341
206.862
198.518
189.341
179.416
168.892
250.18
249.524
248.207
246.218
243.537
240.139
235.988
231.042
225.245
218.537
210.861
202.173
192.472
181.822
170.387
254.878
254.243
252.966
251.036
248.431
245.12
241.059
236.189
230.432
223.692
215.861
206.834
196.542
185.005
172.391
260.2
259.591
258.368
256.518
254.02
250.839
246.927
242.212
236.592
229.929
222.048
212.749
201.847
189.257
175.114
266.118
265.542
264.386
262.638
260.279
257.279
253.588
249.129
243.783
237.373
229.643
220.258
208.832
195.054
178.919
272.601
272.063
270.984
269.357
267.169
264.398
261.005
256.922
252.029
246.126
238.884
229.796
218.161
203.2
184.471
279.609
279.112
278.117
276.624
274.63
272.128
269.101
265.511
261.272
256.206
249.96
241.871
230.806
215.104
193.094
287.103
286.647
285.737
284.38
282.586
280.37
277.749
274.738
271.331
267.456
262.867
256.911
248.077
233.306
207.756
295.041
294.622
293.791
292.56
290.951
289.003
286.773
284.348
281.847
279.409
277.129
274.817
271.274
262.275
236.124
303.384
302.997
302.232
301.104
299.644
297.905
295.98
294.022
292.286
291.192
291.41
293.941
299.916
308.385
301.623
157.797
150.443
143.114
135.884
128.825
122.001
115.468
109.277
103.467
98.0699
93.1074
88.5952
84.5422
80.9513
77.8208
75.145
72.9146
71.1174
69.7382
68.7591
68.1589
67.9138
67.9962
68.3753
69.0163
69.8813
70.9293
72.1173
73.4013
74.7377
76.085
77.405
78.6639
79.8325
80.8857
81.802
82.5618
83.1467
83.5382
83.7185
83.6707
83.3804
82.8376
82.0376
80.9821
79.6787
78.1397
76.3798
74.4139
72.2547
69.9105
67.3848
64.6756
61.7769
58.6795
55.3734
51.8485
48.0967
44.1111
39.8863
35.4164
30.6944
25.7097
20.4471
14.8863
9.00138
2.76133
-3.86852
-10.9251
-18.446
-26.4675
-35.0236
-44.1449
-53.8584
-64.1868
-75.149
-86.7595
-99.0279
-111.957
-125.543
-139.771
-154.612
-170.025
-185.949
-202.306
-218.996
-235.904
-252.898
-269.833
-286.561
157.862
150.4
142.965
135.634
128.481
121.574
114.972
108.724
102.869
97.4391
92.4547
87.9302
83.8729
80.2847
77.1626
74.5002
72.2877
70.5124
69.1593
68.2103
67.6449
67.4393
67.5663
67.9951
68.6908
69.6148
70.7248
71.9762
73.3229
74.719
76.1213
77.49
78.7909
79.9953
81.0797
82.0241
82.8106
83.4218
83.8392
84.0438
84.0165
83.7409
83.2047
82.4024
81.336
80.015
78.4547
76.6735
74.6896
72.5183
70.1694
67.6464
64.9462
62.0605
58.978
55.6861
52.1735
48.4315
44.4541
40.2374
35.7782
31.0715
26.1087
20.8758
15.3526
9.51235
3.32251
-3.25388
-10.2562
-17.7244
-25.6967
-34.2084
-43.2907
-52.9708
-63.2717
-74.2126
-85.809
-98.0722
-111.008
-124.615
-138.881
-153.784
-169.283
-185.32
-201.817
-218.675
-235.772
-252.972
-270.123
-287.066
157.995
150.312
142.658
135.12
127.778
120.704
113.961
107.598
101.656
96.1619
91.1357
86.5885
82.5245
78.943
75.8391
73.2043
71.0278
69.2965
67.9952
67.1062
66.6098
66.4829
66.6991
67.2278
68.0339
69.0774
70.3139
71.695
73.17
74.6886
76.2026
77.6695
79.0537
80.328
81.4719
82.4701
83.3088
83.9727
84.4435
84.6995
84.7169
84.4734
83.9519
83.1442
82.0533
80.6928
79.0849
77.256
75.2323
73.0347
70.6763
68.1605
65.4813
62.6254
59.5757
56.3144
52.8268
49.1033
45.1398
40.9364
36.4951
31.8163
26.8956
21.7217
16.2748
10.5264
4.44016
-2.02571
-8.9162
-16.2763
-24.1483
-32.5701
-41.574
-51.1872
-61.4324
-72.3294
-83.8951
-96.1442
-109.088
-122.731
-137.07
-152.09
-167.758
-184.021
-200.802
-217.999
-235.484
-253.107
-270.701
-288.088
158.205
150.174
142.179
134.318
126.682
119.353
112.396
105.863
99.7918
94.2069
89.1232
84.5469
80.4777
76.9104
73.8365
71.2452
69.1239
67.4586
66.2342
65.4341
65.0397
65.0296
65.3789
66.0582
67.0322
68.2595
69.6919
71.2754
72.9517
74.6616
76.3489
77.9647
79.4718
80.845
82.0709
83.1428
84.0552
84.7983
85.354
85.6955
85.7897
85.6029
85.1078
84.2909
83.1557
81.7238
80.0302
78.1163
76.0224
73.78
71.4074
68.9073
66.2682
63.4672
60.4758
57.2665
53.8179
50.1189
46.1691
41.9764
37.5527
32.9081
28.0461
22.96
17.6306
12.0263
6.10437
-0.186044
-6.89962
-14.0904
-21.8075
-30.0925
-38.9785
-48.4915
-58.6525
-69.4804
-80.994
-93.2128
-106.156
-119.84
-134.275
-149.458
-165.371
-181.969
-199.181
-216.9
-234.989
-253.276
-271.568
-289.654
158.503
149.98
141.5
133.184
125.14
117.46
110.216
103.459
97.2226
91.5261
86.3762
81.7716
77.7045
74.1638
71.1358
68.6062
66.5601
64.9828
63.8595
63.1751
62.9133
63.0559
63.581
64.4614
65.6631
67.1433
68.8495
70.7192
72.6821
74.6643
76.5948
78.4137
80.0792
81.571
82.8884
84.0418
85.0422
85.8903
86.5695
87.0442
87.2638
87.1728
86.7242
85.8925
84.6822
83.1286
81.2894
79.2329
77.0233
74.7099
72.3191
69.8519
67.2858
64.5805
61.6876
58.561
55.1676
51.4937
47.5463
43.3475
38.9269
34.3115
29.5182
24.5476
19.3816
13.9833
8.29893
2.26298
-4.19565
-11.146
-18.648
-26.7481
-35.4787
-44.8608
-54.9099
-65.6413
-77.0744
-89.2348
-102.153
-115.863
-130.395
-145.77
-161.989
-179.027
-196.82
-215.262
-234.198
-253.43
-272.72
-291.81
158.911
149.716
140.579
131.651
123.068
114.935
107.329
100.3
93.8719
88.0538
82.8404
78.2185
74.1701
70.6755
67.7145
65.2679
63.3184
61.8503
60.8499
60.3046
60.2021
60.5289
61.2686
62.3992
63.8901
65.699
67.7687
70.0258
72.3817
74.7383
76.9983
79.0804
80.9333
82.5451
83.9388
85.1579
86.245
87.222
88.0762
88.7569
89.1818
89.2544
88.8888
88.0358
86.7
84.9412
82.8586
80.5668
78.1709
75.7484
73.338
70.9362
68.5011
65.9617
63.2335
60.2375
56.919
53.2607
49.2835
45.0364
40.58
35.97
31.2444
26.4155
21.4664
16.3515
10.9995
5.32056
-0.7835
-7.40677
-14.6265
-22.4951
-31.0394
-40.268
-50.1828
-60.7893
-72.1048
-84.1617
-97.0069
-110.698
-125.298
-140.861
-157.424
-174.991
-193.518
-212.903
-232.972
-253.488
-274.152
-294.625
159.46
149.364
139.348
129.617
120.341
111.645
103.608
96.2688
89.6388
83.7067
78.449
73.8358
69.8351
66.4158
63.5494
61.2111
59.3807
58.0418
57.1825
56.794
56.87
57.4047
58.3908
59.8156
61.6567
63.8764
66.4153
69.1873
72.0775
74.9483
77.6551
80.0736
82.1316
83.8298
85.2371
86.4606
87.6031
88.7269
89.8293
90.8344
91.6036
91.9634
91.7518
90.8709
89.3237
87.2168
84.726
82.0473
79.3538
76.7666
74.3415
72.0657
69.8639
67.6123
65.1628
62.3759
59.1575
55.4847
51.4074
47.0249
42.4526
37.7936
33.1182
28.4554
23.7892
19.0604
14.1702
8.99012
3.3763
-2.80837
-9.6703
-17.2683
-25.6134
-34.6857
-44.4576
-54.9141
-66.065
-77.9502
-90.6384
-104.222
-118.808
-134.505
-151.406
-169.566
-188.976
-209.548
-231.095
-253.325
-275.848
-298.202
160.199
148.888
137.701
126.923
116.775
107.402
98.8752
91.2131
84.3964
78.3843
73.1257
68.5678
64.6599
61.357
58.6209
56.4205
54.7324
53.5403
52.8346
52.6122
52.8749
53.6282
54.8787
56.6299
58.8756
61.5915
64.7237
68.1755
71.7983
75.3915
78.7238
81.5829
83.8448
85.5298
86.797
87.8764
88.9847
90.2594
91.7187
93.2483
94.6112
95.4913
95.5752
94.6617
92.7498
90.0419
86.8606
83.5462
80.3805
77.5486
75.1271
73.0857
71.2954
69.5453
67.5755
65.1333
62.048
58.2893
53.969
49.2846
44.4488
39.6392
34.9726
30.4989
26.2014
22.0006
17.7579
13.2838
8.35793
2.76535
-3.65385
-10.965
-19.1393
-28.0947
-37.745
-48.0367
-58.9653
-70.5794
-82.9771
-96.2981
-110.714
-126.412
-143.572
-162.332
-182.753
-204.782
-228.226
-252.731
-277.774
-302.702
161.208
148.23
135.457
123.314
112.089
101.935
92.894
84.9366
77.9921
71.9732
66.7904
62.3604
58.6104
55.4793
52.9182
50.8898
49.3676
48.3359
47.7887
47.7295
48.1709
49.1335
50.6436
52.7296
55.4148
58.7048
62.569
66.9148
71.5588
76.2071
80.4709
83.9488
86.3852
87.8281
88.6239
89.2469
90.1234
91.5222
93.5036
95.8986
98.3104
100.162
100.831
99.8866
97.3188
93.5451
89.1837
84.8278
80.9235
77.7368
75.3627
73.7414
72.6664
71.7921
70.6655
68.8145
65.9059
61.9003
57.0531
51.7604
46.4057
41.2772
36.5482
32.2875
28.4733
25.0004
21.6779
18.2275
14.2992
9.52927
3.64711
-3.41832
-11.54
-20.5017
-30.1076
-40.2403
-50.8761
-62.0778
-73.9831
-86.7942
-100.769
-116.209
-133.427
-152.701
-174.207
-197.97
-223.822
-251.351
-279.856
-308.368
162.618
147.267
132.304
118.377
105.855
94.8594
85.3485
77.1978
70.2518
64.3553
59.3682
55.1713
51.6671
48.7784
46.4463
44.6278
43.2945
42.4319
42.0379
42.1239
42.7146
43.8482
45.5769
47.9645
51.0808
54.9886
59.7181
65.2221
71.3101
77.5733
83.3463
87.8112
90.3529
91.0547
90.696
90.2491
90.5064
91.9424
94.6893
98.521
102.813
106.531
108.408
107.445
103.621
97.8913
91.4954
85.4557
80.4301
76.7517
74.5115
73.6078
73.7457
74.3997
74.7958
74.0162
71.3411
66.7209
60.7764
54.3238
48.0351
42.3381
37.4481
33.432
30.2528
27.7824
25.7813
23.8587
21.4518
17.8944
12.6518
5.6494
-2.7303
-11.9806
-21.7106
-31.7181
-41.9699
-52.5607
-63.6819
-75.6108
-88.712
-103.441
-120.317
-139.849
-162.404
-188.143
-216.995
-248.555
-281.918
-315.593
164.659
145.742
127.65
111.412
97.4195
85.6406
75.8396
67.7199
60.9966
55.4246
50.8051
46.982
43.8351
41.2741
39.2327
37.6649
36.542
35.851
35.5942
35.79
36.4745
37.7042
39.5595
42.1479
45.6048
50.0871
55.7496
62.6855
70.8065
79.6421
88.102
94.4394
96.9664
95.8048
92.8914
90.2335
89.1885
90.471
94.3091
100.477
108.135
115.55
120.068
119.119
112.663
103.194
93.2905
84.6202
77.9934
73.6927
71.7326
71.9714
74.0787
77.3759
80.6162
81.9449
79.5743
73.4461
65.229
56.6491
48.8107
42.2349
37.0883
33.3698
31.0101
29.8878
29.7706
30.1862
30.2603
28.6853
24.1902
16.7001
7.33305
-2.76812
-12.9134
-22.843
-32.5743
-42.2777
-52.2157
-62.7364
-74.308
-87.5748
-103.379
-122.64
-146.011
-173.825
-206.26
-243.154
-283.519
-325.028
167.762
143.02
120.322
101.208
85.792
73.5709
63.9074
56.2292
50.081
45.1198
41.0931
37.8167
35.1575
33.0195
31.3354
30.0599
29.166
28.6432
28.4971
28.7507
29.4477
30.6577
32.4849
35.0789
38.6502
43.4841
49.9451
58.4399
69.2711
82.2486
95.9106
106.551
108.887
103.073
94.7152
87.8917
84.5156
85.316
90.57
100.286
113.803
128.736
139.598
138.718
126.038
109.117
93.3068
80.8392
72.2042
67.2606
65.7849
67.6419
72.6956
80.4311
89.1862
95.1977
93.2152
83.1765
70.2016
57.9046
47.7663
40.0726
34.6705
31.3497
29.9845
30.5445
32.9915
37.0044
41.4423
43.6802
40.0402
30.4529
18.4531
6.50786
-4.42607
-14.2527
-23.2175
-31.6552
-39.9084
-48.3462
-57.4604
-68.0516
-81.4615
-99.5051
-123.214
-152.848
-189.095
-232.748
-283.461
-337.822
172.818
137.347
107.828
85.675
69.5597
57.8141
49.113
42.5323
37.4539
33.4675
30.2987
27.7612
25.7276
24.1099
22.8484
21.904
21.2544
20.8919
20.8233
21.0718
21.6808
22.7214
24.3045
26.6013
29.8758
34.5364
41.2098
50.8277
64.642
83.8662
108.066
130.616
132.541
114.001
94.3254
80.5823
73.8249
73.7444
80.4028
94.6149
117.429
147.778
176.033
175.301
145.518
113.436
88.5064
71.5359
61.0964
55.8321
55.0354
58.7066
67.4481
82.0151
101.704
119.958
118.454
97.1321
74.1953
56.0493
43.1997
34.6084
29.2545
26.5122
26.1854
28.4829
33.9562
43.2091
55.7903
67.1377
64.4527
47.6783
29.4939
14.3273
2.46661
-6.9028
-14.6191
-21.2972
-27.3341
-32.9803
-38.4837
-44.4671
-52.868
-68.2095
-91.8784
-122.345
-161.258
-212.165
-278.139
-356.18
181.825
123.099
84.7221
61.4423
47.0323
37.6707
31.2632
26.6701
23.2525
20.6365
18.5936
16.9789
15.6976
14.6864
13.9037
13.3226
12.9284
12.7164
12.6921
12.8729
13.2916
14.0027
15.0953
16.7146
19.1045
22.6885
28.2328
37.1706
52.2201
78.315
122.593
184.376
185.656
126.562
85.3884
63.2102
53.5168
52.4659
59.355
76.5546
110.197
169.832
254.204
253.712
168.301
107.452
72.2415
52.8253
42.5339
37.9683
37.8502
42.4679
53.8091
76.2211
116.282
173.167
172.224
113.41
71.2874
46.5653
32.4996
24.4812
20.0768
18.1953
18.6064
21.8471
29.4768
44.6195
71.9127
110.799
109.151
66.9319
36.188
17.3856
5.77176
-1.93321
-7.51516
-11.8617
-15.3212
-17.8189
-18.8145
-17.4001
-14.2781
-24.9202
-50.7516
-79.6729
-116.145
-169.877
-255.431
-384.742
199.439
79.5426
39.8727
24.4346
17.233
13.2717
10.7992
9.11417
7.89578
6.97913
6.27122
5.71592
5.27768
4.93337
4.66788
4.47168
4.33953
4.26988
4.2649
4.33106
4.4806
4.73432
5.12694
5.71769
6.61274
8.01713
10.3677
14.7114
23.8904
46.5765
111.91
325.252
325.703
113.312
49.0943
27.8577
20.7611
19.752
23.4575
34.8136
65.534
156.256
454.569
454.394
155.711
64.5458
33.2295
20.9728
15.7247
13.6986
13.844
16.5458
24.2262
45.0095
106.63
309.643
309.321
105.649
43.3199
21.7342
13.0904
9.14863
7.26549
6.57635
6.95212
8.89017
14.1776
28.5312
71.3382
212.825
212.269
69.658
25.6851
10.0914
3.44791
-0.0207223
-2.19002
-3.70294
-4.69296
-4.82012
-2.61486
7.20838
44.1321
40.2424
-5.17381
-26.1247
-46.1732
-81.7586
-169.703
-433.807
-304.52
-323.422
-341.36
-358.146
-373.637
-387.732
-400.369
-411.521
-421.188
-429.388
-436.15
-441.507
-445.492
-448.131
-449.446
-305.251
-324.375
-342.498
-359.428
-375.02
-389.175
-401.838
-412.991
-422.64
-430.811
-437.539
-442.863
-446.82
-449.439
-450.743
-306.737
-326.316
-344.817
-362.036
-377.825
-392.095
-404.803
-415.948
-425.554
-433.66
-440.316
-445.57
-449.468
-452.045
-453.327
-309.033
-329.323
-348.406
-366.059
-382.135
-396.561
-409.317
-420.43
-429.951
-437.943
-444.477
-449.617
-453.42
-455.929
-457.176
-312.232
-333.525
-353.411
-371.644
-388.082
-402.68
-415.46
-426.489
-435.859
-443.669
-450.015
-454.984
-458.647
-461.059
-462.255
-316.475
-339.121
-360.057
-379.008
-395.855
-410.603
-423.336
-434.189
-443.309
-450.841
-456.914
-461.641
-465.11
-467.386
-468.513
-321.982
-346.413
-368.673
-388.462
-405.713
-420.522
-433.078
-443.606
-452.331
-459.453
-465.143
-469.539
-472.747
-474.845
-475.882
-329.093
-355.864
-379.745
-400.44
-417.998
-432.679
-444.832
-454.811
-462.937
-469.478
-474.646
-478.606
-481.478
-483.348
-484.27
-338.352
-368.192
-393.991
-415.539
-433.143
-447.349
-458.742
-467.852
-475.112
-480.858
-485.34
-488.741
-491.192
-492.781
-493.562
-350.664
-384.546
-412.474
-434.567
-451.67
-464.812
-474.919
-482.726
-488.783
-493.482
-497.095
-499.809
-501.75
-503.003
-503.618
-367.641
-406.838
-436.774
-458.567
-474.143
-485.292
-493.375
-499.333
-503.796
-507.175
-509.729
-511.628
-512.978
-513.845
-514.27
-392.408
-438.376
-469.203
-488.765
-501.025
-508.822
-513.935
-517.415
-519.876
-521.671
-523
-523.976
-524.667
-525.111
-525.328
-431.775
-485.04
-512.878
-526.247
-532.353
-535.018
-536.105
-536.497
-536.605
-536.615
-536.601
-536.589
-536.584
-536.584
-536.585
-502.997
-557.114
-570.999
-570.971
-567.105
-562.769
-558.948
-555.842
-553.414
-551.562
-550.179
-549.173
-548.475
-548.036
-547.824
-658.158
-669.401
-643.013
-619.508
-602.31
-589.983
-581.051
-574.49
-569.628
-566.02
-563.357
-561.427
-560.087
-559.241
-558.832
311.374
311.01
310.29
309.228
307.855
306.225
304.437
302.673
301.255
300.779
302.37
308.301
323.871
364.602
490.151
318.881
318.533
317.843
316.821
315.488
313.887
312.101
310.287
308.746
308.051
309.308
314.653
328.164
356.797
404.863
326.619
326.285
325.618
324.619
323.297
321.668
319.773
317.702
315.639
313.957
313.397
315.325
321.945
335.486
353.092
334.58
334.258
333.612
332.632
331.308
329.622
327.559
325.103
322.257
319.076
315.746
312.73
310.908
311.342
313.687
342.754
342.448
341.827
340.875
339.559
337.829
335.607
332.765
329.098
324.286
317.868
309.298
298.294
285.861
276.053
351.13
350.845
350.263
349.359
348.086
346.368
344.076
340.99
336.723
330.601
321.473
307.545
286.665
258.546
231.75
359.695
359.438
358.913
358.087
356.911
355.294
353.086
350.025
345.627
338.993
328.402
310.611
280.052
230.305
168.982
368.427
368.208
367.759
367.049
366.03
364.619
362.68
359.976
356.074
350.121
340.32
322.533
286.757
210.095
63.7734
377.3
377.128
376.774
376.214
375.409
374.299
372.794
370.75
367.931
363.912
357.775
346.937
321.844
238.254
-142.899
386.282
386.164
385.921
385.536
384.987
384.243
383.271
382.05
380.611
379.163
378.481
381.23
397.545
473.044
848.927
395.334
395.276
395.154
394.961
394.689
394.333
393.91
393.49
393.283
393.87
396.794
406.09
432.135
499.22
638.915
404.417
404.42
404.424
404.428
404.436
404.459
404.537
404.77
405.391
406.943
410.672
419.304
438.211
474.958
526.087
413.487
413.551
413.681
413.88
414.158
414.533
415.045
415.769
416.839
418.491
421.131
425.369
431.887
440.693
448.941
422.5
422.625
422.877
423.265
423.799
424.499
425.395
426.517
427.869
429.34
430.47
429.838
423.959
406.804
377.699
431.415
431.598
431.968
432.534
433.31
434.317
435.576
437.092
438.801
440.415
441.019
437.935
423.851
381.199
286.425
440.192
440.429
440.909
441.643
442.647
443.946
445.566
447.522
449.784
452.177
454.117
453.658
443.57
391.777
129.519
448.791
449.079
449.66
450.549
451.766
453.34
455.31
457.728
460.66
464.239
468.869
476.052
492.238
548.499
812.776
457.178
457.511
458.185
459.214
460.622
462.444
464.731
467.562
471.072
475.559
481.833
492.18
513.062
560.75
657.652
465.322
465.695
466.449
467.601
469.175
471.211
473.763
476.913
480.788
485.626
491.955
500.975
515.257
538.808
570.02
473.194
473.601
474.424
475.679
477.393
479.604
482.366
485.747
489.819
494.642
500.194
506.102
510.999
511.53
504.264
480.77
481.205
482.084
483.423
485.25
487.601
490.528
494.086
498.312
503.139
508.17
511.916
509.757
489.653
433.664
488.03
488.487
489.41
490.814
492.726
495.184
498.238
501.95
506.369
511.48
517.025
521.813
520.964
492.68
324.387
494.96
495.433
496.386
497.836
499.807
502.337
505.479
509.308
513.929
519.505
526.391
535.608
551.21
592.922
769.599
501.548
502.031
503.004
504.481
506.484
509.049
512.228
516.103
520.808
526.606
534.123
544.952
563.308
599.419
666.565
507.787
508.275
509.256
510.744
512.755
515.319
518.481
522.307
526.91
532.499
539.541
549.051
563.06
584.348
610.376
513.673
514.161
515.143
516.627
518.625
521.16
524.258
527.959
532.309
537.367
543.229
550.009
557.743
565.967
572.48
519.205
519.691
520.666
522.135
524.107
526.592
529.603
533.145
537.197
541.661
546.265
550.286
552.069
548.758
539.326
524.386
524.867
525.83
527.279
529.215
531.644
534.565
537.964
541.782
545.843
549.69
552.101
549.917
535.784
499.84
529.22
529.694
530.642
532.066
533.965
536.337
539.18
542.477
546.179
550.157
554.098
557.09
556.048
537.941
435.614
533.709
534.176
535.109
536.507
538.368
540.688
543.465
546.694
550.366
554.483
559.147
564.863
574.015
598.567
704.32
537.86
538.319
539.237
540.609
542.434
544.706
547.423
550.589
554.225
558.412
563.451
570.233
581.272
602.787
642.922
541.677
542.129
543.032
544.381
546.172
548.398
551.054
554.143
557.681
561.735
566.529
572.628
581.237
594.058
609.623
545.166
545.612
546.501
547.83
549.59
551.774
554.37
557.371
560.76
564.527
568.684
573.263
578.262
583.405
587.363
548.33
548.77
549.649
550.961
552.697
554.846
557.392
560.312
563.559
567.032
570.532
573.586
575.172
573.557
568.083
551.173
551.61
552.481
553.78
555.499
557.625
560.139
563.012
566.181
569.503
572.672
574.912
574.289
566.372
545.231
553.697
554.132
554.998
556.291
558.001
560.117
562.622
565.492
568.676
572.065
575.44
578.207
578.457
568.353
507.929
555.905
556.339
557.203
558.494
560.203
562.321
564.837
567.739
571.008
574.622
578.614
583.232
589.798
605.262
668.464
557.797
558.231
559.096
560.389
562.103
564.231
566.769
569.717
573.08
576.899
581.338
586.886
594.943
609.002
633.56
559.373
559.808
560.676
561.973
563.696
565.839
568.402
571.39
574.817
578.73
583.274
588.781
595.904
605.432
615.947
560.631
561.068
561.94
563.245
564.979
567.139
569.725
572.742
576.197
580.106
584.525
589.534
595.179
601.158
605.874
561.571
562.01
562.887
564.201
565.947
568.125
570.734
573.775
577.241
581.112
585.349
589.826
594.206
597.745
599.313
562.19
562.632
563.515
564.837
566.598
568.795
571.428
574.497
577.984
581.847
585.99
590.167
593.802
595.681
594.08
562.487
562.931
563.82
565.152
566.926
569.144
571.805
574.911
578.447
582.371
586.59
590.867
594.6
596.017
587.974
562.46
562.907
563.8
565.141
566.929
569.167
571.859
575.011
578.622
582.673
587.133
591.925
596.989
602.905
615.061
562.107
562.556
563.454
564.801
566.601
568.856
571.577
574.776
578.47
582.674
587.428
592.777
598.771
605.441
612.293
561.427
561.877
562.777
564.13
565.937
568.205
570.947
574.183
577.943
582.277
587.293
593.161
600.066
607.831
614.527
560.419
560.869
561.77
563.124
564.934
567.208
569.959
573.21
576.997
581.389
586.549
592.806
600.746
610.945
621.654
559.083
559.533
560.432
561.783
563.591
565.862
568.608
571.849
575.612
579.951
585.026
591.263
599.839
613.688
636.462
557.42
557.867
558.762
560.108
561.907
564.168
566.898
570.109
573.806
577.985
582.679
588.076
595.253
610.213
667.328
555.431
555.875
556.762
558.098
559.885
562.13
564.839
568.017
571.643
575.644
579.829
583.634
585.245
577.446
524.23
553.119
553.557
554.435
555.757
557.526
559.751
562.44
565.598
569.201
573.159
577.224
580.696
581.755
576.199
558.291
550.487
550.918
551.783
553.086
554.832
557.032
559.701
562.852
566.491
570.583
575.014
579.414
582.843
583.512
580.159
547.54
547.963
548.811
550.089
551.805
553.971
556.61
559.753
563.446
567.756
572.81
578.787
585.83
593.599
599.941
544.283
544.696
545.523
546.77
548.445
550.564
553.154
556.257
559.952
564.394
569.947
577.401
588.296
604.658
624.369
540.726
541.125
541.926
543.135
544.759
546.814
549.325
552.335
555.919
560.243
565.749
573.606
586.948
613.374
662.726
536.875
537.259
538.03
539.193
540.755
542.73
545.135
547.999
551.352
555.255
559.9
565.983
576.496
606.149
735.598
532.743
533.11
533.846
534.955
536.446
538.328
540.613
543.306
546.383
549.734
553.038
555.265
552.736
529.602
403.682
528.341
528.688
529.385
530.436
531.848
533.63
535.792
538.333
541.203
544.228
546.907
547.831
543.269
524.417
479.48
523.683
524.008
524.661
525.647
526.973
528.651
530.694
533.115
535.897
538.947
541.978
544.19
543.709
537.328
524.307
518.784
519.085
519.691
520.605
521.837
523.4
525.319
527.63
530.385
533.662
537.602
542.4
548.229
554.834
560.324
513.661
513.936
514.489
515.325
516.452
517.886
519.657
521.823
524.492
527.901
532.613
539.875
552.194
573.098
600.385
508.331
508.579
509.076
509.826
510.836
512.12
513.707
515.65
518.064
521.22
525.838
533.82
550.182
586.91
659.628
502.816
503.034
503.47
504.128
505.012
506.129
507.495
509.136
511.102
513.506
516.71
521.929
534.01
575.71
769.6
497.134
497.321
497.695
498.257
499.008
499.948
501.077
502.383
503.816
505.222
506.168
505.253
497.253
458.805
266.532
491.309
491.464
491.774
492.238
492.855
493.62
494.522
495.527
496.53
497.241
496.904
493.481
481.625
448.709
378.075
485.361
485.485
485.73
486.097
486.582
487.18
487.881
488.658
489.428
489.974
489.769
487.546
480.607
464.791
440.786
479.314
479.406
479.587
479.857
480.213
480.652
481.174
481.78
482.464
483.212
484.019
484.871
485.738
486.545
487.043
473.19
473.249
473.367
473.541
473.769
474.05
474.396
474.834
475.436
476.394
478.223
482.168
490.897
508.497
533.863
467.01
467.039
467.093
467.172
467.27
467.389
467.54
467.76
468.143
468.956
470.943
476.127
489.881
525.038
598.513
460.798
460.795
460.788
460.772
460.741
460.69
460.624
460.557
460.535
460.687
461.428
464.118
473.987
514.952
714.4
454.573
454.541
454.475
454.367
454.208
453.988
453.695
453.311
452.789
451.995
450.545
447.108
436.484
394.792
194.659
448.357
448.298
448.176
447.981
447.701
447.32
446.816
446.147
445.213
443.746
441.028
435.072
420.542
384.647
310.485
442.169
442.085
441.912
441.639
441.249
440.724
440.038
439.154
437.991
436.35
433.745
428.976
419.424
401.063
375.01
436.026
435.921
435.704
435.362
434.876
434.224
433.385
432.343
431.084
429.609
427.953
426.185
424.411
422.806
421.642
429.943
429.821
429.568
429.169
428.602
427.839
426.862
425.668
424.311
422.98
422.226
423.382
429.269
444.227
467.663
423.932
423.798
423.521
423.08
422.447
421.59
420.476
419.095
417.502
415.936
415.16
417.279
427.813
459.745
530.156
418.002
417.863
417.572
417.108
416.434
415.504
414.263
412.658
410.658
408.33
406.07
405.316
411.485
448.526
641.74
412.156
412.019
411.731
411.267
410.584
409.62
408.291
406.482
404.027
400.664
395.923
388.531
373.705
328.837
130.568
406.394
406.267
406
405.564
404.914
403.975
402.641
400.744
398.008
393.943
387.604
376.894
356.775
315.667
239.015
400.707
400.6
400.372
399.997
399.428
398.591
397.37
395.577
392.897
388.789
382.31
371.776
354.411
327.168
294.412
395.083
395.003
394.833
394.55
394.115
393.461
392.485
391.013
388.763
385.269
379.818
371.389
358.895
342.486
327.241
389.503
389.458
389.36
389.196
388.939
388.542
387.931
386.979
385.477
383.096
379.383
373.812
366.087
356.984
349.659
383.943
383.936
383.92
383.893
383.845
383.759
383.603
383.316
382.786
381.835
380.227
377.716
374.225
370.235
367.166
378.377
378.408
378.476
378.59
378.763
379.012
379.355
379.81
380.373
381.017
381.687
382.287
382.697
382.835
382.718
372.777
372.844
372.988
373.233
373.614
374.185
375.02
376.216
377.889
380.17
383.185
386.977
391.345
395.599
398.364
367.12
367.214
367.418
367.767
368.32
369.163
370.423
372.279
374.97
378.8
384.13
391.252
400.061
409.383
416.105
361.387
361.495
361.734
362.148
362.811
363.839
365.402
367.752
371.244
376.376
383.82
394.341
408.408
424.96
438.688
355.567
355.676
355.917
356.343
357.036
358.13
359.825
362.421
366.366
372.334
381.36
394.953
415.016
442.484
470.978
349.661
349.753
349.962
350.338
350.97
351.992
353.611
356.142
360.068
366.157
375.716
391.06
416.469
459.28
523.228
343.68
343.738
343.877
344.144
344.62
345.427
346.754
348.884
352.252
357.559
366.044
380.161
405.825
461.383
620.055
-1088.48
-806.802
-706.361
-658.196
-630.097
-611.796
-599.116
-590.005
-583.326
-578.387
-574.743
-572.099
-570.257
-569.093
-568.529
-920.265
-805.83
-727.629
-679.413
-648.539
-627.706
-613.042
-602.407
-594.556
-588.716
-584.384
-581.225
-579.018
-577.619
-576.939
-831.748
-779.674
-728.054
-688.57
-659.992
-639.317
-624.15
-612.86
-604.376
-597.983
-593.193
-589.675
-587.203
-585.629
-584.863
-779.63
-753.181
-720.033
-690.135
-665.939
-647.085
-632.548
-621.35
-612.73
-606.12
-601.103
-597.381
-594.748
-593.064
-592.242
-746.113
-731.321
-709.735
-687.72
-668.162
-651.839
-638.606
-628.035
-619.675
-613.134
-608.095
-604.315
-601.619
-599.885
-599.036
-723.105
-714.161
-699.714
-683.58
-668.124
-654.428
-642.797
-633.168
-625.342
-619.089
-614.195
-610.479
-607.805
-606.075
-605.225
-706.544
-700.805
-690.848
-678.95
-666.846
-655.565
-645.58
-637.033
-629.902
-624.085
-619.458
-615.903
-613.321
-611.64
-610.811
-694.207
-690.359
-683.31
-674.443
-664.983
-655.784
-647.344
-639.899
-633.533
-628.238
-623.96
-620.632
-618.194
-616.596
-615.806
-684.779
-682.12
-677.015
-670.331
-662.921
-655.459
-648.397
-642
-636.407
-631.669
-627.784
-624.726
-622.467
-620.977
-620.238
-677.435
-675.561
-671.798
-666.705
-660.879
-654.839
-648.969
-643.526
-638.672
-634.49
-631.014
-628.249
-626.188
-624.822
-624.141
-671.631
-670.297
-667.485
-663.569
-658.97
-654.083
-649.226
-644.628
-640.455
-636.805
-633.733
-631.264
-629.41
-628.174
-627.556
-666.992
-666.042
-663.922
-660.889
-657.244
-653.29
-649.282
-645.419
-641.858
-638.702
-636.015
-633.835
-632.187
-631.082
-630.528
-663.251
-662.581
-660.976
-658.615
-655.718
-652.517
-649.217
-645.986
-642.965
-640.256
-637.926
-636.02
-634.568
-633.591
-633.1
-660.213
-659.753
-658.538
-656.694
-654.388
-651.797
-649.083
-646.39
-643.841
-641.53
-639.524
-637.871
-636.604
-635.747
-635.315
-657.734
-657.433
-656.516
-655.078
-653.24
-651.143
-648.916
-646.677
-644.535
-642.575
-640.859
-639.435
-638.337
-637.593
-637.216
-655.701
-655.524
-654.84
-653.72
-652.257
-650.562
-648.738
-646.882
-645.089
-643.434
-641.974
-640.754
-639.809
-639.166
-638.84
-654.031
-653.95
-653.449
-652.581
-651.42
-650.052
-648.561
-647.027
-645.531
-644.139
-642.903
-641.864
-641.055
-640.502
-640.222
-652.655
-652.65
-652.294
-651.629
-650.711
-649.611
-648.395
-647.131
-645.886
-644.72
-643.677
-642.796
-642.107
-641.634
-641.393
-651.521
-651.577
-651.337
-650.835
-650.114
-649.232
-648.244
-647.204
-646.171
-645.197
-644.32
-643.575
-642.991
-642.588
-642.383
-650.588
-650.692
-650.545
-650.173
-649.613
-648.909
-648.109
-647.255
-646.401
-645.589
-644.854
-644.226
-643.731
-643.389
-643.214
-649.821
-649.964
-649.892
-649.626
-649.195
-648.637
-647.991
-647.292
-646.586
-645.91
-645.295
-644.766
-644.348
-644.058
-643.909
-649.195
-649.368
-649.356
-649.175
-648.848
-648.41
-647.889
-647.318
-646.734
-646.172
-645.657
-645.212
-644.858
-644.612
-644.486
-648.686
-648.884
-648.92
-648.807
-648.565
-648.222
-647.803
-647.336
-646.853
-646.384
-645.952
-645.576
-645.276
-645.067
-644.959
-648.279
-648.497
-648.57
-648.511
-648.335
-648.069
-647.732
-647.348
-646.946
-646.553
-646.189
-645.87
-645.614
-645.435
-645.342
-647.959
-648.192
-648.295
-648.277
-648.154
-647.947
-647.675
-647.356
-647.019
-646.686
-646.375
-646.101
-645.881
-645.726
-645.646
-647.717
-647.961
-648.086
-648.099
-648.015
-647.853
-647.63
-647.361
-647.073
-646.786
-646.517
-646.278
-646.085
-645.949
-645.879
-647.544
-647.796
-647.936
-647.972
-647.915
-647.785
-647.596
-647.363
-647.111
-646.858
-646.618
-646.406
-646.232
-646.11
-646.047
-647.435
-647.691
-647.841
-647.89
-647.851
-647.741
-647.573
-647.363
-647.134
-646.902
-646.683
-646.487
-646.327
-646.214
-646.156
-647.387
-647.645
-647.798
-647.852
-647.82
-647.718