/*--------------------------------*- C++ -*----------------------------------*\
| =========                 |                                                 |
| \\      /  F ield         | OpenFOAM: The Open Source CFD Toolbox           |
|  \\    /   O peration     | Version:  5.x                                   |
|   \\  /    A nd           | Web:      www.OpenFOAM.org                      |
|    \\/     M anipulation  |                                                 |
\*---------------------------------------------------------------------------*/
FoamFile
{
    version     2.0;
    format      ascii;
    class       volScalarField;
    location    "9.4";
    object      gradTy;
}
// * * * * * * * * * * * * * * * * * * * * * * * * * * * * * * * * * * * * * //

dimensions      [0 -1 0 1 0 0 0];

internalField   nonuniform List<scalar> 
6300
(
1118.21
1354.29
1589.33
1822.64
2053.51
2281.24
2505.15
2724.53
2938.69
3146.96
3348.71
3543.33
3730.27
3909.07
4079.37
0.512323
1.53776
2.56533
3.59573
4.62839
5.66091
6.68839
7.70272
8.69183
9.63926
10.524
11.3209
12.0023
12.5401
12.9091
0.852965
2.56048
4.27235
5.99028
7.71399
9.44027
11.1618
12.8657
14.5325
16.1348
17.6371
18.996
20.1627
21.0871
21.7232
1.192
3.57871
5.97312
8.37879
10.7967
13.2241
15.6523
18.0652
20.437
22.7298
24.8929
26.8625
28.5646
29.9213
30.8594
1.52827
4.58911
7.66239
10.7547
13.8697
17.0065
20.1574
23.3052
26.4196
29.4537
32.3412
34.9953
37.3107
39.1723
40.4688
1.86016
5.58687
9.33235
13.1075
16.9203
20.7741
24.665
28.5777
32.4813
36.3228
40.0216
43.4651
46.509
48.9865
50.7295
2.18556
6.56565
10.9723
15.422
19.9291
24.5039
29.1496
33.8582
38.6036
43.3329
47.9554
52.3324
56.2713
59.5328
61.86
2.50194
7.51764
12.5688
17.6786
22.8696
28.1617
33.5702
39.1005
44.7404
50.4477
56.1324
61.6352
66.7082
71.0107
74.1432
2.80638
8.4339
14.106
19.8534
25.7079
31.702
37.8675
44.2314
50.8078
57.5828
64.4885
71.3649
77.9124
83.6554
87.9616
3.09593
9.3052
15.5674
21.9204
28.4056
35.0696
41.9646
49.1476
56.6742
64.5845
72.871
81.4201
89.9176
97.7335
103.86
3.36796
10.1232
16.9375
23.8542
30.9233
38.2046
45.772
53.7179
62.1544
71.2069
80.9877
91.5234
102.601
113.497
122.65
3.62056
10.8817
18.2045
25.6348
33.2276
41.0517
49.1989
57.7952
67.0155
77.098
88.3461
101.081
115.461
130.997
145.567
3.85297
11.5783
19.3631
27.2521
35.299
43.5739
52.1745
61.2459
71.0113
81.8202
94.214
108.99
127.16
149.458
174.332
4.06587
12.2149
20.4168
28.7103
37.1411
45.7684
54.677
63.9997
73.9605
84.9542
97.6964
113.498
134.727
165.336
209.806
4.26132
12.7982
21.378
30.03
38.7851
47.6798
56.7628
66.1127
75.8737
86.3362
98.1154
112.573
132.905
167.347
240.343
4227.44
4355.88
4478.14
4594.28
4704.41
4808.7
4907.38
5000.73
5089.05
5172.68
5251.98
5327.32
5399.08
5467.66
5533.44
5596.81
5658.15
5717.82
5776.17
5833.56
5890.31
5946.73
6003.11
6059.7
6116.75
6174.46
6233
6292.5
6353.08
6414.77
6477.62
6541.61
6606.7
6672.82
6739.89
6807.8
6876.41
6945.61
7015.22
7085.09
7155.02
7224.83
7294.29
7363.2
7431.32
7498.46
7564.4
7628.96
7691.95
7753.21
7812.59
7869.94
7925.12
7977.96
8028.31
8076.01
8120.86
8162.69
8201.3
8236.5
8268.07
8295.83
8319.54
8339.01
8353.98
8364.21
8369.41
8369.28
8363.47
8351.63
8333.33
8308.16
8275.64
8235.29
8186.61
8129.08
8062.15
7985.27
7897.9
7799.47
7689.43
7567.26
7432.43
7284.5
7123.04
6947.73
6758.32
6554.67
6336.76
6104.7
13.0753
13.0895
12.9662
12.7096
12.329
11.8369
11.2486
10.5806
9.84935
9.07078
8.25932
7.42775
6.58702
5.74636
4.9135
4.09493
3.29626
2.52261
1.77886
1.07003
0.401486
-0.220955
-0.790982
-1.30195
-1.74721
-2.12058
-2.41704
-2.63341
-2.76901
-2.82612
-2.80996
-2.72813
-2.58961
-2.40331
-2.17669
-1.91476
-1.61988
-1.29233
-0.931566
-0.537921
-0.114086
0.333918
0.796701
1.26248
1.7189
2.15516
2.56398
2.94283
3.29418
3.62478
3.9442
4.26295
4.59062
4.93431
5.29774
5.68113
6.08196
6.49636
6.92078
7.35354
7.7959
8.25245
8.7308
9.24074
9.79297
10.3978
11.0638
11.7968
12.5995
13.4709
14.4075
15.4036
16.4521
17.546
18.6781
19.8412
21.0277
22.2282
23.4307
24.6195
25.7743
26.8698
27.8759
28.7589
29.4828
30.012
30.3139
30.3621
30.1393
29.639
22.0101
22.0348
21.822
21.38
20.7253
19.8809
18.8742
17.7343
16.4904
15.1697
13.7969
12.3935
10.9775
9.56407
8.16558
6.79231
5.45306
4.15578
2.90818
1.71825
0.594702
-0.452763
-1.4134
-2.27561
-3.02752
-3.6578
-4.15694
-4.51859
-4.74097
-4.82786
-4.7888
-4.63818
-4.39317
-4.07082
-3.68511
-3.24478
-2.75282
-2.20765
-1.60579
-0.945365
-0.229361
0.532249
1.32226
2.11819
2.896
3.63463
4.32001
4.94751
5.52237
6.05817
6.57381
7.08982
7.62462
8.19151
8.7968
9.4397
10.1138
10.81
11.52
12.2392
12.9691
13.7179
14.4996
15.3324
16.2364
17.2307
18.3314
19.549
20.8879
22.3462
23.9163
25.5872
27.3462
29.1807
31.079
33.0301
35.0225
37.0426
39.072
41.0858
43.0509
44.9246
46.6555
48.1845
49.4478
50.3816
50.9266
51.0346
50.6733
49.8305
31.2841
31.3213
31.0075
30.3562
29.3941
28.158
26.6908
25.0373
23.2413
21.3431
19.3782
17.3768
15.3641
13.3602
11.3814
9.44081
7.5496
5.71769
3.95479
2.27127
0.678816
-0.809095
-2.17697
-3.4075
-4.48231
-5.38318
-6.09409
-6.60355
-6.90725
-7.01018
-6.9275
-6.68337
-6.30731
-5.82882
-5.27141
-4.64841
-3.96168
-3.2039
-2.36368
-1.43222
-0.409711
0.690251
1.83985
3.00052
4.13004
5.19129
6.15985
7.02842
7.80725
8.52099
9.20325
9.88996
10.6128
11.3937
12.242
13.1536
14.1142
15.1043
16.1062
17.1097
18.1154
19.1361
20.1948
21.3216
22.5497
23.9107
25.4305
27.1263
29.0044
31.0601
33.2797
35.6437
38.1313
40.7232
43.4033
46.1586
48.9767
51.8425
54.7346
57.6213
60.4576
63.1837
65.7244
67.9909
69.8859
71.3093
72.1671
72.3813
71.8987
70.6986
41.0584
41.1109
40.6767
39.7774
38.4548
36.7654
34.7731
32.5429
30.1367
27.6097
25.0091
22.374
19.7354
17.1177
14.5397
12.016
9.55866
7.17817
4.88513
2.69128
0.610557
-1.34005
-3.14002
-4.76532
-6.18917
-7.38372
-8.3229
-8.98637
-9.3642
-9.46135
-9.3003
-8.92012
-8.37062
-7.70213
-6.95391
-6.14559
-5.27467
-4.32074
-3.25491
-2.05221
-0.703705
0.774579
2.33925
3.92538
5.46002
6.87898
8.14119
9.23605
10.1832
11.0265
11.8236
12.6353
13.5143
14.4961
15.5931
16.7942
18.0689
19.3784
20.6871
21.9737
23.237
24.4964
25.7886
27.1617
28.6683
30.3583
32.2726
34.4375
36.8614
39.5343
42.4311
45.5184
48.7622
52.1343
55.6151
59.1924
62.8577
66.6001
70.4003
74.2243
78.0182
81.7049
85.1827
88.3273
90.9977
93.0457
94.329
94.7262
94.1523
92.5728
51.5272
51.5991
51.0137
49.8058
48.0417
45.807
43.1957
40.3
37.204
33.9801
30.6878
27.374
24.0747
20.8162
17.618
14.4942
11.4555
8.51134
5.67139
2.94722
0.35386
-2.0889
-4.35548
-6.41405
-8.22698
-9.75269
-10.9494
-11.7811
-12.226
-12.2849
-11.9893
-11.4013
-10.606
-9.69096
-8.7237
-7.7337
-6.70806
-5.59957
-4.34417
-2.88313
-1.18567
0.733329
2.80644
4.92304
6.95511
8.79091
10.362
11.6547
12.7073
13.5967
14.4212
15.282
16.266
17.4304
18.7925
20.3265
21.9716
23.6514
25.2975
26.8691
28.3619
29.8072
31.2636
32.8072
34.5201
36.4802
38.751
41.3729
44.3569
47.6829
51.305
55.1643
59.2048
63.3854
67.6841
72.0956
76.6235
81.2702
86.0273
90.8659
95.7283
100.522
105.116
109.341
113
115.878
117.761
118.463
117.848
115.857
62.934
63.0309
62.244
60.6326
58.3034
55.3886
52.0258
48.3436
44.4537
40.4474
36.3957
32.3518
28.3535
24.4266
20.5881
16.8486
13.2152
9.6936
6.29016
3.01417
-0.120205
-3.09184
-5.87077
-8.41672
-10.6786
-12.5955
-14.1015
-15.1331
-15.6434
-15.6193
-15.0991
-14.1814
-13.0137
-11.7552
-10.5264
-9.37336
-8.261
-7.09027
-5.72985
-4.05484
-1.98705
0.469631
3.21037
6.04166
8.73197
11.0832
12.9825
14.4182
15.4654
16.2595
16.9655
17.7504
18.7568
20.079
21.7431
23.6973
25.823
27.9715
30.0136
31.8762
33.5538
35.1002
36.6114
38.2071
40.0142
42.1528
44.7218
47.7849
51.3579
55.4027
59.8346
64.5466
69.4431
74.4633
79.5875
84.8281
90.2147
95.7777
101.533
107.469
113.533
119.622
125.574
131.166
136.123
140.137
142.89
144.092
143.521
141.074
75.6042
75.7327
74.6591
72.4906
69.4062
65.6135
61.3143
56.6855
51.8708
46.98
42.0929
37.2645
32.5301
27.9105
23.4164
19.0513
14.8152
10.7071
6.72698
2.87889
-0.82678
-4.37031
-7.71948
-10.8263
-13.6244
-16.0279
-17.9341
-19.2332
-19.8278
-19.6655
-18.7789
-17.319
-15.5496
-13.7744
-12.2177
-10.9521
-9.89573
-8.85188
-7.56633
-5.78991
-3.3462
-0.200902
3.48601
7.36532
10.9991
14.028
16.2727
17.7427
18.5898
19.0508
19.3983
19.9018
20.7947
22.2373
24.2779
26.8228
29.6434
32.4465
34.9897
37.1512
38.936
40.4455
41.839
43.3038
45.0325
47.2072
49.9825
53.4636
57.6803
62.566
67.9617
73.6639
79.5033
85.3917
91.3233
97.35
103.551
110.007
116.778
123.887
131.302
138.919
146.549
153.902
160.603
166.209
170.251
172.27
171.896
168.93
89.9989
90.1625
88.6482
85.665
81.527
76.5653
71.075
65.2931
59.3956
53.5059
47.7048
42.0413
36.5411
31.214
26.059
21.0685
16.2317
11.5369
6.97464
2.53966
-1.76557
-5.92726
-9.91557
-13.6788
-17.1367
-20.1745
-22.6391
-24.3457
-25.1003
-24.7525
-23.2822
-20.9005
-18.0919
-15.4771
-13.4878
-12.2279
-11.5106
-10.9599
-10.1081
-8.48435
-5.71412
-1.6499
3.48601
9.04384
14.1386
18.103
20.6798
21.9653
22.2711
22.0066
21.607
21.4936
22.0421
23.5354
26.0874
29.5524
33.4898
37.2966
40.5162
42.9694
44.7155
45.9579
46.9646
48.0209
49.4088
51.397
54.227
58.0832
63.0394
68.9947
75.6469
82.5828
89.4922
96.257
102.921
109.619
116.519
123.782
131.535
139.861
148.775
158.196
167.917
177.575
186.653
194.532
200.519
203.892
203.999
200.439
106.822
107.005
104.749
100.499
94.8303
88.2746
81.252
74.0626
66.9047
59.8996
53.1142
46.5786
40.2988
34.2658
28.4611
22.8612
17.4404
12.1731
7.03623
2.01103
-2.9134
-7.73604
-12.4378
-16.9728
-21.2559
-25.1478
-28.4373
-30.8306
-31.9617
-31.4574
-29.0992
-25.0982
-20.357
-16.2805
-13.7097
-12.7242
-12.8876
-13.5033
-13.7636
-12.8321
-9.94789
-4.64476
2.87562
11.3862
18.9025
24.1727
26.9429
27.595
26.7699
25.1532
23.3998
22.1282
21.9249
23.3051
26.578
31.5974
37.52
42.9877
47.1415
49.8009
51.2154
51.8051
52.0135
52.2551
52.9154
54.3691
56.9883
61.113
66.9539
74.414
82.9173
91.5332
99.6826
107.261
114.461
121.589
128.958
136.841
145.459
154.98
165.507
177.031
189.368
202.071
214.42
225.568
234.54
240.203
241.371
237.151
127.253
127.356
123.713
117.371
109.406
100.652
91.6655
82.7841
74.1916
65.975
58.1621
50.7458
43.7
36.9878
30.5675
24.3954
18.4276
12.6216
6.9371
1.33763
-4.20724
-9.7181
-15.1993
-20.6281
-25.9372
-30.9869
-35.5244
-39.1311
-41.1761
-40.8304
-37.28
-30.3601
-21.6635
-14.9147
-11.6479
-11.5653
-13.6124
-16.5576
-19.1343
-19.9904
-17.6639
-10.8316
0.839915
15.1607
26.9006
33.842
36.2553
35.3515
32.4082
28.4966
24.4989
21.2244
19.5273
20.3494
24.5535
32.3414
42.2047
50.5699
55.9178
58.4242
58.9017
58.2001
57.0138
55.8855
55.2786
55.6619
57.5803
61.6704
68.5351
78.3292
90.0233
101.153
110.693
118.806
126.1
133.209
140.654
148.836
158.076
168.648
180.796
194.691
210.287
227.071
243.907
259.729
273.319
282.979
286.492
281.693
153.556
153.093
146.56
136.574
125.113
113.358
101.924
91.0858
80.9343
71.4669
62.6368
54.3782
46.6195
39.2886
32.316
25.635
19.1819
12.8953
6.716
0.586318
-5.5491
-11.7417
-18.0348
-24.4543
-30.9903
-37.5617
-43.9493
-49.6782
-53.8308
-54.8153
-50.3107
-38.1785
-20.1636
-8.5334
-4.99973
-7.33839
-13.0424
-20.1414
-26.9812
-31.73
-31.8666
-23.9855
-5.00983
22.652
41.8088
50.0313
50.3443
46.0446
39.4406
31.9638
24.5568
18.0495
13.5028
12.5239
17.3688
30.0968
49.0466
62.4963
68.7849
69.9682
68.2851
65.2924
61.9297
58.7643
56.2151
54.7438
55.0444
58.2317
65.8968
79.5067
97.9404
113.059
123.756
131.526
138.002
144.343
151.285
159.306
168.769
180.04
193.566
209.894
229.489
251.987
274.847
297.097
317.748
334.598
343.572
339.082
190.975
187.564
174.375
157.897
141.237
125.598
111.32
98.394
86.6873
76.0369
66.2845
57.2873
48.9197
41.0707
33.6421
26.5443
19.6944
13.013
6.42196
-0.157926
-6.80954
-13.6213
-20.6887
-28.1126
-35.9923
-44.4007
-53.3219
-62.4944
-71.0463
-76.7035
-74.3243
-54.4677
-9.47014
9.50617
10.1037
1.73377
-10.4642
-24.0986
-37.8393
-50.1111
-57.6151
-53.116
-23.3688
42.3883
72.4594
77.6076
71.0723
60.0532
47.7274
35.3279
23.3171
12.049
2.33881
-3.68972
-1.16952
18.8904
63.8052
84.731
89
85.6359
79.5506
72.9137
66.5577
60.7523
55.5958
51.2705
48.3479
48.3416
54.6938
73.7336
110.626
131.326
141.025
146.106
150.09
154.604
160.356
167.689
176.851
188.178
202.29
220.383
244.5
276.369
306.654
336.754
367.634
397.546
420.025
420.904
255.087
236.106
206.917
179.476
155.883
135.871
118.764
103.943
90.916
79.311
68.8424
59.2882
50.4713
42.2466
34.4909
27.0962
19.964
13.0005
6.11229
-0.798226
-7.83835
-15.1317
-22.8276
-31.113
-40.2306
-50.4989
-62.3299
-76.2007
-92.4268
-110.16
-123.502
-106.957
38.6951
54.0114
38.1205
16.3188
-5.81664
-27.901
-50.8103
-75.3554
-100.645
-118.601
-93.5802
113.512
138.997
122.006
98.2553
75.9419
56.1194
38.1322
21.0081
3.80601
-14.1258
-32.2123
-44.9639
-28.1068
113.107
130.95
120.204
105.22
91.6085
80.129
70.392
61.8047
53.7788
45.777
37.4515
29.2948
25.2198
42.2514
146.626
165.432
164.942
162.258
161.413
163.076
167.148
173.433
181.81
192.301
205.276
222.192
248.339
303.025
338.716
375.279
418.899
471.183
527.571
561.546
405.798
299.337
236.93
195.508
165.365
141.954
122.913
106.902
93.0931
80.9449
70.0801
60.2241
51.1677
42.7448
34.8179
27.2685
19.9893
12.8785
5.83412
-1.25227
-8.50255
-16.0624
-24.1168
-32.9143
-42.8104
-54.3453
-68.3984
-86.5124
-111.633
-149.938
-215.71
-345.357
274.542
143.452
74.6471
31.3831
-1.24286
-30.5151
-61.4244
-99.5255
-154.231
-245.968
-425.971
446.144
266.696
176.133
123.364
88.2406
61.8661
39.6917
18.8104
-3.38674
-30.3678
-68.4161
-131.393
-254.177
340.058
218.329
157.509
122.823
100.593
84.8317
72.5678
62.0464
51.9247
40.7476
26.3103
4.36897
-34.6485
-115.007
305.839
227.316
192.014
175.756
169.116
168.073
170.745
176.16
183.715
192.839
202.581
210.696
211.074
357.021
369.508
403.625
457.673
538.891
667.37
893.169
5834.14
5519.53
5186.34
4835.67
4468.77
4087.01
3691.86
3284.81
2867.35
2440.98
2007.15
1567.29
1122.78
674.978
225.211
28.7897
27.4995
25.8959
24.0422
22.0066
19.8547
17.6438
15.4199
13.2163
11.0545
8.94501
6.88937
4.88226
2.9132
0.968304
48.3849
46.1793
43.4366
40.2717
36.8065
33.1563
29.4205
25.677
21.981
18.3663
14.8486
11.4285
8.09488
4.82855
1.60468
68.6063
65.3935
61.3973
56.7995
51.7894
46.5421
41.2039
35.8859
30.6637
25.581
20.6547
15.8811
11.2403
6.70146
2.22656
89.7539
85.3872
79.9562
73.7363
67.0066
60.0161
52.9647
45.9971
39.2057
32.6384
26.308
20.2008
14.2836
8.51046
2.8267
112.188
106.441
99.2997
91.1789
82.4811
73.548
64.6389
55.9295
47.5213
39.4573
31.7373
24.33
17.183
10.23
3.39656
136.363
128.884
119.619
109.195
98.1877
87.053
76.1109
65.5577
55.4897
45.93
36.8524
28.1981
19.8879
11.8301
3.92613
162.874
153.111
141.096
127.793
114.019
100.363
87.1927
74.699
62.9472
51.9181
41.5423
31.721
22.3397
13.2761
4.40402
192.537
179.586
163.856
146.858
129.729
113.185
97.5958
83.0975
69.6801
57.251
45.6758
34.8024
24.473
14.5301
4.81781
226.522
208.828
187.875
166.045
144.847
125.045
106.904
90.4125
75.4227
61.7278
49.1056
37.3383
26.2191
15.553
5.1548
266.595
241.322
212.764
184.593
158.566
135.238
114.556
96.2222
79.8676
65.1294
51.6786
39.2247
27.511
16.3076
5.40304
315.465
277.094
237.263
200.99
169.582
142.78
119.857
100.05
82.6928
67.2408
53.2526
40.3692
28.2917
16.7627
5.55269
376.928
314.313
258.19
212.517
175.984
146.437
122.038
101.423
83.6104
67.8856
53.7196
40.7065
28.5227
16.8984
5.59752
453.016
345.03
268.655
214.895
175.395
144.938
120.43
99.9922
82.4366
66.9688
53.0314
40.2129
28.1933
16.7102
5.53635
518.676
344.125
256.498
203.004
165.756
137.486
114.745
95.6759
79.1719
64.5188
51.2222
38.9191
27.3266
16.2123
5.37398
4.42828
13.2962
22.1972
31.1505
40.171
49.2673
58.4411
67.6894
77.0156
86.4625
96.2001
106.744
119.488
138.028
171.45
4.57122
13.7229
22.9007
32.1159
41.3697
50.646
59.9013
69.0492
77.9369
86.3097
93.7507
99.542
102.179
97.2308
67.2399
4.70765
14.1313
23.5777
33.0537
42.5515
52.0377
61.4343
70.5877
79.2137
86.8013
92.4434
94.5274
90.1361
73.8204
35.5899
4.83817
14.5235
24.2335
33.9753
43.7402
53.4899
63.1343
72.4907
81.2097
88.6416
93.6038
94.0068
86.3709
65.6268
26.82
4.96233
14.8984
24.8665
34.88
44.9381
55.0137
65.0326
74.8343
84.0971
92.1943
97.9277
99.0667
91.7052
69.9749
28.3503
5.07848
15.2507
25.4674
35.7529
46.1226
56.5752
67.0798
77.5502
87.7914
97.3856
105.44
110.027
107.016
88.1363
40.349
5.18391
15.5719
26.0198
36.5663
47.248
58.0989
69.1491
80.4232
91.9325
103.643
115.357
126.26
133.342
126.37
75.2013
5.27527
15.851
26.503
37.2847
48.2546
59.4825
71.061
83.131
95.9309
109.896
125.834
145.143
169.426
195.293
178.964
5.34903
16.0769
26.8957
37.8714
49.0806
60.6207
72.6298
85.3299
99.1179
114.774
133.968
160.567
204.404
293.514
519.943
5.402
16.2394
27.1787
38.295
49.6755
61.4312
73.7166
86.7711
101.005
117.193
136.955
164.017
207.937
296.366
521.097
5.43168
16.3307
27.3384
38.5341
50.0084
61.8719
74.2672
87.3913
101.532
117.128
134.868
155.756
180.556
204.555
182.852
5.4365
16.3461
27.3669
38.5787
50.0699
61.9414
74.3094
87.3033
101.045
115.57
130.59
144.775
153.725
144.477
83.4929
5.41582
16.2838
27.2621
38.4284
49.866
61.6643
73.9148
86.6939
100.011
113.667
126.888
137.425
139.529
120.323
57.7432
5.36976
16.1446
27.0262
38.0888
49.4103
61.0716
73.1512
85.7084
98.7388
112.062
125.047
135.928
140.126
126.285
68.7329
5.29906
15.9307
26.6638
37.5683
48.7173
60.1867
72.0539
84.392
97.2605
110.69
124.664
139.067
153.248
162.6
135.216
5.20492
15.6461
26.1818
36.8772
47.8005
59.0241
70.6277
82.7052
95.39
108.936
123.98
142.356
169.72
224.42
370.481
5.0889
15.2953
25.5882
36.0268
46.6737
57.5961
68.8705
80.5945
92.9186
106.14
120.978
139.399
167.204
222.79
369.972
4.95289
14.8842
24.8926
35.031
45.3543
55.9219
66.7994
78.0652
89.8217
102.218
115.485
129.922
145.393
157.544
133.764
4.79902
14.4192
24.1063
33.9056
43.8642
54.0308
64.4568
75.193
86.278
97.6896
109.177
119.722
125.884
117.246
66.8203
4.62963
13.9075
23.2414
32.6689
42.2283
51.9582
61.8969
72.0766
82.5053
93.1051
103.521
112.563
116.65
105.964
57.6632
4.4472
13.3566
22.3108
31.3397
40.4728
49.7393
59.1678
68.7853
78.6117
88.6455
98.8171
108.843
117.67
120.802
95.0499
4.25427
12.7742
21.3279
29.9374
38.6236
47.4064
56.306
65.347
74.572
84.0878
94.2113
105.953
122.642
155.696
246.564
4.05334
12.1679
20.3057
28.4811
36.7062
44.9911
53.3446
61.779
70.3284
79.1056
88.4797
99.6234
116.246
150.435
244.333
3.84683
11.5452
19.257
26.9894
34.7462
42.527
50.3256
58.1297
65.9247
73.7067
81.5168
89.4864
97.6486
103.707
87.3602
3.63698
10.9128
18.1936
25.48
32.7687
40.0494
47.3014
54.4853
61.5284
68.2862
74.4411
79.2132
80.5095
72.535
40.3669
3.42573
10.2768
17.1257
23.9683
30.7957
37.5907
44.323
50.9372
57.3286
63.2823
68.3237
71.3516
69.8062
58.1622
27.0986
3.2147
9.64193
16.0618
22.4667
28.8442
35.1745
41.4252
47.5425
53.4312
58.9103
63.6026
66.664
66.114
57.2736
29.8945
3.0051
9.01192
15.0079
20.9834
26.9248
32.8126
38.619
44.305
49.8169
55.083
60.0124
64.4822
68.1772
69.2575
55.1964
2.79775
8.3892
13.9679
19.5232
25.0418
30.5062
35.8952
41.1871
46.3716
51.488
56.7396
62.8365
72.0541
91.7541
147.394
2.59315
7.77513
12.9436
18.0881
23.1957
28.2512
33.2379
38.1428
42.9724
47.7975
52.8783
59.0218
68.6495
89.29
146.464
2.39149
7.17021
11.9357
16.678
21.3852
26.0432
30.6364
35.1496
39.5751
43.9279
48.2775
52.7858
57.5952
61.4522
52.1837
2.19272
6.57424
10.9436
15.2918
19.6081
23.8794
28.0894
32.2163
36.2271
40.0592
43.5649
46.339
47.2005
42.7276
23.9422
1.99663
5.9865
9.96598
13.9274
17.8616
21.7573
25.5992
29.3627
33.0021
36.416
39.3591
41.2192
40.5086
33.941
15.9076
1.80282
5.4058
9.0006
12.5813
16.1412
19.672
23.1625
26.5944
29.9326
33.0986
35.904
37.8832
37.8829
33.1156
17.4433
1.61082
4.8306
8.04472
11.2494
14.4405
17.6141
20.7657
23.8903
26.9817
30.0304
33.0214
35.9206
38.5664
39.8619
32.3218
1.42007
4.25917
7.09518
9.92636
12.7515
15.5708
18.3868
21.2085
24.0594
27.0013
30.2017
34.1325
40.1863
52.7427
86.8545
1.23
3.68973
6.14875
8.60718
11.0662
13.5291
16.0035
18.5058
21.073
23.7916
26.8736
30.8688
37.2891
50.6527
86.0675
1.04009
3.12065
5.20251
7.28726
9.37774
11.479
13.6001
15.7572
17.9807
20.3284
22.9105
25.9199
29.5687
33.2476
29.7726
0.849887
2.55054
4.25405
5.96305
7.68137
9.41463
11.171
12.9619
14.8015
16.7017
18.6497
20.5259
21.8263
20.8092
12.4142
0.659036
1.97835
3.3016
4.63212
5.97426
7.33372
8.71742
10.1321
11.5795
13.0409
14.4378
15.531
15.6923
13.4935
6.46738
0.46729
1.40333
2.34394
3.29287
4.2548
5.23556
6.2418
7.27918
8.34701
9.42419
10.4361
11.1823
11.1963
9.52923
4.62347
0.274504
0.825041
1.38037
1.94438
2.52197
3.11935
3.74411
4.40457
5.10747
5.85215
6.61812
7.3412
7.86697
7.81327
5.79382
0.0806328
0.243353
0.410647
0.586283
0.775151
0.983818
1.22127
1.50005
1.83838
2.2647
2.82929
3.63629
4.9391
7.46142
13.6079
-0.114267
-0.341571
-0.564975
-0.78116
-0.985629
-1.17197
-1.33059
-1.44616
-1.49225
-1.41934
-1.12844
-0.413726
1.16337
4.59143
12.472
-0.310036
-0.929248
-1.54569
-2.15686
-2.75917
-3.34724
-3.91259
-4.44091
-4.90587
-5.25522
-5.381
-5.06329
-3.89862
-1.3719
2.0127
-0.50641
-1.51888
-2.53013
-3.53881
-4.54274
-5.53846
-6.5205
-7.47986
-8.40002
-9.24674
-9.94197
-10.3015
-9.90715
-7.93182
-3.30153
-0.703033
-2.10937
-3.51638
-4.92412
-6.3321
-7.73929
-9.14432
-10.5462
-11.9453
-13.3437
-14.7363
-16.0637
-17.014
-16.3359
-9.98601
-0.899469
-2.69939
-4.50213
-6.30927
-8.12204
-9.94166
-11.7704
-13.6145
-15.4913
-17.4447
-19.5762
-22.0878
-25.2518
-28.6788
-26.1304
-1.09522
-3.28743
-5.48481
-7.69048
-9.90721
-12.1377
-14.3858
-16.6601
-18.984
-21.4222
-24.1521
-27.659
-33.3068
-45.1714
-76.7971
-1.28974
-3.87185
-6.46168
-9.06395
-11.6827
-14.3214
-16.9829
-19.6711
-22.3971
-25.1969
-28.1881
-31.7435
-37.0443
-47.9407
-77.8612
-1.48243
-4.45086
-7.42985
-10.4259
-13.4444
-16.4892
-19.5611
-22.6558
-25.7588
-28.8386
-31.8319
-34.6156
-36.8957
-37.4983
-29.6164
-1.67262
-5.02249
-8.3861
-11.772
-15.1876
-18.6379
-22.1234
-25.6342
-29.1364
-32.54
-35.6209
-37.8372
-37.9115
-32.9477
-17.0318
-1.85956
-5.5845
-9.32675
-13.0974
-16.9064
-20.7619
-24.6679
-28.6182
-32.582
-36.4651
-40.0097
-42.5456
-42.4254
-36.0021
-17.0497
-2.04243
-6.13439
-10.2476
-14.3958
-18.5926
-22.8506
-27.1811
-31.5923
-36.0831
-40.6247
-45.0983
-49.098
-51.3157
-47.7568
-27.5859
-2.22033
-6.66944
-11.1438
-15.6603
-20.236
-24.8885
-29.6379
-34.5105
-39.5483
-44.8307
-50.5153
-56.8869
-64.2165
-71.0466
-62.4279
-2.39234
-7.1868
-12.0106
-16.8835
-21.8256
-26.8587
-32.0086
-37.3132
-42.843
-48.7565
-55.4541
-64.0095
-77.463
-105.063
-177.989
-2.55752
-7.68365
-12.8431
-18.0582
-23.3517
-28.7472
-34.2713
-39.959
-45.8702
-52.137
-59.1018
-67.7292
-80.8838
-107.602
-178.962
-2.71494
-8.15722
-13.6367
-19.1782
-24.8064
-30.5457
-36.4195
-42.4487
-48.6496
-55.0316
-61.5936
-68.3035
-74.8841
-79.1364
-65.6125
-2.8637
-8.60479
-14.3869
-20.2375
-26.1834
-32.2503
-38.4591
-44.8182
-51.3022
-57.7999
-63.9815
-68.9662
-70.4995
-63.0139
-33.9982
-3.00291
-9.02368
-15.0894
-21.2301
-27.4758
-33.8556
-40.3936
-47.0999
-53.9442
-60.7865
-67.1991
-72.0243
-72.3766
-61.8414
-29.453
-3.13168
-9.4112
-15.7394
-22.1492
-28.6746
-35.3502
-42.2102
-49.2847
-56.5862
-64.0703
-71.5174
-78.187
-81.8126
-75.8435
-43.322
-3.24916
-9.76473
-16.3323
-22.9877
-29.7685
-36.7158
-43.8769
-51.3107
-59.1003
-67.3782
-76.374
-86.4615
-97.9098
-108.283
-94.7749
-3.3546
-10.0819
-16.8639
-23.7385
-30.7461
-37.9322
-45.3531
-53.0884
-61.2738
-70.1859
-80.4708
-93.789
-114.751
-157.304
-268.477
-3.4474
-10.3609
-17.3309
-24.3963
-31.5989
-38.9847
-46.61
-54.5523
-62.9413
-72.0385
-82.4591
-95.8057
-116.597
-158.668
-268.998
-3.52714
-10.6004
-17.7311
-24.9585
-32.3235
-39.87
-47.6455
-55.7048
-64.1153
-72.9703
-82.4136
-92.6503
-103.662
-112.626
-96.4791
-3.59359
-10.7999
-18.0638
-25.4244
-32.9215
-40.5951
-48.4828
-56.612
-64.9791
-73.4918
-81.8149
-88.9545
-92.1464
-84.0183
-46.7435
-3.64668
-10.9591
-18.3289
-25.7948
-33.396
-41.1705
-49.151
-57.3526
-65.7402
-74.1432
-82.0361
-87.998
-88.4896
-75.6495
-36.0431
-3.68646
-11.0782
-18.5268
-26.0707
-33.7493
-41.6018
-49.6645
-57.9626
-66.489
-75.1468
-83.5961
-90.838
-94.0888
-85.8666
-47.8971
-3.71306
-11.1577
-18.658
-26.2525
-33.9811
-41.8861
-50.0131
-58.4125
-67.1448
-76.2933
-85.9925
-96.4473
-107.653
-116.739
-99.9058
-3.72675
-11.1981
-18.7234
-26.3404
-34.0894
-42.0152
-50.1713
-58.6298
-67.5097
-77.0554
-87.8621
-101.533
-122.685
-165.609
-278.98
-3.72796
-11.2008
-18.7247
-26.336
-34.0739
-41.9832
-50.1181
-58.553
-67.4105
-76.9396
-87.7405
-101.42
-122.596
-165.553
-278.962
-3.71737
-11.1676
-18.6649
-26.243
-33.9386
-41.7933
-49.8552
-58.1813
-66.8431
-75.9386
-85.6179
-96.098
-107.376
-116.57
-99.8515
-3.69593
-11.1015
-18.5486
-26.0676
-33.6917
-41.4584
-49.4074
-57.575
-65.9727
-74.5299
-82.9367
-90.2194
-93.6017
-85.5765
-47.8116
-3.66492
-11.0061
-18.382
-25.8185
-33.345
-40.9956
-48.8065
-56.8072
-64.9897
-73.2237
-81.0338
-87.0469
-87.7466
-75.2338
-35.9499
-3.62596
-10.8863
-18.1729
-25.5062
-32.9113
-40.4202
-48.0724
-55.9116
-63.9691
-72.2099
-80.3766
-87.562
-91.0642
-83.48
-46.737
-3.58104
-10.7481
-17.9309
-25.1432
-32.4046
-39.7442
-47.207
-54.8627
-62.8194
-71.2454
-80.3985
-90.6322
-102.078
-111.973
-96.9192
-3.53259
-10.5986
-17.6678
-24.7455
-31.8426
-38.9816
-46.2064
-53.6031
-61.342
-69.7738
-79.6679
-92.858
-114.165
-157.788
-271.255
-3.48348
-10.4466
-17.3984
-24.3335
-31.2506
-38.1581
-45.0851
-52.1045
-59.3816
-67.2846
-76.646
-89.4439
-110.753
-155.095
-270.183
-3.43698
-10.302
-17.1402
-23.9334
-30.6644
-37.3199
-43.8984
-50.4253
-56.985
-63.7805
-71.2355
-80.1166
-91.341
-103.269
-93.3443
-3.39658
-10.1759
-16.9127
-23.5758
-30.1296
-36.5342
-42.7461
-48.7219
-54.4232
-59.8163
-64.8324
-69.1597
-71.4377
-66.6157
-39.2547
-3.3657
-10.079
-16.7361
-23.2933
-29.6975
-35.8811
-41.7566
-47.2077
-52.0737
-56.1121
-58.9056
-59.6237
-56.4628
-45.6123
-20.6834
-3.34732
-10.0208
-16.6282
-23.1165
-29.4177
-35.4409
-41.0604
-46.0986
-50.2974
-53.2707
-54.4184
-52.7796
-46.8261
-34.384
-13.5268
-3.34354
-10.0083
-16.6027
-23.0689
-29.3301
-35.28
-40.7668
-45.5708
-49.3705
-51.6953
-51.8645
-48.9302
-41.694
-28.9985
-10.6727
-3.35517
-10.0442
-16.6659
-23.163
-29.4578
-35.4395
-40.9462
-45.7391
-49.4663
-51.6152
-51.4644
-48.0665
-40.3517
-27.5221
-9.91535
-3.3815
-10.1267
-16.8151
-23.3969
-29.8021
-35.9279
-41.6201
-46.6463
-50.6564
-53.1304
-53.3175
-50.1993
-42.5601
-29.3622
-10.7021
-3.4201
-10.2484
-17.0379
-23.7528
-30.3395
-36.7162
-42.7553
-48.2575
-52.9118
-56.2319
-57.4645
-55.4699
-48.6274
-34.9947
-13.394
-3.4669
-10.3967
-17.3122
-24.1969
-31.0219
-37.7378
-44.2618
-50.4562
-56.092
-60.7812
-63.8508
-64.1054
-59.4087
-46.1593
-19.688
-3.51643
-10.5545
-17.6074
-24.6819
-31.7792
-38.8916
-45.9956
-53.0412
-59.9278
-66.4531
-72.1901
-76.1772
-76.1275
-66.5039
-34.9434
-3.56225
-10.7019
-17.8873
-25.1503
-32.5251
-40.0498
-47.7686
-55.7347
-64.0124
-72.6705
-81.7422
-91.05
-99.4925
-102.079
-76.8135
-3.59746
-10.8172
-18.1128
-25.5405
-33.1661
-41.072
-49.3681
-58.2099
-67.8307
-78.5986
-91.128
-106.52
-126.922
-156.993
-207.821
365.696
273.03
216.97
178.402
149.304
125.958
106.416
89.5401
74.6074
61.1212
48.721
37.1305
26.127
15.5221
5.14871
133.682
174.397
166.235
148.366
129.786
112.492
96.7612
82.451
69.335
57.1908
45.8204
35.0507
24.7286
14.716
4.88534
59.0593
109.703
122.238
118.818
109.372
97.9374
86.1177
74.5305
63.3858
52.7215
42.5017
32.6593
23.1146
13.7833
4.58022
31.2934
71.469
89.3162
93.4526
90.3365
83.6476
75.3105
66.3006
57.1013
47.9422
38.9199
30.0604
21.3518
12.7614
4.24535
19.0902
48.7393
65.9137
73.1211
73.7795
70.5001
64.9686
58.2004
50.7874
43.0666
35.2239
27.3561
19.5066
11.6875
3.89279
12.8112
34.6712
49.4309
57.3356
59.9552
58.9148
55.4837
50.5464
44.6859
38.2744
31.5446
24.6383
17.6397
10.5963
3.53382
9.14465
25.533
37.7071
45.2189
48.6709
48.9881
47.0433
43.5323
38.9658
33.7024
27.987
21.9842
15.8035
9.5182
3.17835
6.79792
19.3207
29.2201
35.9202
39.5625
40.6309
39.6893
37.2499
33.7288
29.4434
24.6283
19.4529
14.0397
8.47771
2.83449
5.1962
14.9296
22.954
28.7441
32.2403
33.6685
33.3743
31.7178
29.0215
25.5516
21.519
17.0865
12.3789
7.49342
2.50847
4.05196
11.7251
18.2391
23.1601
26.3535
27.9013
28.0044
26.9071
24.8506
22.05
18.6871
14.9105
10.8412
6.57806
2.20461
3.20678
9.32511
14.6299
18.7752
21.6088
23.1366
23.4673
22.7618
21.1957
18.9384
16.1418
12.9376
9.43794
5.73911
1.92552
2.56656
7.48986
11.8255
15.3008
17.7703
19.2024
19.6494
19.2134
18.0204
16.2008
13.8792
11.1694
8.17274
4.97972
1.67241
2.07198
6.0625
9.61825
12.5245
14.6516
15.952
16.444
16.1904
15.2796
13.8113
11.886
9.60019
7.0437
4.29958
1.44529
1.68391
4.9369
7.86178
10.2888
12.1065
13.2627
13.756
13.6232
12.9258
11.7388
10.1428
8.21868
6.04477
3.69582
1.24335
1.37551
4.03902
6.45082
8.47607
10.0205
11.0332
11.5024
11.4478
10.9115
9.94994
8.62718
7.01045
5.16722
3.16385
1.06516
1.12784
3.31583
5.30811
6.99698
8.30358
9.18092
9.61229
9.60658
9.19231
8.41168
7.3155
5.95932
4.40076
2.69798
0.908897
0.927153
2.72847
4.37595
5.78317
6.8845
7.63808
8.02545
8.04884
7.72728
7.09233
6.18419
5.04857
3.73435
2.29196
0.772551
0.763241
2.24785
3.61054
4.78162
5.70673
6.34936
6.69115
6.73044
6.47969
5.9625
5.21068
4.26172
3.15682
1.93938
0.654025
0.628384
1.85185
2.97808
3.95077
4.72499
5.26938
5.56674
5.61327
5.41696
4.99545
4.37392
3.58305
2.65737
1.63391
0.551241
0.516641
1.52332
2.45217
3.25764
3.90273
4.36082
4.61637
4.6646
4.51046
4.16717
3.65464
2.99791
2.22574
1.3695
0.462205
0.423358
1.2488
2.01188
2.6758
3.21021
3.59279
3.80985
3.85634
3.73518
3.4563
3.03541
2.49285
1.85244
1.14051
0.38504
0.34484
1.01754
1.64041
2.18381
2.62305
2.93959
3.12167
3.16439
3.06934
2.84395
2.50058
2.05566
1.52875
0.941716
0.318013
0.278106
0.820859
1.32408
1.7641
2.12103
2.37969
2.53018
2.56801
2.49393
2.31344
2.0362
1.67535
1.24676
0.768364
0.259534
0.220708
0.651609
1.05159
1.40204
1.68719
1.89484
2.01685
2.04928
1.99233
1.85004
1.62983
1.34203
0.999318
0.616126
0.208155
0.170607
0.503815
0.813455
1.08528
1.30711
1.46941
1.56567
1.59256
1.54994
1.44068
1.27034
1.04682
0.779954
0.481074
0.162563
0.126061
0.372371
0.601556
0.803203
0.968326
1.08979
1.16259
1.18405
1.15378
1.07369
0.947729
0.781663
0.582797
0.359639
0.121557
0.0855447
0.252804
0.408756
0.546458
0.659825
0.743914
0.795135
0.811399
0.792183
0.738524
0.652931
0.539254
0.402488
0.248553
0.0840412
0.047684