/*--------------------------------*- C++ -*----------------------------------*\
| =========                 |                                                 |
| \\      /  F ield         | OpenFOAM: The Open Source CFD Toolbox           |
|  \\    /   O peration     | Version:  5.x                                   |
|   \\  /    A nd           | Web:      www.OpenFOAM.org                      |
|    \\/     M anipulation  |                                                 |
\*---------------------------------------------------------------------------*/
FoamFile
{
    version     2.0;
    format      ascii;
    class       volScalarField;
    location    "9.9";
    object      T;
}
// * * * * * * * * * * * * * * * * * * * * * * * * * * * * * * * * * * * * * //

dimensions      [0 0 0 1 0 0 0];

internalField   nonuniform List<scalar> 
6300
(
10.9375
12.8098
14.6738
16.524
18.3548
20.1607
21.9361
23.6756
25.3736
27.025
28.6247
30.168
31.6506
33.0691
34.4205
10.9403
12.818
14.6875
16.5431
18.3794
20.1907
21.9715
23.7163
25.4195
27.0759
28.6802
30.2276
31.7138
33.1351
34.4884
10.9457
12.8343
14.7147
16.5812
18.4284
20.2507
22.0424
23.7979
25.5116
27.178
28.7917
30.3475
31.8409
33.2679
34.625
10.9538
12.8587
14.7554
16.6384
18.502
20.3408
22.1489
23.9207
25.6504
27.332
28.9601
30.5289
32.0335
33.4693
34.8325
10.9647
12.8913
14.8097
16.7145
18.6002
20.461
22.2912
24.085
25.8363
27.5389
29.1867
30.7737
32.2939
33.7421
35.114
10.9782
12.9318
14.8774
16.8095
18.7227
20.6113
22.4694
24.2911
26.0701
27.7998
29.4734
31.0842
32.6252
34.0902
35.4737
10.9943
12.9802
14.9583
16.9232
18.8694
20.7915
22.6835
24.5393
26.3524
28.1158
29.8221
31.4633
33.0315
34.5186
35.9177
11.013
13.0364
15.0522
17.0551
19.04
21.0012
22.9331
24.8295
26.6836
28.4881
30.2348
31.9146
33.5177
35.034
36.4539
11.0342
13.1
15.1586
17.2048
19.2337
21.2398
23.2177
25.1612
27.0636
28.9173
30.7134
32.4415
34.0896
35.6444
37.0926
11.0577
13.1709
15.2771
17.3716
19.4497
21.5062
23.536
25.5333
27.4916
29.4033
31.2591
33.0474
34.7537
36.3603
37.8478
11.0836
13.2485
15.407
17.5545
19.6867
21.7988
23.8862
25.9437
27.9654
29.9442
31.8712
33.7342
35.5162
37.1941
38.7385
11.1115
13.3326
15.5476
17.7524
19.9432
22.1156
24.2657
26.3891
28.4811
30.536
32.5463
34.5008
36.3818
38.16
39.7915
11.1415
13.4225
15.698
17.9642
20.2174
22.4543
24.6713
26.8652
29.033
31.1713
33.276
35.3399
37.3487
39.2714
41.0453
11.1732
13.5179
15.8575
18.1885
20.5077
22.8121
25.0992
27.3667
29.6135
31.8394
34.0454
36.233
38.4004
40.5302
42.5539
11.2066
13.6183
16.0252
18.4241
20.8122
23.1868
25.5458
27.8881
30.2139
32.5262
34.8321
37.1451
39.4884
41.8937
44.3694
35.5961
36.6162
37.5878
38.5112
39.3873
40.2176
41.0037
41.7479
42.4525
43.1202
43.7538
44.3563
44.9307
45.4801
46.0076
46.5162
47.009
47.4887
47.9584
48.4208
48.8783
49.3336
49.7889
50.2462
50.7075
51.1743
51.6482
52.13
52.6207
53.1208
53.6303
54.1494
54.6775
55.2144
55.7592
56.311
56.8689
57.4318
57.9983
58.5671
59.1367
59.7054
60.2716
60.8334
61.389
61.9368
62.4751
63.0021
63.5166
64.017
64.5021
64.9707
65.4213
65.8528
66.2638
66.6529
67.0186
67.3594
67.6736
67.9596
68.2157
68.4403
68.6315
68.7875
68.9063
68.9858
69.0236
69.0173
68.964
68.8606
68.7039
68.4903
68.216
67.8771
67.4694
66.9886
66.4304
65.7902
65.0636
64.246
63.3329
62.32
61.2032
59.9789
58.6437
57.195
55.6308
53.9502
52.153
50.2401
35.6648
36.685
37.6558
38.5779
39.452
40.2797
41.0627
41.8034
42.5041
43.1677
43.797
44.3951
44.9651
45.5101
46.0331
46.5374
47.0259
47.5015
47.9673
48.4258
48.8798
49.3318
49.784
50.2386
50.6975
51.1624
51.6347
52.1154
52.6053
53.105
53.6147
54.1341
54.663
55.2009
55.7469
56.3001
56.8596
57.4243
57.9928
58.5638
59.1357
59.7068
60.2755
60.8399
61.398
61.9482
62.4887
63.0179
63.5343
64.0366
64.5236
64.9939
65.4464
65.8798
66.2928
66.6841
67.052
67.395
67.7116
68
68.2586
68.4857
68.6795
68.8383
68.9602
69.0431
69.0846
69.0823
69.0334
68.9348
68.7832
68.575
68.3065
67.9735
67.572
67.0976
66.5458
65.9122
65.1921
64.3809
63.4741
62.4671
61.3558
60.1362
58.8049
57.359
55.7964
54.116
52.3175
50.4019
35.8031
36.8234
37.7929
38.7122
39.5822
40.4046
41.1813
41.9148
42.6077
43.263
43.8836
44.4729
45.0338
45.5698
46.084
46.5795
47.0595
47.5269
47.9846
48.4356
48.8824
49.3277
49.7738
50.2229
50.6771
51.1379
51.607
52.0854
52.5739
53.073
53.5828
54.1032
54.6336
55.1735
55.7219
56.278
56.8408
57.409
57.9815
58.5568
59.1334
59.7095
60.2833
60.8529
61.4161
61.9712
62.5162
63.0496
63.5699
64.0759
64.5663
65.0402
65.4963
65.9336
66.3507
66.7462
67.1185
67.4662
67.7874
68.0806
68.3441
68.5762
68.7753
68.9397
69.0677
69.1571
69.2059
69.2117
69.1715
69.0825
68.9412
68.744
68.4869
68.166
67.7769
67.3153
66.7765
66.1561
65.4492
64.6511
63.757
62.7621
61.6619
60.452
59.1287
57.6887
56.1295
54.4496
52.6487
50.7276
36.0133
37.0338
38.0011
38.916
39.7796
40.5938
41.3607
42.0831
42.764
43.4065
44.0139
44.5896
45.137
45.6593
46.16
46.6423
47.1094
47.5643
48.01
48.4495
48.8855
49.3206
49.7574
50.1982
50.645
51.0997
51.5639
52.0388
52.5252
53.0235
53.5337
54.0556
54.5885
55.1316
55.6838
56.2443
56.8119
57.3855
57.9639
58.5458
59.1295
59.7133
60.2951
60.8726
61.4437
62.0062
62.5581
63.0977
63.6238
64.135
64.6306
65.1095
65.571
66.0139
66.437
66.839
67.2181
67.5727
67.9011
68.2014
68.4721
68.7116
68.9184
69.091
69.2278
69.327
69.3867
69.4044
69.3775
69.3029
69.1771
68.9964
68.7568
68.454
68.0837
67.6413
67.1223
66.5219
65.8352
65.0571
64.1825
63.2064
62.1235
60.929
59.6184
58.1878
56.6341
54.9555
53.151
51.2216
36.2986
37.3193
38.2836
39.1923
40.0469
40.8495
41.6027
42.3098
42.974
43.599
44.1883
44.7455
45.2744
45.7783
46.2609
46.7253
47.175
47.6131
48.0426
48.4666
48.8879
49.3093
49.7334
50.1628
50.5996
51.046
51.5036
51.9737
52.4573
52.9548
53.4659
53.9902
54.5267
55.0743
55.6318
56.1981
56.7721
57.3528
57.9391
58.5298
59.1233
59.7176
60.3105
60.8993
61.4813
62.054
62.6152
63.163
63.6964
64.2143
64.7162
65.2015
65.6697
66.1201
66.5513
66.962
67.3504
67.7145
68.0524
68.3623
68.6424
68.8915
69.1081
69.2911
69.4393
69.5512
69.6251
69.6587
69.6495
69.5942
69.4894
69.331
69.1148
68.8365
68.4915
68.0751
67.5827
67.0094
66.3501
65.5994
64.7519
63.8018
62.7433
61.5707
60.2784
58.8617
57.3166
55.6402
53.8314
51.8905
36.6636
37.6846
38.6448
39.5452
40.3876
41.1747
41.9098
42.5966
43.2391
43.8412
44.4071
44.9407
45.4459
45.9265
46.386
46.8279
47.2557
47.6724
48.0815
48.4858
48.8884
49.2922
49.7
50.1147
50.5386
50.9741
51.4231
51.8873
52.3675
52.8642
53.3771
53.9051
54.4468
55.0007
55.5651
56.1387
56.7205
57.3098
57.9057
58.5075
59.1135
59.7218
60.3295
60.9334
61.5299
62.116
62.6889
63.2468
63.7887
64.3141
64.823
65.3156
65.7918
66.2511
66.6926
67.1145
67.5149
67.8913
68.2414
68.5632
68.8549
69.1153
69.3435
69.5387
69.7004
69.8275
69.9186
69.972
69.9849
69.9542
69.876
69.746
69.5597
69.3123
68.9993
68.6157
68.157
67.6181
66.9939
66.2786
65.4664
64.5508
63.525
62.3821
61.1154
59.7184
58.1858
56.5136
54.6997
52.7442
37.1147
38.1362
39.0909
39.9802
40.8064
41.5733
42.2848
42.9457
43.5605
44.134
44.6708
45.1752
45.6513
46.1032
46.5347
46.9492
47.3503
47.7412
48.1252
48.5055
48.8852
49.2673
49.655
50.0513
50.4589
50.8807
51.319
51.7757
52.2521
52.7485
53.2643
53.798
54.3474
54.9097
55.4829
56.0652
56.656
57.2548
57.8618
58.4767
59.0983
59.7244
60.3516
60.9755
61.5913
62.1945
62.7818
63.3513
63.9023
64.4351
64.9509
65.4507
65.9355
66.4053
66.8593
67.2955
67.7113
68.1034
68.4686
68.8046
69.1096
69.3827
69.6235
69.832
70.0085
70.1527
70.2639
70.3407
70.3804
70.3798
70.3345
70.2395
70.0897
69.8801
69.6057
69.2619
68.844
68.3471
67.766
67.0949
66.3273
65.4559
64.4728
63.3695
62.1374
60.7679
59.2537
57.5888
55.7698
53.7962
37.6604
38.6825
39.6299
40.5043
41.3094
42.05
42.7314
43.3595
43.9399
44.4781
44.9794
45.4485
45.8899
46.3077
46.7059
47.0881
47.4577
47.8181
48.1725
48.5243
48.8766
49.2327
49.5959
49.9695
50.357
50.7616
51.1863
51.6338
52.1057
52.6027
53.1238
53.6665
54.227
54.8011
55.3853
55.9776
56.5775
57.186
57.8044
58.4338
59.0741
59.7231
60.3763
61.0271
61.6683
62.2934
62.898
63.4799
64.0394
64.5782
65.0991
65.605
66.0981
66.5796
67.0489
67.5034
67.9391
68.3513
68.7354
69.0881
69.4077
69.6938
69.9471
70.1688
70.3603
70.5227
70.6561
70.7598
70.8314
70.8671
70.8616
70.809
70.7031
70.5383
70.3095
70.0121
69.642
69.1947
68.6651
68.0474
67.3349
66.5192
65.5911
64.54
63.3546
62.0235
60.5361
58.8836
57.0603
55.0646
38.3122
39.3353
40.2725
41.127
41.9039
42.6102
43.2532
43.8403
44.3784
44.8739
45.3327
45.7601
46.1607
46.5389
46.8985
47.2433
47.5766
47.9017
48.222
48.5405
48.8607
49.1859
49.5198
49.866
50.2285
50.6115
51.019
51.4547
51.9214
52.4202
52.9502
53.5073
54.085
54.6758
55.274
55.8768
56.4846
57.1006
57.7289
58.3732
59.0353
59.7136
60.4019
61.0901
61.7661
62.4196
63.0443
63.6384
64.2038
64.7446
65.2666
65.7751
66.275
66.769
67.257
67.7357
68.1983
68.637
69.0446
69.4165
69.7513
70.0495
70.3135
70.5464
70.7514
70.9315
71.0884
71.2223
71.3313
71.4108
71.454
71.4526
71.3987
71.2858
71.1091
70.8644
70.5486
70.158
69.6883
69.134
68.4882
67.7419
66.8841
65.9014
64.7792
63.5017
62.0538
60.4221
58.597
56.5746
39.0859
40.1101
41.033
41.8596
42.5987
43.2601
43.854
44.39
44.8765
45.3209
45.7297
46.1085
46.4622
46.795
47.1108
47.4132
47.7054
47.9906
48.272
48.5526
48.8358
49.125
49.424
49.737
50.0688
50.4243
50.8092
51.229
51.6886
52.191
52.7356
53.3164
53.9219
54.538
55.154
55.7664
56.3779
56.9954
57.628
58.2845
58.9709
59.6872
60.4254
61.1683
61.8939
62.5848
63.2323
63.8359
64.4009
64.9358
65.4507
65.9552
66.4578
66.9644
67.4762
67.9883
68.4894
68.9648
69.4024
69.7959
70.1447
70.4517
70.7219
70.9613
71.1758
71.371
71.551
71.7179
71.8708
72.0041
72.1077
72.1688
72.1764
72.1227
72.0035
71.8165
71.5601
71.2324
70.8304
70.3497
69.7836
69.1227
68.354
67.4613
66.4248
65.2229
63.8338
62.2368
60.4154
58.3612
40.0043
41.0296
41.9305
42.717
43.4036
44.0055
44.5367
45.0093
45.4335
45.8175
46.1682
46.4914
46.7919
47.0738
47.3407
47.5959
47.8425
48.0833
48.3212
48.5592
48.8003
49.0479
49.3061
49.5793
49.8727
50.1929
50.5472
50.9441
51.3922
51.899
52.4667
53.0879
53.7417
54.3979
55.0371
55.6553
56.2602
56.8662
57.4905
58.1507
58.8609
59.6271
60.4399
61.2688
62.0692
62.8101
63.481
64.0864
64.6387
65.1535
65.6471
66.1352
66.6323
67.1496
67.6922
68.2541
68.8149
69.3442
69.8208
70.2371
70.5956
70.904
71.1718
71.4091
71.6253
71.8295
72.0294
72.231
72.4357
72.6373
72.8197
72.9595
73.0393
73.0511
72.9928
72.8658
72.6715
72.4109
72.0832
71.6856
71.2128
70.6557
70
69.2255
68.3057
67.2112
65.9107
64.3722
62.5664
60.4749
41.1016
42.1267
42.9912
43.7167
44.329
44.8511
45.3022
45.6968
46.0466
46.3603
46.6447
46.9053
47.1466
47.3723
47.5856
47.7894
47.9861
48.1784
48.3686
48.5594
48.7535
48.954
49.1648
49.3903
49.6364
49.9104
50.222
50.5833
51.0096
51.5172
52.1186
52.8107
53.556
54.2802
54.9483
55.5612
56.1389
56.7084
57.2993
57.9425
58.668
59.4977
60.4288
61.4082
62.3278
63.1337
63.8216
64.4109
64.928
65.3992
65.8488
66.2999
66.7752
67.296
67.8777
68.5188
69.1831
69.7969
70.3233
70.7588
71.116
71.4119
71.6631
71.8844
72.0894
72.2912
72.5028
72.7369
73.0021
73.2955
73.5902
73.8335
73.9975
74.0773
74.0784
74.0089
73.8756
73.6831
73.4336
73.1271
72.7608
72.3278
71.8145
71.1963
70.4355
69.4934
68.3277
66.8899
65.1267
62.994
42.4365
43.4536
44.2503
44.878
45.3824
45.7975
46.147
46.4473
46.71
46.9434
47.1536
47.3452
47.522
47.687
47.8426
47.9911
48.1344
48.2745
48.4134
48.5529
48.6955
48.8435
49.0003
49.17
49.358
49.572
49.8231
50.1272
50.5079
50.9983
51.6382
52.4546
53.3984
54.2414
54.9366
55.5158
56.0274
56.5175
57.0304
57.6136
58.3228
59.2199
60.346
61.6312
62.7477
63.6248
64.3015
64.8368
65.2811
65.6734
66.0456
66.4272
66.8501
67.3519
67.975
68.7474
69.6213
70.373
70.9539
71.3904
71.7218
71.9815
72.1947
72.3804
72.5553
72.7358
72.941
73.195
73.525
73.9488
74.432
74.8188
75.0741
75.2139
75.2628
75.241
75.162
75.0344
74.8634
74.652
74.4018
74.1125
73.7771
73.3696
72.8238
72.0946
71.134
69.8735
68.2163
66.0517
44.1263
45.0964
45.7512
46.2151
46.5628
46.8367
47.0609
47.2503
47.4139
47.5582
47.6874
47.8048
47.9128
48.0133
48.108
48.1983
48.2855
48.3708
48.4553
48.5405
48.6276
48.7186
48.8155
48.9214
49.0403
49.1785
49.3458
49.5588
49.8465
50.2622
50.9014
51.9132
53.384
54.4134
55.0897
55.5658
55.9445
56.2915
56.6582
57.1012
57.7047
58.6098
60.0319
62.0947
63.5102
64.4017
64.9828
65.3914
65.7063
65.974
66.2264
66.4926
66.8085
67.2306
67.8546
68.8271
70.2326
71.1922
71.7896
72.1704
72.4281
72.6155
72.7628
72.8893
73.0104
73.1419
73.3063
73.5408
73.91
74.5139
75.4095
75.9907
76.314
76.4782
76.5462
76.5525
76.5155
76.4453
76.3483
76.2297
76.0964
75.9607
75.8408
75.7393
75.4734
75.0261
74.3696
73.4255
72.0338
69.917
46.4758
47.1915
47.5253
47.7178
47.848
47.9455
48.0234
48.0883
48.144
48.1929
48.2365
48.2761
48.3124
48.3462
48.378
48.4083
48.4375
48.4662
48.4946
48.5232
48.5525
48.5832
48.6161
48.6521
48.693
48.7411
48.8009
48.8807
48.9991
49.2025
49.6261
50.7088
54.0032
55.092
55.5288
55.7538
55.9051
56.0352
56.1738
56.3553
56.6501
57.2532
58.7926
63.4877
65.0248
65.6231
65.9097
66.0785
66.1971
66.2939
66.3847
66.4836
66.6116
66.816
67.2296
68.2807
71.4835
72.5301
72.9346
73.1249
73.2328
73.3042
73.3579
73.4034
73.4474
73.4977
73.5679
73.6897
73.9541
74.6558
76.837
77.531
77.7799
77.878
77.9156
77.9234
77.9137
77.8919
77.8613
77.8254
77.7918
77.783
77.8749
78.3426
78.3812
78.2559
78.0163
77.6192
76.8926
75.2894
48.0108
45.4198
42.6768
39.7906
36.7713
33.6302
30.3789
27.0298
23.5951
20.0869
16.5172
12.8976
9.23977
5.55468
1.85336
48.168
45.57
42.8183
39.922
36.8917
33.7389
30.4757
27.1144
23.6676
20.1476
16.5663
12.9355
9.26661
5.5707
1.85869
48.4844
45.8721
43.1027
40.186
37.1333
33.9568
30.6692
27.2835
23.8125
20.2687
16.6643
13.011
9.32009
5.60261
1.86929
48.9639
46.3296
43.5328
40.5845
37.4972
34.2843
30.9596
27.5368
24.0292
20.4497
16.8106
13.1235
9.39977
5.65013
1.88508
49.6128
46.9478
44.1127
41.1203
37.9852
34.7224
31.347
27.8738
24.3169
20.6895
17.0041
13.2722
9.50499
5.71285
1.90592
50.4402
47.7341
44.848
41.7974
38.5994
35.2716
31.8309
28.2935
24.6742
20.9866
17.2433
13.4558
9.63475
5.79014
1.93158
51.4581
48.6986
45.746
42.6202
39.342
35.9322
32.4103
28.7939
25.0987
21.3386
17.5262
13.6725
9.78767
5.88114
1.9618
52.6831
49.854
46.8156
43.5936
40.2146
36.7036
33.0829
29.3719
25.587
21.7422
17.8496
13.9197
9.96192
5.98476
1.99617
54.1371
51.217
48.0669
44.7223
41.2175
37.5832
33.8446
30.0227
26.1342
22.1927
18.2096
14.1943
10.1552
6.09955
2.03425
55.8499
52.8079
49.5108
46.0093
42.3486
38.5655
34.6884
30.7389
26.7333
22.684
18.601
14.4923
10.3645
6.22379
2.07543
57.8628
54.6519
51.1573
47.4536
43.6003
39.6402
35.6033
31.5101
27.375
23.2082
19.0174
14.8086
10.5865
6.35542
2.11905
60.2348
56.7774
53.0107
49.0459
44.9571
40.7903
36.573
32.3219
28.0472
23.7555
19.4512
15.1376
10.8171
6.49208
2.16432
63.0517
59.21
55.0603
50.7601
46.3901
41.9891
37.5751
33.156
28.7354
24.3144
19.8935
15.4727
11.052
6.6312
2.2104
66.4352
61.9481
57.2583
52.5421
47.8523
43.1994
38.5807
33.9905
29.4228
24.8724
20.335
15.8073
11.2864
6.77009
2.25641
70.5048
64.8866
59.4804
54.2956
49.2758
44.3737
39.5564
34.8011
30.0917
25.4162
20.766
16.1343
11.5158
6.90612
2.30149
11.2387
13.7146
16.186
18.6498
21.1033
23.544
25.97
28.3803
30.7758
33.1608
35.5456
37.9523
40.4275
43.0776
46.1951
11.2689
13.8052
16.3371
18.8618
21.3764
23.8785
26.3659
28.8374
31.2933
33.737
36.1781
38.6376
41.1589
43.8281
46.7992
11.3
13.8987
16.4931
19.0805
21.6579
24.2228
26.7724
29.3047
31.8185
34.3143
36.7971
39.279
41.7867
44.3677
47.0848
11.3321
13.995
16.6538
19.3057
21.9478
24.5771
27.1904
29.7843
32.3553
34.9
37.4156
39.9016
42.3624
44.8118
47.2723
11.3651
14.0941
16.8191
19.5375
22.2462
24.9421
27.6213
30.2791
32.9098
35.5051
38.0539
40.5406
42.945
45.2471
47.4438
11.399
14.1958
16.9888
19.7756
22.5532
25.3182
28.0664
30.7922
33.4879
36.1416
38.7345
41.2358
43.5976
45.7544
47.6542
11.4336
14.2998
17.1627
20.0199
22.8685
25.7054
28.5264
31.3256
34.0946
36.8196
39.4776
42.0268
44.3914
46.4391
47.9899
11.469
14.4061
17.3404
20.2696
23.1916
26.1032
29.0009
31.8793
34.7309
37.5433
40.2953
42.9451
45.404
47.4677
48.6746
11.505
14.5142
17.5212
20.5242
23.5213
26.5103
29.4881
32.4509
35.3935
38.3082
41.1829
43.9948
46.6899
49.0902
50.4204
11.5414
14.6238
17.7046
20.7825
23.8564
26.9245
29.985
33.0359
36.0747
39.1
42.113
45.1245
48.1795
51.4543
55.7378
11.5782
14.7344
17.8896
21.0434
24.1949
27.3434
30.4881
33.6284
36.7646
39.8995
43.043
46.223
49.5151
53.1167
57.4998
11.6151
14.8454
18.0755
21.3055
24.5351
27.7645
30.9936
34.223
37.4544
40.6921
43.9466
47.2425
50.6346
54.2351
58.2227
11.652
14.9563
18.2613
21.5674
24.8751
28.1851
31.4981
34.8154
38.1389
41.472
44.8204
48.1939
51.6079
55.0833
58.6357
11.6887
15.0666
18.446
21.8278
25.2131
28.603
31.9991
35.4027
38.8159
42.2403
45.6756
49.1159
52.5374
55.8765
59.0106
11.725
15.1758
18.6288
22.0854
25.5473
29.0162
32.494
35.9827
39.4843
42.9998
46.5263
50.0496
53.5227
56.8107
59.5772
11.7608
15.2834
18.8088
22.339
25.8762
29.4225
32.9805
36.5528
40.1422
43.7506
47.3781
51.017
54.6351
58.1057
60.8674
11.7959
15.3887
18.9851
22.5874
26.1982
29.8202
33.4564
37.1103
40.7857
44.4872
48.2207
51.9975
55.8485
59.8913
64.6698
11.8301
15.4915
19.1571
22.8295
26.5119
30.2073
33.9193
37.652
41.4103
45.2004
49.0321
52.9251
56.9271
61.1645
65.9533
11.8633
15.5913
19.324
23.0644
26.8159
30.5822
34.3671
38.1751
42.0117
45.8835
49.7997
53.7758
57.8409
62.053
66.5075
11.8954
15.6878
19.4852
23.2912
27.1093
30.9434
34.7979
38.6776
42.5878
46.5346
50.5245
54.5631
58.6511
62.7716
66.8701
11.9263
15.7806
19.6403
23.5091
27.3909
31.2899
35.2105
39.1579
43.1374
47.1546
51.2141
55.3149
59.4371
63.5038
67.2973
11.9559
15.8695
19.7887
23.7176
27.6601
31.6206
35.6038
39.615
43.6597
47.7442
51.8738
56.0504
60.26
64.4241
68.1706
11.9841
15.9542
19.9302
23.9162
27.9162
31.9349
35.9769
40.0478
44.1535
48.3011
52.4995
56.7616
61.1129
65.6328
70.6704
12.0109
16.0347
20.0646
24.1045
28.1589
32.2322
36.3292
40.4554
44.617
48.8215
53.0797
57.4093
61.8471
66.4802
71.5128
12.0363
16.1109
20.1915
24.2825
28.3879
32.5123
36.6605
40.8376
45.0496
49.3035
53.6089
57.9804
62.4442
67.0484
71.8644
12.0602
16.1826
20.3111
24.4499
28.6031
32.7752
36.9708
41.1946
45.452
49.7486
54.0907
58.4858
62.942
67.4676
72.0631
12.0826
16.2499
20.4232
24.6068
28.8047
33.0211
37.2605
41.5273
45.826
50.1608
54.5345
58.9472
63.3901
67.8366
72.2317
12.1036
16.3128
20.528
24.7533
28.9927
33.2504
37.5304
41.837
46.174
50.5446
54.95
59.386
63.8341
68.2393
72.465
12.1231
16.3713
20.6255
24.8895
29.1675
33.4633
37.781
42.1245
46.4974
50.9029
55.3428
59.8148
64.3061
68.765
72.9694
12.1412
16.4255
20.7157
25.0157
29.3293
33.6604
38.0128
42.3905
46.7971
51.2362
55.7117
60.2288
64.799
69.4655
74.4308
12.1579
16.4755
20.7989
25.1319
29.4783
33.8418
38.2263
42.6354
47.0729
51.5429
56.0504
60.6042
65.2234
69.9566
74.9223
12.1731
16.5213
20.8751
25.2383
29.6148
34.008
38.4218
42.8596
47.3251
51.8223
56.3556
60.9326
65.5667
70.2845
75.1263
12.187
16.5629
20.9444
25.3352
29.7389
34.1592
38.5996
43.0635
47.5543
52.0751
56.6291
61.2197
65.8503
70.5244
75.2406
12.1995
16.6005
21.0069
25.4226
29.851
34.2958
38.7602
43.2478
47.7614
52.3035
56.8758
61.4773
66.102
70.733
75.3366
12.2107
16.634
21.0627
25.5006
29.9511
34.4178
38.904
43.4129
47.9474
52.5098
57.1006
61.7171
66.3477
70.9589
75.4692
12.2206
16.6635
21.1119
25.5694
30.0394
34.5255
39.031
43.5592
48.113
52.6949
57.3062
61.9456
66.605
71.2529
75.758
12.2291
16.6891
21.1545
25.6289
30.1159
34.6189
39.1414
43.6866
48.2579
52.8583
57.4907
62.1585
66.8685
71.6442
76.6002
12.2363
16.7107
21.1905
25.6793
30.1806
34.698
39.235
43.795
48.3815
52.9981
57.6491
62.3406
67.0845
71.9083
76.8777
12.2422
16.7283
21.2198
25.7204
30.2336
34.7628
39.3117
43.8838
48.4829
53.1127
57.7779
62.4847
67.2431
72.0695
76.9851
12.2467
16.742
21.2427
25.7524
30.2747
34.8132
39.3714
43.953
48.5617
53.2014
57.8762
62.5914
67.3528
72.1668
77.0342
12.25
16.7517
21.2589
25.7751
30.3039
34.849
39.4139
44.0023
48.6178
53.2642
57.9452
62.6642
67.4242
72.225
77.0596
12.2519
16.7575
21.2685
25.7885
30.3213
34.8703
39.4392
44.0316
48.6513
53.3017
57.9861
62.7071
67.4654
72.2578
77.0738
12.2525
16.7592
21.2714
25.7927
30.3267
34.877
39.4472
44.0411
48.6622
53.3142
58.0001
62.7223
67.4811
72.2724
77.0839
12.2517
16.757
21.2678
25.7876
30.3201
34.869
39.4379
44.0305
48.6505
53.3018
57.9875
62.7106
67.4723
72.2709
77.1005
12.2497
16.7509
21.2575
25.7732
30.3016
34.8463
39.4111
43.9997
48.616
53.2639
57.9474
62.6703
67.4361
72.2459
77.0949
12.2463
16.7407
21.2406
25.7495
30.271
34.809
39.3669
43.9487
48.5584
53.2001
57.8783
62.5987
67.3675
72.1917
77.0726
12.2416
16.7266
21.217
25.7165
30.2285
34.7569
39.3052
43.8774
48.4773
53.1094
57.7786
62.4917
67.2587
72.0962
77.0248
12.2356
16.7086
21.1869
25.6742
30.1741
34.6901
39.226
43.7856
48.3727
52.9916
57.6469
62.3455
67.0992
71.9355
76.9184
12.2283
16.6866
21.1502
25.6228
30.1077
34.6088
39.1295
43.6736
48.2449
52.8471
57.4838
62.1593
66.8805
71.6711
76.643
12.2197
16.6607
21.1071
25.5622
30.0296
34.513
39.0158
43.5418
48.0945
52.6773
57.2923
61.9396
66.612
71.2787
75.809
12.2098
16.631
21.0575
25.4926
29.9398
34.4028
38.8851
43.3903
47.9221
52.4836
57.0769
61.7008
66.3456
70.9792
75.5203
12.1986
16.5975
21.0015
25.414
29.8385
34.2785
38.7375
43.2194
47.7278
52.2665
56.8387
61.4459
66.0851
70.742
75.3836
12.1862
16.5603
20.9393
25.3267
29.7258
34.1401
38.5733
43.029
47.5113
52.0248
56.5746
61.1672
65.8106
70.5135
75.2787
12.1726
16.5194
20.871
25.2308
29.602
33.988
38.3924
42.819
47.272
51.7566
56.2795
60.8516
65.493
70.2399
75.146
12.1578
16.4749
20.7967
25.1264
29.4672
33.8223
38.1952
42.5896
47.0097
51.4604
55.9486
60.4864
65.1002
69.8538
74.8987
12.1418
16.427
20.7167
25.0139
29.3218
33.6434
37.9822
42.3414
46.725
51.1368
55.5817
60.0669
64.6087
69.2636
74.2901
12.1248
16.3758
20.6311
24.8936
29.1662
33.452
37.754
42.0754
46.4195
50.789
55.1855
59.6065
64.0368
68.4136
72.4618
12.1067
16.3214
20.5402
24.7658
29.0009
33.2485
37.5114
41.7926
46.0952
50.4212
54.7708
59.1381
63.5002
67.79
71.8403
12.0876
16.2641
20.4443
24.6309
28.8264
33.0336
37.2552
41.4941
45.7534
50.0357
54.3425
58.6718
63.0121
67.3308
71.5639
12.0676
16.2039
20.3437
24.4894
28.6433
32.808
36.9861
41.1805
45.3945
49.6318
53.8971
58.1963
62.5374
66.9293
71.3758
12.0467
16.1411
20.2387
24.3416
28.4521
32.5723
36.7048
40.8523
45.0183
49.2073
53.4267
57.6903
62.0258
66.488
71.1625
12.025
16.076
20.1297
24.1883
28.2535
32.3274
36.4122
40.5103
44.625
48.7605
52.9243
57.1328
61.4245
65.8976
70.7866
12.0026
16.0087
20.0172
24.0298
28.0482
32.0742
36.1094
40.156
44.2161
48.2926
52.3897
56.5159
60.6956
65.0166
69.8745
11.9796
15.9395
19.9015
23.8669
27.8372
31.8138
35.798
39.7913
43.7949
47.8093
51.8334
55.8606
59.8669
63.761
67.1382
11.956
15.8687
19.783
23.7002
27.6213
31.5474
35.4795
39.4186
43.365
47.3181
51.2736
55.2182
59.1146
62.8627
66.2196
11.932
15.7966
19.6624
23.5304
27.4013
31.2761
35.1553
39.0398
42.9296
46.8241
50.72
54.6078
58.4638
62.2344
65.8286
11.9077
15.7234
19.5399
23.358
27.1782
31.0009
34.8268
38.6563
42.4899
46.3279
50.1707
54.0183
57.8706
61.7271
65.5868
11.8831
15.6494
19.4162
23.1839
26.9527
30.723
34.495
38.2691
42.046
45.8274
49.6168
53.424
57.2729
61.216
65.3432
11.8583
15.5748
19.2916
23.0085
26.7257
30.4432
34.1609
37.879
41.5982
45.32
49.0492
52.7995
56.6083
60.5755
64.9449
11.8334
15.5
19.1665
22.8326
26.498
30.1625
33.8257
37.4875
41.1475
44.8063
48.4659
52.1331
55.8321
59.654
64.007
11.8085
15.4252
19.0415
22.6567
26.2704
29.882
33.4909
37.0962
40.6968
44.2911
47.8759
51.4434
54.9691
58.3622
61.2156
11.7837
15.3507
18.9168
22.4814
26.0438
29.6029
33.1578
36.7073
40.2494
43.7813
47.2968
50.7813
54.1969
57.4435
60.2788
11.759
15.2766
18.793
22.3074
25.8188
29.3261
32.8279
36.3226
39.8083
43.2819
46.7381
50.1659
53.5405
56.8091
59.8828
11.7345
15.2031
18.6703
22.1351
25.5962
29.0524
32.5021
35.9434
39.3746
42.7935
46.1979
49.5861
52.9565
56.3085
59.6435
11.7103
15.1305
18.5491
21.9649
25.3766
28.7827
32.1813
35.5705
38.9485
42.314
45.668
49.0175
52.3839
55.8182
59.4097
11.6865
15.0589
18.4296
21.7973
25.1605
28.5175
31.8664
35.2047
38.5303
41.8416
45.14
48.4358
51.7629
55.2174
59.0348
11.6629
14.9883
18.3118
21.6323
24.9482
28.2575
31.558
34.8469
38.121
41.3771
44.6128
47.8312
51.0523
54.363
58.155
11.6398
14.9187
18.196
21.4703
24.74
28.0031
31.2571
34.4986
37.7235
40.9256
44.0967
47.2235
50.278
53.1731
55.5311
11.6169
14.8503
18.0821
21.3111
24.5358
27.7544
30.964
34.1613
37.3408
40.4947
43.6103
46.6648
49.6132
52.355
54.6657
11.5944
14.7827
17.9698
21.1545
24.3355
27.5112
30.679
33.8355
36.9751
40.0896
43.1651
46.1787
49.0906
51.8348
54.3244
11.5721
14.716
17.8589
21.0001
24.1386
27.273
30.4013
33.5206
36.6261
39.7105
42.762
45.7622
48.6833
51.4901
54.1573
11.55
14.6497
17.749
20.8473
23.944
27.0384
30.1293
33.2145
36.2909
39.3534
42.3936
45.3994
48.3542
51.2412
54.0558
11.5279
14.5837
17.6395
20.6951
23.7507
26.8059
29.8605
32.9138
35.9647
39.0108
42.0482
45.0708
48.0709
51.0412
53.981
11.5058
14.5176
17.5298
20.5428
23.5571
26.5732
29.5919
32.6141
35.641
38.6734
41.712
44.7569
47.8073
50.8612
53.916
11.4836
14.4511
17.4194
20.3893
23.3618
26.3382
29.3203
32.3106
35.3126
38.3307
41.3704
44.4381
47.54
50.6792
53.8506
11.4611
14.3838
17.3077
20.2338
23.1635
26.0987
29.0423
31.9983
34.9723
37.9722
41.0084
44.0945
47.2457
50.4737
53.7748
11.4384
14.3156
17.1942
20.0754
22.9608
25.8529
28.7552
31.6728
34.6133
37.5875
40.6108
43.7048
46.897
50.2163
53.6733
11.4153
14.2463
17.0787
19.9137
22.7531
25.5996
28.4569
31.3309
34.2302
37.1678
40.1632
43.2457
46.4587
49.862
53.5137
11.3919
14.1759
16.9612
19.7487
22.5402
25.3382
28.1464
30.9706
33.8197
36.7073
39.6542
42.6949
45.8873
49.3339
53.2095
11.3681
14.1046
16.8419
19.5807
22.3224
25.0692
27.8241
30.5925
33.3819
36.2045
39.0793
42.0378
45.1383
48.5067
52.4935
74.5982
67.3835
61.3121
55.75
50.4708
45.3708
40.3926
35.501
30.6725
25.8907
21.1434
16.4215
11.7176
7.02593
2.34121
75.8923
68.8576
62.622
56.874
51.4315
46.1913
41.0915
36.0924
31.1674
26.2974
21.4683
16.6695
11.8924
7.12982
2.37569
76.4315
69.775
63.5916
57.7843
52.2504
46.9132
41.7193
36.6314
31.6232
26.6748
21.7716
16.902
12.0567
7.22769
2.4082
76.7022
70.362
64.2982
58.5032
52.9312
47.5342
42.2722
37.1143
32.0364
27.0202
22.051
17.1173
12.2093
7.3188
2.43849
76.8606
70.755
64.8163
59.0657
53.489
48.0601
42.7518
37.5405
32.4061
27.3322
22.3053
17.3142
12.3494
7.40266
2.4664
76.964
71.0303
65.202
59.5058
53.9428
48.5008
43.163
37.9123
32.7328
27.6107
22.534
17.4923
12.4767
7.47904
2.49186
77.0363
71.2305
65.4941
59.8519
54.3111
48.8679
43.5126
38.2335
33.0187
27.8569
22.7378
17.652
12.5913
7.54794
2.51485
77.0894
71.3804
65.719
60.1258
54.6102
49.1725
43.808
38.5091
33.267
28.0728
22.9177
17.7938
12.6934
7.60954
2.53543
77.1295
71.4954
65.8947
60.3444
54.8535
49.425
44.0568
38.7442
33.4812
28.2606
23.0754
17.9187
12.7838
7.66417
2.55371
77.1606
71.5851
66.0337
60.52
55.0522
49.6341
44.2656
38.944
33.6649
28.4231
23.2127
18.028
12.8631
7.71227
2.56982
77.1851
71.6561
66.1448
60.6619
55.2149
49.8075
44.4407
39.1131
33.8219
28.5629
23.3316
18.1231
12.9324
7.75435
2.58394
77.2046
71.713
66.2343
60.7774
55.3484
49.9513
44.5873
39.256
33.9555
28.6827
23.434
18.2054
12.9925
7.79094
2.59622
77.2203
71.7588
66.3069
60.8717
55.4585
50.0707
44.7101
39.3765
34.0689
28.785
23.5218
18.2762
13.0444
7.82261
2.60686
77.233
71.7961
66.3661
60.949
55.5493
50.17
44.8127
39.4779
34.1649
28.872
23.5969
18.3369
13.089
7.84987
2.61603
77.2433
71.8265
66.4147
61.0127
55.6244
50.2525
44.8986
39.5632
34.246
28.9458
23.6608
18.3888
13.1272
7.87325
2.6239
77.2518
71.8514
66.4545
61.0652
55.6866
50.3211
44.9703
39.6348
34.3144
29.0083
23.7151
18.433
13.1598
7.89322
2.63062
77.2588
71.8719
66.4874
61.1085
55.7381
50.3782
45.0302
39.6948
34.3719
29.061
23.761
18.4704
13.1875
7.9102
2.63634
77.2645
71.8888
66.5145
61.1444
55.7808
50.4257
45.0802
39.745
34.4202
29.1054
23.7998
18.5021
13.2109
7.92459
2.6412
77.2692
71.9026
66.5368
61.174
55.8162
50.4651
45.1218
39.7869
34.4606
29.1426
23.8323
18.5287
13.2307
7.93673
2.64529
77.2731
71.9141
66.5552
61.1984
55.8454
50.4977
45.1563
39.8217
34.4942
29.1737
23.8595
18.5511
13.2473
7.94692
2.64873
77.2763
71.9234
66.5703
61.2184
55.8695
50.5246
45.1848
39.8505
34.5221
29.1995
23.8822
18.5697
13.2611
7.95542
2.6516
77.2789
71.9311
66.5826
61.2348
55.8892
50.5467
45.2082
39.8742
34.5451
29.2208
23.9009
18.585
13.2725
7.96245
2.65397
77.281
71.9373
66.5925
61.2481
55.9051
50.5646
45.2272
39.8935
34.5638
29.2381
23.9162
18.5976
13.2818
7.96821
2.65592
77.2826
71.9422
66.6005
61.2587
55.9178
50.5789
45.2424
39.909
34.5788
29.252
23.9284
18.6077
13.2893
7.97284
2.65748
77.2839
71.946
66.6067
61.2669
55.9278
50.59
45.2543
39.921
34.5906
29.263
23.938
18.6156
13.2952
7.97648
2.65871
77.2849
71.9489
66.6113
61.2731
55.9352
50.5984
45.2632
39.9301
34.5994
29.2712
23.9453
18.6216
13.2997
7.97923
2.65964
77.2856
71.9509
66.6145
61.2774
55.9404
50.6042
45.2694
39.9364
34.6056
29.2769
23.9504
18.6258
13.3028
7.98117
2.6603
77.286
71.952
66.6164
61.2799
55.9434
50.6077
45.2731
39.9402
34.6093
29.2804
23.9535
18.6283
13.3047
7.98235
2.6607
77.2861
71.9524
66.617
61.2807
55.9445
50.6089
45.2744
39.9416
34.6107
29.2817
23.9546
18.6293
13.3055
7.98281
2.66085
77.286
71.952
66.6164
61.28
55.9435
50.6079
45.2734
39.9406
34.6098
29.2809
23.954
18.6288
13.3051
7.98257
2.66077
77.2856
71.9508
66.6145
61.2775
55.9406
50.6046
45.27
39.9372
34.6065
29.2779
23.9514
18.6267
13.3036
7.98163
2.66045
77.2849
71.9488
66.6113
61.2732
55.9355
50.599
45.2641
39.9313
34.6009
29.2728
23.9469
18.623
13.3008
7.97996
2.65989
77.2839
71.9459
66.6065
61.267
55.9281
50.5908
45.2555
39.9227
34.5926
29.2652
23.9403
18.6176
13.2969
7.97753
2.65908
77.2825
71.9419
66.6002
61.2586
55.9181
50.5798
45.244
39.9112
34.5816
29.2551
23.9315
18.6105
13.2916
7.97429
2.65798
77.2808
71.9367
66.5919
61.2477
55.9052
50.5655
45.2291
39.8964
34.5674
29.2422
23.9203
18.6013
13.2848
7.97016
2.65659
77.2785
71.9301
66.5814
61.2339
55.889
50.5476
45.2105
39.8778
34.5498
29.2261
23.9063
18.59
13.2765
7.96505
2.65487
77.2757
71.9218
66.5681
61.2166
55.8686
50.5254
45.1874
39.8551
34.5282
29.2065
23.8894
18.5763
13.2664