/*--------------------------------*- C++ -*----------------------------------*\
| =========                 |                                                 |
| \\      /  F ield         | OpenFOAM: The Open Source CFD Toolbox           |
|  \\    /   O peration     | Version:  5.x                                   |
|   \\  /    A nd           | Web:      www.OpenFOAM.org                      |
|    \\/     M anipulation  |                                                 |
\*---------------------------------------------------------------------------*/
FoamFile
{
    version     2.0;
    format      ascii;
    class       volScalarField;
    location    "16.5";
    object      T;
}
// * * * * * * * * * * * * * * * * * * * * * * * * * * * * * * * * * * * * * //

dimensions      [0 0 0 1 0 0 0];

internalField   nonuniform List<scalar> 
6300
(
10.0516
10.1547
10.2574
10.3592
10.46
10.5593
10.657
10.7526
10.846
10.9367
11.0246
11.1094
11.1908
11.2687
11.343
10.0518
10.1552
10.2581
10.3603
10.4614
10.561
10.659
10.7549
10.8485
10.9395
11.0277
11.1127
11.1943
11.2723
11.3467
10.0521
10.1561
10.2597
10.3625
10.4641
10.5644
10.663
10.7595
10.8537
10.9452
11.0338
11.1193
11.2013
11.2796
11.3541
10.0526
10.1575
10.262
10.3657
10.4683
10.5695
10.6689
10.7664
10.8614
10.9538
11.0432
11.1293
11.2118
11.2906
11.3655
10.0532
10.1594
10.2651
10.37
10.4738
10.5763
10.677
10.7756
10.8718
10.9653
11.0557
11.1428
11.2262
11.3056
11.3808
10.0539
10.1617
10.2689
10.3754
10.4808
10.5848
10.687
10.7871
10.8849
10.9798
11.0716
11.1599
11.2444
11.3246
11.4004
10.0549
10.1644
10.2736
10.3819
10.4891
10.595
10.6991
10.8011
10.9007
10.9974
11.091
11.1809
11.2667
11.3481
11.4247
10.0559
10.1677
10.2789
10.3895
10.4989
10.6069
10.7132
10.8175
10.9193
11.0182
11.1139
11.2058
11.2935
11.3763
11.4539
10.0572
10.1714
10.2851
10.3981
10.51
10.6206
10.7294
10.8363
10.9407
11.0423
11.1405
11.235
11.325
11.4098
11.4888
10.0585
10.1755
10.292
10.4077
10.5225
10.6359
10.7476
10.8574
10.9649
11.0695
11.171
11.2686
11.3616
11.4491
11.53
10.0601
10.18
10.2996
10.4184
10.5363
10.6528
10.7678
10.8809
10.9918
11.1
11.2052
11.3067
11.4036
11.4948
11.5786
10.0617
10.185
10.3079
10.4301
10.5513
10.6713
10.7898
10.9065
11.0212
11.1336
11.2432
11.3494
11.4514
11.5477
11.636
10.0635
10.1904
10.3169
10.4427
10.5675
10.6912
10.8135
10.9342
11.053
11.1698
11.2843
11.3963
11.5049
11.6086
11.7042
10.0654
10.1962
10.3265
10.4562
10.5849
10.7126
10.8389
10.9636
11.0868
11.2082
11.3281
11.4464
11.5632
11.6776
11.7862
10.0675
10.2023
10.3368
10.4706
10.6035
10.7352
10.8657
10.9947
11.1222
11.2483
11.3733
11.498
11.6238
11.7524
11.8847
11.4076
11.4638
11.5172
11.5682
11.6165
11.6624
11.706
11.7473
11.7866
11.8239
11.8594
11.8934
11.9259
11.9572
11.9873
12.0166
12.0452
12.0732
12.1009
12.1283
12.1556
12.183
12.2106
12.2386
12.267
12.2959
12.3255
12.3558
12.3868
12.4186
12.4512
12.4846
12.5187
12.5536
12.5891
12.6253
12.6619
12.6991
12.7365
12.7743
12.8121
12.8498
12.8874
12.9246
12.9614
12.9974
13.0325
13.0667
13.0996
13.1312
13.1613
13.1896
13.2161
13.2405
13.2626
13.2821
13.2989
13.3127
13.3232
13.3301
13.3332
13.332
13.3264
13.3159
13.3001
13.2786
13.2511
13.2169
13.1756
13.1266
13.0693
13.003
12.9269
12.8405
12.7428
12.633
12.5104
12.374
12.2229
12.0563
11.8733
11.6729
11.4543
11.2169
10.9598
10.6826
10.3848
10.0661
9.72646
9.36597
11.4114
11.4675
11.5209
11.5717
11.62
11.6657
11.7091
11.7503
11.7893
11.8264
11.8617
11.8954
11.9276
11.9586
11.9886
12.0176
12.0459
12.0737
12.1011
12.1283
12.1554
12.1826
12.2101
12.2378
12.2661
12.2949
12.3244
12.3546
12.3856
12.4174
12.45
12.4834
12.5176
12.5525
12.5881
12.6244
12.6612
12.6985
12.7361
12.774
12.812
12.85
12.8878
12.9253
12.9622
12.9985
13.0339
13.0683
13.1015
13.1333
13.1636
13.1922
13.219
13.2436
13.266
13.2859
13.3031
13.3173
13.3282
13.3355
13.339
13.3384
13.3333
13.3233
13.3081
13.2873
13.2604
13.227
13.1866
13.1385
13.0821
13.0168
12.9418
12.8565
12.76
12.6515
12.5301
12.395
12.2452
12.0799
11.898
11.6989
11.4814
11.245
10.9887
10.7121
10.4147
10.0962
9.75636
9.39545
11.4189
11.475
11.5283
11.579
11.627
11.6724
11.7154
11.7562
11.7947
11.8313
11.8661
11.8993
11.9311
11.9616
11.991
12.0195
12.0473
12.0746
12.1016
12.1283
12.155
12.1818
12.2089
12.2363
12.2643
12.2929
12.3222
12.3523
12.3831
12.4149
12.4475
12.481
12.5153
12.5503
12.5861
12.6226
12.6597
12.6972
12.7352
12.7734
12.8119
12.8503
12.8886
12.9265
12.964
13.0007
13.0366
13.0715
13.1051
13.1374
13.1682
13.1974
13.2247
13.2499
13.273
13.2936
13.3115
13.3264
13.3382
13.3464
13.3508
13.3511
13.3469
13.3381
13.324
13.3045
13.2791
13.2472
13.2084
13.1621
13.1076
13.0443
12.9715
12.8885
12.7943
12.6882
12.5694
12.4369
12.2897
12.127
11.9477
11.751
11.5358
11.3014
11.0469
10.7715
10.4749
10.1567
9.81658
9.45479
11.4303
11.4864
11.5396
11.59
11.6376
11.6825
11.725
11.7651
11.803
11.8388
11.8729
11.9053
11.9362
11.9659
11.9946
12.0224
12.0494
12.076
12.1022
12.1283
12.1543
12.1806
12.2071
12.234
12.2616
12.2898
12.3187
12.3486
12.3793
12.411
12.4437
12.4772
12.5117
12.547
12.5831
12.6199
12.6573
12.6953
12.7337
12.7726
12.8116
12.8507
12.8897
12.9284
12.9666
13.0041
13.0407
13.0762
13.1106
13.1436
13.1751
13.205
13.2332
13.2593
13.2833
13.305
13.324
13.3401
13.3531
13.3625
13.3683
13.37
13.3673
13.3601
13.3478
13.3302
13.3068
13.2772
13.2409
13.1972
13.1456
13.0854
13.0159
12.9362
12.8457
12.7433
12.6283
12.4997
12.3565
12.1978
12.0224
11.8295
11.6179
11.3866
11.1348
10.8615
10.5662
10.2484
9.90795
9.54483
11.4458
11.5019
11.5548
11.6048
11.6519
11.6962
11.7379
11.7771
11.814
11.8489
11.8819
11.9132
11.9431
11.9718
11.9994
12.0261
12.0522
12.0778
12.1031
12.1282
12.1534
12.1788
12.2045
12.2308
12.2577
12.2854
12.314
12.3435
12.3741
12.4057
12.4384
12.4721
12.5068
12.5424
12.5789
12.6161
12.654
12.6926
12.7317
12.7712
12.8111
12.8511
12.8911
12.9308
12.9701
13.0086
13.0462
13.0826
13.1179
13.1518
13.1843
13.2151
13.2443
13.2717
13.297
13.32
13.3405
13.3582
13.3728
13.384
13.3915
13.395
13.3943
13.3891
13.3791
13.364
13.3433
13.3167
13.2837
13.2436
13.1959
13.1399
13.0747
12.9996
12.9138
12.8165
12.7066
12.5833
12.4455
12.2923
12.1224
11.9347
11.7281
11.5013
11.2533
10.9831
10.6898
10.3728
10.0318
9.66686
11.4657
11.5217
11.5744
11.6239
11.6702
11.7136
11.7542
11.7923
11.828
11.8615
11.8932
11.9232
11.9518
11.9791
12.0053
12.0308
12.0556
12.0799
12.104
12.128
12.152
12.1764
12.2012
12.2265
12.2527
12.2797
12.3077
12.3369
12.3673
12.3988
12.4316
12.4655
12.5006
12.5366
12.5735
12.6112
12.6497
12.689
12.7289
12.7694
12.8103
12.8515
12.8928
12.9339
12.9745
13.0143
13.0531
13.0907
13.127
13.162
13.1955
13.2275
13.258
13.2868
13.3137
13.3386
13.361
13.3807
13.3973
13.4106
13.4202
13.4259
13.4276
13.4249
13.4176
13.4055
13.3883
13.3654
13.3365
13.301
13.2581
13.2072
13.1476
13.0783
12.9985
12.9074
12.8041
12.6876
12.5568
12.4106
12.2478
12.0671
11.8672
11.6465
11.4038
11.1378
10.8473
10.5315
10.19
9.82276
11.4902
11.5461
11.5985
11.6473
11.6927
11.7349
11.7742
11.8108
11.8449
11.8768
11.9069
11.9352
11.9621
11.9878
12.0124
12.0363
12.0595
12.0824
12.105
12.1275
12.1502
12.1733
12.1968
12.2211
12.2462
12.2724
12.2998
12.3285
12.3586
12.3901
12.423
12.4573
12.4928
12.5293
12.5668
12.6051
12.6443
12.6843
12.7251
12.7667
12.809
12.8517
12.8947
12.9376
12.9799
13.0213
13.0616
13.1005
13.138
13.1741
13.2087
13.2421
13.274
13.3045
13.3334
13.3604
13.3852
13.4073
13.4265
13.4422
13.4544
13.4627
13.467
13.4671
13.463
13.4544
13.4411
13.4227
13.3987
13.3686
13.3317
13.2871
13.2341
13.1718
13.0994
13.0159
12.9205
12.8123
12.69
12.5527
12.3989
12.2272
12.0359
11.8233
11.5877
11.3275
11.041
10.7272
10.3853
10.0151
11.5199
11.5758
11.6276
11.6755
11.7197
11.7605
11.798
11.8327
11.8649
11.8949
11.9229
11.9492
11.9741
11.9978
12.0206
12.0426
12.064
12.085
12.1059
12.1268
12.1479
12.1693
12.1914
12.2143
12.2382
12.2633
12.2898
12.3179
12.3477
12.3792
12.4124
12.4472
12.4833
12.5206
12.5587
12.5977
12.6376
12.6783
12.7201
12.7629
12.8068
12.8515
12.8967
12.9419
12.9864
13.0299
13.0718
13.1122
13.1509
13.188
13.2238
13.2584
13.292
13.3244
13.3557
13.3854
13.4131
13.4382
13.4603
13.479
13.4939
13.505
13.5121
13.5154
13.5147
13.51
13.5011
13.4878
13.4697
13.446
13.4161
13.3791
13.3339
13.2798
13.2159
13.1414
13.0553
12.9569
12.8449
12.7184
12.5757
12.4152
12.235
12.0331
11.8071
11.5548
11.2741
10.9632
10.6211
10.2473
11.5553
11.6112
11.6624
11.7091
11.7517
11.7905
11.8258
11.8582
11.888
11.9156
11.9412
11.9652
11.9878
12.0092
12.0298
12.0496
12.0689
12.0879
12.1067
12.1257
12.1448
12.1645
12.1848
12.206
12.2283
12.2521
12.2775
12.3048
12.3342
12.3658
12.3995
12.4351
12.4722
12.5104
12.5494
12.589
12.6294
12.6708
12.7134
12.7576
12.8033
12.8505
12.8986
12.9469
12.9945
13.0404
13.0844
13.1261
13.1658
13.2038
13.2405
13.2762
13.3113
13.3459
13.38
13.4131
13.4445
13.4734
13.4991
13.521
13.5389
13.5528
13.5628
13.5691
13.5719
13.5713
13.5673
13.5598
13.5483
13.5323
13.5107
13.4824
13.4465
13.4018
13.3476
13.2832
13.2079
13.1207
13.0208
12.907
12.7778
12.6314
12.4655
12.2774
12.0642
11.8229
11.5504
11.2441
10.9023
10.5241
11.5974
11.6532
11.7035
11.7486
11.789
11.8253
11.8579
11.8874
11.9143
11.939
11.9618
11.983
12.003
12.0219
12.0399
12.0573
12.0742
12.0909
12.1074
12.1241
12.141
12.1585
12.1767
12.1959
12.2163
12.2384
12.2624
12.2887
12.3176
12.3492
12.3837
12.4206
12.4593
12.499
12.539
12.5792
12.6198
12.6614
12.7045
12.7498
12.7976
12.848
12.9002
12.953
13.0046
13.0538
13.0999
13.1429
13.1832
13.2214
13.2583
13.2947
13.3312
13.3681
13.4056
13.4431
13.4794
13.5131
13.543
13.5685
13.5895
13.6061
13.6187
13.6278
13.6339
13.6374
13.6385
13.6373
13.6335
13.6264
13.6147
13.5968
13.5713
13.5373
13.4939
13.4407
13.3772
13.3027
13.2166
13.1177
13.0047
12.8755
12.7276
12.5577
12.3618
12.1357
11.8751
11.5762
11.2357
10.8523
11.6473
11.703
11.752
11.7948
11.8323
11.8652
11.8943
11.9204
11.9438
11.9651
11.9846
12.0027
12.0196
12.0356
12.0508
12.0655
12.0798
12.0939
12.1079
12.122
12.1365
12.1514
12.1671
12.1839
12.202
12.2218
12.2439
12.2687
12.2968
12.3286
12.3643
12.4035
12.445
12.4869
12.5282
12.5686
12.6087
12.6495
12.6923
12.7382
12.7882
12.8427
12.9009
12.9605
13.0181
13.0715
13.1199
13.1635
13.2034
13.2407
13.2768
13.3129
13.3502
13.3895
13.4311
13.4746
13.5178
13.558
13.5932
13.6225
13.6463
13.665
13.6795
13.6908
13.6996
13.7067
13.7128
13.7183
13.7233
13.727
13.7274
13.7219
13.7085
13.6861
13.6543
13.613
13.5621
13.5014
13.4305
13.3487
13.2546
13.1465
13.0214
12.8753
12.7027
12.4979
12.2549
11.9678
11.631
11.2412
11.7069
11.7624
11.8092
11.8487
11.882
11.9105
11.9352
11.9569
11.9762
11.9936
12.0094
12.024
12.0376
12.0504
12.0625
12.0742
12.0856
12.0969
12.1081
12.1194
12.131
12.1432
12.156
12.1698
12.185
12.202
12.2213
12.2439
12.2705
12.3022
12.3398
12.3831
12.4299
12.4757
12.5185
12.5583
12.5965
12.6349
12.6755
12.7206
12.7722
12.8319
12.8994
12.9707
13.0377
13.0964
13.1464
13.1893
13.2271
13.2617
13.2952
13.3294
13.3661
13.4072
13.454
13.5062
13.5605
13.6101
13.6516
13.6845
13.71
13.7297
13.7449
13.7571
13.7675
13.7773
13.7877
13.8
13.8149
13.8321
13.8484
13.8582
13.8584
13.8482
13.8281
13.7988
13.7609
13.7147
13.6601
13.597
13.5246
13.4417
13.3454
13.2307
13.0898
12.9149
12.6982
12.4307
12.1026
11.7057
11.7792
11.8341
11.8772
11.9112
11.9386
11.9613
11.9804
11.9968
12.0113
12.0242
12.0359
12.0466
12.0566
12.0659
12.0748
12.0833
12.0916
12.0998
12.108
12.1163
12.1248
12.1338
12.1433
12.1537
12.1653
12.1786
12.1942
12.2131
12.2368
12.2672
12.307
12.3576
12.4162
12.4689
12.5129
12.5501
12.5838
12.6169
12.6523
12.6935
12.7445
12.8098
12.8923
12.9869
13.0691
13.1336
13.1832
13.2225
13.2552
13.2843
13.3124
13.342
13.3756
13.4167
13.4689
13.5348
13.6099
13.6738
13.7221
13.757
13.7821
13.8006
13.8146
13.8259
13.8361
13.8468
13.8598
13.8777
13.9032
13.9381
13.9787
14.0083
14.023
14.0244
14.015
13.997
13.9716
13.9397
13.9019
13.8584
13.8098
13.7559
13.6958
13.6238
13.5255
13.3921
13.2146
12.9808
12.6729
12.2706
11.8706
11.9228
11.9581
11.9832
12.0021
12.017
12.0292
12.0396
12.0486
12.0566
12.0638
12.0703
12.0764
12.0821
12.0875
12.0927
12.0977
12.1027
12.1077
12.1127
12.118
12.1235
12.1294
12.1359
12.1432
12.1517
12.1621
12.1753
12.1932
12.2189
12.2583
12.3206
12.411
12.4746
12.5168
12.5471
12.5719
12.5953
12.6207
12.6523
12.6961
12.7626
12.8678
13.021
13.126
13.1919
13.2348
13.2649
13.2882
13.3083
13.3275
13.3485
13.3743
13.4099
13.464
13.5499
13.6753
13.7599
13.8116
13.8433
13.8638
13.8777
13.8879
13.8962
13.9039
13.9127
13.9248
13.9442
13.9777
14.0359
14.1247
14.1796
14.2065
14.2159
14.2144
14.2056
14.1915
14.1732
14.1515
14.1273
14.1022
14.0792
14.0629
14.0546
14.0119
13.9323
13.812
13.6374
13.3792
12.986
11.9974
12.0357
12.0537
12.0641
12.0711
12.0764
12.0807
12.0842
12.0873
12.09
12.0924
12.0946
12.0967
12.0986
12.1004
12.1021
12.1038
12.1055
12.1072
12.1089
12.1106
12.1125
12.1145
12.1167
12.1192
12.1222
12.1259
12.1308
12.1382
12.1507
12.1767
12.2429
12.4442
12.5109
12.5379
12.552
12.5619
12.5706
12.5803
12.5933
12.6149
12.6595
12.7741
13.1244
13.2389
13.2833
13.3046
13.317
13.3258
13.3331
13.3401
13.348
13.3586
13.3763
13.4131
13.508
13.7991
13.8936
13.9295
13.9458
13.9547
13.9601
13.964
13.967
13.97
13.9736
13.9792
13.9903
14.0166
14.0893
14.3195
14.3911
14.4151
14.4229
14.4239
14.4216
14.4172
14.4114
14.4045
14.3972
14.3915
14.3925
14.4185
14.5348
14.5511
14.5309
14.4876
14.4143
14.2795
13.9818
8.94684
8.4608
7.94719
7.40757
6.84376
6.25775
5.6517
5.02781
4.3883
3.73539
3.07127
2.39806
1.71786
1.03269
0.344558
8.97553
8.48827
7.97311
7.43168
6.86586
6.27773
5.66948
5.04336
4.40164
3.74656
3.08031
2.40503
1.7228
1.03564
0.345538
9.03328
8.54352
8.02521
7.48009
6.9102
6.31774
5.70504
5.07445
4.42829
3.76886
3.09835
2.41893
1.73265
1.04151
0.347491
9.12087
8.62723
8.10401
7.55318
6.97701
6.37793
5.75844
5.12104
4.46817
3.80217
3.12528
2.43965
1.74732
1.05027
0.3504
9.23949
8.74041
8.21032
7.65153
7.06665
6.45845
5.82968
5.18305
4.52112
3.84632
3.16092
2.46704
1.7667
1.06182
0.354239
9.39085
8.8845
8.34523
7.77587
7.17954
6.55945
5.91871
5.26028
4.58689
3.90103
3.20498
2.50086
1.79061
1.07606
0.358968
9.57728
9.0614
8.51013
7.92708
7.3161
6.68101
6.02537
5.35243
4.66507
3.96587
3.25709
2.54078
1.81879
1.09283
0.364535
9.8019
9.27356
8.70672
8.10613
7.47669
6.82303
6.14925
5.45892
4.75505
4.04024
3.3167
2.58635
1.85091
1.11193
0.370873
10.0689
9.52412
8.93694
8.31392
7.66142
6.98508
6.28962
5.57887
4.85592
4.1233
3.38307
2.63698
1.88654
1.1331
0.377893
10.3839
9.81697
9.20291
8.55108
7.8699
7.16618
6.4452
5.71094
4.96641
4.21391
3.45526
2.69193
1.92515
1.15601
0.385489
10.7547
10.1569
9.50652
8.81749
8.10081
7.36446
6.61399
5.85322
5.0848
4.31062
3.53209
2.75029
1.96611
1.1803
0.393537
11.1923
10.5492
9.84869
9.11145
8.35129
7.57677
6.793
6.00307
5.20888
4.41163
3.61215
2.81101
2.00867
1.20552
0.401892
11.7129
10.9988
10.2275
9.4282
8.61605
7.79822
6.97808
6.15712
5.33596
4.51483
3.69381
2.87288
2.05202
1.2312
0.410398
12.3392
11.5055
10.6341
9.75773
8.88636
8.0219
7.1639
6.31128
5.46293
4.61788
3.77534
2.93466
2.09531
1.25685
0.418894
13.0933
12.0497
11.0454
10.0822
9.14964
8.23903
7.34426
6.4611
5.58653
4.71836
3.85497
2.99508
2.13769
1.28197
0.42722
10.0695
10.2083
10.3468
10.4846
10.6215
10.7572
10.8916
11.0245
11.1559
11.2859
11.415
11.5444
11.6766
11.8176
11.9833
10.0714
10.2141
10.3563
10.4979
10.6386
10.7781
10.9161
11.0526
11.1874
11.3206
11.4526
11.5845
11.7186
11.8597
12.0164
10.0734
10.2201
10.3663
10.5119
10.6565
10.7999
10.9418
11.0819
11.2201
11.3561
11.4903
11.623
11.7556
11.8909
12.0325
10.0755
10.2263
10.3768
10.5265
10.6753
10.8227
10.9686
11.1125
11.2541
11.393
11.5289
11.6614
11.7908
11.9177
12.0436
10.0777
10.2329
10.3877
10.5418
10.6949
10.8467
10.9968
11.1447
11.29
11.432
11.5697
11.7021
11.8277
11.9451
12.0544
10.08
10.2397
10.3991
10.5578
10.7155
10.8718
11.0264
11.1787
11.3281
11.4738
11.6142
11.7474
11.8701
11.978
12.0681
10.0823
10.2469
10.411
10.5745
10.7369
10.8981
11.0575
11.2147
11.3689
11.5192
11.6638
11.8
11.9228
12.0234
12.0903
10.0848
10.2543
10.4233
10.5918
10.7593
10.9256
11.0902
11.2527
11.4124
11.5684
11.7192
11.8619
11.9907
12.0922
12.1359
10.0873
10.2619
10.4361
10.6097
10.7825
10.9542
11.1243
11.2926
11.4584
11.6212
11.7801
11.9334
12.0776
12.2009
12.2523
10.09
10.2698
10.4493
10.6283
10.8065
10.9838
11.1597
11.3341
11.5065
11.6768
11.8448
12.0112
12.1788
12.3596
12.6064
10.0927
10.2779
10.4628
10.6473
10.8312
11.0142
11.1962
11.3768
11.5561
11.7338
11.9106
12.088
12.2709
12.4724
12.7244
10.0954
10.2861
10.4767
10.6668
10.8564
11.0454
11.2335
11.4206
11.6066
11.7916
11.9759
12.1609
12.3499
12.5502
12.7737
10.0982
10.2945
10.4907
10.6866
10.8821
11.0771
11.2715
11.4651
11.6578
11.8497
12.0407
12.231
12.4211
12.6117
12.8033
10.101
10.3031
10.505
10.7067
10.9082
11.1093
11.3099
11.5101
11.7096
11.9084
12.1059
12.3012
12.4919
12.6722
12.8322
10.1039
10.3116
10.5193
10.7269
10.9344
11.1417
11.3487
11.5555
11.762
11.9678
12.1726
12.3746
12.5699
12.7469
12.8782
10.1068
10.3203
10.5338
10.7473
10.9607
11.1742
11.3877
11.6012
11.8146
12.028
12.241
12.4527
12.6603
12.8534
12.9854
10.1096
10.3289
10.5482
10.7676
10.9871
11.2067
11.4266
11.6468
11.8673
12.0884
12.3103
12.5336
12.7609
13.0021
13.3032
10.1125
10.3375
10.5625
10.7878
11.0132
11.239
11.4653
11.6921
11.9196
12.1482
12.3784
12.6117
12.8517
13.1092
13.4108
10.1153
10.346
10.5767
10.8078
11.0392
11.271
11.5035
11.7368
11.9711
12.2068
12.4444
12.6849
12.9304
13.1855
13.458
10.1181
10.3543
10.5908
10.8275
11.0647
11.3025
11.5411
11.7807
12.0216
12.264
12.5083
12.7546
13.0024
13.2495
13.4905
10.1208
10.3626
10.6046
10.8469
11.0898
11.3335
11.578
11.8238
12.071
12.3199
12.5708
12.8231
13.0747
13.3178
13.5311
10.1235
10.3707
10.6181
10.866
11.1144
11.3637
11.6141
11.8657
12.1191
12.3745
12.6321
12.8921
13.1529
13.4067
13.617
10.1262
10.3786
10.6313
10.8845
11.1384
11.3932
11.6491
11.9065
12.1657
12.4273
12.6918
12.9605
13.2357
13.5257
13.8657
10.1287
10.3863
10.6442
10.9026
11.1617
11.4218
11.6831
11.9459
12.2107
12.478
12.7486
13.0242
13.3083
13.6098
13.9496
10.1312
10.3938
10.6567
10.9202
11.1843
11.4495
11.716
11.984
12.2539
12.5263
12.8019
13.0819
13.3687
13.6673
13.985
10.1337
10.4011
10.6689
10.9372
11.2062
11.4763
11.7477
12.0206
12.2954
12.5724
12.852
13.1347
13.421
13.7113
14.0058
10.136
10.4081
10.6806
10.9536
11.2274
11.5022
11.7783
12.0559
12.3353
12.6166
12.8999
13.1849
13.4702
13.7524
14.0249
10.1383
10.4149
10.6919
10.9695
11.2478
11.5272
11.8078
12.0899
12.3737
12.6593
12.9466
13.2348
13.5216
13.8001
14.0533
10.1405
10.4215
10.7029
10.9848
11.2675
11.5513
11.8362
12.1227
12.4108
12.7007
12.9925
13.2857
13.5787
13.8652
14.1173
10.1426
10.4278
10.7134
10.9995
11.2865
11.5744
11.8636
12.1542
12.4466
12.7408
13.0373
13.3366
13.6403
13.9541
14.3049
10.1446
10.4339
10.7235
11.0137
11.3047
11.5967
11.8899
12.1846
12.4809
12.7793
13.0801
13.3844
13.6946
14.0173
14.3681
10.1465
10.4397
10.7332
11.0273
11.3222
11.6181
11.9151
12.2137
12.5139
12.816
13.1205
13.428
13.7403
14.0607
14.3949
10.1484
10.4453
10.7425
11.0403
11.3389
11.6385
11.9393
12.2415
12.5454
12.851
13.1585
13.4682
13.7801
14.0944
14.4109
10.1502
10.4506
10.7514
11.0528
11.355
11.6581
11.9625
12.2683
12.5756
12.8845
13.1951
13.5068
13.8183
14.1265
14.4259
10.1519
10.4557
10.7599
11.0647
11.3703
11.6768
11.9846
12.2938
12.6046
12.9169
13.2308
13.5454
13.8586
14.1646
14.4491
10.1535
10.4606
10.768
11.076
11.3848
11.6947
12.0057
12.3182
12.6324
12.9482
13.2658
13.5848
13.9038
14.2174
14.5022
10.155
10.4652
10.7757
11.0867
11.3986
11.7116
12.0258
12.3415
12.6589
12.9782
13.2999
13.6242
13.9527
14.2902
14.659
10.1565
10.4695
10.7829
11.0969
11.4117
11.7276
12.0447
12.3635
12.684
13.0066
13.3319
13.6607
13.9952
14.341
14.7113
10.1578
10.4736
10.7897
11.1064
11.424
11.7426
12.0626
12.3841
12.7075
13.0331
13.3613
13.693
14.0298
14.3748
14.7327
10.1591
10.4774
10.796
11.1153
11.4354
11.7567
12.0793
12.4035
12.7295
13.0577
13.3883
13.7218
14.0586
14.3995
14.7447
10.1603
10.4809
10.8019
11.1236
11.4461
11.7698
12.0948
12.4214
12.7499
13.0804
13.4131
13.748
14.0846
14.4212
14.7547
10.1614
10.4842
10.8074
11.1313
11.456
11.7819
12.1092
12.4381
12.7688
13.1016
13.4364
13.773
14.1103
14.4449
14.7686
10.1623
10.4872
10.8124
11.1383
11.465
11.793
12.1224
12.4534
12.7863
13.1212
13.4584
13.7975
14.1378
14.4762
14.799
10.1633
10.4899
10.8169
11.1446
11.4732
11.8031
12.1343
12.4673
12.8022
13.1393
13.4788
13.821
14.1666
14.518
14.8876
10.1641
10.4923
10.821
11.1503
11.4806
11.8121
12.1451
12.4798
12.8166
13.1556
13.4973
13.8421
14.1911
14.5472
14.9173
10.1648
10.4944
10.8245
11.1553
11.487
11.82
12.1545
12.4909
12.8293
13.17
13.5135
13.8601
14.2107
14.5665
14.9296
10.1654
10.4962
10.8276
11.1596
11.4926
11.8269
12.1627
12.5004
12.8402
13.1825
13.5274
13.8754
14.2265
14.5806
14.9367
10.1659
10.4978
10.8301
11.1631
11.4972
11.8326
12.1695
12.5084
12.8494
13.193
13.5392
13.8883
14.24
14.5931
14.9439
10.1663
10.499
10.8321
11.166
11.5009
11.8371
12.175
12.5148
12.8568
13.2015
13.5489
13.8993
14.2526
14.6072
14.9571
10.1666
10.4999
10.8336
11.1681
11.5036
11.8405
12.179
12.5195
12.8624
13.2079
13.5565
13.9083
14.264
14.6244
14.9941
10.1668
10.5004
10.8345
11.1694
11.5053
11.8426
12.1816
12.5226
12.866
13.2122
13.5616
13.9146
14.272
14.635
15.0059
10.1668
10.5007
10.8349
11.17
11.506
11.8435
12.1827
12.524
12.8677
13.2142
13.5641
13.9178
14.2761
14.6399
15.0098
10.1668
10.5006
10.8348
11.1697
11.5058
11.8432
12.1824
12.5236
12.8673
13.2138
13.5637
13.9176
14.2763
14.6404
15.0103
10.1667
10.5002
10.8341
11.1688
11.5045
11.8417
12.1805
12.5214
12.8648
13.211
13.5606
13.9141
14.2725
14.6368
15.0083
10.1664
10.4994
10.8329
11.167
11.5023
11.8389
12.1772
12.5175
12.8602
13.2058
13.5546
13.9071
14.2644
14.6281
15.0021
10.1661
10.4984
10.8311
11.1645
11.499
11.8349
12.1724
12.5118
12.8537
13.1982
13.5458
13.8968
14.2518
14.6121
14.9848
10.1656
10.497
10.8288
11.1613
11.4948
11.8296
12.1661
12.5045
12.8452
13.1884
13.5346
13.8837
14.2353
14.5875
14.9316
10.1651
10.4953
10.826
11.1573
11.4896
11.8232
12.1584
12.4955
12.8348
13.1766
13.5212
13.8686
14.2183
14.5683
14.9131
10.1644
10.4933
10.8226
11.1526
11.4835
11.8157
12.1494
12.4849
12.8226
13.1627
13.5058
13.8519
14.2011
14.5525
14.9041
10.1636
10.491
10.8188
11.1472
11.4766
11.8071
12.139
12.4727
12.8085
13.1468
13.4881
13.833
14.1822
14.5366
14.8967
10.1628
10.4885
10.8146
11.1412
11.4687
11.7974
12.1274
12.459
12.7927
13.1288
13.4679
13.8109
14.1595
14.5167
14.8869
10.1619
10.4857
10.8099
11.1346
11.4601
11.7867
12.1145
12.4439
12.7751
13.1086
13.4448
13.7848
14.1307
14.4877
14.8678
10.1608
10.4826
10.8047
11.1274
11.4507
11.775
12.1005
12.4274
12.7559
13.0863
13.419
13.7545
14.0941
14.4424
14.82
10.1598
10.4794
10.7992
11.1196
11.4406
11.7625
12.0855
12.4096
12.7353
13.0624
13.3912
13.7213
14.0515
14.3767
14.6752
10.1586
10.4759
10.7934
11.1114
11.4299
11.7492
12.0695
12.3909
12.7135
13.0374
13.3624
13.688
14.0121
14.3293
14.6266
10.1574
10.4722
10.7872
11.1027
11.4186
11.7353
12.0528
12.3712
12.6907
13.0114
13.3331
13.6555
13.9774
14.2958
14.6057
10.1561
10.4683
10.7808
11.0936
11.4068
11.7207
12.0353
12.3507
12.6671
12.9846
13.3033
13.6234
13.9449
14.268
14.5925
10.1548
10.4643
10.7741
11.0841
11.3946
11.7055
12.0171
12.3295
12.6426
12.9569
13.2725
13.5901
13.9112
14.239
14.5786
10.1534
10.4602
10.7672
11.0744
11.3819
11.6899
11.9984
12.3075
12.6174
12.9281
13.2402
13.5543
13.8729
14.2017
14.5552
10.152
10.456
10.7601
11.0644
11.369
11.6739
11.9792
12.2851
12.5914
12.8984
13.2063
13.5154
13.8273
14.1472
14.4993
10.1505
10.4516
10.7528
11.0541
11.3557
11.6575
11.9597
12.2621
12.565
12.8681
13.1714
13.4745
13.776
14.0702
14.3327
10.1491
10.4472
10.7454
11.0437
11.3422
11.6409
11.9398
12.2389
12.5382
12.8375
13.1366
13.4347
13.7295
14.015
14.2766
10.1476
10.4427
10.7379
11.0332
11.3286
11.6241
11.9198
12.2155
12.5113
12.807
13.1025
13.3971
13.6895
13.9765
14.2527
10.1461
10.4382
10.7303
11.0226
11.3148
11.6072
11.8996
12.192
12.4844
12.7767
13.0688
13.3609
13.653
13.9452
14.2378
10.1445
10.4336
10.7227
11.0118
11.301
11.5902
11.8794
12.1684
12.4574
12.7463
13.0352
13.3247
13.6164
13.9137
14.2227
10.143
10.429
10.715
11.0011
11.2871
11.5732
11.8591
12.1449
12.4305
12.7158
13.001
13.2869
13.5757
13.874
14.1976
10.1415
10.4244
10.7073
10.9903
11.2732
11.5561
11.8389
12.1215
12.4037
12.6853
12.9663
13.2469
13.5283
13.8166
14.138
10.1399
10.4197
10.6996
10.9795
11.2593
11.5392
11.8189
12.0983
12.3772
12.6552
12.9318
13.2061
13.4762
13.736
13.9596
10.1384
10.4151
10.6918
10.9686
11.2454
11.5222
11.7989
12.0754
12.3512
12.626
12.8989
13.1683
13.4311
13.6804
13.9007
10.1368
10.4104
10.684
10.9577
11.2315
11.5054
11.7792
12.0528
12.3259
12.598
12.8682
13.1349
13.3953
13.6449
13.8775
10.1352
10.4056
10.6761
10.9468
11.2175
11.4885
11.7595
12.0305
12.3013
12.5713
12.8399
13.1058
13.367
13.6211
13.866
10.1336
10.4008
10.6682
10.9357
11.2034
11.4714
11.7397
12.0083
12.277
12.5456
12.8135
13.0799
13.3436
13.6035
13.8588
10.132
10.3959
10.66
10.9244
11.1891
11.4542
11.7198
11.986
12.2528
12.5202
12.7879
13.0557
13.3228
13.5889
13.8534
10.1303
10.3909
10.6517
10.9128
11.1744
11.4365
11.6994
11.9632
12.2282
12.4945
12.7623
13.0318
13.3028
13.5752
13.8485
10.1286
10.3858
10.6432
10.901
11.1593
11.4183
11.6783
11.9396
12.2025
12.4677
12.7355
13.0067
13.2817
13.5608
13.8433
10.1268
10.3805
10.6344
10.8887
11.1436
11.3993
11.6562
11.9147
12.1753
12.4389
12.7063
12.9788
13.2577
13.544
13.837
10.125
10.3751
10.6253
10.876
11.1273
11.3795
11.633
11.8883
12.1461
12.4073
12.6735
12.9464
13.2285
13.5223
13.8284
10.1231
10.3694
10.616
10.8629
11.1104
11.3588
11.6085
11.8601
12.1143
12.3723
12.6359
12.9076
13.1912
13.4919
13.8147
10.1212
10.3637
10.6063
10.8493
11.0928
11.3372
11.5827
11.83
12.0798
12.3334
12.5926
12.8604
13.1419
13.446
13.7881
10.1192
10.3578
10.5964
10.8353
11.0747
11.3147
11.5556
11.7981
12.0427
12.2905
12.5432
12.8036
13.0768
13.3738
13.7253
13.8526
12.5125
11.3847
10.3514
9.37075
8.42345
7.49887
6.59047
5.69389
4.80605
3.9247
3.04813
2.17498
1.30411
0.434559
14.0926
12.7857
11.6273
10.5595
9.54854
8.57525
7.62813
6.69983
5.78537
4.88121
3.98475
3.09397
2.20727
1.32331
0.44093
14.1926
12.9557
11.8069
10.728
9.70009
8.7088
7.74425
6.79951
5.86964
4.951
4.04082
3.13695
2.23763
1.3414
0.446938
14.2428
13.0645
11.9377
10.8611
9.82609
8.82371
7.84654
6.88882
5.94607
5.01486
4.09248
3.17674
2.26585
1.35824
0.452537
14.2721
13.1373
12.0337
10.9653
9.92934
8.92102
7.93528
6.96766
6.01444
5.07255
4.13949
3.21315
2.29176
1.37374
0.457698
14.2913
13.1883
12.1051
11.0467
10.0133
9.00259
8.01136
7.03644
6.07487
5.12407
4.18179
3.2461
2.3153
1.38787
0.462406
14.3047
13.2253
12.1592
11.1108
10.0815
9.07052
8.07605
7.09589
6.12778
5.16963
4.21949
3.27564
2.33649
1.40061
0.466659
14.3145
13.2531
12.2008
11.1615
10.1369
9.12691
8.13074
7.14689
6.17373
5.20957
4.25279
3.30187
2.35539
1.41201
0.470468
14.3219
13.2744
12.2334
11.202
10.1819
9.17365
8.17678
7.19042
6.21338
5.24434
4.28199
3.325
2.37212
1.42213
0.473852
14.3277
13.291
12.2591
11.2345
10.2187
9.2124
8.21547
7.22742
6.24741
5.27444
4.30742
3.34525
2.38681
1.43103
0.476836
14.3322
13.3042
12.2797
11.2608
10.2489
9.24452
8.24792
7.25877
6.2765
5.30035
4.32945
3.36287
2.39965
1.43883
0.479452
14.3358
13.3147
12.2963
11.2822
10.2737
9.2712
8.27511
7.28527
6.30129
5.32258
4.34845
3.37814
2.41081
1.44562
0.481732
14.3388
13.3232
12.3098
11.2997
10.2941
9.29337
8.2979
7.30765
6.32235
5.34158
4.36477
3.3913
2.42045
1.45151
0.483708
14.3411
13.3301
12.3208
11.3141
10.311
9.31183
8.317
7.32652
6.34022
5.35777
4.37874
3.4026
2.42876
1.45658
0.485416
14.3431
13.3358
12.3298
11.326
10.325
9.32722
8.33301
7.34243
6.35535
5.37155
4.39067
3.41229
2.43589
1.46095
0.486885
14.3446
13.3405
12.3373
11.3358
10.3366
9.34006
8.34644
7.35583
6.36816
5.38325
4.40084
3.42056
2.442
1.46469
0.488145
14.3459
13.3443
12.3435
11.344
10.3463
9.3508
8.35771
7.36712
6.37898
5.39318
4.40949
3.42762
2.44722
1.46789
0.489224
14.347
13.3475
12.3486
11.3507
10.3544
9.3598
8.36718
7.37663
6.38814
5.4016
4.41684
3.43363
2.45167
1.47062
0.490145
14.3479
13.3502
12.3529
11.3564
10.3612
9.36734
8.37514
7.38466
6.39588
5.40873
4.42308
3.43874
2.45546
1.47295
0.490931
14.3487
13.3524
12.3564
11.3611
10.3668
9.37368
8.38185
7.39143
6.40243
5.41478
4.42839
3.44309
2.45868
1.47494
0.491601
14.3493
13.3542
12.3594
11.3651
10.3716
9.37902
8.38751
7.39716
6.40797
5.41991
4.43289
3.44679
2.46143
1.47663
0.492173
14.3498
13.3558
12.3619
11.3685
10.3756
9.38353
8.3923
7.40202
6.41268
5.42427
4.43673
3.44994
2.46378
1.47808
0.492661
14.3503
13.3571
12.3641
11.3713
10.379
9.38735
8.39637
7.40614
6.41669
5.42799
4.44
3.45264
2.46578
1.47931
0.493078
14.3507
13.3582
12.3659
11.3737
10.3819
9.39061
8.39984
7.40967
6.42012
5.43118
4.44281
3.45495
2.4675
1.48037
0.493436
14.351
13.3592
12.3674
11.3758
10.3844
9.39341
8.40282
7.4127
6.42307
5.43392
4.44522
3.45694
2.46899
1.48129
0.493745
14.3513
13.36
12.3688
11.3776
10.3866
9.39584
8.4054
7.41533
6.42563
5.4363
4.44732
3.45866
2.47027
1.48208
0.494013
14.3515
13.3608
12.3699
11.3792
10.3885
9.39796
8.40767
7.41763
6.42787
5.43838
4.44916
3.46018
2.4714
1.48278
0.494249
14.3517
13.3614
12.371
11.3806
10.3902
9.39985
8.40969
7.41969
6.42987
5.44024
4.4508
3.46153
2.47241
1.4834
0.494458
14.3519
13.362
12.3719
11.3818
10.3917
9.40157
8.41152
7.42154
6.43167
5.44192
4.45228
3.46275
2.47332
1.48396
0.494648
14.3521
13.3625
12.3728
11.383
10.3931
9.40317
8.41321
7.42327
6.43335
5.44347
4.45364
3.46387
2.47415
1.48447
0.494822
14.3523
13.3631
12.3737
11.3841
10.3945
9.4047
8.41484
7.42491
6.43494
5.44494
4.45493
3.46493
2.47494
1.48496
0.494986
14.3525
13.3636
12.3745
11.3853
10.3958
9.40621
8.41643
7.42651
6.43649
5.44637
4.45619
3.46596
2.4757
1.48543
0.495144
14.3527
13.3642
12.3754
11.3864
10.3972
9.40774
8.41804
7.42814
6.43804
5.4478
4.45744
3.46698
2.47646
1.48589
0.4953
14.3529
13.3647
12.3764
11.3877
10.3987
9.40936
8.41973
7.42982
6.43965
5.44927
4.45871
3.46802
2.47722
1.48636
0.495458
14.3531
13.3654
12.3774
11.389
10.4003
9.41111
8.42154
7.43161
6.44135
5.45081
4.46004
3.4691
2.47802
1.48685
0.495622
14.3534
13.3662
12.3786
11.3906
10.4021
9.41305
8.42354
7.43357
6.44319
5.45247
4.46147
3.47024