/*--------------------------------*- C++ -*----------------------------------*\
| =========                 |                                                 |
| \\      /  F ield         | OpenFOAM: The Open Source CFD Toolbox           |
|  \\    /   O peration     | Version:  5.x                                   |
|   \\  /    A nd           | Web:      www.OpenFOAM.org                      |
|    \\/     M anipulation  |                                                 |
\*---------------------------------------------------------------------------*/
FoamFile
{
    version     2.0;
    format      ascii;
    class       volScalarField;
    location    "9.3";
    object      T;
}
// * * * * * * * * * * * * * * * * * * * * * * * * * * * * * * * * * * * * * //

dimensions      [0 0 0 1 0 0 0];

internalField   nonuniform List<scalar> 
6300
(
11.234
13.6983
16.1518
18.5871
20.997
23.3742
25.7113
28.0012
30.2366
32.4107
34.5168
36.5486
38.5006
40.3679
42.1469
11.2376
13.7091
16.1697
18.6122
21.0293
23.4136
25.7579
28.0548
30.2971
32.4777
34.5899
36.6272
38.5839
40.455
42.2365
11.2447
13.7305
16.2054
18.6623
21.0938
23.4925
25.8511
28.1622
30.4184
32.6123
34.7368
36.7853
38.7516
40.6302
42.417
11.2554
13.7626
16.259
18.7374
21.1905
23.611
25.9912
28.3238
30.601
32.8151
34.9587
37.0245
39.0056
40.8961
42.691
11.2696
13.8053
16.3303
18.8374
21.3195
23.769
26.1784
28.5399
30.8457
33.0876
35.2574
37.3471
39.349
41.2561
43.0625
11.2873
13.8585
16.4191
18.9622
21.4804
23.9664
26.4126
28.811
31.1533
33.431
35.635
37.7564
39.786
41.7155
43.5375
11.3085
13.922
16.5253
19.1114
21.6731
24.2032
26.6939
29.1373
31.5247
33.847
36.0943
38.2561
40.3218
42.2808
44.1238
11.333
13.9957
16.6484
19.2845
21.8969
24.4786
27.0219
29.5188
31.9604
34.337
36.6378
38.8508
40.9629
42.9607
44.8316
11.3608
14.0791
16.7879
19.4808
22.151
24.7917
27.3955
29.9546
32.46
34.9017
37.268
39.545
41.7169
43.7661
45.6747
11.3916
14.1719
16.9431
19.6993
22.4341
25.141
27.8132
30.4432
33.0224
35.5408
37.9862
40.3431
42.5923
44.7104
46.6716
11.4254
14.2735
17.1131
19.9387
22.7444
25.5244
28.2724
30.9817
33.6446
36.2518
38.7915
41.2475
43.5974
45.8103
47.8473
11.462
14.3833
17.2968
20.1975
23.08
25.9391
28.7695
31.5657
34.3213
37.0292
39.6793
42.2568
44.738
47.0843
49.2372
11.501
14.5007
17.4932
20.474
23.4383
26.3818
29.3001
32.1891
35.0449
37.8631
40.6382
43.3609
46.0119
48.5501
50.8923
11.5424
14.625
17.7011
20.7664
23.817
26.849
29.8591
32.8449
35.8048
38.7389
41.6484
44.5353
47.397
50.2102
52.884
11.5859
14.7556
17.9193
21.0732
24.2136
27.3372
30.4417
33.5255
36.5896
39.6378
42.6797
45.7333
48.8289
52.0081
55.2813
43.6942
45.0369
46.3153
47.5302
48.6826
49.7744
50.8078
51.7856
52.7111
53.5876
54.4189
55.2088
55.9613
56.6804
57.3702
58.0347
58.6776
59.303
59.9145
60.5156
61.1098
61.7002
62.2898
62.8814
63.4774
64.0799
64.6906
65.311
65.9422
66.5846
67.2387
67.9044
68.5812
69.2684
69.9653
70.6706
71.3831
72.1014
72.8239
73.5488
74.2743
74.9982
75.7185
76.4329
77.1392
77.8352
78.5188
79.1881
79.8411
80.4763
81.092
81.6865
82.2584
82.806
83.3277
83.8217
84.2861
84.7191
85.1187
85.4827
85.8092
86.096
86.3408
86.5413
86.6951
86.7994
86.8514
86.8478
86.7852
86.6595
86.4668
86.2024
85.8616
85.4394
84.9305
84.3296
83.6311
82.8293
81.9185
80.8929
79.747
78.4752
77.0724
75.5339
73.8555
72.0338
70.0665
67.9522
65.6908
63.2833
43.785
45.1277
46.4053
47.6184
48.7683
49.8566
50.886
51.8593
52.7797
53.6508
54.4765
55.2607
56.0074
56.7207
57.4047
58.0634
58.7009
59.3209
59.9272
60.5234
61.113
61.6991
62.2848
62.8728
63.4657
64.0656
64.6743
65.2932
65.9234
66.5655
67.2197
67.8858
68.5635
69.2521
69.9505
70.6576
71.3722
72.0927
72.8177
73.5453
74.2737
75.0007
75.7241
76.4417
77.1511
77.8501
78.5366
79.2085
79.864
80.5015
81.1193
81.7161
82.2903
82.8403
83.3645
83.8611
84.3283
84.7642
85.1667
85.5337
85.8633
86.1532
86.4013
86.6054
86.763
86.8716
86.9282
86.9297
86.8726
86.753
86.5667
86.3092
85.9756
85.561
85.06
84.4671
83.7767
82.9832
82.0807
81.0633
79.9253
78.661
77.265
75.7325
74.059
72.2409
70.2756
68.1616
65.8986
63.4877
43.9678
45.3107
46.5866
47.7961
48.9406
50.0221
51.0433
52.0072
52.9174
53.7776
54.5919
55.3645
56.0995
56.801
57.4734
58.1208
58.7471
59.3563
59.9522
60.5386
61.1188
61.6962
62.274
62.8549
63.4416
64.0363
64.6409
65.2568
65.8851
66.5264
67.1808
67.8481
68.5278
69.2189
69.9205
70.6312
71.3499
72.075
72.805
73.5381
74.2723
75.0055
75.7354
76.4594
77.1752
77.8802
78.5723
79.2495
79.9098
80.5518
81.1741
81.7752
82.3539
82.9086
83.4378
83.9397
84.4125
84.8541
85.2625
85.6355
85.9711
86.2673
86.522
86.7332
86.8984
87.0153
87.0812
87.0928
87.0468
86.9393
86.766
86.5223
86.2033
85.8038
85.3185
84.7417
84.0678
83.291
82.4051
81.4043
80.2824
79.0334
77.6515
76.1313
74.4679
72.6573
70.6963
68.583
66.3169
63.8991
44.2455
45.5887
46.862
48.0659
49.202
50.2728
51.2812
52.2306
53.1251
53.9686
54.7656
55.5205
56.2376
56.9214
57.5762
58.2063
58.8158
59.4087
59.989
60.5603
61.1264
61.6907
62.2564
62.8264
63.4037
63.9904
64.5887
65.2001
65.8256
66.4659
67.1209
67.7902
68.473
69.1682
69.8746
70.5909
71.3157
72.0476
72.7851
73.5264
74.2696
75.0124
75.7522
76.4863
77.2118
77.9261
78.6268
79.3117
79.9791
80.6277
81.2562
81.8637
82.4489
83.0106
83.5473
84.0573
84.5385
84.9888
85.406
85.7879
86.1326
86.438
86.7024
86.9238
87.1002
87.2294
87.3089
87.3357
87.3064
87.2171
87.0634
86.8406
86.5436
86.167
85.7054
85.1531
84.5042
83.7526
82.8922
81.9167
80.8195
79.5942
78.2342
76.7334
75.0862
73.2875
71.3336
69.2218
66.9513
64.5229
44.6223
45.9661
47.2355
48.4314
49.5558
50.6115
51.602
52.5314
53.4041
54.2247
54.998
55.7287
56.4217
57.0814
57.7125
58.3193
58.9061
59.4771
60.0363
60.5875
61.1345
61.6809
62.2301
62.7854
63.3496
63.9255
64.5153
65.1206
65.7425
66.3817
67.0378
67.7103
68.3978
69.0988
69.812
70.5357
71.2687
72.0095
72.7569
73.5093
74.2648
75.0208
75.7745
76.5226
77.2618
77.9888
78.701
79.3961
80.0725
80.7293
81.3657
81.981
82.5746
83.1455
83.6923
84.2131
84.7058
85.1679
85.597
85.9908
86.3473
86.6647
86.9414
87.1759
87.3666
87.5118
87.6092
87.6561
87.6491
87.5843
87.4571
87.2625
86.9952
86.6495
86.2199
85.7004
85.0851
84.3678
83.542
82.6012
81.5382
80.3458
79.0167
77.5437
75.9197
74.1387
72.1955
70.0867
67.8106
65.3678
45.1045
46.4489
47.7131
48.8983
50.0068
51.0423
52.0091
52.912
53.7562
54.547
55.2896
55.9895
56.6515
57.2806
57.8816
58.459
59.0172
59.5604
60.0928
60.6184
61.1411
61.6647
62.1928
62.729
63.2765
63.8384
64.4171
65.0146
65.6323
66.2705
66.9289
67.6061
68.3004
69.0095
69.7315
70.4646
71.2075
71.9592
72.7188
73.4851
74.2563
75.0297
75.802
76.5689
77.3263
78.07
78.7967
79.5043
80.1913
80.8573
81.5024
82.1266
82.73
83.3121
83.8715
84.4063
84.9139
85.3913
85.8357
86.2443
86.6151
86.9467
87.2379
87.4877
87.6954
87.8597
87.979
88.0507
88.0718
88.038
87.9445
87.7858
87.5562
87.2498
86.8605
86.3825
85.8097
85.1359
84.3545
83.4584
82.4401
81.2913
80.0037
78.5683
76.9766
75.2205
73.2932
71.1897
68.9073
66.4461
45.7003
47.0457
48.3029
49.4737
50.5613
51.5703
52.5063
53.3752
54.1832
54.9365
55.641
56.3025
56.9266
57.5183
58.0826
58.6242
59.1476
59.6571
60.157
60.6513
61.1442
61.6397
62.1416
62.654
63.1804
63.7245
64.2893
64.8773
65.49
66.1279
66.7902
67.4749
68.179
68.8991
69.6324
70.3768
71.131
71.8949
72.6684
73.4511
74.2417
75.0375
75.8342
76.6262
77.4075
78.1725
78.9172
79.6391
80.3374
81.0125
81.6659
82.2991
82.913
83.508
84.083
84.6356
85.1623
85.6592
86.1224
86.5488
86.9363
87.2836
87.5905
87.857
88.0833
88.2692
88.4138
88.5151
88.5701
88.5744
88.5225
88.4081
88.2247
87.9659
87.6256
87.1978
86.6765
86.0557
85.3288
84.4885
83.5266
82.4339
81.2003
79.8151
78.2672
76.546
74.6419
72.5477
70.2589
67.7748
46.4211
47.7677
49.0155
50.1671
51.227
52.2017
53.0982
53.9242
54.6871
55.3942
56.0522
56.6676
57.2461
57.7932
58.3141
58.8134
59.2957
59.7654
60.2268
60.6841
61.1414
61.603
62.0731
62.5562
63.0566
63.5785
64.1258
64.7019
65.3089
65.9477
66.6169
67.3133
68.0319
68.7673
69.5149
70.272
71.038
71.814
72.6018
73.4029
74.2169
75.0413
75.8703
76.696
77.5091
78.3015
79.0676
79.8049
80.5136
81.196
81.8556
82.4961
83.1203
83.7297
84.3236
84.8989
85.4505
85.9724
86.459
86.9062
87.3119
87.6755
87.998
88.281
88.5262
88.7349
88.9075
89.0429
89.1382
89.1884
89.187
89.1263
88.9984
88.7962
88.5134
88.1443
87.6834
87.1252
86.4633
85.6906
84.7983
83.7762
82.6122
81.2931
79.8044
78.1318
76.2617
74.1832
71.889
69.3769
47.282
48.6302
49.8651
50.9906
52.0138
52.9437
53.7898
54.562
55.2694
55.9205
56.523
57.0836
57.6088
58.104
58.5744
59.0249
59.4599
59.8836
60.3005
60.7145
61.1301
61.5516
61.9838
62.4313
62.8995
63.3935
63.9185
64.4795
65.0798
65.7211
66.402
67.1171
67.8581
68.6153
69.381
70.1517
70.928
71.7135
72.5136
73.3332
74.1745
75.0355
75.9086
76.781
77.6376
78.4655
79.2566
80.0089
80.7247
81.4093
82.0698
82.7133
83.3457
83.9706
84.5878
85.1931
85.7782
86.3332
86.8491
87.3203
87.7447
88.1233
88.4591
88.756
89.0182
89.2493
89.4515
89.6251
89.7678
89.8736
89.9338
89.9378
89.8758
89.7394
89.5222
89.2196
88.8272
88.3405
87.7543
87.0617
86.2539
85.3195
84.2445
83.0122
81.6036
79.9989
78.1789
76.1267
73.8301
71.2844
48.3039
49.6541
50.8704
51.9597
52.9332
53.8042
54.586
55.2912
55.9309
56.5149
57.0518
57.5488
58.0124
58.4483
58.8614
59.2566
59.6379
60.0097
60.3758
60.7406
61.1081
61.4828
61.8698
62.2745
62.7028
63.1614
63.6573
64.1979
64.7892
65.4353
66.1352
66.8812
67.6584
68.4484
69.2375
70.0209
70.8019
71.5893
72.3948
73.2294
74.1009
75.0095
75.945
76.8859
77.8047
78.6792
79.4987
80.2626
80.9775
81.6543
82.3055
82.9435
83.579
84.2193
84.866
85.5131
86.1463
86.7471
87.3004
87.7984
88.2402
88.6296
88.9729
89.2778
89.5518
89.8018
90.0332
90.2488
90.447
90.6211
90.7579
90.8413
90.857
90.7953
90.6509
90.4209
90.1034
89.696
89.1952
88.5955
87.8885
87.0622
86.1003
84.982
83.682
82.1732
80.4276
78.4192
76.1272
73.5412
49.5167
50.8689
52.0568
53.0936
53.9984
54.7912
55.4906
56.1126
56.6704
57.1751
57.6358
58.0599
58.4539
58.8231
59.1723
59.5058
59.8276
60.1415
60.4511
60.7603
61.0732
61.3941
61.7282
62.0813
62.4601
62.873
63.3296
63.8407
64.4175
65.0694
65.7994
66.598
67.4379
68.2801
69.0995
69.8909
70.6638
71.4365
72.2312
73.0699
73.9709
74.9419
75.9709
77.0198
78.0323
78.9694
79.818
80.5837
81.2822
81.9332
82.5572
83.1742
83.8022
84.4555
85.1405
85.8498
86.5577
87.226
87.828
88.3543
88.8079
89.1987
89.5388
89.8407
90.1165
90.3778
90.6344
90.8938
91.1578
91.4187
91.6556
91.8387
91.946
91.967
91.8994
91.7448
91.5055
91.1825
90.7753
90.2805
89.6915
88.9967
88.1782
87.21
86.0582
84.6853
83.0517
81.1172
78.8448
76.2113
50.9661
52.3186
53.4589
54.4157
55.2228
55.9108
56.5048
57.0243
57.4844
57.8967
58.2703
58.6124
58.9288
59.2245
59.5036
59.7698
60.0266
60.2771
60.5247
60.7726
61.0244
61.2843
61.5571
61.8485
62.1662
62.5196
62.921
63.3865
63.9353
64.5886
65.3626
66.2529
67.2114
68.1421
68.9995
69.7848
70.5233
71.2495
72.0014
72.8181
73.7376
74.7878
75.9654
77.2034
78.3656
79.3841
80.2536
80.9985
81.6522
82.2478
82.8159
83.3858
83.9859
84.6431
85.3769
86.1854
87.0231
87.7973
88.4614
89.0113
89.4629
89.8376
90.1563
90.4377
90.6991
90.957
91.2283
91.5288
91.8698
92.2474
92.6274
92.942
93.156
93.2628
93.2699
93.1875
93.0245
92.787
92.4781
92.098
91.6434
91.106
90.4685
89.6992
88.7494
87.5695
86.1063
84.2985
82.0794
79.3936
52.7292
54.0719
55.1234
55.9514
56.6166
57.1637
57.6241
58.0195
58.3651
58.672
58.9481
59.1996
59.4315
59.6476
59.8512
60.0452
60.2323
60.4149
60.5956
60.7769
60.9619
61.1537
61.3566
61.5758
61.8185
62.0945
62.418
62.8098
63.3002
63.9317
64.7557
65.8072
67.0225
68.1073
69.0006
69.7435
70.3979
71.023
71.6754
72.4153
73.3132
74.4475
75.8702
77.493
78.9029
80.0105
80.8654
81.5417
82.103
82.5987
83.0689
83.5507
84.0843
84.7172
85.5025
86.4757
87.5765
88.5237
89.256
89.8066
90.2253
90.5539
90.824
91.0601
91.283
91.5137
91.7766
92.1022
92.5256
93.0694
93.6896
94.187
94.5165
94.6989
94.7657
94.7427
94.6473
94.4908
94.28
94.0193
93.7112
93.3559
92.9451
92.4451
91.7687
90.8583
89.6538
88.0691
85.983
83.256
54.9614
56.2428
57.1074
57.7197
58.1784
58.5394
58.8349
59.0842
59.2996
59.4893
59.659
59.8131
59.9547
60.0864
60.2104
60.3284
60.4422
60.5533
60.6633
60.7739
60.887
61.0049
61.1303
61.2671
61.4205
61.5987
61.8144
62.0888
62.4595
62.9951
63.8188
65.123
67.0192
68.3455
69.2157
69.827
70.3119
70.7547
71.2208
71.7824
72.5458
73.6891
75.4839
78.0864
79.8726
80.9978
81.7314
82.2475
82.6453
82.9833
83.3021
83.638
84.0365
84.5685
85.3544
86.5788
88.3481
89.5562
90.3087
90.7887
91.114
91.3508
91.5375
91.6983
91.8525
92.0205
92.231
92.5314
93.0044
93.778
94.9251
95.6701
96.0855
96.2978
96.3874
96.3984
96.3546
96.2691
96.1503
96.0052
95.8436
95.6822
95.5466
95.4415
95.1217
94.5672
93.7453
92.5586
90.806
88.1381
58.066
59.0119
59.4528
59.707
59.8788
60.0074
60.1101
60.1956
60.2689
60.3331
60.3904
60.4423
60.49
60.5342
60.5758
60.6154
60.6536
60.6909
60.7279
60.7651
60.8032
60.8429
60.8854
60.932
60.9847
61.0468
61.1239
61.2267
61.3792
61.6414
62.1877
63.5841
67.8339
69.2381
69.8008
70.0901
70.284
70.45
70.6262
70.8561
71.2287
71.9898
73.9315
79.8524
81.7911
82.5458
82.9076
83.1206
83.2704
83.3927
83.5074
83.6321
83.7935
84.051
84.5716
85.8943
89.9243
91.2414
91.7506
91.9903
92.1264
92.2167
92.2847
92.3424
92.3986
92.4629
92.5526
92.7086
93.0471
93.9451
96.736
97.6243
97.9434
98.0697
98.1185
98.1296
98.1184
98.092
98.0547
98.0113
97.9721
97.9676
98.1008
98.7433
98.8092
98.6577
98.3586
97.8593
96.9439
94.9222
60.4773
57.2153
53.7614
50.1269
46.3244
42.368
38.2727
34.0539
29.7269
25.3073
20.81
16.2499
11.6413
6.99846
2.33509
60.6758
57.405
53.9402
50.2929
46.4765
42.5053
38.3949
34.1607
29.8185
25.3839
20.872
16.2977
11.6752
7.01869
2.34181
61.0754
57.7866
54.2994
50.6263
46.7815
42.7805
38.6393
34.3742
30.0015
25.5369
20.9958
16.393
11.7428
7.05898
2.35521
61.681
58.3644
54.8426
51.1296
47.2411
43.1942
39.0061
34.6941
30.2752
25.7655
21.1805
16.5351
11.8434
7.119
2.37515
62.5006
59.1451
55.575
51.8063
47.8575
43.7474
39.4953
35.1197
30.6385
26.0683
21.4249
16.7229
11.9763
7.1982
2.40146
63.5456
60.1383
56.5037
52.6614
48.6332
44.441
40.1064
35.6497
31.0897
26.4435
21.7271
16.9548
12.1401
7.2958
2.43387
64.8314
61.3564
57.6379
53.7006
49.571
45.2753
40.8381
36.2816
31.6258
26.8881
22.0842
17.2284
12.3332
7.41072
2.47202
66.3786
62.8159
58.9888
54.93
50.673
46.2495
41.6876
37.0116
32.2424
27.3977
22.4927
17.5406
12.5533
7.54156
2.51544
68.2151
64.5373
60.5692
56.3555
51.9397
47.3604
42.6495
37.8335
32.9335
27.9666
22.9473
17.8874
12.7973
7.68653
2.56352
70.3786
66.5468
62.3929
57.9809
53.3681
48.6009
43.7151
38.738
33.69
28.5871
23.4416
18.2636
13.0617
7.84342
2.61553
72.9212
68.8758
64.4723
59.8051
54.9489
49.9581
44.8704
39.7118
34.5003
29.249
23.9674
18.663
13.342
8.00964
2.6706
75.9173
71.5603
66.8131
61.8158
56.6623
51.4104
46.095
40.7369
35.3492
29.9401
24.5152
19.0785
13.6332
8.1822
2.72777
79.4751
74.6324
69.4014
63.9806
58.4719
52.9243
47.3604
41.7903
36.2182
30.6459
25.0737
19.5017
13.9298
8.35787
2.78596
83.748
78.0901
72.1769
66.2308
60.3183
54.4526
48.6302
42.844
37.0862
31.3504
25.6312
19.9241
14.2258
8.53326
2.84406
88.8863
81.8003
74.9826
68.4449
62.1157
55.9353
49.8623
43.8676
37.9308
32.0371
26.1754
20.3371
14.5155
8.70502
2.90097
11.6275
14.8806
18.1281
21.3663
24.5919
27.8017
30.9936
34.1667
37.3224
40.4665
43.6131
46.7915
50.0632
53.5682
57.6928
11.6666
14.998
18.3241
21.6413
24.9462
28.2359
31.5079
34.7609
37.9957
41.2173
44.4386
47.6877
51.022
54.5549
58.4893
11.7069
15.119
18.526
21.9244
25.3108
28.6819
32.0347
35.3669
38.6773
41.9673
45.2437
48.5234
51.8417
55.2614
58.8644
11.7484
15.2435
18.7336
22.2154
25.6854
29.1399
32.5752
35.9873
39.3722
42.7259
46.0455
49.3312
52.5897
55.8393
59.1089
11.7909
15.3712
18.9468
22.5144
26.0703
29.6108
33.1312
36.6259
40.0878
43.507
46.8698
50.1566
53.3425
56.402
59.3306
11.8345
15.5021
19.1653
22.8209
26.4655
30.095
33.7042
37.2865
40.8321
44.3264
47.7456
51.051
54.1817
57.0541
59.601
11.8791
15.6359
19.3888
23.1348
26.8707
30.5926
34.2953
37.9717
41.6112
45.1969
48.6993
52.0656
55.1989
57.9307
60.0304
11.9245
15.7723
19.6167
23.4553
27.2852
31.1029
34.9038
38.6816
42.4268
46.1241
49.7463
53.2406
56.4937
59.2448
60.9044
11.9706
15.9108
19.8485
23.7815
27.7077
31.6242
35.5277
39.4133
43.2748
47.1024
50.8809
54.5817
58.1356
61.3153
63.1317
12.0172
16.0511
20.0831
24.112
28.1363
32.154
36.1631
40.161
44.1451
48.1137
52.0684
56.0235
60.036
64.3311
69.9142
12.0642
16.1924
20.3197
24.4454
28.5688
32.6891
36.8055
40.9173
45.0253
49.1334
53.2543
57.4239
61.7388
66.4507
72.1613
12.1114
16.3341
20.557
24.7799
29.003
33.2263
37.4501
41.6754
45.9045
50.1431
54.4051
58.722
63.1642
67.8752
73.0825
12.1584
16.4757
20.7939
25.1139
29.4365
33.7624
38.093
42.4299
46.7759
51.1355
55.5164
59.9315
64.4014
68.9533
73.6077
12.2052
16.6163
21.0294
25.4458
29.867
34.2947
38.7306
43.1772
47.6368
52.1118
56.6025
61.1016
65.5801
69.9584
74.0822
12.2515
16.7554
21.2622
25.7738
30.2925
34.8204
39.3601
43.9144
48.4858
53.0759
57.6814
62.2846
66.8267
71.1386
74.7967
12.297
16.8923
21.4913
26.0966
30.7109
35.3371
39.9786
44.6386
49.3209
54.0281
58.7604
63.5084
68.2316
72.7708
76.4201
12.3416
17.0264
21.7157
26.4126
31.1204
35.8426
40.5832
45.3465
50.1374
54.9617
59.8271
64.7477
69.7625
75.0192
81.2011
12.3852
17.1572
21.9345
26.7206
31.5193
36.3346
41.1712
46.0341
50.9295
55.8653
60.854
65.9202
71.1236
76.623
82.8157
12.4274
17.2843
22.1469
27.0194
31.9059
36.8111
41.7399
46.6981
51.6923
56.731
61.8256
66.9956
72.2774
77.7435
83.5137
12.4683
17.407
22.3521
27.3079
32.279
37.2704
42.2874
47.336
52.4231
57.5563
62.7434
67.9917
73.3013
78.6509
83.9712
12.5076
17.5252
22.5495
27.5853
32.6374
37.711
42.8118
47.9462
53.1208
58.3427
63.6173
68.9434
74.2956
79.5766
84.5112
12.5454
17.6384
22.7386
27.8508
32.9801
38.1319
43.3121
48.5272
53.7843
59.0909
64.4539
69.8754
75.3374
80.7409
85.6155
12.5814
17.7465
22.9191
28.104
33.3065
38.5323
43.7872
49.078
54.4122
59.7987
65.2483
70.7774
76.418
82.2705
88.7766
12.6156
17.8493
23.0906
28.3444
33.6162
38.9115
44.2364
49.5975
55.0026
60.461
65.9861
71.6001
77.3494
83.344
89.8424
12.6481
17.9467
23.2529
28.5719
33.9088
39.2694
44.6594
50.0854
55.5545
61.0756
66.6604
72.3271
78.1086
84.0655
90.2882
12.6787
18.0386
23.4061
28.7863
34.1844
39.6059
45.0565
50.5421
56.0691
61.6446
67.2761
72.9726
78.7441
84.6002
90.5413
12.7075
18.125
23.55
28.9877
34.4431
39.9215
45.4282
50.9688
56.5487
62.173
67.8451
73.5642
79.3189
85.0738
90.7579
12.7345
18.206
23.6849
29.1762
34.685
40.2164
45.7754
51.3671
56.9962
62.6667
68.3796
74.1293
79.8914
85.5943
91.0604
12.7597
18.2815
23.8107
29.3521
34.9107
40.4913
46.0988
51.7381
57.4137
63.1294
68.8871
74.6839
80.503
86.2772
91.7175
12.7831
18.3518
23.9276
29.5155
35.1202
40.7465
46.3991
52.0827
57.802
63.5613
69.3655
75.2213
81.1438
87.1896
93.6238
12.8048
18.4168
24.0358
29.6667
35.3141
40.9826
46.6769
52.4014
58.161
63.9606
69.8066
75.7103
81.6969
87.8301
94.2649
12.8248
18.4766
24.1354
29.8059
35.4926
41.1999
46.9325
52.6946
58.4909
64.326
70.2058
76.1399
82.146
88.2588
94.5316
12.843
18.5314
24.2266
29.9333
35.6559
41.3988
47.1665
52.9629
58.7923
64.6586
70.5657
76.5176
82.519
88.5741
94.6817
12.8596
18.5811
24.3094
30.049
35.8043
41.5797
47.3793
53.2071
59.0668
64.9614
70.8926
76.8591
82.8527
88.8508
94.809
12.8745
18.6259
24.384
30.1533
35.9381
41.7428
47.5715
53.4279
59.3156
65.2372
71.1932
77.1797
83.181
89.1528
94.9866
12.8878
18.6658
24.4504
30.2462
36.0574
41.8884
47.7432
53.6257
59.5396
65.4875
71.4709
77.488
83.5278
89.5485
95.3747
12.8995
18.7007
24.5087
30.3277
36.1622
42.0165
47.8946
53.8006
59.7383
65.7115
71.7235
77.7786
83.8857
90.0769
96.5072
12.9095
18.7308
24.5588
30.398
36.2526
42.127
48.0255
53.9521
59.9111
65.9069
71.9443
78.0312
84.183
90.4369
96.8818
12.9179
18.756
24.6009
30.4569
36.3285
42.2199
48.1356
54.0799
60.057
66.0716
72.129
78.2368
84.4073
90.6618
97.0294
12.9247
18.7764
24.6348
30.5044
36.3897
42.2951
48.2249
54.1835
60.1754
66.2049
72.2769
78.3969
84.571
90.8058
97.1011
12.9298
18.7917
24.6604
30.5405
36.4363
42.3523
48.293
54.2628
60.2661
66.3071
72.3898
78.5173
84.6906
90.9053
97.1461
12.9333
18.8022
24.6779
30.565
36.468
42.3914
48.3398
54.3176
60.3292
66.3787
72.4697
78.6039
84.7792
90.9844
97.1892
12.9351
18.8076
24.687
30.5778
36.4847
42.4123
48.365
54.3476
60.3645
66.4199
72.5177
78.6599
84.8449
91.0614
97.2653
12.9352
18.808
24.6877
30.5789
36.4864
42.4147
48.3684
54.3524
60.3714
66.4301
72.533
78.6841
84.8866
91.1447
97.4793
12.9337
18.8033
24.68
30.5682
36.4728
42.3984
48.3497
54.3317
60.3494
66.408
72.5129
78.6705
84.8875
91.1725
97.5359
12.9304
18.7936
24.6638
30.5456
36.4439
42.3632
48.3086
54.2849
60.2974
66.3519
72.4546
78.6136
84.8391
91.1433
97.5338
12.9255
18.7788
24.639
30.511
36.3995
42.3091
48.2448
54.2116
60.2149
66.2606
72.3553
78.5085
84.7336
91.052
97.4885
12.9188
18.7588
24.6058
30.4645
36.3396
42.2359
48.1582
54.1117
60.1015
66.1334
72.2137
78.3513
84.5613
90.8761
97.3695
12.9105
18.7337
24.564
30.4059
36.2642
42.1435
48.0489
53.9852
59.9575
65.9709
72.0305
78.1419
84.3139
90.5737
97.0508
12.9004
18.7036
24.5137
30.3354
36.1733
42.0322
47.917
53.8324
59.7835
65.7747
71.8094
77.8883
84.0032
90.118
96.0785
12.8887
18.6684
24.4549
30.2529
36.0671
41.902
47.7625
53.6536
59.5801
65.5465
71.5558
77.6075
83.6905
89.7672
95.7411
12.8753
18.6282
24.3878
30.1588
35.9456
41.753
47.5858
53.4489
59.3475
65.2867
71.271
77.303
83.3799
89.4853
95.5795
12.8603
18.5831
24.3125
30.053
35.8091
41.5854
47.3868
53.2182
59.0853
64.994
70.9511
76.9654
83.0474
89.2087
95.4528
12.8436
18.5331
24.229
29.9357
35.6577
41.3994
47.1657
52.9616
58.7928
64.6659
70.5898
76.5786
82.6575
88.8722
95.2891
12.8254
18.4784
24.1376
29.8073
35.4918
41.1955
46.923
52.6792
58.4696
64.3007
70.1815
76.1273
82.1712
88.3929
94.9812
12.8057
18.4191
24.0385
29.668
35.3118
40.974
46.6591
52.3717
58.1168
63.8995
69.7261
75.6059
81.5591
87.6565
94.2204
12.7845
18.3554
23.932
29.5183
35.1182
40.7357
46.3751
52.0405
57.7362
63.4661
69.2321
75.0314
80.8448
86.5937
91.933
12.7619
18.2874
23.8184
29.3586
34.9116
40.4814
46.0718
51.6869
57.3306
63.0059
68.7132
74.4452
80.1732
85.8131
91.1552
12.7379
18.2154
23.6981
29.1893
34.6926
40.2117
45.7502
51.3121
56.9015
62.5219
68.1753
73.8597
79.5605
85.237
90.8087
12.7127
18.1396
23.5713
29.011
34.4619
39.9275
45.4113
50.9171
56.4494
62.0132
67.6143
73.2607
78.9626
84.7313
90.5718
12.6863
18.0603
23.4387
28.8244
34.2204
39.6297
45.0559
50.5025
55.9742
61.4769
67.02
72.6213
78.316
84.1736
90.3022
12.6588
17.9778
23.3006
28.63
33.9687
39.3194
44.6851
50.0693
55.4759
60.9108
66.3836
71.915
77.5541
83.4253
89.8255
12.6304
17.8922
23.1576
28.4287
33.7079
38.9977
44.3006
49.6192
54.9567
60.3167
65.7048
71.1321
76.6291
82.3073
88.6681
12.601
17.8041
23.0102
28.2212
33.4391
38.666
43.9039
49.1548
54.4203
59.7016
64.997
70.2987
75.5761
80.713
85.1952
12.571
17.7137
22.8589
28.0082
33.1633
38.3258
43.4972
48.6789
53.8718
59.0749
64.2833
69.4803
74.6186
79.571
84.0287
12.5402
17.6213
22.7044
27.7908
32.8817
37.9785
43.0823
48.1941
53.3146
58.4431
63.5757
68.7008
73.7882
78.7704
83.5312
12.5089
17.5273
22.5472
27.5696
32.5953
37.6254
42.6607
47.7021
52.7506
57.8069
62.8717
67.9455
73.0288
78.1215
83.2223
12.4773
17.4321
22.388
27.3455
32.3052
37.2677
42.2338
47.204
52.1798
57.1633
62.1596
67.1818
72.2608
77.4647
82.9091
12.4453
17.336
22.2272
27.1193
32.0124
36.9068
41.8029
46.701
51.6023
56.5091
61.428
66.3769
71.4041
76.6389
82.3953
12.4131
17.2393
22.0655
26.8918
31.718
36.5439
41.3695
46.1947
51.0196
55.845
60.6739
65.5157
70.4014
75.4486
81.1838
12.3808
17.1424
21.9035
26.6638
31.423
36.1804
40.9354
45.6874
50.4352
55.1771
59.9094
64.6223
69.2845
73.7783
77.5776
12.3486
17.0455
21.7416
26.4362
31.1285
35.8177
40.5025
45.1818
49.8535
54.5143
59.1566
63.7622
68.2825
72.5885
76.3662
12.3165
16.9491
21.5804
26.2096
30.8356
35.457
40.0725
44.6804
49.2783
53.8629
58.4278
62.9597
67.4274
71.7633
75.8525
12.2846
16.8533
21.4204
25.9848
30.545
35.0997
39.6469
44.1847
48.711
53.2236
57.7204
62.2
66.6621
71.1075
75.5393
12.253
16.7584
21.2619
25.7622
30.2578
34.7467
39.2268
43.696
48.152
52.5938
57.0233
61.4509
65.9064
70.4591
75.2293
12.2217
16.6646
21.1053
25.5426
29.9744
34.3989
38.8134
43.2152
47.6017
51.9712
56.3261
60.6807
65.0813
69.6576
74.727
12.1909
16.572
20.9509
25.3261
29.6957
34.0572
38.4078
42.7441
47.0619
51.3573
55.6275
59.8768
64.1324
68.5118
73.5425
12.1604
16.4806
20.7987
25.1131
29.4218
33.7223
38.0113
42.2847
46.5366
50.7594
54.9421
59.0668
63.0959
66.9117
70.0039
12.1304
16.3905
20.6488
24.9035
29.153
33.3945
37.6248
41.839
46.0303
50.1882
54.2953
58.3215
62.2057
65.8122
68.8379
12.1007
16.3016
20.5009
24.6972
28.889
33.0738
37.2485
41.4083
45.5461
49.6507
53.7034
57.6733
61.5066
65.1142
68.3787
12.0713
16.2137
20.3548
24.4937
28.6291
32.7593
36.8816
40.9918
45.0839
49.1478
53.1676
57.1183
60.9626
64.6527
68.1545
12.0422
16.1263
20.2098
24.2921
28.3724
32.4496
36.522
40.587
44.6401
48.6743
52.6783
56.6356
60.5238
64.3202
68.0186
12.0131
16.0393
20.0654
24.0914
28.1171
32.1425
36.1668
40.1894
44.2083
48.2204
52.2201
56.1993
60.1472
64.054
67.9189
11.984
15.9521
19.9207
23.8904
27.8616
31.8352
35.8121
39.7933
43.7802
47.7738
51.7748
55.7831
59.7974
63.815
67.8326
11.9546
15.8643
19.775
23.6878
27.6039
31.525
35.4534
39.3923
43.3462
47.3207
51.323
55.3613
59.4437
63.5741
67.746
11.925
15.7756
19.6276
23.4826
27.3421
31.2089
35.0864
38.98
42.8968
46.8472
50.8448
54.9074
59.0549
63.3026
67.6459
11.895
15.6856
19.4779
23.2736
27.0748
30.8846
34.7076
38.5505
42.4231
46.3396
50.3202
54.3931
58.5948
62.9631
67.5121
11.8646
15.5942
19.3256
23.0605
26.8009
30.5505
34.3141
38.0994
41.9178
45.7862
49.73
53.788
58.0173
62.4963
67.3019
11.8337
15.5014
19.1707
22.8429
26.5202
30.2058
33.9047
37.6245
41.3768
45.1791
49.0593
53.0624
57.2647
61.801
66.9014
11.8024
15.4074
19.0134
22.6215
26.2332
29.8513
33.4801
37.1262
40.7999
44.5168
48.302
52.1971
56.2785
60.7121
65.9591
94.0531
84.9524
77.2952
70.2811
63.6246
57.1943
50.918
44.7512
38.6643
32.6363
26.6519
20.6997
14.7703
8.8563
2.95114
95.6866
86.8134
78.9489
71.7003
64.8376
58.2304
51.8005
45.498
39.2891
33.1497
27.0622
21.0129
14.9909
8.98749
2.99467
96.3673
87.9715
80.173
72.8496
65.8714
59.1418
52.5931
46.1786
39.8646
33.6264
27.4452
21.3065
15.1984
9.11107
3.03571
96.709
88.7125
81.0651
73.7572
66.731
59.9258
53.2913
46.7883
40.3864
34.0624
27.798
21.5783
15.3911
9.2261
3.07396
96.909
89.2087
81.7192
74.4674
67.4353
60.5899
53.8969
47.3264
40.8531
34.4563
28.119
21.8269
15.5681
9.33199
3.10921
97.0395
89.5562
82.2061
75.0231
68.0082
61.1463
54.4161
47.7958
41.2657
34.808
28.4078
22.0518
15.7288
9.42844
3.14135
97.1308
89.8089
82.5749
75.46
68.4732
61.6098
54.8574
48.2015
41.6267
35.1189
28.6651
22.2534
15.8734
9.51544
3.17039
97.1978
89.9983
82.8589
75.8059
68.8508
61.9944
55.2305
48.5495
41.9402
35.3915
28.8923
22.4324
16.0024
9.59322
3.19638
97.2485
90.1434
83.0808
76.0818
69.1581
62.3132
55.5445
48.8463
42.2106
35.6287
29.0914
22.5902
16.1165
9.66221
3.21946
97.2878
90.2567
83.2563
76.3035
69.409
62.5773
55.8083
49.0986
42.4427
35.8338
29.2648
22.7282
16.2167
9.72295
3.2398
97.3187
90.3464
83.3966
76.4828
69.6144
62.7962
56.0294
49.3122
42.6409
36.0104
29.415
22.8483
16.3042
9.77609
3.25763
97.3433
90.4182
83.5096
76.6286
69.7831
62.9778
56.2146
49.4926
42.8096
36.1617
29.5443
22.9522
16.3801
9.82231
3.27314
97.3631
90.4761
83.6013
76.7477
69.922
63.1287
56.3696
49.6448
42.9529
36.2909
29.6553
23.0417
16.4457
9.86231
3.28658
97.3792
90.5231
83.6761
76.8454
70.0368
63.254
56.4993
49.773
43.0742
36.4008
29.7501
23.1185
16.5021
9.89676
3.29817
97.3923
90.5616
83.7374
76.9258
70.1317
63.3583
56.6077
49.8807
43.1767
36.4942
29.8309
23.184
16.5504
9.9263
3.30811
97.403
90.5931
83.7878
76.9922
70.2103
63.4451
56.6984
49.9712
43.2631
36.5731
29.8995
23.2399
16.5915
9.95155
3.31661
97.4118
90.619
83.8293
77.047
70.2755
63.5173
56.7742
50.0471
43.3359
36.6398
29.9576
23.2872
16.6266
9.97303
3.32385
97.419
90.6403
83.8636
77.0924
70.3295
63.5774
56.8375
50.1106
43.397
36.696
30.0066
23.3273
16.6562
9.99125
3.32999
97.425
90.6579
83.8919
77.1299
70.3743
63.6273
56.8901
50.1637
43.4481
36.7431
30.0479
23.3611
16.6813
10.0066
3.33518
97.4299
90.6724
83.9152
77.1608
70.4114
63.6687
56.9339
50.2079
43.4909
36.7826
30.0824
23.3894
16.7023
10.0196
3.33955
97.434
90.6843
83.9344
77.1863
70.442
63.7029
56.9702
50.2446
43.5264
36.8154
30.1112
23.4131
16.7199
10.0304
3.3432
97.4373
90.6941
83.9501
77.2073
70.4671
63.7311
57.0001
50.2748
43.5557
36.8426
30.1351
23.4327
16.7344
10.0394
3.34623
97.44
90.702
83.9629
77.2243
70.4876
63.754
57.0244
50.2995
43.5797
36.8648
30.1547
23.4488
16.7464
10.0467
3.34872
97.4421
90.7084
83.9732
77.238
70.504
63.7725
57.0441
50.3195
43.5991
36.8828
30.1705
23.4618
16.7561
10.0527
3.35075
97.4438
90.7134
83.9813
77.2487
70.517
63.7871
57.0596
50.3353
43.6144
36.8971
30.1831
23.4722
16.7639
10.0575
3.35236
97.4451
90.7172
83.9874
77.257
70.5269
63.7982
57.0715
50.3474
43.6262
36.9081
30.1928
23.4802
16.7698
10.0612
3.35359
97.446
90.72
83.9919
77.2629
70.5341
63.8063
57.0801
50.3562
43.6348
36.916
30.1998
23.486
16.7741
10.0638
3.3545
97.4466
90.7217
83.9947
77.2667
70.5387
63.8115
57.0857
50.3619
43.6404
36.9212
30.2044
23.4898
16.777
10.0656
3.3551
97.4469
90.7226
83.9961
77.2686
70.541
63.8141
57.0885
50.3647
43.6432
36.9239
30.2068
23.4917
16.7784
10.0665
3.3554
97.4469
90.7225
83.996
77.2685
70.5409
63.814
57.0885
50.3648
43.6433
36.924
30.2069
23.4919
16.7786
10.0666
3.35543
97.4466
90.7215
83.9945
77.2665
70.5385
63.8114
57.0857
50.362
43.6407
36.9216
30.2049
23.4902
16.7773
10.0658
3.35518
97.4459
90.7196
83.9914
77.2624
70.5337
63.806
57.0801
50.3564
43.6353
36.9167
30.2006
23.4867
16.7747
10.0642
3.35464
97.4449
90.7167
83.9867
77.2562
70.5262
63.7978
57.0714
50.3478
43.627
36.9091
30.1939
23.4813
16.7707
10.0618
3.35381
97.4435
90.7126
83.9801
77.2475
70.516
63.7864
57.0595
50.3358
43.6155
36.8985
30.1848
23.4738
16.7652
10.0584
3.35267
97.4417
90.7072
83.9715
77.2361
70.5024
63.7715
57.0439
50.3202
43.6005
36.8849
30.1729
23.4641
16.758
10.054
3.35119
97.4393
90.7003
83.9604
77.2216
70.4852
63.7525
57.0241
50.3004
43.5817
36.8676
30.1579
23.4519
16.7491
10.0485
3.34934
97.4363
90.6915
83.9465