/*--------------------------------*- C++ -*----------------------------------*\
| =========                 |                                                 |
| \\      /  F ield         | OpenFOAM: The Open Source CFD Toolbox           |
|  \\    /   O peration     | Version:  5.x                                   |
|   \\  /    A nd           | Web:      www.OpenFOAM.org                      |
|    \\/     M anipulation  |                                                 |
\*---------------------------------------------------------------------------*/
FoamFile
{
    version     2.0;
    format      ascii;
    class       volScalarField;
    location    "1.3";
    object      gradTy;
}
// * * * * * * * * * * * * * * * * * * * * * * * * * * * * * * * * * * * * * //

dimensions      [0 -1 0 1 0 0 0];

internalField   nonuniform List<scalar> 
3200
(
363.707
-85.4539
-109.85
-25.1072
-47.2794
-22.2579
-31.7311
-22.2256
-26.9114
-23.2285
-25.2412
-24.3886
-25.105
-26.1358
-25.4838
-30.8588
-21.5304
-29.0981
-23.5411
-29.4125
-24.2716
-29.2595
-24.9932
-28.8585
-27.2848
-31.269
-27.0063
-35.9676
-20.72
-31.7219
-21.5003
-30.8725
-23.2568
-31.3383
-28.5825
-41.556
-20.0525
-36.647
-23.0057
-35.5969
-21.7735
-35.4422
-22.9581
-37.2693
-25.2855
-37.2988
-27.109
-36.988
-33.9664
-47.5354
-24.3897
-40.9094
-27.4891
-40.475
-37.2167
-54.9744
-27.2299
-47.8997
-44.0823
-67.9807
-51.6901
-100.763
-20.1937
-86.3279
-29.2931
-98.7583
-38.0289
-118.953
-51.7477
-144.957
-73.3467
-172.06
-108.074
-203.486
-149.812
-237.256
-344.559
-389.119
-402.266
-405.488
298.407
-47.9852
-85.4086
-28.9768
-41.0198
-23.9675
-29.3996
-23.0027
-25.9001
-23.4967
-24.8585
-24.3854
-25.0316
-25.8214
-25.6232
-29.1831
-23.1171
-28.0812
-24.6245
-28.496
-25.2221
-28.4975
-25.7988
-28.4235
-27.7136
-30.396
-27.6786
-33.4116
-23.1929
-30.125
-23.1608
-29.298
-24.8814
-30.4612
-29.2623
-37.8044
-23.6576
-34.3635
-25.4476
-33.4028
-23.9229
-32.8635
-25.5094
-35.109
-27.5359
-35.4477
-29.0437
-35.8456
-34.9595
-43.8333
-27.9721
-38.501
-30.0372
-39.0206
-38.4787
-50.3173
-31.7691
-45.8329
-46.0188
-63.2147
-55.4483
-87.4348
-32.8394
-75.4868
-40.0013
-86.4257
-49.9043
-104.697
-65.515
-129.286
-88.8
-157.136
-123.133
-189.946
-163.675
-236.463
-347.071
-390.378
-402.665
-405.619
246.964
-22.8747
-64.7204
-30.1069
-35.9234
-24.7772
-27.5407
-23.4074
-25.1003
-23.6138
-24.5486
-24.3367
-24.9519
-25.5459
-25.6116
-27.8918
-24.2619
-27.4005
-25.4141
-27.8646
-25.9099
-27.9737
-26.3907
-28.1212
-28.006
-29.7384
-28.0122
-31.4928
-24.9791
-29.0833
-24.2965
-28.1449
-26.1054
-29.8545
-29.5516
-34.9596
-26.2678
-32.8642
-27.2138
-31.9052
-25.3346
-30.9358
-27.3817
-33.6349
-29.1661
-34.1685
-30.4493
-35.0099
-35.5613
-41.1198
-30.4981
-36.8516
-31.8866
-37.9463
-39.2448
-46.8749
-35.0032
-44.3206
-47.2743
-59.4467
-57.616
-77.5694
-41.5954
-67.7712
-47.4335
-77.4115
-58.1279
-94.2002
-75.1654
-117.787
-99.902
-146.308
-134.161
-180.131
-173.577
-234.161
-352.277
-392.88
-403.439
-405.87
206.315
-6.88363
-47.0901
-29.6193
-31.505
-25.0299
-25.9571
-23.5785
-24.4271
-23.6334
-24.284
-24.2545
-24.8725
-25.291
-25.5109
-26.8364
-25.1355
-26.9242
-26.0256
-27.4089
-26.4364
-27.5951
-26.8495
-27.8921
-28.2239
-29.2185
-28.137
-29.9732
-26.34
-28.3966
-25.0861
-27.2266
-27.0972
-29.4092
-29.6119
-32.6781
-28.2658
-31.8541
-28.5657
-30.8575
-26.2587
-29.3736
-28.861
-32.5888
-30.4168
-33.2374
-31.523
-34.3339
-35.9622
-39.0528
-32.3443
-35.6542
-33.2943
-37.0619
-39.757
-44.2121
-37.3891
-43.0623
-48.1606
-56.2385
-58.912
-69.9409
-47.8653
-61.9163
-52.8534
-70.3682
-64.1379
-85.9086
-82.3505
-108.709
-108.434
-137.824
-142.866
-172.419
-180.796
-229.558
-360.586
-396.585
-404.541
-406.219
174.194
2.18804
-31.7667
-28.3572
-27.4207
-24.9862
-24.5055
-23.6202
-23.8193
-23.5949
-24.0463
-24.146
-24.8007
-25.0437
-25.3656
-25.9017
-25.869
-26.555
-26.5456
-27.047
-26.8772
-27.2924
-27.2364
-27.691
-28.4149
-28.7812
-28.1446
-28.672
-27.4728
-27.9241
-25.6573
-26.3988
-27.9908
-29.0479
-29.5572
-30.6954
-29.9433
-31.1185
-29.6938
-30.0849
-26.8739
-27.956
-30.1702
-31.7784
-31.4672
-32.4872
-32.4152
-33.7046
-36.3041
-37.3772
-33.7894
-34.6831
-34.4565
-36.2199
-40.1984
-41.9999
-39.2748
-41.8267
-48.9275
-53.2462
-59.8737
-63.6365
-52.6902
-56.986
-57.2103
-64.2751
-69.0284
-78.6307
-88.3396
-100.698
-115.78
-130.314
-150.591
-165.555
-186.4
-221.666
-372.697
-401.413
-405.894
-406.636
148.953
5.7378
-17.9377
-26.996
-23.3962
-24.8643
-23.0698
-23.6184
-23.2282
-23.5293
-23.8224
-24.0152
-24.7452
-24.7931
-25.2117
-24.9895
-26.5737
-26.2135
-27.0449
-26.7119
-27.2945
-27.0084
-27.6027
-27.479
-28.62
-28.384
-28.1055
-27.4397
-28.5395
-27.5602
-26.108
-25.5367
-28.9058
-28.7083
-29.4772
-28.788
-31.5436
-30.4868
-30.7492
-29.4561
-27.3171
-26.4929
-31.5035
-31.0445
-32.4642
-31.7805
-33.2528
-33.0228
-36.7068
-35.888
-35.055
-33.7567
-35.5389
-35.2892
-40.7268
-39.9687
-40.9493
-40.4091
-49.8055
-50.1615
-60.9499
-57.9205
-56.9054
-52.2186
-61.2938
-58.2746
-73.7251
-71.3488
-94.2231
-92.5778
-123.148
-122.575
-158.53
-158.457
-191.428
-209.145
-389.701
-407.211
-407.398
-407.082
129.44
4.50591
-4.69347
-26.1412
-19.1691
-24.8729
-21.5406
-23.6543
-22.6096
-23.4641
-23.6028
-23.863
-24.7172
-24.5278
-25.0834
-24.0053
-27.3563
-25.8245
-27.5909
-26.3402
-27.7467
-26.6892
-27.9978
-27.2166
-28.8803
-27.9885
-28.082
-26.1369
-29.6894
-27.2153
-26.5236
-24.5171
-29.9635
-28.3301
-29.4556
-26.743
-33.2964
-29.8025
-31.867
-28.8614
-27.7078
-24.7966
-33.0557
-30.2356
-33.5455
-30.9877
-34.1586
-32.1846
-37.2898
-34.3994
-36.3394
-32.7071
-36.7028
-34.1311
-41.503
-37.8681
-42.6847
-38.5941
-51.0452
-46.6596
-62.5789
-52.1239
-61.2676
-46.9008
-65.861
-51.5353
-79.1348
-63.0568
-101.087
-83.1689
-131.761
-113.374
-167.91
-150.036
-197.066
-190.109
-413.227
-413.702
-408.922
-407.516
114.925
-1.3556
9.04044
-26.4234
-14.4353
-25.2433
-19.7938
-23.8168
-21.9154
-23.4278
-23.3785
-23.6874
-24.7312
-24.2329
-25.0208
-22.8441
-28.3345
-25.3039
-28.2579
-25.8626
-28.2977
-26.2758
-28.4769
-26.8567
-29.2432
-27.554
-28.1404
-24.6146
-31.0808
-26.7995
-26.9922
-23.1999
-31.3047
-27.8421
-29.588
-24.3278
-35.4516
-28.8962
-33.1879
-28.193
-28.1693
-22.6539
-35.0515
-29.1819
-34.862
-29.9661
-35.2707
-31.0636
-38.1931
-32.7181
-37.847
-31.3529
-38.1297
-32.5756
-42.72
-35.4298
-44.7768
-36.1177
-52.9587
-42.3458
-65.2631
-45.5435
-66.5702
-40.2498
-71.7596
-43.1186
-86.2912
-52.6
-110.189
-71.0989
-143.054
-101.256
-180.184
-139.018
-204.862
-161.869
-445.657
-420.402
-410.309
-407.892
105.061
-12.2846
24.6084
-28.6042
-8.79004
-26.2645
-17.6686
-24.2167
-21.0851
-23.4545
-23.1405
-23.4829
-24.8073
-23.8872
-25.0774
-21.3769
-29.6541
-24.5444
-29.1394
-25.1923
-29.0276
-25.694
-29.1094
-26.3371
-29.7697
-27.029
-28.3639
-22.6931
-32.9026
-26.2054
-27.6207
-21.4073
-33.1093
-27.1462
-30.0012
-21.2578
-38.3146
-27.5567
-34.881
-27.3264
-28.8512
-19.7954
-37.7786
-27.6669
-36.6022
-28.5373
-36.7639
-29.4898
-39.6012
-30.6132
-39.8203
-29.4685
-40.0505
-30.3928
-44.6349
-32.3265
-47.5896
-32.6218
-55.9708
-36.6911
-69.653
-37.3335
-73.7667
-31.2855
-80.0639
-31.8291
-96.5216
-38.4912
-123.156
-54.5861
-158.895
-84.3074
-197.262
-123.718
-217.01
-120.556
-490.447
-426.493
-411.388
-408.171
99.8909
-29.3835
43.78
-33.7066
-1.65382
-28.329
-14.9382
-25.0045
-20.0354
-23.5891
-22.8767
-23.2397
-24.9739
-23.4576
-25.3301
-19.4311
-31.5098
-23.3973
-30.3633
-24.2113
-30.0449
-24.8429
-29.9901
-25.57
-30.5438
-26.3417
-28.8683
-20.1372
-35.4015
-25.2874
-28.5552
-18.8989
-35.6213
-26.0985
-30.8791
-17.1566
-42.291
-25.4947
-37.17
-26.0975
-29.957
-15.8561
-41.6304
-25.3908
-39.0232
-26.4576
-38.8779
-27.2214
-41.7742
-27.7814
-42.5767
-26.7475
-42.7817
-27.2548
-47.6125
-28.1211
-51.6124
-27.5938
-60.6885
-28.9472
-76.6545
-26.3735
-84.1198
-18.6707
-92.2483
-16.0218
-111.66
-18.6737
-142.252
-31.1568
-181.89
-59.8554
-221.797
-101.743
-236.746
-60.5873
-552.589
-430.629
-411.989
-408.319
38.3626
52.1179
14.84
32.9868
25.9066
31.1097
29.8968
29.9186
31.506
29.167
32.4229
29.0334
33.6137
29.3798
32.4893
22.2447
41.5179
28.4326
38.0835
28.5763
36.6513
28.6445
36.1669
29.0594
37.3818
29.8757
39.1169
29.965
37.6384
29.0809
32.0605
22.1774
39.4079
29.4827
34.6063
20.9491
45.7791
29.4135
40.3176
29.4603
33.5441
19.6399
44.8491
29.0673
41.5745
29.4912
39.9274
29.3404
34.2086
18.139
48.5303
29.1961
45.2189
29.7447
37.5628
13.7892
58.512
29.9765
43.8153
3.75728
83.0923
32.5074
82.1603
36.2607
88.7947
40.028
98.3776
45.1114
111.219
54.6781
124.605
69.6436
136.131
89.8755
148.847
128.096
124.436
123.627
123.438
123.396
37.8126
46.29
20.4929
31.8819
27.53
30.976
30.2387
30.2527
31.2674
29.7477
31.8852
29.7582
32.9237
30.1746
31.9359
25.3895
38.4877
30.1265
36.2475
30.0119
35.1568
29.9402
34.8365
30.3516
36.1068
31.4288
37.6308
31.5776
36.0031
30.0234
31.1722
24.7819
36.8063
30.5791
33.6605
24.9724
41.8654
31.3778
38.1342
30.7092
32.4183
23.4916
41.0738
31.2089
39.2861
31.3859
37.9741
30.7686
33.0009
22.7715
44.0294
31.9576
42.3039
31.8889
35.7515
20.6454
51.847
33.4997
40.7537
15.6516
71.6194
40.5748
73.9056
44.9084
80.2616
49.5574
89.0279
55.6902
100.771
65.6171
113.602
79.6895
125.736
97.8292
139.872
127.412
124.322
123.601
123.432
123.394
36.9237
41.8333
24.6588
31.4071
28.8419
31.01
30.5509
30.5472
31.1306
30.1827
31.5185
30.2718
32.4708
30.7895
31.7154
27.7491
36.3165
31.2417
34.9064
30.9927
34.0774
30.8318
33.8818
31.2346
35.2497
32.5473
36.6356
32.7717
34.7847
30.6814
30.586
26.6505
34.9353
31.3037
33.186
27.9731
39.0475
32.6529
36.5186
31.5933
31.7186
26.2835
38.3969
32.6334
37.6374
32.7016
36.573
31.8197
32.2922
26.1449
40.8623
33.8229
40.2199
33.4623
34.6994
25.6497
47.1644
35.9991
38.9865
24.3034
63.6273
46.0673
68.1441
50.982
74.3708
56.2797
82.5902
63.1319
93.5316
73.2302
105.875
86.5367
118.298
102.984
133.077
126.353
124.112
123.554
123.42
123.39
35.8386
38.2602
27.8681
31.3051
29.9648
31.1496
30.8454
30.8186
31.0554
30.5267
31.2555
30.648
32.1735
31.3005
31.691
29.6078
34.6914
32.0077
33.8689
31.6941
33.2517
31.4722
33.1556
31.8517
34.6618
33.3946
35.9589
33.7312
33.8115
31.1797
30.154
28.0307
33.5416
31.8083
32.9959
30.3227
36.9289
33.5182
35.2553
32.2759
31.2417
28.3739
36.4356
33.6277
36.3867
33.6654
35.5175
32.6623
31.8487
28.6843
38.5659
35.1512
38.6624
34.7164
34.0591
29.4317
43.7893
37.9327
37.9265
30.7951
57.9105
49.9745
63.9522
55.4337
70.139
61.2257
77.9831
68.5791
88.3201
78.7251
100.226
91.3395
112.743
106.323
127.753
125.113
123.834
123.488
123.404
123.384
34.6568
35.1999
30.5244
31.3944
30.987
31.3489
31.129
31.0797
31.0112
30.8207
31.0463
30.9392
31.9725
31.7613
31.7659
31.1801
33.3773
32.5923
32.9931
32.2465
32.5598
31.9743
32.5492
32.3046
34.2373
34.089
35.4742
34.5988
32.947
31.614
29.7662
29.106
32.4379
32.1963
32.9605
32.3016
35.2113
34.1779
34.1809
32.881
30.8386
30.0276
34.9094
34.3996
35.3556
34.4467
34.6505
33.4235
31.4995
30.702
36.8016
36.2026
37.4035
35.8392
33.5779
32.4545
41.2229
39.6324
37.1515
35.917
53.596
53.0051
60.6601
58.9563
66.8519
65.1449
74.4224
72.8604
84.2818
82.9759
95.7928
94.9304
108.301
108.548
123.393
123.82
123.519
123.413
123.384
123.378
33.4534
32.3484
32.959
31.5349
31.9785
31.5716
31.4059
31.3417
30.9719
31.0982
30.8505
31.1848
31.8213
32.2136
31.8644
32.6412
32.1825
33.1295
32.1633
32.7567
31.904
32.4301
31.9756
32.6705
33.8962
34.7222
35.0801
35.4975
32.07
32.069
29.331
30.0216
31.4773
32.5443
32.9822
34.1378
33.6516
34.7962
33.1587
33.5159
30.3863
31.4536
33.599
35.1131
34.3993
35.1835
33.8408
34.2128
31.1054
32.4441
35.3053
37.1822
36.2553
36.9899
33.0512
35.0817
39.071
41.3678
36.3268
40.2824
50.0122
55.7059
57.7424
62.0949
63.9489
68.6246
71.2952
76.6222
80.7524
86.6618
91.9066
97.9519
104.384
110.188
119.609
122.555
123.196
123.333
123.364
123.371
32.2941
29.4282
35.4749
31.6007
33.004
31.7846
31.6786
31.6159
30.9127
31.3905
30.6313
31.4183
31.6798
32.6954
31.9179
34.1516
30.9315
33.7432
31.2711
33.3246
31.1929
32.9251
31.356
33.015
33.571
35.374
34.6835
36.5499
31.0557
32.6334
28.7586
30.9066
30.5321
32.9174
32.9751
36.0396
32.0265
35.5257
32.0567
34.2902
29.7661
32.8364
32.3138
35.9155
33.3829
36.0054
32.9625
35.1411
30.5334
34.1251
33.8483
38.2739
35.0405
38.3275
32.2857
37.6305
36.9867
43.3967
35.1421
44.4169
46.5899
58.553
54.7321
65.3335
60.9331
72.1845
68.0617
80.4319
77.152
90.3743
87.9884
100.958
100.491
111.684
116.084
121.382
122.893
123.259
123.345
123.365
31.2494
26.1514
38.3875
31.4552
34.1342
31.9528
31.9494
31.9154
30.806
31.7321
30.35
31.6725
31.5079
33.2488
31.8506
35.88
29.4389
34.5679
30.1976
34.0596
30.327
33.5519
30.607
33.4034
33.1956
36.1252
34.1843
37.8965
29.7583
33.4156
27.945
31.8921
29.4763
33.3832
32.8474
38.2242
30.1006
36.5337
30.7262
35.3345
28.8418
34.3626
30.8632
36.9631
32.16
37.0535
31.8751
36.3406
29.6331
35.9606
32.203
39.6716
33.5647
40.0379
31.0644
40.4187
34.62
46.0119
33.2562
48.8352
42.7758
62.0314
51.1448
69.1721
57.2912
76.3594
64.1686
84.8678
72.8917
94.7113
83.4562
104.502
96.1331
113.451
112.524
120.361
122.636
123.195
123.329
123.359
30.4084
22.181
42.0665
30.9249
35.4584
32.0335
32.221
32.2576
30.6176
32.1656
29.9602
31.9859
31.2594
33.9272
31.5658
38.0267
27.4831
35.7722
28.7943
35.0979
29.1823
34.4249
29.6278
33.9115
32.6942
37.0708
33.4586
39.7165
27.9886
34.5624
26.7541
33.1317
28.167
34.0262
32.4827
40.9483
27.592
38.0308
28.9786
36.8224
27.4364
36.2491
29.0283
38.4463
30.5487
38.5041
30.4014
37.9865
28.211
38.199
30.1082
41.612
31.5853
42.366
29.1098
43.8126
31.5655
49.5928
30.2366
54.1189
37.949
66.7153
46.4009
74.2071
52.4113
81.7849
58.9601
90.6109
67.2797
100.372
77.6323
109.223
90.7476
115.949
108.613
119.563
122.448
123.149
123.317
123.355
29.8963
17.0857
46.9862
29.7672
37.1006
31.9694
32.4983
32.6664
30.3011
32.7488
29.4006
32.4088
30.8746
34.8064
30.9276
40.8531
24.7735
37.5867
26.8592
36.6245
27.5908
35.699
28.2849
34.639
31.9685
38.3354
32.3374
42.2555
25.4863
36.284
24.9953
34.8244
26.4242
34.9648
31.717
44.5447
24.1309
40.307
26.5547
38.9988
25.3026
38.7764
26.5272
40.6215
28.3028
40.5965
28.2997
40.3264
25.9978
41.1602
27.2291
44.4132
28.7732
45.655
26.0364
48.2842
27.2996
54.6688
25.4872
61.0045
31.3247
73.3624
39.7322
81.2262
45.4848
89.2984
51.5728
98.5536
59.4112
108.266
69.6357
115.946
83.6156
119.749
103.972
119.089
122.348
123.125
123.311
123.353
-38.7138
-23.7228
-52.4239
-31.0364
-40.0595
-31.3312
-34.3734
-30.929
-30.6069
-29.6737
-28.0884
-28.8781
-27.6611
-29.6185
-26.9908
-33.0657
-20.4427
-31.022
-21.8232
-32.3158
-23.6647
-32.0339
-24.8426
-31.1202
-28.5263
-34.5794
-28.8131
-38.0433
-22.4464
-32.3064
-21.9465
-30.6937
-22.9851
-30.5436
-27.4565
-39.1964
-20.1572
-35.3894
-22.2619
-34.3749
-20.819
-34.337
-21.8921
-36.5194
-24.0326
-36.9055
-25.242
-36.756
-26.7478
-36.3707
-33.1757
-45.4031
-26.2681
-39.7261
-35.3843
-50.8962
-27.23
-44.1238
-39.5517
-57.0888
-44.1164
-76.2363
-24.2759
-64.6735
-28.851
-67.9097
-31.7741
-75.1616
-33.7114
-84.7111
-38.7211
-97.5087
-55.5046
-110.846
-110.055
-135.703
-141.852
-143.365
-143.729
-143.811
-39.3133
-29.2617
-47.1405
-32.7288
-37.8601
-31.9078
-33.5847
-31.094
-30.3406
-29.4838
-28.2084
-28.644
-27.8475
-29.0948
-27.3487
-31.0691
-22.2581
-29.1203
-23.7272
-30.7712
-25.2931
-30.7791
-26.1798
-30.4224
-29.2318
-33.3839
-29.8802
-35.6927
-24.7704
-30.7511
-23.545
-29.1811
-24.5439
-29.6917
-28.1398
-35.8535
-23.3591
-33.1891
-24.5856
-32.224
-22.9123
-31.7541
-24.4293
-34.2451
-26.3757
-34.8276
-27.3729
-34.936
-28.6422
-35.2558
-34.1851
-42.2718
-29.349
-38.305
-36.7219
-46.9935
-31.0761
-42.4145
-41.234
-53.6827
-46.9379
-67.78
-32.3998
-58.2093
-35.3675
-61.0698
-38.4398
-67.1734
-41.394
-75.4562
-47.6634
-87.9055
-65.2447
-106.074
-116.013
-136.482
-142.037
-143.41
-143.74
-143.814
-40.3147
-33.6831
-43.1484
-33.6392
-36.1038
-32.1789
-32.9623
-31.1891
-30.078
-29.3103
-28.2594
-28.4587
-27.9516
-28.6904
-27.4874
-29.5731
-23.4459
-27.7082
-25.1331
-29.7268
-26.4823
-29.9271
-27.1627
-29.9413
-29.7229
-32.4941
-30.5739
-34.011
-26.4176
-29.7226
-24.6291
-28.0787
-25.7107
-29.1071
-28.4517
-33.3182
-25.6674
-31.7256
-26.2588
-30.7505
-24.2788
-29.8172
-26.2801
-32.6775
-28.0653
-33.3853
-28.9024
-33.6696
-30.0195
-34.4476
-34.8276
-39.9801
-31.554
-37.3049
-37.5846
-44.1377
-33.8313
-41.2053
-42.3705
-51.0437
-48.6552
-61.5721
-38.0756
-53.6906
-39.9418
-56.1625
-43.0504
-61.3653
-46.6825
-68.6751
-53.8839
-80.8179
-72.4448
-102.537
-121.55
-137.858
-142.389
-143.497
-143.76
-143.819
-41.5813
-37.4606
-39.915
-34.0705
-34.6027
-32.2614
-32.4418
-31.2574
-29.8012
-29.1477
-28.26
-28.3012
-28.0054
-28.3632
-27.494
-28.4052
-24.2178
-26.5692
-26.2517
-28.9954
-27.4035
-29.323
-27.9233
-29.5796
-30.0939
-31.7913
-31.0529
-32.7698
-27.6284
-29.0295
-25.371
-27.2085
-26.6463
-28.6841
-28.5423
-31.283
-27.4268
-30.7225
-27.5332
-29.715
-25.1644
-28.2428
-27.7331
-31.5498
-29.3571
-32.3345
-30.0614
-32.7394
-31.0732
-33.8007
-35.2785
-38.231
-33.1914
-36.523
-38.1959
-41.9557
-35.8788
-40.2438
-43.2062
-48.8466
-49.7599
-56.8201
-42.1863
-50.3459
-43.3167
-52.4282
-46.4035
-56.8765
-50.5035
-63.365
-58.4349
-75.1422
-78.1058
-99.4432
-127.195
-139.704
-142.877
-143.617
-143.789
-143.827
-43.0127
-40.9749
-37.0135
-34.2464
-33.2164
-32.2427
-31.9757
-31.3363
-29.4921
-28.9941
-28.2232
-28.1569
-28.0328
-28.0847
-27.4292
-27.4409
-24.7277
-25.5365
-27.2476
-28.4371
-28.1838
-28.8512
-28.5613
-29.2632
-30.4172
-31.1856
-31.4332
-31.8027
-28.5771
-28.5385
-25.8926
-26.434
-27.4775
-28.3479
-28.5171
-29.5113
-28.8996
-29.9784
-28.5924
-28.9483
-25.7444
-26.8115
-29.0126
-30.6621
-30.4417
-31.4934
-31.022
-31.9825
-31.9508
-33.2035
-35.6702
-36.8013
-34.4935
-35.8071
-38.7233
-40.1668
-37.5082
-39.3381
-43.9343
-46.8383
-50.6183
-52.9355
-45.385
-47.6085
-46.0457
-49.2989
-49.0963
-53.0614
-53.5549
-58.7662
-62.1201
-70.016
-83.0316
-96.0924
-133.449
-141.924
-143.462
-143.759
-143.822
-143.836
-44.5254
-44.5661
-34.0641
-34.3529
-31.8278
-32.1957
-31.5245
-31.4633
-29.1291
-28.8514
-28.1581
-28.0148
-28.053
-27.8345
-27.3375
-26.5855
-25.0967
-24.4677
-28.2642
-27.9364
-28.9271
-28.4177
-29.1596
-28.9286
-30.7558
-30.6007
-31.8086
-30.9792
-29.3982
-28.1515
-26.2866
-25.6392
-28.3155
-28.0396
-28.4588
-27.8038
-30.3048
-29.3328
-29.5818
-28.324
-26.1534
-25.3347
-30.314
-29.849
-31.4753
-30.7131
-31.9251
-31.2652
-32.7769
-32.5576
-36.1151
-35.509
-35.6507
-35.027
-39.3095
-38.5419
-38.958
-38.3217
-44.73
-44.7948
-51.5351
-49.4455
-48.1926
-45.0224
-48.582
-46.3078
-51.6224
-49.385
-56.4174
-54.2417
-65.6236
-64.6849
-87.9556
-91.7696
-140.859
-144.42
-144.097
-143.911
-143.858
-143.845
-46.0366
-48.579
-30.6832
-34.5719
-30.3235
-32.1904
-31.0488
-31.6813
-28.6838
-28.7254
-28.0711
-27.8655
-28.0836
-27.5954
-27.2562
-25.7597
-25.4313
-23.2219
-29.4459
-27.3831
-29.7306
-27.9341
-29.7968
-28.5117
-31.1738
-29.9613
-32.2655
-30.1858
-30.206
-27.7894
-26.6319
-24.7115
-29.2717
-27.7035
-28.4436
-25.97
-31.8489
-28.6384
-30.6315
-27.7362
-26.5085
-23.6261
-31.8334
-28.9523
-32.6045
-29.854
-32.9032
-30.4611
-33.6723
-31.7607
-36.7267
-34.1868
-36.8386
-34.0507
-40.0978
-36.8698
-40.4499
-37.0235
-45.7796
-42.4844
-52.8052
-45.9222
-51.077
-42.1671
-51.3517
-43.0132
-54.4506
-45.3379
-59.6484
-49.1749
-69.62
-58.3856
-93.6578
-85.636
-150.089
-147.073
-144.726
-144.058
-143.892
-143.854
-47.4461
-53.4096
-26.431
-35.1165
-28.5748
-32.3055
-30.5025
-32.0446
-28.1172
-28.6274
-27.9664
-27.6995
-28.1427
-27.3507
-27.2214
-24.8874
-25.8414
-21.6391
-30.9594
-26.6536
-30.7001
-27.3046
-30.5603
-27.9373
-31.7471
-29.1815
-32.8982
-29.3088
-31.1116
-27.3773
-27.0082
-23.525
-30.4734
-27.2755
-28.5573
-23.8026
-33.757
-27.7362
-31.8771
-27.0821
-26.9301
-21.4742
-33.7965
-27.7947
-33.9902
-28.7631
-34.1014
-29.4312
-34.7729
-30.689
-37.6388
-32.6574
-38.2444
-32.7214
-41.2574
-34.9257
-42.2224
-35.2384
-47.3116
-39.6297
-54.7638
-41.9176
-54.5243
-38.5884
-54.8226
-38.9279
-58.1011
-40.3541
-63.871
-42.8716
-74.8838
-50.2262
-101.092
-76.6035
-162.019
-149.698
-145.289
-144.184
-143.921
-143.862
-48.6172
-59.558
-20.7524
-36.2705
-26.4154
-32.6423
-29.8226
-32.6271
-27.3735
-28.5767
-27.8464
-27.5055
-28.2516
-27.0799
-27.2752
-23.884
-26.4583
-19.5159
-33.0184
-25.5905
-31.9678
-26.4094
-31.5594
-27.1061
-32.5759
-28.151
-33.8236
-28.2167
-32.2392
-26.8311
-27.5095
-21.9217
-32.0814
-26.6689
-28.913
-21.0473
-36.3046
-26.4281
-33.4807
-26.2428
-27.5644
-18.6117
-36.4932
-26.1497
-35.8333
-27.2502
-35.7003
-28.0014
-36.2511
-29.1765
-39.0287
-30.7057
-40.0951
-30.8302
-43.0122
-32.4369
-44.5667
-32.6915
-49.6342
-35.8628
-57.8421
-36.8954
-59.1137
-33.7234
-59.5792
-33.4403
-63.2288
-33.7202
-69.8746
-34.4482
-82.4148
-39.0462
-111.541
-63.1753
-177.858
-152.008
-145.72
-144.278
-143.942
-143.868
-49.3509
-67.6964
-12.9011
-38.4397
-23.6131
-33.3413
-28.9181
-33.5324
-26.3719
-28.6038
-27.7112
-27.2686
-28.4378
-26.7549
-27.473
-22.6426
-27.4564
-16.5754
-35.9151
-23.9759
-33.7136
-25.0866
-32.9433
-25.8785
-33.8012
-26.7172
-35.2008
-26.74
-33.7447
-26.0421
-28.2621
-19.6892
-34.3131
-25.7566
-29.6737
-17.3677
-39.8583
-24.4435
-35.6565
-25.0617
-28.6103
-14.6765
-40.3196
-23.7043
-38.4077
-25.0566
-37.9459
-25.9342
-38.3429
-26.9876
-41.1462
-28.0462
-42.6926
-28.0819
-45.678
-29.0406
-47.8718
-28.9925
-53.1861
-30.6665
-62.6381
-30.1473
-65.6082
-26.8091
-66.4161
-25.7161
-70.7289
-24.4603
-78.742
-22.6896
-93.5997
-23.2321
-126.825
-43.2256
-199.319
-153.536
-145.957
-144.327
-143.953
-143.871
39.9776
52.7353
11.6431
33.0583
15.7205
27.3981
22.2821
29.3667
19.0911
24.2516
22.4745
23.4401
24.1949
23.2483
24.1483
19.9582
24.6669
15.0888
32.5051
22.4008
30.5786
23.8906
29.5409
24.8934
27.2411
20.5264
27.6312
15.1504
35.7226
24.2085
28.7253
17.5558
40.5349
26.6623
41.635
27.4721
39.8197
26.6798
36.9176
27.2487
32.5476
14.8761
48.1358
25.5115
42.8728
26.6842
40.0803
27.2642
33.3605
14.0268
56.6264
28.404
54.5999
27.6702
51.3433
27.7993
48.9028
27.8317
36.9521
3.4894
68.5727
26.9538
65.3207
30.2131
66.5953
32.3055
69.6743
34.624
74.3601
37.9343
81.4814
44.031
93.0983
57.1977
101.815
42.4158
220.239
176.585
169.933
168.628
39.4675
46.8292
17.2035
30.2039
18.9651
26.5593
23.3055
27.7889
20.7468
23.9974
22.8976
23.5647
24.148
23.5324
23.9952
21.105
23.7371
17.6802
29.9362
23.7154
29.1288
24.8336
28.518
25.4572
26.7617
22.1667
26.2233
18.2494
32.5867
25.2635
27.6584
20.7956
37.4051
29.0905
39.2203
29.9468
37.3062
28.5033
34.9572
28.5398
31.5788
20.3086
42.9035
28.4859
39.6431
29.0627
37.5691
28.9233
31.9645
20.1431
50.868
33.3148
49.6398
31.8677
47.0128
31.6006
45.0052
30.6572
34.625
13.3789
59.0123
33.2677
58.7493
36.3361
60.4425
38.5697
63.4436
41.193
67.8492
44.9293
74.5306
51.4222
85.6483
64.0624
95.8931
64.11
197.918
175.106
169.721
168.577
38.663
42.4028
21.0592
28.3194
21.4567
26.1548
24.0199
26.6727
21.9912
23.9177
23.2506
23.6933
24.1496
23.774
23.9769
22.0315
23.1556
19.5398
28.1071
24.5655
28.0682
25.4582
27.7656
25.8472
26.5191
23.4617
25.2975
20.4568
30.3181
25.9306
26.9627
23.0975
35.2731
30.7819
37.5828
31.7571
35.4401
29.7176
33.5127
29.4536
31.1833
24.3877
39.1527
30.4384
37.284
30.6787
35.7452
30.116
31.164
24.5587
47.0419
36.8717
46.0447
34.7498
43.9059
34.2505
42.2189
32.7513
33.3077
20.5945
52.3084
37.5339
54.0951
40.5999
56.1304
42.9655
59.0995
45.8074
63.323
49.825
69.6898
56.5216
80.4325
68.7919
92.5179
79.1821
181.864
172.932
169.34
168.482
37.7092
38.98
23.7709
27.0001
23.4863
26.0239
24.5431
25.8502
22.9718
23.9423
23.5597
23.8219
24.185
23.9931
24.0451
22.8357
22.7642
20.9127
26.763
25.1344
27.2528
25.8867
27.183
26.1343
26.4264
24.5618
24.6394
22.0769
28.6202
26.3817
26.4637
24.7586
33.8087
32.0224
36.451
33.1879
33.951
30.552
32.3832
30.1367
31.1297
27.6051
36.3419
31.7694
35.4639
31.8289
34.35
31.0426
30.6707
27.8117
44.5229
39.6559
43.2694
36.8148
41.5525
36.1965
40.1312
34.4456
32.5224
26.0342
47.4652
40.548
50.6444
43.7038
52.9674
46.1907
55.9337
49.1908
60.0386
53.3875
66.1717
60.1392
76.6401
72.1081
90.6265
89.6148
170.275
170.546
168.851
168.353
36.7046
36.2165
25.7453
25.9507
25.2739
26.054
24.9551
25.1955
23.7988
24.0213
23.8433
23.9468
24.243
24.2027
24.1641
23.5949
22.4445
21.978
25.7185
25.5538
26.5772
26.2093
26.6946
26.3682
26.4205
25.5846
24.0875
23.3333
27.2741
26.7405
26.0366
25.9899
32.7782
33.0148
35.6276
34.4582
32.629
31.1778
31.4174
30.6908
31.2574
30.3327
34.0642
32.7703
33.9376
32.7334
33.1886
31.8523
30.2774
30.2826
42.8677
42.1015
40.8975
38.4329
39.6036
37.7716
38.4291
35.9902
31.9205
30.3579
43.7568
42.8823
47.876
46.1605
50.4469
48.7559
53.4283
51.8714
57.455
56.1735
63.4072
62.8564
73.6899
74.5033
89.5172
96.7816
161.904
168.24
168.316
168.205
35.7196
33.8524
27.2926
24.9367
27.0034
26.1593
25.3136
24.6063
24.561
24.1165
24.1159
24.0641
24.3146
24.4124
24.3045
24.3775
22.0975
22.8751
24.8304
25.926
25.9574
26.4979
26.2389
26.5871
26.4502
26.6341
23.506
24.4021
26.1072
27.1063
25.5835
26.948
32.01
33.9124
34.9556
35.755
31.292
31.7362
30.4904
31.1934
31.445
32.8743
31.9877
33.6731
32.5063
33.5717
32.0991
32.6719
29.8212
32.2506
41.7467
44.5649
38.5763
39.9058
37.775
39.2474
36.851
37.6002
31.2186
34.0835
40.6195
44.9822
45.3763
48.3773
48.1658
51.0669
51.1723
54.2668
55.1464
58.6193
60.9544
65.1186
71.1408
76.3307
88.7182
101.634
155.884
166.184
167.788
168.052
34.8093
31.676
28.6718
23.7457
28.8493
26.2647
25.6664
23.9906
25.3392
24.1938
24.3903
24.1692
24.3922
24.6303
24.4375
25.254
21.6281
23.725
23.9765
26.3405
25.3172
26.8183
25.7587
26.8254
26.467
27.8159
22.7634
25.4384
24.9683
27.5729
25.0148
27.7581
31.3681
34.8442
34.2932
37.2623
29.7587
32.362
29.4853
31.7139
31.5853
35.5083
29.8081
34.6897
30.9856
34.5114
30.9276
33.6282
29.1537
33.9356
40.8928
47.3803
35.9622
41.5169
35.8021
40.8778
35.147
39.4953
30.1466
37.662
37.569
47.2405
42.7721
50.7225
45.7599
53.4895
48.7966
56.7504
52.7338
61.1103
58.4281
67.3061
68.6248
77.87
87.8978
104.834
151.621
164.475
167.313
167.909
34.0242
29.4943
30.1277
22.1533
31.0025
26.2904
26.0622
23.2537
26.2169
24.2171
24.6812
24.2563
24.4689
24.865
24.5299
26.3079
20.9295
24.6483
23.0378
26.8902
24.5755
27.2408
25.1931
27.1202
26.415
29.2534
21.7112
26.6
23.706
28.2455
24.2335
28.5331
30.731
35.9367
33.4895
39.1879
27.8205
33.2065
28.2755
32.3282
31.563
38.5268
27.2047
36.0492
29.1751
35.7349
29.5042
34.8709
28.1153
35.5331
40.057
50.9114
32.6686
43.5782
33.3969
42.9398
33.0391
41.9376
28.3994
41.5441
34.1272
50.0638
39.6704
53.5834
42.8456
56.4083
45.9142
59.7122
49.8247
64.0429
55.4387
69.7952
65.7909
79.3772
86.8003
106.838
148.715
163.167
166.927
167.79
33.4202
27.1058
31.9277
19.8878
33.6979
26.1364
26.5608
22.2855
27.2927
24.1415
25.0072
24.3173
24.5378
25.1285
24.5372
27.6476
19.8664
25.7843
21.88
27.6859
23.6341
27.8511
24.4678
27.5196
26.2206
31.1054
20.1612
28.0722
22.1457
29.2595
23.119
29.3914
29.9728
37.3345
32.3591
41.7954
25.2114
34.4628
26.7056
33.1343
31.2307
42.2758
23.7938
38.0366
26.8264
37.4692
27.6159
36.5977
26.509
37.2454
38.967
55.6054
28.2079
46.4821
30.2018
45.7785
30.1782
45.2763
25.5837
46.2476
29.7502
53.9391
35.5953
57.4292
38.958
60.288
42.0588
63.62
45.9501
67.887
51.5295
73.0175
62.2521
81.1296
85.1969
107.967
146.905
162.284
166.656
167.705
33.0686
24.2716
34.4019
16.5879
37.2478
25.6626
27.247
20.9456
28.6943
23.9047
25.3949
24.3414
24.5912
25.4386
24.3957
29.4222
18.2547
27.3124
20.333
28.8752
22.3611
28.7646
23.4844
28.0923
25.7781
33.5897
17.8561
30.0971
20.0628
30.8027
21.5071
30.4764
28.9425
39.2248
30.6514
45.4428
21.568
36.3986
24.5672
34.2728
30.3795
47.2049
19.0729
41.0411
23.6026
40.0223
24.9732
39.0862
24.0687
39.3172
37.2792
62.0597
21.9191
50.7671
25.7312
49.863
26.0881
50.0053
21.1525
52.4363
23.7443
59.5144
29.9117
62.8857
33.477
65.7487
36.6104
69.0957
40.4897
73.2614
46.1049
77.5284
57.526
83.4729
82.8438
108.449
146.036
161.841
166.516
167.66
)
;

boundaryField
{
    F1_1
    {
        type            calculated;
        value           nonuniform List<scalar> 
80
(
400.259
-107.757
-123.093
-22.326
-50.7721
-21.1286
-33.0439
-21.7238
-27.4823
-23.0487
-25.4549
-24.3771
-25.1393
-26.3055
-25.3673
-31.8139
-20.6022
-29.7097
-22.9092
-29.9579
-23.716
-29.7136
-24.5254
-29.1177
-27.0274
-31.7707
-26.5662
-37.4393
-19.2741
-32.6887
-20.5125
-31.7918
-22.3205
-31.8605
-28.121
-43.7076
-17.9462
-38.0279
-21.5776
-36.9045
-20.4776
-36.9352
-21.4718
-38.5583
-23.9703
-38.3997
-25.981
-37.6572
-33.3443
-49.6831
-22.2798
-42.3481
-26.0034
-41.3248
-36.4266
-57.6694
-24.5683
-49.1151
-42.8996
-70.6759
-49.309
-108.471
-12.6947
-92.7139
-22.9369
-105.949
-30.9708
-127.245
-43.5974
-154.086
-64.2772
-180.796
-99.293
-211.419
-141.713
-237.364
-343.941
-388.803
-402.164
-405.455
)
;
    }
    F1_2
    {
        type            calculated;
        value           nonuniform List<scalar> 
80
(
29.741
14.1955
49.8238
28.9957
38.0194
31.8927
32.639
32.8909
30.1042
33.0861
29.0696
32.655
30.6396
35.3073
30.5001
42.4736
23.1885
38.6802
25.7293
37.5368
26.6588
36.4588
27.5032
35.0721
31.5355
39.0654
31.6534
43.7404
24.014
37.3195
23.9458
35.8126
25.4189
35.5255
31.2097
46.6086
22.1092
41.6823
25.1356
40.2953
24.0171
40.2404
25.0698
41.9194
26.9853
41.838
27.0565
41.7063
24.654
42.8671
25.5457
46.0752
27.111
47.5904
24.1634
50.8569
24.7889
57.6584
22.5927
64.9526
27.4514
77.2862
35.8055
85.3455
41.3931
93.6981
47.2098
103.203
54.7825
112.902
64.9676
119.927
79.5101
122.055
101.415
118.947
122.323
123.119
123.309
123.353
)
;
    }
    F1_3
    {
        type            calculated;
        value           nonuniform List<scalar> 
80
(
-38.5345
-20.6072
-55.4637
-29.9505
-41.2972
-30.9496
-34.8187
-30.8231
-30.7433
-29.7736
-28.0084
-29.0104
-27.5427
-29.9164
-26.7441
-34.2145
-19.3473
-32.1264
-20.7166
-33.2404
-22.7159
-32.7845
-24.0663
-31.5373
-28.1064
-35.2706
-28.1631
-39.419
-21.0801
-33.2441
-20.9934
-31.5782
-22.0848
-31.0521
-26.9998
-41.1139
-18.2833
-36.714
-20.9008
-35.655
-19.5545
-35.8306
-20.4107
-37.8719
-22.6605
-38.1388
-23.9927
-37.836
-25.6436
-37.0258
-32.5538
-47.2217
-24.4643
-40.5713
-34.5643
-53.1631
-24.979
-45.1401
-38.5391
-59.0302
-42.3582
-81.1414
-19.4736
-68.5045
-24.9992
-71.9231