/*--------------------------------*- C++ -*----------------------------------*\
| =========                 |                                                 |
| \\      /  F ield         | OpenFOAM: The Open Source CFD Toolbox           |
|  \\    /   O peration     | Version:  5.x                                   |
|   \\  /    A nd           | Web:      www.OpenFOAM.org                      |
|    \\/     M anipulation  |                                                 |
\*---------------------------------------------------------------------------*/
FoamFile
{
    version     2.0;
    format      ascii;
    class       volScalarField;
    location    "1.3";
    object      gradTx;
}
// * * * * * * * * * * * * * * * * * * * * * * * * * * * * * * * * * * * * * //

dimensions      [0 -1 0 1 0 0 0];

internalField   nonuniform List<scalar> 
3200
(
222.79
254.015
76.289
23.9831
20.4269
8.61145
7.69528
3.64154
3.29722
1.3431
1.17531
0.166184
0.0539823
-0.964127
-1.22815
-5.41965
-5.5527
-3.96836
-3.86542
-3.43112
-3.37857
-2.86933
-2.79906
-1.75467
-1.76221
-2.98208
-3.28857
-8.44461
-8.57169
-6.1745
-6.06773
-5.72352
-5.63656
-3.56445
-3.86677
-12.3159
-12.5406
-8.91162
-8.67388
-8.06973
-8.12626
-9.10961
-9.14106
-8.15287
-8.02001
-6.94631
-6.80865
-4.51209
-4.74522
-12.3713
-12.5578
-9.19903
-8.96169
-5.77981
-6.07588
-15.5982
-15.7634
-8.5307
-8.69218
-16.2532
-17.8224
-44.4542
-45.497
-39.932
-40.0816
-44.2539
-44.917
-51.0883
-51.799
-56.6959
-56.9974
-55.3336
-55.1139
-50.8842
-50.0605
-10.1114
-7.57195
-2.91115
-0.832566
430.041
249.19
211.638
79.8153
29.2652
20.877
9.9483
7.76127
4.04933
3.22912
1.4744
1.07613
0.161867
-0.102625
-1.01709
-1.62189
-5.10548
-5.41097
-4.13979
-3.90349
-3.49654
-3.3724
-2.93271
-2.77844
-1.96279
-1.97902
-2.97249
-3.66145
-7.91657
-8.1976
-6.20672
-5.98754
-5.89403
-5.72283
-4.04952
-4.72561
-11.6273
-12.1268
-9.13912
-8.57621
-7.9333
-8.09226
-9.24711
-9.34415
-8.3685
-8.04178
-7.10994
-6.82075
-5.14724
-5.6521
-11.5625
-11.9661
-9.44654
-8.97714
-6.68301
-7.34129
-14.7867
-15.2039
-10.0681
-10.5523
-17.1338
-20.5995
-41.8163
-44.1857
-40.7277
-41.2442
-45.1976
-46.8264
-52.5694
-54.3156
-58.9477
-59.747
-58.7774
-58.3367
-54.9899
-54.22
-28.838
-22.8007
-8.63015
-2.44126
510.83
272.874
177.251
80.0907
32.8608
21.4287
10.9355
7.88826
4.34144
3.1984
1.55143
0.997591
0.13156
-0.233233
-1.08244
-1.90048
-4.91844
-5.33232
-4.26983
-3.94839
-3.55064
-3.37886
-2.98467
-2.78426
-2.13764
-2.15673
-2.97508
-3.89168
-7.54748
-7.91438
-6.16807
-5.90233
-6.06765
-5.86919
-4.44061
-5.33542
-11.1949
-11.8524
-9.26962
-8.48173
-7.76479
-8.01842
-9.42691
-9.59015
-8.55818
-8.08775
-7.24786
-6.88823
-5.69525
-6.34276
-10.9739
-11.4914
-9.61204
-9.06559
-7.46812
-8.33522
-14.2563
-14.8666
-11.3806
-12.1685
-18.1391
-22.6665
-39.9324
-43.1074
-41.3644
-42.2694
-46.2345
-48.5712
-54.2104
-56.7168
-61.3529
-62.5675
-62.2001
-61.6758
-58.9926
-59.364
-46.7907
-38.3548
-14.0299
-3.8808
591.698
294.008
149.301
78.3689
35.0246
21.9429
11.6248
8.03523
4.53741
3.18784
1.58474
0.931538
0.081203
-0.344462
-1.14903
-2.09106
-4.83555
-5.31271
-4.37023
-3.99633
-3.5957
-3.39421
-3.02887
-2.80793
-2.28585
-2.30247
-2.97374
-4.01233
-7.30994
-7.71569
-6.07019
-5.79986
-6.25582
-6.06475
-4.73877
-5.74663
-10.9706
-11.7077
-9.32831
-8.38441
-7.55746
-7.89837
-9.65653
-9.88396
-8.72539
-8.14851
-7.36658
-6.98904
-6.16964
-6.87407
-10.5498
-11.1125
-9.72423
-9.19609
-8.15467
-9.12701
-13.9384
-14.6931
-12.5223
-13.5775
-19.2021
-24.224
-38.6122
-42.226
-41.8953
-43.1723
-47.3365
-50.1841
-55.9769
-59.0329
-63.895
-65.4513
-65.6291
-65.1013
-62.8732
-65.0259
-64.578
-54.5445
-18.8625
-5.03927
672.692
312.761
126.57
75.5436
35.9778
22.3466
12.0451
8.17854
4.64745
3.18743
1.58006
0.87337
0.0138607
-0.440534
-1.21013
-2.20955
-4.84334
-5.34988
-4.44787
-4.04533
-3.63278
-3.41611
-3.0673
-2.84365
-2.41251
-2.42202
-2.9577
-4.04262
-7.18808
-7.59905
-5.9173
-5.66834
-6.46986
-6.30571
-4.94356
-5.9892
-10.9257
-11.6876
-9.32959
-8.28241
-7.30341
-7.72164
-9.94736
-10.2332
-8.86933
-8.21746
-7.46911
-7.10753
-6.58308
-7.28654
-10.2503
-10.8116
-9.80203
-9.34713
-8.76067
-9.76526
-13.7827
-14.6366
-13.5349
-14.8038
-20.2894
-25.4069
-37.723
-41.5025
-42.362
-43.9598
-48.4914
-51.6793
-57.8529
-61.2769
-66.5695
-68.3903
-69.0865
-68.5949
-66.5786
-70.7919
-82.7488
-71.7601
-22.8208
-5.80756
753.85
329.284
108.109
72.2598
35.8938
22.6171
12.2079
8.30844
4.67465
3.1929
1.53935
0.821316
-0.0696852
-0.523996
-1.26202
-2.26265
-4.93623
-5.44338
-4.50553
-4.09473
-3.66203
-3.44328
-3.10071
-2.88766
-2.52154
-2.52052
-2.91969
-3.99049
-7.17558
-7.5661
-5.70709
-5.4948
-6.72252
-6.59458
-5.05204
-6.07613
-11.0478
-11.7923
-9.27842
-8.17768
-6.99346
-7.4726
-10.3158
-10.6484
-8.98479
-8.29027
-7.55618
-7.23253
-6.9474
-7.60859
-10.0469
-10.5737
-9.85766
-9.50345
-9.30305
-10.283
-13.7536
-14.6584
-14.4528
-15.8614
-21.3914
-26.302
-37.1755
-40.8959
-42.7993
-44.6301
-49.7001
-53.0552
-59.8391
-63.4463
-69.383
-71.3744
-72.5915
-72.1496
-70.0349
-76.2481
-101.837
-90.4938
-25.502
-6.08376
835.198
343.699
93.1923
68.9968
34.8861
22.7729
12.1103
8.42771
4.61577
3.20525
1.46122
0.776181
-0.170698
-0.596107
-1.30341
-2.24884
-5.11576
-5.59468
-4.5421
-4.145
-3.68271
-3.4754
-3.12894
-2.93778
-2.61597
-2.603
-2.8548
-3.85378
-7.27487
-7.62314
-5.43101
-5.26365
-7.02941
-6.94002
-5.05785
-6.00515
-11.339
-12.0274
-9.17072
-8.07628
-6.61698
-7.129
-10.7846
-11.1435
-9.06148
-8.36466
-7.62683
-7.356
-7.27388
-7.85957
-9.91993
-10.3854
-9.89882
-9.65364
-9.79824
-10.7012
-13.8272
-14.7247
-15.3062
-16.7543
-22.5182
-26.9587
-36.9141
-40.3621
-43.2397
-45.171
-50.9776
-54.2942
-61.9525
-65.5227
-72.3545
-74.3897
-76.163
-75.7713
-73.1581
-80.9295
-122.403
-111.373
-26.3603
-5.78176
916.746
356.074
81.2826
66.1304
32.9986
22.8708
11.7336
8.55216
4.46084
3.23095
1.34072
0.74152
-0.292568
-0.65694
-1.33527
-2.15816
-5.39081
-5.80723
-4.55244
-4.19787
-3.69318
-3.51309
-3.15095
-2.99313
-2.69803
-2.67489
-2.76003
-3.62018
-7.49706
-7.78178
-5.07393
-4.95517
-7.41049
-7.35718
-4.95048
-5.75871
-11.816
-12.4042
-8.99253
-7.98947
-6.16164
-6.65964
-11.3854
-11.7362
-9.08276
-8.44069
-7.6788
-7.47191
-7.57364
-8.05157
-9.85679
-10.2352
-9.93034
-9.78824
-10.2631
-11.0304
-13.99
-14.8036
-16.1249
-17.4745
-23.6981
-27.3949
-36.9132
-39.8513
-43.718
-45.557
-52.3549
-55.3595
-64.2296
-67.4687
-75.5179
-77.4155
-79.8211
-79.4819
-75.8661
-84.2627
-145.07
-135.212
-24.6411
-4.84654
998.486
366.413
72.0153
63.9832
30.191
23.009
11.0386
8.71302
4.19145
3.28305
1.16859
0.724255
-0.441225
-0.705213
-1.36135
-1.97108
-5.7785
-6.08662
-4.52677
-4.25673
-3.69067
-3.55805
-3.16478
-3.05397
-2.76922
-2.74245
-2.63425
-3.2659
-7.86294
-8.06012
-4.61329
-4.54372
-7.89192
-7.86846
-4.71451
-5.3023
-12.5117
-12.9411
-8.71799
-7.93564
-5.61326
-6.02118
-12.1611
-12.4491
-9.02359
-8.52151
-7.70857
-7.57548
-7.85836
-8.19047
-9.85072
-10.1123
-9.95535
-9.89817
-10.7163
-11.272
-14.2386
-14.8623
-16.9426
-17.9999
-24.9791
-27.5983
-37.1755
-39.3034
-44.2776
-45.7448
-53.884
-56.1904
-66.732
-69.2225
-78.9275
-80.4211
-83.5892
-83.3237
-78.0935
-85.4996
-170.562
-163.08
-19.2907
-3.27988
1080.39
374.629
65.192
62.8665
26.319
23.3387
9.95789
8.96171
3.77753
3.3834
0.929654
0.735837
-0.625942
-0.737799
-1.38928
-1.6561
-6.30616
-6.44073
-4.4495
-4.32744
-3.67082
-3.61344
-3.16732
-3.12176
-2.83009
-2.81326
-2.47887
-2.75301
-8.40481
-8.48422
-4.01755
-3.99556
-8.50821
-8.50496
-4.32886
-4.58102
-13.4786
-13.664
-8.30581
-7.94341
-4.95567
-5.15343
-13.1708
-13.3105
-8.84747
-8.61476
-7.71115
-7.66242
-8.14112
-8.27626
-9.9006
-10.0062
-9.97638
-9.9731
-11.18
-11.4172
-14.5809
-14.8627
-17.8012
-18.2884
-26.4346
-27.5234
-37.7359
-38.6417
-44.9774
-45.6657
-55.6464
-56.692
-69.5565
-70.6877
-82.6655
-83.3597
-87.4946
-87.3641
-79.8156
-83.6303
-199.757
-196.4
-8.82923
-1.18205
1162.4
583.477
18.3257
18.5885
5.95753
5.1605
1.21287
0.902575
-0.893494
-1.03585
-1.95577
-2.0214
-2.54341
-2.59175
-2.77809
-3.14462
-10.2914
-10.4639
-6.71402
-6.49143
-5.42699
-5.33793
-4.81945
-4.76972
-4.71192
-4.738
-5.46282
-5.55287
-5.7838
-5.73801
-3.80775
-3.90188
-8.80485
-8.81299
-4.52941
-4.75378
-13.2633
-13.4259
-7.96042
-7.61104
-4.98169
-5.18093
-12.8978
-13.0201
-8.38911
-8.15189
-7.0792
-6.98004
-5.41947
-5.76751
-15.4154
-15.6213
-10.651
-10.3906
-8.09937
-8.62276
-22.8026
-23.0848
-13.8786
-14.597
-39.4687
-40.1325
-30.3335
-30.0186
-31.1217
-31.2998
-34.0318
-34.3125
-37.711
-37.9185
-39.3112
-39.2228
-36.7047
-36.1907
-29.8204
-28.2452
-1.47581
-0.234054
-0.0513119
-0.0118528
325.161
592.176
16.3178
16.9333
6.82751
5.0358
1.53915
0.813186
-0.765646
-1.09547
-1.88117
-2.02562
-2.43381
-2.55436
-2.88692
-3.72252
-9.52801
-9.9236
-6.98692
-6.49389
-5.55071
-5.33969
-4.85851
-4.72839
-4.58875
-4.64239
-5.30201
-5.54113
-5.93719
-5.86411
-4.32505
-4.49605
-8.16801
-8.16829
-4.91941
-5.44144
-12.3129
-12.692
-8.40425
-7.65196
-5.60247
-6.01261
-11.9192
-12.1724
-8.62871
-8.1262
-7.22444
-7.02435
-5.95318
-6.70166
-14.1721
-14.6191
-10.8879
-10.3763
-8.80869
-9.94518
-20.9857
-21.6559
-15.1497
-16.7358
-36.0251
-37.4667
-30.2371
-29.6149
-30.4767
-30.872
-33.1226
-33.7418
-36.4907
-36.9382
-38.0023
-37.7748
-35.512
-34.2847
-28.4529
-24.9271
-3.40633
-0.659801
-0.148203
-0.0343627
300.477
600.298
14.8618
15.7069
7.36494
4.97931
1.75461
0.757917
-0.687755
-1.13685
-1.83221
-2.0193
-2.33571
-2.50848
-2.97564
-4.10163
-8.98103
-9.51655
-7.16206
-6.51436
-5.64514
-5.35227
-4.88352
-4.68744
-4.45785
-4.52255
-5.15802
-5.52311
-6.10934
-6.04885
-4.77394
-4.95018
-7.67803
-7.65356
-5.15858
-5.87511
-11.6223
-12.1448
-8.70666
-7.74477
-6.12487
-6.62444
-11.1667
-11.4766
-8.74666
-8.11649
-7.3416
-7.10351
-6.41411
-7.36693
-13.2097
-13.784
-10.9961
-10.4043
-9.40986
-10.8715
-19.5835
-20.514
-16.0972
-18.1666
-33.2955
-35.1478
-29.8763
-29.1519
-29.8505
-30.37
-32.2786
-33.0859
-35.3624
-35.9331
-36.745
-36.4083
-34.278
-32.5628
-26.9931
-22.3287
-4.58588
-0.99615
-0.229179
-0.0534262
275.795
607.927
13.8648
14.8481
7.66413
4.95639
1.88096
0.720616
-0.649721
-1.16837
-1.80358
-2.00779
-2.24335
-2.45082
-3.038
-4.3306
-8.6078
-9.22509
-7.26893
-6.54368
-5.7165
-5.37187
-4.89763
-4.64783
-4.31518
-4.37987
-5.02484
-5.49624
-6.30735
-6.28217
-5.16479
-5.30224
-7.29815
-7.23766
-5.26928
-6.10756
-11.1406
-11.756
-8.91002
-7.86389
-6.56249
-7.07457
-10.5835
-10.9024
-8.78062
-8.11257
-7.4373
-7.20072
-6.80936
-7.83661
-12.458
-13.0835
-11.0164
-10.4484
-9.91279
-11.5077
-18.4927
-19.586
-16.7853
-19.075
-31.097
-33.1139
-29.3337
-28.632
-29.2314
-29.8125
-31.4787
-32.3713
-34.3024
-34.9185
-35.5337
-35.1135
-33.0274
-30.9951
-25.4972
-20.2534
-5.19931
-1.21959
-0.286498
-0.0671722
251.115
615.118
13.2677
14.3159
7.78429
4.9482
1.93071
0.691724
-0.645746
-1.19523
-1.79219
-1.99503
-2.15211
-2.37798
-3.07214
-4.44018
-8.38095
-9.03656
-7.32656
-6.57708
-5.76857
-5.39666
-4.90275
-4.61153
-4.15661
-4.21397
-4.8986
-5.45578
-6.53882
-6.55917
-5.50543
-5.57996
-7.00052
-6.89806
-5.26771
-6.17221
-10.8357
-11.5057
-9.04139
-7.99323
-6.92757
-7.40483
-10.1279
-10.4259
-8.75643
-8.10894
-7.51546
-7.30413
-7.14787
-8.16254
-11.8662
-12.4907
-10.9767
-10.4912
-10.3305
-11.9284
-17.6375
-18.8138
-17.2698
-19.5941
-29.2987
-31.312
-28.668
-28.0601
-28.6131
-29.2116
-30.7097
-31.6152
-33.295
-33.904
-34.3638
-33.8854
-31.7746
-29.5661
-23.991
-18.5706
-5.36976
-1.32115
-0.315253
-0.0742909
226.438
621.899
13.0383
14.087
7.75665
4.94728
1.90935
0.666783
-0.673283
-1.22018
-1.79656
-1.9841
-2.05812
-2.28639
-3.07932
-4.44684
-8.28551
-8.94265
-7.34577
-6.61283
-5.80316
-5.42632
-4.89976
-4.58178
-3.97755
-4.02298
-4.77746
-5.39428
-6.81279
-6.87913
-5.80095
-5.80384
-6.76381
-6.61958
-5.16475
-6.08651
-10.6905
-11.3808
-9.11611
-8.12327
-7.23094
-7.64525
-9.76933
-10.028
-8.69137
-8.10316
-7.57833
-7.40535
-7.43955
-8.38091
-11.3976
-11.9834
-10.896
-10.5211
-10.6779
-12.1847
-16.9637
-18.1504
-17.5996
-19.818
-27.8081
-29.6963
-27.9208
-27.4417
-27.9931
-28.5748
-29.9646
-30.8282
-32.3305
-32.8954
-33.2314
-32.7226
-30.5257
-28.2717
-22.4788
-17.199
-5.17412
-1.30101
-0.313396
-0.0741383
201.763
628.278
13.1688
14.1532
7.5882
4.95553
1.81618
0.645753
-0.732538
-1.24394
-1.81647
-1.9777
-1.95795
-2.17222
-3.06352
-4.35465
-8.31733
-8.9389
-7.33041
-6.65165
-5.82043
-5.46196
-4.88843
-4.56347
-3.7725
-3.80363
-4.66183
-5.30071
-7.14085
-7.24487
-6.05322
-5.98943
-6.57127
-6.39352
-4.96673
-5.85351
-10.7018
-11.374
-9.13996
-8.2493
-7.48205
-7.81729
-9.48537
-9.69396
-8.59638
-8.09485
-7.62714
-7.49829
-7.69495
-8.51628
-11.0263
-11.543
-10.7867
-10.5297
-10.9713
-12.31
-16.4335
-17.5566
-17.8186
-19.8112
-26.5616
-28.2273
-27.1219
-26.7823
-27.3718
-27.9057
-29.2405
-30.0157
-31.4036
-31.896
-32.1329
-31.6274
-29.2792
-27.1189
-20.9459
-16.0972
-4.65242
-1.16544
-0.281588
-0.0667724
177.091
634.243
13.6745
14.5215
7.26247
4.98405
1.64427
0.633048
-0.826461
-1.26525
-1.85284
-1.97854
-1.84842
-2.03097
-3.03171
-4.1556
-8.48278
-9.02434
-7.27785
-6.69656
-5.8188
-5.50621
-4.86714
-4.5638
-3.53456
-3.55119
-4.55496
-5.15909
-7.53835
-7.66244
-6.26038
-6.1492
-6.40911
-6.21743
-4.67616
-5.46206
-10.8802
-11.4836
-9.11008
-8.37038
-7.68906
-7.93602
-9.25979
-9.41217
-8.47755
-8.0852
-7.6624
-7.57821
-7.92537
-8.58412
-10.7347
-11.1536
-10.6575
-10.5104
-11.2289
-12.324
-16.0235
-16.9972
-17.9685
-19.614
-25.5185
-26.8691
-26.2924
-26.0856
-26.7529
-27.2046
-28.5388
-29.1787
-30.5124
-30.9069
-31.0642
-30.6059
-28.0251
-26.1266
-19.3602
-15.2593
-3.81239
-0.925743
-0.223002
-0.0529323
152.421
639.758
14.5964
15.214
6.73754
5.05505
1.37922
0.638282
-0.961207
-1.28061
-1.90767
-1.98961
-1.72638
-1.85698
-2.99498
-3.82842
-8.79966
-9.2013
-7.17868
-6.75332
-5.79455
-5.56351
-4.83243
-4.59316
-3.25478
-3.25927
-4.46407
-4.94646
-8.02605
-8.14105
-6.41589
-6.29412
-6.26501
-6.09531
-4.29251
-4.88531
-11.2512
-11.7121
-9.01484
-8.48914
-7.85893
-8.01168
-9.08108
-9.17386
-8.33704
-8.07676
-7.68412
-7.64088
-8.14334
-8.59228
-10.5123
-10.8008
-10.5144
-10.4565
-11.4714
-12.2339
-15.7224
-16.4379
-18.0914
-19.2465
-24.6577
-25.588
-25.4481
-25.3541
-26.1425
-26.4682
-27.865
-28.314
-29.6589
-29.9273
-30.02
-29.6693
-26.7438
-25.329
-17.6678
-14.7152
-2.62996
-0.598685
-0.143097
-0.0339646
127.753
644.761
16.0061
16.2702
5.94086
5.20578
0.996792
0.677862
-1.14715
-1.28366
-1.98431
-2.01448
-1.58858
-1.64269
-2.97042
-3.33571
-9.29932
-9.47523
-7.01563
-6.83142
-5.74118
-5.64081
-4.77804
-4.66649
-2.92128
-2.91933
-4.40208
-4.62994
-8.63233
-8.69326
-6.50728
-6.43534
-6.12653
-6.03852
-3.81303
-4.07764
-11.8584
-12.0671
-8.83274
-8.61207
-7.9975
-8.05067
-8.94143
-8.97274
-8.17346
-8.07362
-7.69187
-7.68173
-8.36344
-8.54161
-10.3552
-10.471
-10.3621
-10.3596
-11.724
-12.0347
-15.5323
-15.8411
-18.2343
-18.7088
-23.9761
-24.3498
-24.602
-24.5873
-25.5508
-25.689
-27.2291
-27.4135
-28.8485
-28.9548
-28.9937
-28.8357
-25.4021
-24.7813
-15.787
-14.5364
-1.04538
-0.208596
-0.0493226
-0.0117023
103.087
636.238
17.3705
17.7498
7.98111
7.22283
2.94337
2.62577
0.929575
0.778279
-0.401916
-0.5005
-0.761364
-0.829949
-1.72638
-1.98121
-6.49023
-6.75567
-6.79906
-6.7863
-5.87449
-5.75172
-4.75897
-4.62909
-2.83198
-2.81664
-4.1718
-4.37638
-8.00326
-8.04867
-5.9042
-5.82524
-5.48
-5.39912
-3.43829
-3.69563
-10.9978
-11.2136
-8.46569
-8.28186
-7.87504
-7.95114
-9.09463
-9.15389
-8.50798
-8.40883
-7.71332
-7.63158
-6.78314
-6.66008
-4.41292
-4.5772
-10.5585
-10.6305
-5.83599
-5.96058
-13.1936
-13.2717
-7.09633
-7.11284
-11.7555
-12.6701
-28.4029
-28.9153
-24.0573
-23.9519
-24.7585
-25.013
-28.5192
-28.9667
-33.0488
-33.4845
-34.908
-34.6136
-20.3938
-18.6333
-1.74523
-0.393627
-0.0960931
-0.0228596
35.9377
629.665
16.3214
17.2214
9.03734
7.26378
3.43275
2.69356
1.27533
0.924388
-0.171695
-0.417691
-0.722481
-0.887432
-1.67218
-2.24086
-5.92029
-6.55573
-6.93823
-6.93366
-6.04286
-5.74093
-4.85949
-4.57106
-3.16471
-3.13515
-4.22349
-4.65433
-7.43822
-7.51878
-5.81291
-5.6693
-5.57857
-5.42171
-3.84107
-4.42002
-10.4096
-10.8922
-8.62488
-8.18488
-7.7211
-7.926
-9.22363
-9.38623
-8.71109
-8.45937
-7.82199
-7.63197
-6.91922
-6.66403
-5.00747
-5.36411
-9.98598
-10.1601
-6.64922
-6.93541
-12.5213
-12.7196
-8.20466
-8.31681
-12.2866
-14.2885
-26.7233
-27.8664
-24.4197
-24.2573
-25.0619
-25.6732
-28.7741
-29.8489
-33.6227
-34.7445
-36.6207
-36.2258
-25.5996
-21.4215
-4.61424
-1.13872
-0.279308
-0.0663995
64.6921
622.523
15.8051
17.0564
9.83717
7.38703
3.79846
2.78853
1.57839
1.10031
0.0245297
-0.332525
-0.689187
-0.92012
-1.62662
-2.37606
-5.47211
-6.36591
-7.09288
-7.11647
-6.18768
-5.75331
-4.9363
-4.55774
-3.44238
-3.40895
-4.30148
-4.83814
-6.98131
-7.06034
-5.65913
-5.51124
-5.67978
-5.50124
-4.15746
-4.92798
-10.0416
-10.6807
-8.71097
-8.08885
-7.5404
-7.85715
-9.39802
-9.65209
-8.89727
-8.52533
-7.91276
-7.65326
-7.037
-6.72403
-5.5215
-5.9804
-9.59132
-9.83715
-7.31057
-7.69827
-12.0645
-12.356
-9.12791
-9.36647
-12.8963
-15.4896
-25.4953
-27.0012
-24.6508
-24.524
-25.373
-26.2338
-29.11
-30.6233
-34.3027
-35.9744
-38.4243
-38.2473
-30.5475
-24.715
-6.94997
-1.77916
-0.436668
-0.103604
93.4485
614.865
15.7547
17.2302
10.4463
7.55584
4.06105
2.89152
1.85219
1.30015
0.192016
-0.247366
-0.660914
-0.933777
-1.57934
-2.4174
-5.11201
-6.18275
-7.27565
-7.33737
-6.31271
-5.781
-4.99556
-4.5739
-3.67676
-3.6457
-4.3937
-4.9577
-6.60696
-6.66111
-5.45521
-5.34052
-5.79488
-5.62739
-4.38928
-5.26222
-9.85269
-10.5737
-8.74317
-7.98987
-7.32509
-7.73933
-9.62389
-9.9583
-9.06813
-8.60092
-7.98941
-7.68883
-7.14264
-6.81962
-5.96908
-6.47062
-9.33126
-9.62507
-7.85534
-8.30198
-11.7706
-12.1331
-9.9125
-10.2845
-13.5435
-16.3942
-24.6073
-26.2901
-24.793
-24.7517
-25.6836
-26.7137
-29.5005
-31.3109
-35.0629
-37.1731
-40.3329
-40.5697
-35.4207
-28.4857
-8.78193
-2.26648
-0.553657
-0.130899
122.208
606.715
16.1383
17.7344
10.8996
7.74885
4.23064
2.98933
2.10652
1.52225
0.332766
-0.163228
-0.638259
-0.932519
-1.52435
-2.38447
-4.81685
-5.9987
-7.49967
-7.60172
-6.41802
-5.81883
-5.04026
-4.60907
-3.8765
-3.8513
-4.49327
-5.03384
-6.29641
-6.31228
-5.20763
-5.14704
-5.93484
-5.79636
-4.53666
-5.44776
-9.81853
-10.5686
-8.73227
-7.88734
-7.06663
-7.5627
-9.91176
-10.3135
-9.22207
-8.68228
-8.05362
-7.73423
-7.23936
-6.93631
-6.36256
-6.86647
-9.17388
-9.49554
-8.31147
-8.78481
-11.6011
-12.0136
-10.5934
-11.087
-14.207
-17.0843
-23.9806
-25.7063
-24.8769
-24.9405
-25.9903
-27.1234
-29.93
-31.9209
-35.8889
-38.3298
-42.3585
-43.1075
-40.3653
-32.7672
-10.0864
-2.56169
-0.619055
-0.145604
150.972
598.068
16.9545
18.5759
11.2057
7.95659
4.30919
3.07281
2.34892
1.76858
0.445791
-0.0799152
-0.622824
-0.919348
-1.45862
-2.28864
-4.57171
-5.80188
-7.77964
-7.91749
-6.49995
-5.86382
-5.07106
-4.65629
-4.04794
-4.0302
-4.5969
-5.08111
-6.03573
-6.00827
-4.9183
-4.91963
-6.11186
-6.01017
-4.59721
-5.49491
-9.9292
-10.6671
-8.68172
-7.78386
-6.75549
-7.31196
-10.2775
-10.7284
-9.35395
-8.76719
-8.10546
-7.78665
-7.32841
-7.06382
-6.71295
-7.19018
-9.09593
-9.42624
-8.7013
-9.17392
-11.5276
-11.9674
-11.1977
-11.7845
-14.8803
-17.6136
-23.5607
-25.2247
-24.9251
-25.0898
-26.2937
-27.4662
-30.3922
-32.4519
-36.776
-39.423
-44.5152
-45.7849
-45.5042
-37.6519
-10.7845
-2.63362
-0.625699
-0.146182
179.74
588.896
18.2306
19.777
11.3469
8.18028
4.29132
3.13582
2.5856
2.04463
0.526948
0.00409824
-0.617233
-0.896458
-1.38126
-2.13468
-4.36868
-5.57514
-8.13319
-8.29546
-6.5506
-5.91507
-5.08674
-4.71125
-4.19575
-4.18571
-4.70383
-5.10955
-5.81433
-5.74675
-4.58531
-4.64457
-6.34063
-6.27644
-4.56533
-5.4006
-10.1877
-10.8744
-8.58767
-7.68559
-6.38097
-6.96485
-10.7439
-11.2164
-9.45432
-8.85511
-8.14358
-7.84464
-7.40971
-7.19479
-7.03021
-7.45675
-9.081
-9.39914
-9.04323
-9.4878
-11.5308
-11.9695
-11.7478
-12.3817
-15.5681
-18.0144
-23.3121
-24.8217
-24.9548
-25.1976
-26.5984
-27.7389
-30.889
-32.8923
-37.7302
-40.4185
-46.8248
-48.5244
-50.9459
-43.2973
-10.734
-2.45983
-0.571222
-0.132417
208.512
579.145
20.0252
21.3773
11.2776
8.43289
4.16413
3.17464
2.82193
2.35976
0.568325
0.0920626
-0.625317
-0.865336
-1.29313
-1.92149
-4.20674
-5.29433
-8.58257
-8.74971
-6.55688
-5.97404
-5.0843
-4.7718
-4.32334
-4.3201
-4.81525
-5.12602
-5.62383
-5.52899
-4.20349
-4.30404
-6.63981
-6.60858
-4.43159
-5.14821
-10.6103
-11.2007
-8.43823
-7.60342
-5.9309
-6.48993
-11.3425
-11.7937
-9.50818
-8.94751
-8.1652
-7.90807
-7.48222
-7.32374
-7.32383
-7.67541
-9.11832
-9.39901
-9.35314
-9.73774
-11.5981
-11.9981
-12.2637
-12.8767
-16.2854
-18.3012
-23.215
-24.4737
-24.9801
-25.259
-26.9135
-27.9311
-31.4317
-33.2193
-38.7703
-41.2652
-49.3228
-51.235
-56.7905
-49.9393
-9.71199
-2.03063
-0.458767
-0.105488
237.289
568.725
22.4336
23.4356
10.9181
8.74249
3.90578
3.188
3.06265
2.72807
0.557107
0.189681
-0.652487
-0.826696
-1.19699
-1.64202
-4.0927
-4.92549
-9.15678
-9.29836
-6.49876
-6.04527
-5.05877
-4.83779
-4.43312
-4.43455
-4.93404
-5.13501
-5.45702
-5.36045
-3.76462
-3.8741
-7.03367
-7.02655
-4.18211
-4.706
-11.2277
-11.6612
-8.21168
-7.55476
-5.39157
-5.84327
-12.1172
-12.4805
-9.49305
-9.04879
-8.16582
-7.97825
-7.54403
-7.44635
-7.60338
-7.85042
-9.20212
-9.41195
-9.64583
-9.92865
-11.7238
-12.0321
-12.7656
-13.2599
-17.0585
-18.472
-23.2642
-24.1559
-25.0145
-25.2654
-27.2541
-28.0241
-32.043
-33.3958
-39.9327
-41.8894
-52.0665
-53.7999
-63.1313
-57.9163
-7.3881
-1.35704
-0.297582
-0.0679295
266.069
557.51
25.5982
26.0348
10.145
9.15853
3.48269
3.17768
3.31175
3.16984
0.473754
0.306294
-0.706371
-0.780209
-1.09784
-1.28232
-4.04337
-4.4207
-9.89458
-9.96465
-6.34678
-6.13782
-5.00261
-4.91113
-4.52665
-4.52908
-5.06477
-5.13916
-5.30696
-5.25188
-3.25755
-3.32215
-7.5542
-7.55802
-3.79789
-4.02389
-12.0886
-12.2769
-7.87343
-7.56635
-4.74764
-4.96372
-13.1283
-13.3013
-9.37619
-9.16761
-8.13862
-8.0583
-7.59237
-7.55877
-7.87934
-7.98125
-9.3316
-9.42392
-9.93656
-10.0591
-11.909
-12.049
-13.2772
-13.511
-17.927
-18.5077
-23.4694
-23.8393
-25.0732
-25.2024
-27.6434
-27.9871
-32.7609
-33.3649
-41.2784
-42.1848
-55.148
-56.0608
-70.0539
-67.7058
-3.28432
-0.484591
-0.103214
-0.0234446
294.851
523.879
18.5618
19.0839
11.2878
10.6703
4.16787
3.89475
5.50471
5.3884
1.53573
1.27794
-0.18951
-0.303403
-0.891751
-1.08224
-3.70615
-4.04203
-8.73767
-8.77486
-5.24239
-5.02683
-3.65364
-3.52749
-2.23598
-2.35484
-5.43382
-5.79375
-10.5975
-10.5394
-4.64689
-4.63328
-10.8611
-11.0339
-8.91877
-8.91239
-8.92516
-8.85748
-7.05521
-6.84891
-4.96411
-5.45865
-17.7724
-18.0739
-11.7543
-11.3544
-9.06228
-8.85047
-6.40081
-6.82729
-20.1897
-20.7281
-17.845
-17.7337
-15.7318
-15.5322
-14.0995
-13.9327
-10.717
-11.5016
-32.7861
-33.3037
-24.0308
-23.6089
-22.4007
-22.3519
-22.6658
-22.7154
-23.6546
-23.7446
-25.1117
-25.1885
-26.5306
-26.4517
-24.8056
-26.3843
-71.5704
-70.5807
-3.16207
-0.421694
367.574
532.795
16.0732
17.2826
11.552
10.222
4.69944
4.05394
5.22013
4.95162
1.80217
1.22098
-0.0445348
-0.313092
-0.904367
-1.36257
-3.70005
-4.44178
-8.04702
-8.11506
-5.3687
-4.901
-3.73246
-3.45051
-2.43775
-2.73234
-5.44919
-6.24248
-9.88555
-9.75027
-5.22904
-5.17372
-9.80123
-10.169
-8.76659
-8.83102
-9.1083
-8.97141
-7.31351
-6.82558
-5.35352
-6.45953
-16.4538
-17.1428
-12.1622
-11.2749
-9.29992
-8.83722
-7.01526
-7.89232
-18.1196
-19.3588
-17.9922
-17.8449
-16.0215
-15.544
-14.3182
-13.9904
-11.8321
-13.5258
-30.0394
-31.153
-24.179
-23.2987
-22.2501
-22.1354
-22.3632
-22.4657
-23.203
-23.3881
-24.4254
-24.5535
-25.3974
-25.1663
-23.8695
-26.9904
-60.6515
-58.4924
-6.89908
-1.16965
333.725
541.138
14.1091
15.7589
11.6401
9.94135
5.03595
4.14068
4.99296
4.63009
1.96589
1.19141
0.0605691
-0.309867
-0.9223
-1.56772
-3.75777
-4.72699
-7.49786
-7.56782
-5.40386
-4.8032
-3.77581
-3.40276
-2.58723
-3.01295
-5.54151
-6.57721
-9.32477
-9.13658
-5.63255
-5.52684
-8.91175
-9.37495
-8.55572
-8.74112
-9.308
-9.14617
-7.525
-6.84162
-5.63979
-7.10487
-15.5074
-16.4385
-12.4063
-11.239
-9.47708
-8.87834
-7.52174
-8.58333
-16.409
-18.0938
-18.0906
-18.0231
-16.2572
-15.5856
-14.501
-14.1214
-12.793
-14.9572
-27.9086
-29.3259
-24.0834
-22.9952
-22.0621
-21.9052
-22.0656
-22.1907
-22.7735
-22.9974
-23.7755
-23.8899
-24.3071
-23.9236
-22.7566
-26.3748
-51.1654
-48.3814
-8.80156
-1.72752
299.915
549.008
12.5524
14.4659
11.6315
9.78903
5.21207
4.15753
4.8144
4.40063
2.05404
1.1761
0.135268
-0.296952
-0.938904
-1.71108
-3.86432
-4.94011
-7.05672
-7.10993
-5.37648
-4.72246
-3.79298
-3.3727
-2.68705
-3.20944
-5.69353
-6.84346
-8.88142
-8.65551
-5.90012
-5.74033
-8.13914
-8.63216
-8.30467
-8.63597
-9.53684
-9.3793
-7.69898
-6.87839
-5.81939
-7.47271
-14.8599
-15.9327
-12.5359
-11.2269
-9.60769
-8.94977
-7.93149
-9.00377
-14.944
-16.8962
-18.1916
-18.2693
-16.4492
-15.6438
-14.6556
-14.2903
-13.6143
-15.9572
-26.2392
-27.7651
-23.8216
-22.6855
-21.8431
-21.6622
-21.7694
-21.8974
-22.3583
-22.5846
-23.152
-23.2142
-23.2488
-22.7123
-21.4524
-24.9123
-42.7823
-39.7423
-9.40384
-2.05977
266.161
556.476
11.3214
13.3629
11.5832
9.74611
5.24732
4.10595
4.6787
4.2485
2.08347
1.16733
0.185637
-0.275635
-0.950287
-1.79919
-4.01395
-5.11159
-6.6981
-6.72349
-5.3059
-4.65273
-3.78978
-3.35325
-2.73854
-3.32745
-5.89891
-7.07418
-8.52861
-8.27562
-6.06386
-5.85147
-7.44274
-7.92219
-8.02725
-8.50802
-9.80801
-9.67334
-7.83857
-6.92469
-5.89049
-7.61119
-14.465
-15.6056
-12.5819
-11.2271
-9.69985
-9.0356
-8.25761
-9.22949
-13.6385
-15.725
-18.3413
-18.5914
-16.6006
-15.7093
-14.7853
-14.4716
-14.3148
-16.6395
-24.9201
-26.4232
-23.4476
-22.364
-21.5975
-21.4078
-21.4723
-21.5907
-21.9525
-22.158
-22.5488
-22.5396
-22.2134
-21.5299
-19.9594
-22.8735
-35.2356
-32.1951
-9.08639
-2.16618
232.474
563.592
10.3606
12.4128
11.5372
9.80968
5.1483
3.98583
4.58314
4.16579
2.06296
1.1612
0.215206
-0.245769
-0.954687
-1.83264
-4.20825
-5.2635
-6.4019
-6.39475
-5.20474
-4.59137
-3.76951
-3.34092
-2.74188
-3.36615
-6.16013
-7.29372
-8.24409
-7.97407
-6.14761
-5.89046
-6.79082
-7.22718
-7.7348
-8.3473
-10.1366
-10.0354
-7.94131
-6.97579
-5.85138
-7.54433
-14.2986
-15.4451
-12.5612
-11.2343
-9.75748
-9.12597
-8.51373
-9.31771
-12.4259
-14.5325
-18.5857
-19.003
-16.708
-15.7761
-14.8905
-14.6466
-14.916
-17.0836
-23.872
-25.2603
-22.9978
-22.0298
-21.3289
-21.1432
-21.1731
-21.2743
-21.553
-21.7241
-21.9616
-21.8776
-21.1923
-20.3829
-18.2869
-20.4567
-28.3051
-25.4507
-8.12144
-2.06677
198.857
570.39
9.63601
11.5798
11.5253
9.99064
4.90935
3.79535
4.5282
4.15053
1.99443
1.15686
0.22539
-0.205972
-0.952312
-1.80618
-4.45535
-5.41207
-6.15152
-6.11331
-5.0805
-4.53835
-3.73349
-3.33539
-2.69627
-3.31806
-6.48775
-7.52058
-8.00837
-7.73477
-6.16858
-5.88313
-6.15744
-6.52931
-7.43815
-8.1395
-10.5407
-10.4771
-7.99889
-7.03324
-5.69958
-7.27501
-14.3565
-15.4459
-12.4782
-11.2474
-9.78129
-9.21557
-8.71318
-9.31376
-11.2534
-13.2621
-18.9754
-19.5232
-16.7609
-15.841
-14.9701
-14.801
-15.4413
-17.3429
-23.0399
-24.2434
-22.4962
-21.685
-21.0396
-20.8699
-20.871
-20.9507
-21.1577
-21.2875
-21.3872
-21.2397
-20.1761
-19.2874
-16.4439
-17.8127
-21.8026
-19.2853
-6.70557
-1.79253
165.306
576.889
9.13308
10.8267
11.5727
10.3135
4.51173
3.53102
4.5177
4.20642
1.87318
1.15629
0.215584
-0.153562
-0.945623
-1.70789
-4.77013
-5.56931
-5.93222
-5.87164
-4.93662
-4.49582
-3.6812
-3.3395
-2.60023
-3.16804
-6.90085
-7.76924
-7.8031
-7.54716
-6.13832
-5.85341
-5.52016
-5.80996
-7.14978
-7.8637
-11.0435
-11.0154
-7.99597
-7.10541
-5.4314
-6.78545
-14.654
-15.6089
-12.3257
-11.2699
-9.76908
-9.30262
-8.86851
-9.25623
-10.0781
-11.8435
-19.5718
-20.1757
-16.7401
-15.9039
-15.0215
-14.9231
-15.9161
-17.4503
-22.3875
-23.3446
-21.9572
-21.3335
-20.7313
-20.5898
-20.5658
-20.6221
-20.7655
-20.8522
-20.8227
-20.6385
-19.1529
-18.2701
-14.4323
-15.0639
-15.5604
-13.5224
-4.98309
-1.37993
131.812
583.094
8.85672
10.1116
11.7003
10.818
3.92129
3.18802
4.55914
4.34322
1.6873
1.16469
0.182927
-0.0842254
-0.940117
-1.51759
-5.17543
-5.74399
-5.72985
-5.66494
-4.77296
-4.46823
-3.60998
-3.35951
-2.45189
-2.89141
-7.42851
-8.05126
-7.60941
-7.40566
-6.06309
-5.82561
-4.85795
-5.0486
-6.88645
-7.48925
-11.6745
-11.6734
-7.90789
-7.20891
-5.04209
-6.03529
-15.2281
-15.9414
-12.0841
-11.3102
-9.71548
-9.38837
-8.99096
-9.18132
-8.86507
-10.1864
-20.4531
-20.9898
-16.6152
-15.9687
-15.0416
-15.0014
-16.3692
-17.4215
-21.8943
-22.5395
-21.3876
-20.9811
-20.4046
-20.3049
-20.2573
-20.2899
-20.3756
-20.4214
-20.2644
-20.0893
-18.1057
-17.371
-12.242
-12.3206
-9.4196
-8.01953
-3.0632
-0.867823
98.3624
588.994
8.83458
9.38312
11.9267
11.5632
3.08432
2.76085
4.66407
4.57762
1.41609
1.19146
0.121693
0.00866695
-0.945741
-1.20407
-5.70429
-5.94197
-5.5295
-5.49131
-4.5858
-4.46279
-3.51445
-3.4058
-2.24966
-2.45088
-8.11274
-8.37587
-7.4062
-7.30971
-5.94365
-5.82702
-4.1494
-4.22134
-6.67251
-6.97151
-12.473
-12.4819
-7.69714
-7.37111
-4.52638
-4.95715
-16.1414
-16.4567
-11.7192
-11.3834
-9.61117
-9.47693
-9.0899
-9.12667
-7.58652
-8.17153
-21.7236
-22.0004
-16.3413
-16.0446
-15.0263
-15.0235
-16.835
-17.256
-21.5542
-21.8063
-20.7882
-20.6355
-20.0588
-20.018
-19.9456
-19.9557
-19.9873
-19.9988
-19.7069
-19.6124
-17.0084
-16.6477
-9.84337
-9.69639
-3.21877
-2.65896
-1.03292
-0.295914
64.9401
)
;

boundaryField
{
    F1_1
    {
        type            calculated;
        value           nonuniform List<scalar> 
80
(
222.79
254.015
76.289
23.9831
20.4269
8.61145
7.69528
3.64154
3.29722
1.3431
1.17531
0.166184
0.0539823
-0.964127
-1.22815
-5.41965
-5.5527
-3.96836
-3.86542
-3.43112
-3.37857
-2.86933
-2.79906
-1.75467
-1.76221
-2.98208
-3.28857
-8.44461
-8.57169
-6.1745
-6.06773
-5.72352
-5.63656
-3.56445
-3.86677
-12.3159
-12.5406
-8.91162
-8.67388
-8.06973
-8.12626
-9.10961
-9.14106
-8.15287
-8.02001
-6.94631
-6.80865
-4.51209
-4.74522
-12.3713
-12.5578
-9.19903
-8.96169
-5.77981
-6.07588
-15.5982
-15.7634
-8.5307
-8.69218
-16.2532
-17.8224
-44.4542
-45.497
-39.932
-40.0816
-44.2539
-44.917
-51.0883
-51.799
-56.6959
-56.9974
-55.3336
-55.1139
-50.8842
-50.0605
-10.1114
-7.57195
-2.91115
-0.832566
430.041
)
;
    }
    F1_2
    {
        type            calculated;