/*--------------------------------*- C++ -*----------------------------------*\
| =========                 |                                                 |
| \\      /  F ield         | OpenFOAM: The Open Source CFD Toolbox           |
|  \\    /   O peration     | Version:  5.x                                   |
|   \\  /    A nd           | Web:      www.OpenFOAM.org                      |
|    \\/     M anipulation  |                                                 |
\*---------------------------------------------------------------------------*/
FoamFile
{
    version     2.0;
    format      ascii;
    class       volScalarField;
    location    "1.3";
    object      T;
}
// * * * * * * * * * * * * * * * * * * * * * * * * * * * * * * * * * * * * * //

dimensions      [0 0 0 1 0 0 0];

internalField   nonuniform List<scalar> 
3200
(
2.0013
20.2777
27.4028
27.9066
29.8011
29.9493
30.6622
30.7188
31.0264
31.0485
31.1607
31.1661
31.1773
31.1715
31.0809
31.0486
30.5389
30.4934
30.1421
30.1068
29.799
29.769
29.512
29.4891
29.3366
29.3128
29.0384
28.984
28.1939
28.1268
27.5764
27.52
27.0041
26.9564
26.6476
26.5697
25.4161
25.3156
24.5249
24.4483
23.7179
23.6356
22.807
22.7215
21.9917
21.9195
21.297
21.2387
20.8458
20.7641
19.6087
19.5084
18.6888
18.6122
18.1108
18.0046
16.551
16.4283
15.6979
15.559
14.0726
13.7768
9.62719
9.2271
5.63399
5.21893
1.2086
0.727231
-3.90022
-4.45266
-9.56981
-10.1524
-15.1032
-15.6638
-20.1916
-20.6698
-21.2027
-21.427
-21.4938
-21.5103
5.27283
19.6462
26.4367
27.6277
29.3632
29.7154
30.358
30.4915
30.763
30.8144
30.9104
30.9221
30.9266
30.9118
30.8249
30.7496
30.3143
30.2085
29.9003
29.8182
29.5507
29.4809
29.2574
29.2031
29.0611
29.0052
28.7639
28.639
27.9722
27.8193
27.3516
27.2205
26.7622
26.6482
26.3572
26.1757
25.1945
24.963
24.2806
24.1054
23.4872
23.2961
22.5625
22.3617
21.7257
21.5575
21.0147
20.8755
20.5
20.3103
19.3437
19.1137
18.3991
18.2159
17.7307
17.4818
16.2521
15.9614
15.2453
14.9062
13.5319
12.8462
9.35026
8.42768
5.2775
4.30325
0.757735
-0.379384
-4.4992
-5.81094
-10.394
-11.7856
-16.2717
-17.6193
-21.7707
-23.0413
-24.6545
-25.3214
-25.5175
-25.5655
7.96944
19.318
25.6946
27.3271
28.9807
29.4699
30.0742
30.2587
30.5084
30.5786
30.6635
30.6783
30.6767
30.655
30.5684
30.465
30.0766
29.9317
29.6496
29.5369
29.2945
29.199
28.9961
28.9206
28.7823
28.7049
28.4848
28.3158
27.73
27.5243
27.1132
26.9341
26.5065
26.3472
26.0624
25.8136
24.9429
24.6284
24.0159
23.7802
23.2395
22.9784
22.2968
22.0193
21.441
21.2106
20.7162
20.5218
20.1466
19.8875
19.0493
18.7383
18.0881
17.8318
17.3412
16.9983
15.9156
15.5116
14.7775
14.2947
12.9636
12.0281
8.9704
7.71736
4.83396
3.49042
0.210518
-1.36671
-5.21052
-7.03838
-11.3458
-13.2951
-17.5658
-19.4627
-23.4651
-25.3991
-28.1442
-29.2346
-29.5471
-29.6227
10.2121
19.1887
25.1423
27.0256
28.6447
29.2199
29.8072
30.0234
30.2609
30.3422
30.4194
30.4353
30.4275
30.4009
30.3126
30.1918
29.8291
29.6605
29.3921
29.2609
29.0325
28.9214
28.7296
28.6407
28.501
28.4104
28.2036
28.0092
27.4726
27.2376
26.8656
26.6576
26.24
26.0511
25.7662
25.4765
24.6691
24.3057
23.7363
23.4673
22.9805
22.6774
22.0149
21.689
21.1423
20.8742
20.4057
20.1753
19.7887
19.4879
18.7337
18.3766
17.7613
17.457
16.9459
16.5443
15.552
15.075
14.2998
13.7173
12.3796
11.2949
8.51836
7.07225
4.32883
2.75502
-0.404823
-2.26339
-6.00251
-8.16668
-12.392
-14.7118
-18.9549
-21.2219
-25.2422
-27.7245
-31.7
-33.179
-33.5863
-33.6829
12.0957
19.1803
24.7528
26.7347
28.3506
28.9693
29.5551
29.7872
30.0198
30.1059
30.1778
30.1933
30.1792
30.1492
30.0582
29.9283
29.5739
29.3933
29.1291
28.9887
28.7658
28.6471
28.4591
28.3628
28.2178
28.1206
27.922
27.7163
27.2032
26.9564
26.6115
26.3896
25.9645
25.759
25.4702
25.1601
24.3776
23.9913
23.4446
23.1631
22.7143
22.3909
21.7196
21.3676
20.8326
20.5458
20.0857
19.8351
19.4274
19.1064
18.4024
18.0253
17.4222
17.0905
16.5461
16.114
15.1678
14.6504
13.8143
13.17
11.7854
10.6293
8.0131
6.47903
3.7769
2.08305
-1.07224
-3.08488
-6.85753
-9.21257
-13.5145
-16.0516
-20.4231
-22.9111
-27.081
-29.9903
-35.3559
-37.1663
-37.638
-37.747
13.696
19.2324
24.5069
26.4584
28.0963
28.7201
29.3171
29.551
29.7846
29.8703
29.9385
29.9524
29.9315
29.9
29.8053
29.6737
29.3117
29.1294
28.8611
28.7199
28.4949
28.3756
28.1849
28.0868
27.9327
27.8348
27.6408
27.4357
26.9232
26.6791
26.3525
26.1296
25.6802
25.4702
25.175
24.8626
24.0702
23.6833
23.1424
22.8656
22.4431
22.1183
21.4115
21.0535
20.513
20.2244
19.7574
19.5012
19.0626
18.7403
18.058
17.683
17.0722
16.7326
16.1419
15.7043
14.7665
14.2385
13.3212
12.6523
11.1821
10.0221
7.46455
5.93253
3.18462
1.46952
-1.78539
-3.836
-7.7693
-10.1806
-14.7076
-17.3181
-21.9668
-24.533
-28.9702
-32.1579
-39.154
-41.2072
-41.7042
-41.8156
15.0748
19.2951
24.394
26.1947
27.8826
28.472
29.0937
29.3148
29.5552
29.6353
29.7014
29.713
29.6843
29.6533
29.554
29.4285
29.0424
28.869
28.5882
28.4545
28.2199
28.107
27.907
27.8132
27.6454
27.5529
27.3599
27.1675
26.6324
26.4052
26.0893
25.8788
25.3864
25.1848
24.8806
24.5843
23.7467
23.3816
22.8296
22.5739
22.1679
21.861
21.0895
20.7467
20.1833
19.9102
19.4207
19.1746
18.6933
18.3887
17.7013
17.3501
16.7114
16.3848
15.7316
15.3146
14.3488
13.8422
12.8182
12.1667
10.5664
9.47088
6.87499
5.43466
2.55102
0.917562
-2.54674
-4.51185
-8.74199
-11.0641
-15.9774
-18.5031
-23.5937
-26.0802
-30.9095
-34.1732
-43.1499
-45.3105
-45.7859
-45.8887
16.2848
19.3226
24.4131
25.9356
27.7129
28.2227
28.8863
29.0779
29.3324
29.401
29.4664
29.4751
29.4372
29.4094
29.3037
29.1936
28.7646
28.6129
28.3093
28.1931
27.94
27.8418
27.6249
27.5425
27.3551
27.275
27.0791
26.913
26.3294
26.1348
25.822
25.6393
25.081
24.9036
24.5859
24.3277
23.4043
23.0873
22.5051
22.2883
21.8889
21.6224
20.7504
20.4488
19.8421
19.6047
19.0742
18.8575
18.3168
18.0523
17.3312
17.0288
16.3381
16.05
15.3118
14.9469
13.9128
13.4666
12.3003
11.7191
9.93052
8.97965
6.2392
4.99452
1.8674
0.438817
-3.36809
-5.09714
-9.79104
-11.844
-17.3428
-19.5856
-25.3249
-27.5338
-32.9116
-35.96
-47.4185
-49.4813
-49.8826
-49.9659
17.3733
19.268
24.5748
25.6663
27.5939
27.9672
28.6978
28.8385
29.1169
29.1668
29.2338
29.2392
29.1897
29.1687
29.0535
28.9716
28.4757
28.3629
28.023
27.9372
27.6539
27.5814
27.3375
27.276
27.0605
27.0018
26.7971
26.6752
26.0108
25.8692
25.5495
25.4148
24.7603
24.628
24.2889
24.0977
23.0377
22.8036
22.1659
22.0101
21.6046
21.408
20.3885
20.163
19.4861
19.3109
18.7152
18.5533
17.9294
17.7343
16.9443
16.7231
15.9488
15.7332
14.8772
14.606
13.4533
13.1198
11.7591
11.3198
9.26114
8.56
5.54359
4.62967
1.11583
0.0551889
-4.27257
-5.56385
-10.9458
-12.4861
-18.8385
-20.5282
-27.1974
-28.8606
-35.0068
-37.4105
-52.063
-53.7185
-53.9921
-54.0465
18.386
19.0769
24.9052
25.3635
27.5371
27.6974
28.5329
28.5936
28.9107
28.9319
29.0036
29.0055
28.941
28.9317
28.8021
28.7661
28.1715
28.122
27.7265
27.6893
27.3595
27.3279
27.0427
27.0158
26.7597
26.7344
26.5118
26.4591
25.6714
25.6107
25.2696
25.2112
24.4188
24.3607
23.9859
23.9026
22.638
22.5362
21.8074
21.7418
21.3119
21.2265
19.9948
19.8954
19.11
19.0339
18.3389
18.2677
17.5248
17.4401
16.5348
16.4394
15.5371
15.4421
14.4191
14.3004
12.961
12.8142
11.1809
10.9853
8.53746
8.23298
4.76387
4.36881
0.266124
-0.197765
-5.29852
-5.86696
-12.2542
-12.9357
-20.5207
-21.2717
-29.2702
-30.0081
-37.2517
-38.3711
-57.2275
-58.0111
-58.1104
-58.1293
29.1316
29.2161
30.9642
31.075
31.5599
31.5911
31.6812
31.6813
31.5918
31.5777
31.3963
31.3756
31.1419
31.1164
30.8641
30.8019
29.835
29.7556
29.1636
29.1064
28.6209
28.5726
28.1389
28.0956
27.6677
27.6218
27.1215
27.0666
26.5431
26.4928
26.1623
26.1026
25.2818
25.2213
24.8289
24.7459
23.5025
23.4033
22.7065
22.6422
22.2083
22.1241
20.9186
20.8221
20.0796
20.0069
19.3717
19.3089
18.8298
18.7322
17.2882
17.17
16.2231
16.131
15.4132
15.2687
13.1329
12.9602
11.7451
11.5005
7.79822
7.48727
4.76487
4.48541
1.6527
1.35543
-1.75048
-2.07582
-5.52158
-5.86767
-9.45271
-9.78995
-13.1232
-13.409
-16.1052
-16.2335
-16.2528
-16.257
-16.2579
-16.2581
29.5135
29.7041
31.1453
31.3974
31.828
31.901
31.982
31.9823
31.9054
31.8727
31.7173
31.6702
31.4739
31.4147
31.1852
31.0425
30.2324
30.0501
29.5337
29.4007
28.9786
28.8668
28.4928
28.3939
28.0339
27.9297
27.5037
27.3756
26.91
26.7892
26.4775
26.3396
25.6607
25.5227
25.1688
24.9786
23.9375
23.7094
23.097
22.9442
22.5368
22.3429
21.3449
21.1257
20.482
20.3131
19.7596
19.6106
19.1642
18.9405
17.747
17.4786
16.6582
16.4409
15.7774
15.4464
13.6788
13.2808
12.1638
11.6072
8.56132
7.86057
5.53761
4.89908
2.48994
1.81188
-0.822317
-1.5623
-4.47138
-5.25612
-8.27161
-9.0336
-11.8228
-12.4621
-14.6681
-14.9548
-15.0087
-15.0208
-15.0236
-15.0242
29.8878
30.1419
31.374
31.7126
32.1105
32.2106
32.286
32.2864
32.2172
32.1727
32.034
31.9707
31.8004
31.7199
31.5028
31.3097
30.6047
30.3581
29.8885
29.7066
29.324
29.1714
28.8357
28.7027
28.3899
28.2504
27.8741
27.6981
27.2631
27.0932
26.7857
26.5982
26.0179
25.8329
25.5021
25.2453
24.3399
24.0309
23.4692
23.2564
22.8567
22.5939
21.74
21.4463
20.8654
20.6346
20.1312
19.9243
19.4898
19.1876
18.1688
17.8092
17.0692
16.7687
16.1282
15.6816
14.1699
13.6302
12.5602
11.8135
9.23061
8.29876
6.24298
5.38357
3.25793
2.34657
0.0300755
-0.962019
-3.50616
-4.55533
-7.18066
-8.19616
-10.6085
-11.4524
-13.3078
-13.6853
-13.7664
-13.7849
-13.7893
-13.7903
30.252
30.5407
31.6385
32.0255
32.4049
32.5212
32.593
32.5932
32.528
32.4764
32.3477
32.2756
32.1233
32.0305
31.8195
31.5975
30.9587
30.675
30.2318
30.0206
29.6602
29.4834
29.1704
29.0186
28.7389
28.5806
28.2364
28.031
27.6057
27.4028
27.0892
26.8726
26.3594
26.1488
25.8325
25.5381
24.7184
24.3624
23.8274
23.5761
23.1712
22.8686
22.1128
21.7784
21.2347
20.9671
20.491
20.247
19.8101
19.4634
18.5643
18.155
17.4626
17.1102
16.4714
15.9594
14.6221
14.0008
12.9436
12.0933
9.83386
8.78192
6.90049
5.91872
3.97735
2.93747
0.829487
-0.299662
-2.60075
-3.79151
-6.15412
-7.30286
-9.45685
-10.4024
-12.0066
-12.4277
-12.5265
-12.5497
-12.5551
-12.5564
30.6046
30.9072
31.9314
32.3387
32.7098
32.8336
32.9029
32.9027
32.8383
32.7832
32.6591
32.5837
32.4439
32.3459
32.1367
31.9019
31.2986
30.9982
30.5659
30.3405
29.989
29.8009
29.4988
29.3397
29.0831
28.9183
28.5933
28.3727
27.9394
27.7168
27.3888
27.1588
26.6888
26.469
26.162
25.8518
25.0784
24.7012
24.1743
23.9019
23.4815
23.1614
22.4687
22.1188
21.5931
21.3079
20.8416
20.5775
20.1268
19.7613
18.9401
18.5122
17.8425
17.4631
16.8094
16.2702
15.0457
14.3889
13.3187
12.4294
10.3888
9.29825
7.52202
6.49225
4.66071
3.57109
1.58974
0.409564
-1.73976
-2.98083
-5.17614
-6.36937
-8.3536
-9.32598
-10.7527
-11.183
-11.2897
-11.3152
-11.3212
-11.3226
30.9451
31.2447
32.249
32.6534
33.0246
33.1481
33.2156
33.2148
33.1482
33.0928
32.9686
32.8944
32.7628
32.6658
32.4548
32.2211
31.6263
31.3268
30.8917
30.6655
30.3114
30.1229
29.8214
29.6647
29.4237
29.2624
28.9459
28.723
28.2646
28.0351
27.6845
27.4547
27.0082
26.7927
26.4917
26.1841
25.4226
25.046
24.511
24.2337
23.7879
23.4692
22.811
22.4664
21.9419
21.656
21.184
20.9155
20.4401
20.0774
19.3003
18.8791
18.2107
17.827
17.1429
16.6085
15.4465
14.7935
13.6866
12.8117
10.9058
9.84202
8.1137
7.09785
5.31439
4.24037
2.31793
1.15755
-0.915116
-2.13199
-4.23826
-5.40426
-7.29083
-8.23143
-9.53871
-9.95133
-10.0561
-10.0814
-10.0875
-10.0888
31.2737
31.5541
32.5906
32.9694
33.3494
33.465
33.531
33.5296
33.4577
33.4052
33.2761
33.2074
33.0803
32.9902
32.7739
32.5547
31.9422
31.6608
31.2092
30.9957
30.6271
30.4495
30.1383
29.9931
29.761
29.6128
29.2949
29.0827
28.5808
28.3582
27.9754
27.7593
27.3183
27.1199
26.8216
26.5346
25.7515
25.3971
24.8375
24.5722
24.0893
23.7905
23.1407
22.8211
22.2811
22.0116
21.5184
21.2618
20.7489
20.4101
19.6463
19.2558
18.5676
18.2029
17.4704
16.9719
15.8271
15.2162
14.0452
13.2351
11.3891
10.4124
8.67687
7.73415
5.93969
4.94358
3.01564
1.94201
-0.124714
-1.2476
-3.33801
-4.41033
-6.26593
-7.12222
-8.36052
-8.73195
-8.82576
-8.84849
-8.85392
-8.85517
31.591
31.8333
32.9585
33.2854
33.6847
33.7838
33.8491
33.8471
33.7665
33.7206
33.5812
33.5228
33.3964
33.3197
33.0932
32.9041
32.2449
32.0017
31.5171
31.332
30.9352
30.7814
30.4485
30.325
30.0951
29.9699
29.6396
29.454
28.8857
28.6877
28.2597
28.0728
27.6188
27.4511
27.1512
26.9049
26.0632
25.7565
25.1522
24.9195
24.3833
24.1259
23.4573
23.1847
22.6095
22.3761
21.8433
21.6183
21.0507
20.7599
19.9773
19.6445
18.9115
18.5935
17.7886
17.3611
16.1863
15.6614
14.3894
13.7
11.8376
11.0131
9.20834
8.40452
6.53305
5.68406
3.67917
2.76618
0.627924
-0.324509
-2.47849
-3.3851
-5.28101
-5.99776
-7.21702
-7.52368
-7.59826
-7.61626
-7.62056
-7.62155
31.8987
32.0771
33.3583
33.5985
34.0321
34.104
34.17
34.1679
34.0739
34.0398
33.8831
33.8409
33.7105
33.6552
33.411
33.2723
32.531
32.3522
31.8131
31.6769
31.2337
31.1205
30.7504
30.6612
30.4249
30.3353
29.9785
29.8406
29.1759
29.0265
28.5343
28.3971
27.9078
27.7876
27.4786
27.299
26.3535
26.1278
25.452
25.2789
24.6661
24.4777
23.758
23.5604
22.9243
22.7527
22.1559
21.9886
21.3415
21.1294
20.2903
20.0493
19.2389
19.0036
18.0917
17.7802
16.5195
16.1365
14.7103
14.2118
12.2446
11.653
9.69977
9.11759
7.08551
6.47077
4.29901
3.63936
1.33312
0.64663
-1.66888
-2.3203
-4.34327
-4.8532
-6.11004
-6.32472
-6.37304
-6.38459
-6.38735
-6.38798
32.1992
32.2769
33.7998
33.9039
34.3939
34.4245
34.4936
34.4923
34.3788
34.3639
34.1804
34.1625
34.0216
33.9982
33.7245
33.6646
32.7946
32.7171
32.093
32.034
31.5189
31.4699
31.0411
31.0032
30.749
30.7113
30.3088
30.2483
29.4455
29.379
28.7948
28.7355
28.1821
28.1316
27.8008
27.7238
26.615
26.5171
25.7317
25.6559
24.932
24.8509
24.0378
23.9536
23.2205
23.1462
22.4513
22.3781
21.615
21.5239
20.5794
20.4768
19.5432
19.4408
18.3708
18.2374
16.8176
16.6532
14.9942
14.7824
12.5966
12.3474
10.1364
9.88866
7.58128
7.31976
4.85837
4.5784
1.97352
1.68292
-0.925846
-1.20065
-3.46605
-3.67878
-5.04476
-5.13242
-5.14929
-5.15328
-5.15423
-5.15445
31.7671
31.8567
33.5041
33.6317
34.3023
34.354
34.5966
34.6166
34.6895
34.6944
34.6494
34.6443
34.5732
34.5613
34.4006
34.3632
33.7516
33.6877
33.0716
33.009
32.4842
32.4339
32.0083
31.9709
31.7251
31.6893
31.3079
31.2516
30.5076
30.4468
29.9172
29.8643
29.3692
29.3243
29.0254
28.9548
27.9256
27.8334
27.079
27.0052
26.2915
26.2101
25.382
25.2947
24.5312
24.4538
23.7599
23.6907
23.0816
23.0247
22.6403
22.567
21.5844
21.5039
21.0008
20.9079
19.6815
19.5807
18.9719
18.8694
17.7963
17.6024
14.956
14.7109
12.5503
12.3157
10.0744
9.81436
7.22251
6.91769
3.91763
3.56924
0.426832
0.107877
-1.61254
-1.75545
-1.78707
-1.79481
-1.79668
-1.7971
31.3782
31.5883
33.0103
33.3105
33.914
34.0369
34.2573
34.3062
34.3848
34.3987
34.3677
34.3569
34.2954
34.2681
34.1282
34.0441
33.5362
33.3885
32.8424
32.6951
32.2381
32.121
31.7521
31.6639
31.4356
31.3504
31.0133
30.885
30.2695
30.1331
29.6882
29.5662
29.1303
29.024
28.7462
28.582
27.7053
27.4928
26.8428
26.6743
26.0707
25.8817
25.1483
24.9431
24.2772
24.0971
23.495
23.3339
22.8031
22.6675
22.3023
22.1311
21.3037
21.1151
20.6388
20.4216
19.3867
19.1496
18.5662
18.3179
17.3376
16.8891
14.6652
14.1024
12.2233
11.6767
9.71706
9.10938
6.83966
6.12448
3.47739
2.65003
-0.184682
-0.97255
-2.74464
-3.1147
-3.20606
-3.22857
-3.234
-3.23521
30.9808
31.2715
32.5613
32.9771
33.545
33.7158
33.9249
33.9947
34.0827
34.1047
34.0852
34.0715
34.0163
33.9795
33.8536
33.7418
33.3064
33.1053
32.5971
32.3936
31.9783
31.8183
31.4847
31.3625
31.1405
31.0216
30.7103
30.5378
30.0122
29.8318
29.4463
29.2806
28.8783
28.7305
28.4626
28.2377
27.4584
27.1696
26.5873
26.3608
25.8333
25.575
24.8935
24.6098
24.0037
23.7573
23.2124
22.992
22.5088
22.3196
21.9566
21.7215
20.9975
20.7378
20.2664
19.968
19.06
18.7324
18.1472
17.7957
16.8575
16.2468
14.308
13.5467
11.8429
11.0943
9.30563
8.47089
6.39463
5.40856
2.96436
1.81113
-0.878062
-2.0136
-3.93281
-4.4851
-4.62781
-4.66301
-4.67147
-4.67337
30.5719
30.9147
32.1473
32.6377
33.192
33.3933
33.5981
33.6824
33.7833
33.8124
33.8025
33.7877
33.7364
33.6943
33.5785
33.4526
33.0673
32.8343
32.3397
32.1006
31.7084
31.5225
31.2089
31.0651
30.8412
30.7005
30.4018
30.2048
29.7411
29.5386
29.1956
29.0046
28.6161
28.4418
28.1772
27.9156
27.1919
26.8583
26.3176
26.0593
25.5851
25.2853
24.6227
24.2895
23.7159
23.4294
22.9169
22.6605
22.2027
21.9786
21.6058
21.3315
20.6726
20.369
19.8871
19.5388
18.71
18.3255
17.7188
17.297
16.3644
15.6576
13.9037
13.0286
11.4244
10.5534
8.85605
7.88207
5.90601
4.75098
2.39971
1.03367
-1.63358
-3.02329
-5.17565
-5.87186
-6.05384
-6.09851
-6.1092
-6.1116
30.1492
30.5223
31.763
32.2957
32.853
33.0706
33.2761
33.3695
33.4867
33.5218
33.52
33.5054
33.4562
33.4122
33.3037
33.1737
32.822
32.5739
32.0721
31.8137
31.4303
31.2318
30.9262
30.7709
30.5386
30.3858
30.0893
29.8824
29.4596
29.2512
28.9389
28.7365
28.3454
28.1568
27.8917
27.6121
26.9099
26.5552
26.0366
25.7665
25.33
25.0102
24.3388
23.9788
23.4166
23.1106
22.6112
22.3372
21.8873
21.6436
21.251
20.9569
20.3336
20.0074
19.5025
19.1289
18.3424
17.9275
17.283
16.8188
15.8623
15.1104
13.4643
12.5397
10.9766
10.0457
8.37756
7.33336
5.38456
4.14126
1.79567
0.308284
-2.44018
-4.00246
-6.47671
-7.27918
-7.48535
-7.53535
-7.54725
-7.54991
29.7116
30.0952
31.4071
31.9528
32.5276
32.7484
32.9585
33.0557
33.1934
33.2326
33.238
33.2246
33.1757
33.1326
33.0299
32.9038
32.5727
32.3236
31.7947
31.5318
31.1447
30.9455
30.6376
30.4798
30.2328
30.0768
29.7732
29.5687
29.1696
28.9679
28.6777
28.4759
28.0666
27.8749
27.6068
27.3254
26.6139
26.2587
25.7458
25.4803
25.0702
24.7491
24.0424
23.6763
23.1071
22.7996
22.2965
22.0209
21.5637
21.3145
20.8924
20.5955
19.9828
19.6529
19.1126
18.7355
17.9599
17.5387
16.8401
16.3603
15.3521
14.5989
12.996
12.0764
10.5035
9.56747
7.87413
6.82085
4.83491
3.57566
1.15731
-0.366646
-3.29421
-4.94514
-7.84463
-8.71034
-8.92308
-8.9737
-8.98565
-8.98832
29.2587
29.631
31.0817
31.6087
32.2164
32.4267
32.6456
32.7403
32.9041
32.9447
32.9568
32.9451
32.8951
32.8555
32.757
32.642
32.3201
32.0845
31.5068
31.255
30.8517
30.6635
30.3431
30.1923
29.9235
29.7738
29.4531
29.2628
28.8717
28.6881
28.4131
28.2237
27.7791
27.596
27.3225
27.056
26.3038
25.9685
25.445
25.2
24.8069
24.5035
23.7325
23.3819
22.7871
22.4963
21.9727
21.7119
21.2317
20.9924
20.5287
20.2467
19.6206
19.3068
18.7163
18.358
17.5632
17.1611
16.3884
15.9229
14.8316
14.1215
12.5004
11.6393
10.005
9.11955
7.34511
6.34566
4.25621
3.05643
0.483194
-0.985415
-4.19929
-5.83786
-9.29388
-10.1676
-10.3673
-10.4136
-10.4244
-10.4268
28.7909
29.1236
30.7934
31.2613
31.9212
32.1046
32.3376
32.4221
32.6198
32.6581
32.6766
32.6673
32.6141
32.5807
32.4847
32.3886
32.0641
31.8591
31.2058
30.9842
30.5501
30.3868
30.0417
29.9096
29.6094
29.4776
29.1278
28.965
28.5655
28.4121
28.1451
27.9817
27.4811
27.3208
27.038
26.806
25.9769
25.6859
25.1331
24.9256
24.54
24.2766
23.4058
23.0972
22.455
22.2025
21.6384
21.4117
20.8902
20.6793
20.1578
19.9118
19.246
18.9718
18.3107
17.9981
17.1509
16.7983
15.9245
15.5106
14.296
13.6805
11.9745
11.2331
9.47647
8.7072
6.78512
5.91409
3.64194
2.59216
-0.235091
-1.53436
-5.16737
-6.65786
-10.8464
-11.6518
-11.8176
-11.8549
-11.8635
-11.8654
28.3098
28.5628
30.5531
30.9063
31.6449
31.7806
32.0355
32.0994
32.3418
32.3722
32.3975
32.3912
32.3322
32.3085
32.2125
32.1443
31.8033
31.6517
30.8876
30.7219
30.2377
30.1174
29.7318
29.6336
29.2885
29.1901
28.7951
28.6766
28.2494
28.1406
27.873
27.7532
27.1696
27.0505
26.7514
26.5799
25.6286
25.4138
24.8075
24.6583
24.2683
24.074
23.0566
22.826
22.1073
21.9211
21.2907
21.1233
20.5363
20.3786
19.776
19.5936
18.8557
18.6524
17.8912
17.6595
16.7188
16.4563
15.4422
15.1303
13.7364
13.2831
11.4099
10.8675
8.9085
8.34099
6.18309
5.53858
2.97879
2.199
-1.01448
-1.98994
-6.22113
-7.36993
-12.5343
-13.1616
-13.2731
-13.2973
-13.3028
-13.3041
27.8185
27.9324
30.3783
30.5359
31.3928
31.4518
31.7411
31.7695
32.0723
32.0865
32.1197
32.1172
32.049
32.0391
31.9392
31.9109
31.5349
31.4688
30.5455
30.4724
29.9108
29.8586
29.4105
29.3675
28.9578
28.9146
28.4514
28.4006
27.9207
27.8755
27.5949
27.5432
26.8395
26.7874
26.4597
26.3851
25.2509
25.1574
24.4635
24.4007
23.9887
23.9044
22.6759
22.5742
21.7383
21.6575
20.9244
20.8516
20.1652
20.0958
19.3773
19.2976
18.4441
18.3552
17.4504
17.3493
16.2596
16.1444
14.9318
14.7933
13.1391
12.9426
10.7922
10.5586
8.28488
8.0384
5.52054
5.23968
2.24445
1.90319
-1.88339
-2.31528
-7.39818
-7.92137
-14.4036
-14.6919
-14.732
-14.7404
-14.7423
-14.7428
26.154
26.2339
28.0101
28.1423
29.1389
29.2093
29.5557
29.5988
30.1062
30.1376
30.2597
30.2654
30.2408
30.2351
30.1516
30.1269
29.781
29.7227
28.9072
28.8452
28.383
28.3425
28.0176
27.9897
27.794
27.7543
27.2507
27.1749
26.1909
26.121
25.7262
25.6576
24.6401
24.5542
23.7482
23.663
22.8557
22.7772
22.1502
22.0924
21.6538
21.5465
19.8765
19.7391
18.7011
18.6037
17.7949
17.7186
17.1548
17.0359
15.1358
14.9631
13.3513
13.1897
11.7782
11.6365
10.3682
10.2432
9.29652
9.09305
6.01791
5.76269
3.61483
3.4018
1.37475
1.16661
-0.89183
-1.10493
-3.25729
-3.47939
-5.76846
-5.99824
-8.42153
-8.64341
-10.9021
-11.2818
-18.0591
-18.3399
-18.3753
-18.3821
26.5521
26.7273
28.1595
28.4556
29.3146
29.4778
29.7846
29.8832
30.3066
30.3783
30.4868
30.5004
30.4824
30.4691
30.3919
30.3329
30.0219
29.8887
29.2172
29.0772
28.6804
28.5871
28.3071
28.242
28.0633
27.9688
27.5184
27.3446
26.5299
26.3695
26.007
25.8522
25.0268
24.8353
24.1502
23.9522
23.2393
23.055
22.508
22.3725
21.9726
21.7265
20.3273
20.0122
19.111
18.8847
18.1811
18.001
17.4795
17.2118
15.6676
15.2759
13.8683
13.4914
12.2662
11.937
10.8344
10.538
9.65118
9.18538
6.64724
6.07008
4.22934
3.74021
2.00433
1.52668
-0.23199
-0.719898
-2.55229
-3.05871
-4.99483
-5.51406
-7.53457
-8.03069
-9.92151
-10.7297
-15.9867
-16.579
-16.6766
-16.6959
26.9433
27.1705
28.3542
28.7464
29.5182
29.7405
30.0218
30.1546
30.5211
30.6176
30.7177
30.7367
30.7238
30.7057
30.6315
30.549
30.2557
30.0763
29.506
29.3195
28.9656
28.8392
28.588
28.4989
28.3293
28.1976
27.7751
27.5399
26.8426
26.6262
26.2794
26.0735
25.3882
25.136
24.5326
24.2619
23.6018
23.3473
22.8493
22.6631
22.2854
21.9527
20.7346
20.3088
19.494
19.1849
18.5463
18.2971
17.7941
17.4387
16.1532
15.6294
14.3441
13.8271
12.7184
12.2685
11.2683
10.8564
9.98901
9.36063
7.19815
6.42804
4.78981
4.12852
2.5836
1.938
0.377043
-0.281066
-1.90031
-2.58081
-4.27785
-4.9698
-6.70856
-7.36216
-8.98422
-9.99964
-14.1008
-14.8378
-14.9809
-15.0105
27.3254
27.5754
28.5806
29.022
29.7438
30.0009
30.265
30.4166
30.7464
30.8567
30.9518
30.9743
30.9654
30.9446
30.8715
30.7735
30.485
30.2795
29.7794
29.5685
29.2417
29.0963
28.8624
28.759
28.5937
28.438
28.0244
27.7537
27.1362
26.8881
26.5462
26.3141
25.7323
25.4509
24.9018
24.5873
23.9481
23.6494
23.1782
22.9615
22.5963
22.2143
21.1103
20.621
19.8567
19.4983
18.896
18.6033
18.1028
17.703
16.6084
16.0133
14.7892
14.1864
13.1443
12.622
11.6788
11.193
10.3173
9.59727
7.69341
6.82076
5.31124
4.55221
3.12694
2.38599
0.95
0.19625
-1.28583
-2.06221
-3.60104
-4.38363
-5.92592
-6.65486
-8.07116
-9.14609
-12.3494
-13.1203
-13.2898
-13.3263
27.6975
27.9501
28.8296
29.2864
29.9879
30.261
30.5127
30.6716
30.9805
31.0964
31.1889
31.2132
31.2075
31.1856
31.1124
31.0057
30.711
30.4945
30.0412
29.8222
29.5106
29.3569
29.1317
29.0216
28.8578
28.6888
28.2679
27.9814
27.415
27.1539
26.8087
26.5687
26.0644
25.7765
25.2617
24.9257
24.2809
23.9584
23.497
23.2659
22.908
22.5048
21.4615
20.9442
20.2033
19.8215
19.2333
18.9179
18.4075
17.995
17.0437
16.4225
15.2095
14.5634
13.5495
12.9924
12.0709
11.5453
10.6395
9.88131
8.14746
7.239
5.8027
5.0026
3.64295
2.86182
1.49572
0.702749
-0.699534
-1.51306
-2.95442
-3.76701
-5.17576
-5.92
-7.17169
-8.20735
-10.6953
-11.4269
-11.6039
-11.6435
28.0595
28.2997
29.0955
29.541
30.2493
30.522
30.7641
30.9205
31.2224
31.3371
31.4287
31.4532
31.4502
31.4287
31.3548
31.2454
30.9339
30.7191
30.2937
30.0796
29.7733
29.6204
29.3963
29.2864
29.1221
28.9497
28.5061
28.2204
27.6817
27.423
27.0669
26.8339
26.3879
26.1112
25.6144
25.2765
24.6007
24.2729
23.8066
23.5753
23.2215
22.8209
21.7916
21.2764
20.5355
20.153
19.5597
19.2404
18.7084
18.3086
17.4658
16.8554
15.6072
14.9551
13.9364
13.3774
12.4473
11.9128
10.9557
10.2044
8.56854
7.67841
6.26876
5.47542
4.13588
3.3611
2.01857
1.23368
-0.136731
-0.938735
-2.33289
-3.1265
-4.45212
-5.16479
-6.28081
-7.21046
-9.11132
-9.75552
-9.92346
-9.9622
28.4119
28.6271
29.3755
29.7851
30.528
30.7842
31.0189
31.1637
31.4718
31.5788
31.6712
31.6944
31.6937
31.6739
31.5985
31.4932
31.153
30.952
30.5378
30.3407
30.0298
29.8869
29.6564
29.5533
29.3868
29.2215
28.738
28.4695
27.9372
27.696
27.3203
27.1077
26.7046
26.4547
25.9608
25.6408
24.9067
24.5931
24.1068
23.8898
23.5369
23.1623
22.1012
21.6177
20.8534
20.4929
19.8753
19.5714
19.0039
18.64
17.8786
17.3138
15.9811
15.3615
14.305
13.7774
12.808
12.2973
11.2638
10.563
8.95985
8.13864
6.71023
5.97014
4.60626
3.88316
2.51916
1.78808
0.403394
-0.34067
-1.73533
-2.46464
-3.75294
-4.39339
-5.39733
-6.17466
-7.57759
-8.10319
-8.24814
-8.28244
28.7557
28.9332
29.669
30.0159
30.8262
31.0473
31.2774
31.4004
31.7292
31.821
31.9165
31.9366
31.9381
31.9213
31.8435
31.7505
31.3665
31.1936
30.7733
30.6064
30.2796
30.1568
29.9115
29.8229
29.6515
29.5061
28.9614
28.7291
28.1811
27.9744
27.5672
27.3891
27.0152
26.8081
26.3002
26.0217
25.1959
24.9202
24.3963
24.2096
23.8532
23.5311
22.3878
21.9702
21.1552
20.8432
20.1783
19.9129
19.2914
18.9873
18.2836
17.803
16.3264
15.7854
14.6524
14.195
13.1503
12.7027
11.5587
10.9577
9.31992
8.62322
7.12421
6.48987
5.05107
4.43089
2.9945
2.36869
0.917945
0.283471
-1.16433
-1.78038
-3.07962
-3.60739
-4.52286
-5.11378
-6.0789
-6.46602
-6.5772
-6.60401
29.0924
29.217
29.978
30.2282
31.1481
31.31
31.5402
31.6288
31.9961
32.0631
32.1648
32.1796
32.1831
32.1712
32.0891
32.0194
31.5716
31.445
30.9986
30.8785
30.5213
30.4317
30.1603
30.0957
29.9151
29.8066
29.1723
29.0015
28.4113
28.2609
27.805
27.6783
27.3192
27.1735
26.6306
26.4245
25.4631
25.2572
24.6723
24.5363
24.1681
23.9328
22.6453
22.3386
21.4369
21.2076
20.4653
20.2688
19.5662
19.3507
18.6797
18.332
16.6344
16.233
14.9729
14.6362
13.4687
13.136
11.8318
11.3939
9.64239
9.13992
7.50364
7.04181
5.46318
5.01132
3.43745
2.98233
1.39989
0.940187
-0.626557
-1.06874
-2.43712
-2.80584
-3.66132
-4.0379
-4.60328
-4.83985
-4.9096
-4.92664
29.4241
29.4754
30.3075
30.4137
31.5002
31.57
31.8086
31.8461
32.275
32.3038
32.4167
32.423
32.4288
32.4238
32.3342
32.3034
31.7638
31.7092
31.2109
31.1601
30.7523
30.7138
30.4008
30.3733
30.1759
30.1282
29.3646
29.2906
28.624
28.5596
28.0296
27.9769
27.6147
27.5548
26.9474
26.8576
25.7001
25.6094
24.9304
24.8723
24.4778
24.3766
22.8636
22.7309
21.6917
21.5926
20.7306
20.6449
19.8216
19.7322
19.063
18.9151
16.8906
16.715
15.2565
15.1106
13.7538
13.6082
12.0703
11.8826
9.91493
9.702
7.83611
7.63845
5.83023
5.63665
3.83567
3.64109
1.83695
1.64121
-0.13374
-0.320026
-1.83458
-1.9848
-2.81892
-2.95444
-3.14079
-3.22033
-3.24409
-3.24992
)
;

boundaryField
{
    F1_1
    {
        type            fixedValue;
        value           nonuniform List<scalar> 
80
(
0
20.8165
28.0182
28.0182
30.0549
30.0549
30.8274
30.8274
31.1638
31.1638
31.2879
31.2879
31.303
31.303
31.2077
31.2077
30.6419
30.6419
30.2566
30.2566
29.9175
29.9175
29.6347
29.6347
29.4717
29.4717
29.1712
29.1712
28.2903
28.2903
27.679
27.679
27.1157
27.1157
26.7882
26.7882
25.5058
25.5058
24.6328
24.6328
23.8203
23.8203
22.9143
22.9143
22.1115
22.1115
21.4269
21.4269
21.0126
21.0126
19.7201
19.7201
18.8188
18.8188
18.2929
18.2929
16.6738
16.6738
15.9124
15.9124
14.3192
14.3192
9.69066
9.69066
5.74868
5.74868
1.36346
1.36346
-3.68224
-3.68224
-9.24842
-9.24842
-14.6067
-14.6067
-19.483
-19.483
-19.483
-19.483
-19.483
-19.483
)
;
    }
    F1_2
    {
        type            fixedValue;
        value           nonuniform List<scalar> 
80
(
32.3479
32.3479
34.0489
34.0489
34.584
34.584
34.6568
34.6568
34.5294
34.5294
34.3258
34.3258
34.1747
34.1747
33.877
33.877
32.9105
32.9105
32.2217
32.2217
31.6522
31.6522
31.1786
31.1786
30.9066
30.9066
30.467
30.467
29.5656
29.5656
28.9145
28.9145
28.3092
28.3092
27.9569
27.9569
26.7255
26.7255
25.8574
25.8574
25.0521
25.0521
24.1632
24.1632
23.3554
23.3554
22.5866
22.5866
21.7382
21.7382
20.7072
20.7072
19.6788
19.6788
18.4916
18.4916
16.9415
16.9415
15.1071
15.1071
12.7338
12.7338
10.3154
10.3154
7.78825
7.78825
5.09442
5.09442
2.24743
2.24743
-0.601008
-0.601008
-3.0685
-3.0685
-4.53768
-4.53768
-4.53768
-4.53768
-4.53768
-4.53768
)
;
    }
    F1_3
    {
        type            fixedValue;
        value           nonuniform List<scalar> 
80
(
31.9598
31.9598
33.7815
33.7815
34.5087
34.5087
34.7707
34.7707
34.8433
34.8433
34.7894
34.7894
34.7109
34.7109
34.5343
34.5343
33.8483
33.8483
33.1752
33.1752
32.5978
32.5978
32.1286
32.1286
31.8656
31.8656
31.4487
31.4487
30.613
30.613
30.0221
30.0221
29.4796
29.4796
29.1604
29.1604
28.017
28.017
27.1835
27.1835
26.3893
26.3893
25.4841
25.4841
24.6445
24.6445
23.8799
23.8799
23.2098
23.2098
22.8031
22.8031
21.7068
21.7068
21.1737
21.1737
19.8064
19.8064
19.1645
19.1645
18.0081
18.0081
15.0534
15.0534
12.6753
12.6753
10.2135
10.2135
7.3682
7.3682
4.08472
4.08472
0.676121
0.676121
-1.07805
-1.07805
-1.07805
-1.07805
-1.07805
-1.07805
)
;
    }
    F1_4
    {
        type            fixedValue;
        value           nonuniform List<scalar> 
80
(
29.5889
29.5889
30.4868
30.4868
31.6966
31.6966
31.9469
31.9469
32.4225
32.4225
32.5447
32.5447
32.5519
32.5519
32.4556
32.4556
31.8502
31.8502
31.3081
31.3081
30.8604
30.8604
30.5154
30.5154
30.3033
30.3033
29.447
29.447
28.7183
28.7183
28.1324
28.1324
27.7564
27.7564
27.0955
27.0955
25.7973
25.7973
25.047
25.047
24.6267
24.6267
22.9452
22.9452
21.8003
21.8003
20.8477
20.8477
19.9346
19.9346
19.2441
19.2441
16.9817
16.9817
15.372
15.372
13.8722
13.8722
12.1626
12.1626
10.0161
10.0161
7.96899
7.96899
5.98147
5.98147
4.00266
4.00266
2.02331
2.02331
0.080901
0.080901
-1.56059
-1.56059
-2.41168
-2.41168
-2.41168
-2.41168
-2.41168
-2.41168
)
;
    }
    F2_1
    {
        type            fixedValue;
        value           nonuniform List<scalar> 
80
(
18.8786
18.8786
25.1778
25.1778
27.549
27.549
28.466
28.466
28.8134
28.8134
28.8899
28.8899
28.8156
28.8156
28.6745
28.6745
28.0085
28.0085
27.5711
27.5711
27.2063
27.2063
26.8902
26.8902
26.6047
26.6047
26.3658
26.3658
25.4871
25.4871
25.124