/*--------------------------------*- C++ -*----------------------------------*\
| =========                 |                                                 |
| \\      /  F ield         | OpenFOAM: The Open Source CFD Toolbox           |
|  \\    /   O peration     | Version:  5.x                                   |
|   \\  /    A nd           | Web:      www.OpenFOAM.org                      |
|    \\/     M anipulation  |                                                 |
\*---------------------------------------------------------------------------*/
FoamFile
{
    version     2.0;
    format      ascii;
    class       volScalarField;
    location    "11.5";
    object      gradTy;
}
// * * * * * * * * * * * * * * * * * * * * * * * * * * * * * * * * * * * * * //

dimensions      [0 -1 0 1 0 0 0];

internalField   nonuniform List<scalar> 
6300
(
1043.3
1129.77
1215.85
1301.29
1385.83
1469.22
1551.19
1631.5
1709.89
1786.11
1859.95
1931.17
1999.58
2065.03
2127.37
0.189362
0.568244
0.947523
1.32721
1.70686
2.08543
2.46097
2.83041
3.18932
3.53171
3.84996
4.13509
4.37714
4.56612
4.69304
0.315416
0.946607
1.57873
2.21199
2.84592
3.47901
4.10831
4.72897
5.33381
5.91286
6.45327
6.93948
7.35401
7.67893
7.89791
0.441102
1.32398
2.20872
3.09603
3.98571
4.87624
5.76411
6.64318
7.50386
8.33242
9.11051
9.81523
10.4201
10.8973
11.2207
0.566099
1.69944
2.83606
3.97754
5.12449
6.27592
7.42848
8.57549
9.7057
10.8021
11.8407
12.7904
13.6134
14.2687
14.7166
0.689919
2.07155
3.45841
4.85343
6.25858
7.6742
9.09811
10.5242
11.941
13.329
14.6593
15.8915
16.9739
17.8469
18.4506
0.811916
2.43835
4.07247
5.71899
7.38193
9.06388
10.7651
12.4819
14.2044
15.913
17.5753
19.1415
20.5427
21.6935
22.502
0.931289
2.79737
4.67395
6.56793
8.48595
10.4339
12.4161
14.4334
16.4808
18.5427
20.5866
22.5555
24.361
25.8813
26.9735
1.04712
3.14578
5.25782
7.39255
9.55967
11.7693
14.0313
16.3542
18.7421
21.1894
23.6717
26.1319
28.4633
30.496
32.0036
1.15847
3.48066
5.8188
8.18445
10.5905
13.0517
15.585
18.2091
20.9429
23.8
26.7777
29.8359
32.863
35.6343
37.7891
1.26455
3.79943
6.35204
8.93563
11.5657
14.2614
17.047
19.9535
23.0195
26.2889
29.802
33.5695
37.517
41.3877
44.6227
1.3648
4.10031
6.85406
9.63993
12.4748
15.3806
18.3874
21.5375
24.8914
28.5329
32.5707
37.1215
42.2463
47.7749
52.949
1.45907
4.38279
7.32368
10.2948
13.3124
16.3981
19.5834
22.9167
26.4745
30.3794
34.8247
40.0981
46.5699
54.514
63.3855
1.54772
4.64794
7.76273
10.9029
14.0813
17.3152
20.6306
24.0703
27.7092
31.6843
36.249
41.8745
49.419
60.3231
76.2322
1.63154
4.89833
8.17612
11.4722
14.794
18.1501
21.5526
25.0234
28.6066
32.3982
36.6111
41.7296
48.9059
61.1241
87.2462
2181.59
2228.65
2273.46
2316.05
2356.46
2394.77
2431.06
2465.43
2497.99
2528.87
2558.21
2586.15
2612.83
2638.39
2662.98
2686.75
2709.83
2732.37
2754.49
2776.34
2798.03
2819.68
2841.41
2863.3
2885.46
2907.95
2930.86
2954.22
2978.08
3002.47
3027.39
3052.83
3078.79
3105.24
3132.14
3159.45
3187.12
3215.09
3243.3
3271.68
3300.14
3328.61
3356.99
3385.19
3413.11
3440.66
3467.75
3494.29
3520.2
3545.42
3569.87
3593.47
3616.17
3637.9
3658.57
3678.11
3696.44
3713.47
3729.12
3743.28
3755.88
3766.81
3775.98
3783.29
3788.62
3791.87
3792.9
3791.59
3787.77
3781.27
3771.92
3759.53
3743.88
3724.75
3701.92
3675.16
3644.21
3608.84
3568.78
3523.79
3473.62
3418.01
3356.75
3289.61
3216.42
3137
3051.26
2959.12
2860.58
2755.68
4.74632
4.74475
4.69296
4.5926
4.44698
4.26073
4.03936
3.78883
3.51513
3.22396
2.92056
2.60953
2.29481
1.97974
1.66712
1.35931
1.05837
0.766191
0.484629
0.215597
-0.038833
-0.276389
-0.494591
-0.690814
-0.862403
-1.00687
-1.12215
-1.20687
-1.26057
-1.28393
-1.27871
-1.24758
-1.19367
-1.12009
-1.02934
-0.922998
-0.801641
-0.665105
-0.513027
-0.345517
-0.163771
0.029555
0.23036
0.433532
0.633722
0.826271
1.00803
1.17788
1.33682
1.4877
1.63453
1.78176
1.93341
2.09244
2.26036
2.4372
2.62182
2.81252
3.00772
3.20668
3.40993
3.61944
3.8385
4.07134
4.32262
4.59682
4.89775
5.22805
5.589
5.98044
6.40099
6.84838
7.31982
7.81235
8.32298
8.84862
9.38585
9.93045
10.4769
11.0181
11.5446
12.0449
12.5052
12.9101
13.2432
13.4882
13.6304
13.6578
13.5624
13.3413
7.99019
7.98782
7.89885
7.72629
7.4762
7.15698
6.77853
6.35142
5.88613
5.39254
4.87953
4.35483
3.82498
3.2954
2.77059
2.25427
1.74967
1.25975
0.787417
0.335724
-0.0919558
-0.491836
-0.859696
-1.19096
-1.48089
-1.72497
-1.91929
-2.06117
-2.14961
-2.18574
-2.17282
-2.11594
-2.02119
-1.89456
-1.74079
-1.56263
-1.36061
-1.13359
-0.879922
-0.59881
-0.291665
0.0370694
0.379864
0.726968
1.06801
1.39392
1.69862
1.98009
2.2405
2.48556
2.72325
2.96223
3.21025
3.47288
3.75268
4.0492
4.35958
4.67985
5.00633
5.33707
5.67267
6.01662
6.37498
6.75563
7.16725
7.61821
8.11552
8.66399
9.26579
9.92038
10.6249
11.375
12.1654
12.9911
13.8471
14.7287
15.6308
16.5473
17.4697
18.3865
19.2825
20.1383
20.9301
21.631
22.2121
22.6441
22.9001
22.9583
22.8039
22.4314
11.358
11.3554
11.2248
10.9714
10.6047
10.1383
9.58751
8.9687
8.29763
7.58884
6.85513
6.1074
5.35465
4.60417
3.86182
3.13239
2.41991
1.7281
1.06062
0.421433
-0.184924
-0.753186
-1.27727
-1.75036
-2.16516
-2.51441
-2.79165
-2.9921
-3.11368
-3.15786
-3.12991
-3.0385
-2.89429
-2.70777
-2.48708
-2.23634
-1.95527
-1.64018
-1.28607
-0.889347
-0.450415
0.0245552
0.523371
1.02933
1.52428
1.99228
2.42284
2.8128
3.16643
3.49416
3.81021
4.12976
4.46617
4.82867
5.22102
5.64131
6.08321
6.5383
6.9989
7.46051
7.92342
8.39307
8.87935
9.3953
9.9552
10.5728
11.2596
12.0231
12.8665
13.7883
14.7831
15.8432
16.9601
18.1259
19.334
20.5788
21.8548
23.1552
24.4699
25.7844
27.078
28.3231
29.4852
30.5241
31.395
32.0526
32.4542
32.5643
32.3587
31.8281
14.9083
14.9063
14.727
14.3785
13.876
13.2399
12.4935
11.6602
10.7624
9.81995
8.84988
7.8662
6.88009
5.9003
4.93359
3.98524
3.05961
2.16064
1.29232
0.45916
-0.333432
-1.07881
-1.76892
-2.39431
-2.9444
-3.40816
-3.77517
-4.03716
-4.1898
-4.23441
-4.17896
-4.03772
-3.82892
-3.57084
-3.2773
-2.95439
-2.59962
-2.20368
-1.75434
-1.24145
-0.661885
-0.0231594
0.655689
1.34664
2.0184
2.64355
3.20453
3.69678
4.1286
4.51851
4.89103
5.27187
5.68332
6.1403
6.64791
7.20107
7.78659
8.38758
8.98871
9.58077
10.1632
10.7442
11.3397
11.9703
12.6586
13.4264
14.2915
15.2656
16.3528
17.5495
18.8458
20.2281
21.6828
23.1982
24.7663
26.3822
28.0419
29.7405
31.4686
33.2105
34.9412
36.6252
38.216
39.6567
40.883
41.8277
42.4259
42.6226
42.3795
41.6808
18.7119
18.7115
18.4721
18.0065
17.3387
16.4998
15.5238
14.4439
13.2907
12.09
10.8634
9.62768
8.39567
7.17689
5.97823
4.80475
3.66036
2.54854
1.47294
0.438033
-0.55032
-1.48437
-2.35409
-3.14698
-3.84824
-4.44147
-4.91015
-5.23991
-5.4217
-5.45524
-5.35178
-5.13443
-4.83476
-4.48523
-4.11007
-3.7186
-3.30355
-2.8444
-2.31448
-1.68993
-0.95897
-0.129121
0.770064
1.69102
2.57906
3.38661
4.08456
4.6671
5.15044
5.56721
5.95913
6.36917
6.83412
7.37817
8.00836
8.71332
9.46679
10.2357
10.9906
11.714
12.4038
13.0736
13.7484
14.4609
15.2466
16.1389
17.1654
18.344
19.68
21.1659
22.7831
24.5076
26.3164
28.1929
30.1284
32.1208
34.1715
36.2814
38.4457
40.6508
42.8697
45.0597
47.1607
49.0957
50.7745
52.0993
52.9734
53.3121
53.054
52.1726
22.857
22.8599
22.5418
21.9245
21.0467
19.9562
18.7027
17.3327
15.8865
14.3969
12.8895
11.3832
9.89165
8.42397
6.98615
5.58194
4.21386
2.88396
1.59469
0.349668
-0.845558
-1.98269
-3.04998
-4.03164
-4.90763
-5.65413
-6.24514
-6.6557
-6.86703
-6.87333
-6.68854
-6.34968
-5.91241
-5.43654
-4.96635
-4.51682
-4.07104
-3.58714
-3.01097
-2.29175
-1.3986
-0.335127
0.852845
2.08247
3.25526
4.28714
5.13034
5.77986
6.2677
6.65127
7.00072
7.38695
7.87056
8.49152
9.26057
10.1551
11.1241
12.1034
13.0374
13.8947
14.6728
15.3949
16.102
16.8456
17.6802
18.6572
19.8195
21.1947
22.7906
24.5922
26.5648
28.6643
30.8515
33.1016
35.4072
37.7739
40.2147
42.7422
45.3627
48.0696
50.8381
53.6206
56.3424
58.9019
61.174
63.018
64.2901
64.8588
64.6244
63.5397
27.4614
27.4694
27.0416
26.2169
25.0602
23.6465
22.0489
20.331
18.5447
16.7295
14.914
13.1178
11.3535
9.62842
7.94606
6.3076
4.7129
3.16147
1.6534
0.190308
-1.22367
-2.58076
-3.86831
-5.06755
-6.15253
-7.08971
-7.83898
-8.35734
-8.60656
-8.56556
-8.24615
-7.70564
-7.04462
-6.3787
-5.79191
-5.30865
-4.89249
-4.46183
-3.91252
-3.14309
-2.0826
-0.719506
0.876496
2.55659
4.13516
5.46011
6.45576
7.12616
7.53579
7.78518
7.99011
8.2653
8.70999
9.39238
10.3328
11.4905
12.7673
14.0369
15.1952
16.1899
17.0231
17.7382
18.4038
19.0999
19.9091
20.9095
22.1673
23.7281
25.6055
27.7727
30.164
32.6951
35.296
37.9307
40.5978
43.3203
46.1326
49.069
52.1549
55.3991
58.7862
62.2681
65.7571
69.1214
72.1889
74.7594
76.6188
77.5611
77.4186
76.1024
32.6918
32.7056
32.1118
30.9864
29.4429
27.601
25.5672
23.4271
21.2439
19.0621
16.9105
14.8064
12.759
10.7714
8.84288
6.97047
5.14994
3.37692
1.64779
-0.0392657
-1.68314
-3.27833
-4.8131
-6.26724
-7.60947
-8.79504
-9.76446
-10.4457
-10.7631
-10.6578
-10.1213
-9.23424
-8.18306
-7.20609
-6.46757
-6.00307
-5.73403
-5.50667
-5.13036
-4.41288
-3.20168
-1.43865
0.779648
3.17748
5.38075
7.10775
8.25
8.84839
9.035
8.98347
8.87867
8.89994
9.20752
9.92216
11.0923
12.655
14.421
16.131
17.589
18.718
19.5436
20.1532
20.6616
21.1913
21.8629
22.7911
24.079
25.8056
28.003
30.6304
33.5618
36.6252
39.6915
42.7125
45.7081
48.737
51.8712
55.1797
58.7183
62.522
66.5965
70.9045
75.3502
79.7667
83.9184
87.523
90.2668
91.824
91.9014
90.3187
38.8021
38.8152
37.9462
36.3566
34.2539
31.8303
29.2374
26.5834
23.9396
21.3494
18.8367
16.4119
14.0769
11.8278
9.65761
7.55739
5.51742
3.52807
1.58061
-0.331934
-2.21356
-4.06367
-5.87471
-7.6287
-9.29259
-10.8122
-12.1054
-13.0583
-13.5287
-13.3715
-12.5015
-10.9997
-9.21517
-7.69069
-6.74926
-6.41671
-6.5162
-6.7667
-6.84023
-6.39449
-5.11634
-2.81435
0.423199
4.07735
7.31091
9.59607
10.826
11.1622
10.8757
10.2569
9.58411
9.12065
9.11721
9.79439
11.2846
13.5251
16.1534
18.5862
20.4545
21.681
22.3732
22.7116
22.8868
23.0763
23.445
24.1525
25.3568
27.2025
29.7792
33.0476
36.7671
40.5483
44.1494
47.5281
50.7675
53.9988
57.3556
60.9557
64.8962
69.2515
74.0667
79.3385
84.9814
90.7894
96.4314
101.522
105.619
108.213
108.77
106.89
46.2179
46.1933
44.816
42.4636
39.5252
36.3017
32.9943
29.724
26.5571
23.5244
20.6356
17.8876
15.2704
12.7702
10.3713
8.05737
5.81192
3.61892
1.46323
-0.668945
-2.78908
-4.90494
-7.01802
-9.11941
-11.1829
-13.1544
-14.9359
-16.3651
-17.1973
-17.111
-15.7906
-13.1718
-9.87216
-7.33522
-6.15379
-6.20785
-7.08055
-8.28112
-9.29739
-9.57427
-8.50484
-5.53691
-0.53293
5.58297
10.6066
13.6037
14.6886
14.3724
13.1945
11.6082
9.98795
8.67889
8.04676
8.49571
10.3966
13.8364
18.1672
21.8537
24.2436
25.413
25.7115
25.5046
25.0908
24.7028
24.5387
24.7978
25.7106
27.546
30.5585
34.8144
39.8827
44.7296
48.9263
52.5428
55.8371
59.0781
62.4879
66.2399
70.4748
75.3167
80.8772
87.2356
94.3723
102.048
109.736
116.947
123.133
127.532
129.146
127.002
55.7551
55.5168
53.0876
49.4123
45.205
40.8924
36.696
32.7145
28.9802
25.4915
22.231
19.1744
16.2951
13.5665
10.9626
8.45873
6.03096
3.65627
1.31226
-1.02289
-3.37029
-5.74961
-8.17747
-10.6639
-13.205
-15.7695
-18.2725
-20.5303
-22.1873
-22.6265
-20.9482
-16.3235
-9.43005
-5.02716
-3.7786
-4.81953
-7.1721
-10.0602
-12.8185
-14.6919
-14.6264
-11.1907
-3.08978
8.66158
16.8207
20.3647
20.5689
18.8231
16.1013
13.0082
9.94382
7.26252
5.41978
5.10647
7.29279
12.8645
21.1086
26.9881
29.79
30.3987
29.7772
28.5953
27.2572
26.0066
25.0227
24.5014
24.7355
26.1942
29.5469
35.4108
43.3162
49.8462
54.5376
58.0205
60.9821
63.913
67.1259
70.8269
75.1778
80.3452
86.5367
94.0099
102.984
113.288
123.724
133.846
143.217
150.856
154.929
152.919
69.3056
67.993
63.1515
57.1249
51.0343
45.3141
40.0865
35.3473
31.0477
27.1284
23.5315
20.2047
17.1018
14.182
11.4091
8.74968
6.17287
3.64885
1.14809
-1.35956
-3.90577
-6.52454
-9.2527
-12.1294
-15.1932
-18.4726
-21.9619
-25.5602
-28.9302
-31.1906
-30.3481
-22.742
-5.40152
1.82295
1.89321
-1.54264
-6.49256
-12.0263
-17.6138
-22.6015
-25.6009
-23.5625
-10.9036
16.9122
29.6793
31.934
29.2556
24.6783
19.5417
14.3659
9.34709
4.63779
0.589641
-1.88302
-0.686901
8.04353
27.4536
36.5526
38.493
37.1542
34.6484
31.9093
29.2958
26.9249
24.8392
23.1158
21.9953
22.1137
24.9175
33.0655
48.7281
57.6079
61.8865
64.2462
66.1687
68.3389
71.0582
74.4748
78.7017
83.8954
90.3468
98.6193
109.676
124.333
138.158
151.819
165.791
179.309
189.465
189.87
92.4929
85.5477
74.9192
64.927
56.3277
49.0244
42.772
37.3453
32.5666
28.3002
24.4422
20.9117
17.6441
14.5858
11.6917
8.92157
6.23875
3.60801
0.994033
-1.64038
-4.33631
-7.14141
-10.1134
-13.3248
-16.8698
-20.8725
-25.4931
-30.9176
-37.2694
-44.2211
-49.486
-43.1769
13.1946
18.9752
12.614
3.91476
-4.97187
-13.9141
-23.272
-33.3728
-43.8286
-51.2266
-40.5426
46.8325
57.6749
50.6059
40.6756
31.3384
23.038
15.4973
8.30467
1.06123
-6.50885
-14.1551
-19.5156
-12.156
48.6458
56.4245
51.917
45.5892
39.8547
35.0416
30.9847
27.4318
24.1333
20.8619
17.4706
14.1661
12.5918
19.8986
63.9061
71.9938
71.9971
71.0996
70.9969
71.9719
73.9843
76.9539
80.8311
85.6322
91.5319
99.2158
111.183
136.57
152.826
169.341
189.015
212.598
238.038
253.368
146.964
108.402
85.7668
70.72
59.7522
51.219
44.2664
38.4086
33.3461
28.8822
24.88
21.2393
17.8838
14.7526
11.795
8.96725
6.22924
3.54278
0.86925
-1.83262
-4.60958
-7.51781
-10.6288
-14.0392
-17.8868
-22.3817
-27.8657
-34.9381
-44.7432
-59.6787
-85.2884
-135.7
104.641
53.6107
26.7007
9.6417
-3.37113
-15.2028
-27.8595
-43.6318
-66.4577
-104.927
-180.615
186.958
111.46
73.3957
51.24
36.5041
25.4394
16.1265
7.33501
-2.04517
-13.4976
-29.7181
-56.6606
-109.312
146.189
93.9863
67.9601
53.168
43.7325
37.0835
31.9465
27.5714
23.3874
18.7797
12.8204
3.72624
-12.5231
-46.1181
130.806
98.0185
83.4024
76.8056
74.2707
74.1086
75.5295
78.1229
81.6273
85.7837
90.1444
93.6403
93.363
161.949
167.117
182.308
206.602
243.206
301.162
403.049
2633.42
2491.29
2340.8
2182.44
2016.79
1844.45
1666.08
1482.35
1293.94
1101.51
905.733
707.237
506.65
304.579
101.624
12.9627
12.3849
11.6651
10.8319
9.91605
8.94734
7.95169
6.94989
5.95708
4.9829
4.03215
3.10561
2.20088
1.31326
0.436512
21.7868
20.7988
19.5674
18.1445
16.5854
14.9421
13.2596
11.5732
9.9078
8.27886
6.69344
5.15184
3.64916
2.17673
0.723399
30.8947
29.455
27.6603
25.5927
23.3381
20.9754
18.571
16.1751
13.8219
11.5313
9.31093
7.15919
5.06719
3.0211
1.00376
40.4224
38.4646
36.0245
33.2268
30.1976
27.0495
23.873
20.7336
17.673
14.7131
11.8597
9.10675
6.43934
3.83672
1.27435
50.5332
47.9547
44.7448
41.0907
37.1746
33.1509
29.1369
25.2121
21.4225
17.7878
14.3078
10.9686
7.74665
4.61208
1.5313
61.4325
58.0747
53.9078
49.2155
44.2578
39.2413
34.3105
29.5542
25.0161
20.7068
16.6145
12.713
8.96644
5.33363
1.77011
73.3902
69.0027
63.5955
57.6046
51.3991
45.2452
39.3091
33.6775
28.3798
23.4077
18.7298
14.3019
10.0722
5.98578
1.98564
86.7747
80.9487
73.8654
66.2069
58.4874
51.0302
44.0027
37.4665
31.4173
25.8134
20.5945
15.6919
11.0346
6.55145
2.1723
102.114
94.1478
84.7067
74.8669
65.3108
56.3827
48.2032
40.7675
34.0086
27.8335
22.1421
16.8361
11.8224
7.01297
2.32434
120.208
108.818
95.9437
83.2408
71.5044
60.9844
51.6578
43.3901
36.015
29.3689
23.3034
17.6875
12.4054
7.35351
2.43637
142.276
124.972
107.007
90.6463
76.4797
64.391
54.0522
45.119
37.2912
30.3226
24.0143
18.2044
12.758
7.55907
2.50395
170.032
141.782
116.461
95.8551
79.3742
66.0452
55.0394
45.7412
37.707
30.6148
24.226
18.3573
12.8628
7.62057
2.52427
204.389
155.659
121.194
96.9363
79.1143
65.3737
54.3172
45.0981
37.1794
30.2028
23.9167
18.1355
12.7147
7.536
2.49679
234.041
155.264
115.718
91.5783
74.7706
62.0156
51.7559
43.1533
35.7085
29.099
23.1017
17.5527
12.3243
7.31174
2.42366
1.70519
5.11831
8.53918
11.9716
15.417
18.8739
22.3369
25.7971
29.2457
32.6856
36.1635
39.85
44.2365
50.6195
62.2947
1.77
5.31215
8.86001
12.4148
15.9734
19.5253
23.0488
26.504
29.824
32.901
35.5631
37.5252
38.2176
36.0215
24.6333
1.83328
5.50191
9.17579
12.855
16.5338
20.1959
23.8073
27.3039
30.5704
33.4033
35.4472
36.081
34.2038
27.8054
13.2758
1.89508
5.68787
9.48759
13.2952
17.1054
20.901
24.6447
28.2629
31.6171
34.4527
36.3093
36.3795
33.3286
25.2352
10.2666
1.955
5.8689
9.79363
13.7333
17.6865
21.6415
25.5685
29.4043
33.023
36.1807
38.411
38.8443
35.9539
27.4386
11.1213
2.01217
6.04226
10.089
14.1616
18.2657
22.4008
26.555
30.6955
34.748
38.5516
41.7595
43.6162
42.4843
35.0592
16.0904
2.06532
6.20391
10.3662
14.5676
18.8229
23.1461
27.5503
32.0472
36.6446
41.3347
46.0456
50.4618
53.3837
50.6952
30.2342
2.1129
6.34895
10.616
14.9358
19.3324
23.8344
28.4803
33.3281
38.4759
44.1018
50.5351
58.3435
68.1776
78.6717
72.1599
2.15334
6.47232
10.8288
15.2502
19.7679
24.4221
29.2693
34.3999
39.9742
46.3067
54.0685
64.8167
82.511
118.456
209.784
2.18518
6.56949
10.9964
15.4972
20.1081
24.8749
29.8607
35.1625
40.9448
47.5175
55.5265
66.4642
84.1681
119.775
210.313
2.20729
6.63693
11.1125
15.6673
20.3394
25.1747
30.2318
35.5905
41.3654
47.7293
54.9492
63.411
73.39
82.9449
73.9357
2.2189
6.67231
11.1732
15.7556
20.4569
25.3197
30.3925
35.7284
41.3758
47.3451
53.5078
59.3023
62.9042
59.0038
33.9882
2.21961
6.67454
11.1771
15.7609
20.4617
25.3181
30.3696
35.649
41.1615
46.8254
52.3204
56.7145
57.6265
49.7243
23.8735
2.20936
6.64352
11.1244
15.6844
20.3578
25.1804
30.1874
35.4066
40.8408
46.4216
51.8961
56.5434
58.468
52.9076
28.9639
2.18835
6.57989
11.0163
15.5288
20.1499
24.914
29.857
35.014
40.4171
46.0903
52.0448
58.2613
64.5059
68.8554
57.6538
2.15697
6.48491
10.8552
15.2973
19.842
24.5228
29.377
34.4496
39.8048
45.5622
52.0102
59.9581
71.858
95.6008
158.638
2.1158
6.36035
10.6441
14.994
19.439
24.0104
28.7446
33.688
38.912
44.5533
50.9327
58.9086
70.9841
95.0559
158.479
2.06558
6.20842
10.3866
14.6244
18.9477
23.3844
27.9661
32.7308
37.7284
43.0306
48.7451
55.0105
61.7774
67.1808
57.227
2.00719
6.03182
10.0874
14.1951
18.3772
22.657
27.0596
31.6109
36.3323
41.2202
46.1738
50.7625
53.5161
49.9687
28.5427
1.94163
5.8336
9.75174
13.7138
17.7382
21.8436
26.0492
30.3721
34.8197
39.3631
43.8546
47.7876
49.6289
45.1708
24.6213
1.87
5.61706
9.38533
13.189
17.0424
20.9601
24.9565
29.0458
33.2398
37.5408
41.9221
46.2641
50.115
51.5462
40.625
1.79341
5.38565
8.99409
12.6293
16.3017
20.0213
23.7986
27.6462
31.5846
35.6619
40.0159
45.0804
52.2802
66.4984
105.467
1.71302
5.14288
8.58404
12.0435
15.5277
19.042
22.5914
26.1827
29.8321
33.5897
37.6153
42.4125
49.5702
64.261
104.516
1.62994
4.89214
8.16105
11.4403
14.7324
18.0377
21.3545
24.6783
28.0038
31.3306
34.6779
38.1043
41.6276
44.2691
37.3431
1.54521
4.63662
7.73066
10.828
13.9275
17.0251
20.1121
23.172
26.1739
29.0564
31.6848
33.7279
34.2963
30.9202
17.2251
1.45977
4.37918
7.29781
10.2139
13.1235
16.0194
18.8881
21.7056
24.4264
26.958
29.0972
30.3749
29.7033
24.7366
11.5199
1.37441
4.1222
6.86658
9.60401
12.3289
15.0321
17.6992
20.3058
22.8097
25.1314
27.1072
28.3749
28.0923
24.2817
12.6359
1.28971
3.8675
6.44003
9.00265
11.5489
14.0697
16.5517
18.9767
21.3191
23.5444
25.6082
27.451
28.9305
29.2672
23.2141
1.20614
3.61638
6.02022
8.41246
10.7865
13.1337
15.4436
17.7047
19.9092
22.0689
24.2623
26.7786
30.5618
38.6896
61.8299
1.12396
3.36963
5.60836
7.83477
10.0424
12.2234
14.3691
16.4716
18.5301
20.5695
22.6917
25.2257
29.1753
37.686
61.4514
1.04331
3.12764
5.20496
7.26997
9.31652
11.3374
13.3243
15.2686
17.164
19.012
20.8347
22.6893
24.6207
26.0879
21.9869
0.964225
2.89048
4.81001
6.71785
8.60834
10.4747
12.3087
14.0994
15.8304
17.4718
18.9552
20.0992
20.388
18.3562
10.2116
0.886653
2.65794
4.42309
6.17768
7.91673
9.63438
11.323
12.9713
14.5588
16.041
17.3111
18.1025
17.7664
14.8692
6.96281
0.810467
2.42963
4.04345
5.64819
7.23987
8.81402
10.3651
11.8853
13.36
14.7572
15.9992
16.8884
16.9232
14.8604
7.89396
0.735498
2.20501
3.67006
5.12771
6.57509
8.00951
9.42862
10.8307
12.2147
13.5811
14.932
16.2674
17.5364
18.2568
14.951
0.661555
1.98345
3.30177
4.6143
5.91923
7.21554
8.50386
9.78839
11.0815
12.4156
13.8755
15.6923
18.5305
24.4489
40.4776
0.588447
1.76437
2.93747
4.10612
5.2693
6.42705
7.58165
8.74009
9.91978
11.1626
12.5711
14.4076
17.3853
23.6199
40.1646
0.51601
1.54725
2.57623
3.60173
4.62311
5.6407
6.65673
7.67699
8.71416
9.79443
10.9694
12.3304
13.9783
15.6308
13.936
0.444115
1.3317
2.2174
3.10021
3.97954
4.85542
5.72887
6.60214
7.47861
8.36047
9.23849
10.0538
10.5681
9.96615
5.88603
0.372674
1.11746
1.86058
2.60112
3.33837
4.07185
4.80115
5.52511
6.23935
6.92922
7.5512
7.98618
7.93313
6.71685
3.17763
0.301632
0.904377
1.50559
2.10436
2.69985
3.29122
3.87719
4.45491
5.01709
5.54519
5.99386
6.25761
6.10605
5.08077
2.42486
0.230959
0.692383
1.15234
1.60993
2.06427
2.51443
2.95905
3.3956
3.81863
4.21648
4.56508
4.81763
4.88589
4.57726
3.19566
0.16064
0.481433
0.800792
1.11782
1.43169
1.7416
2.04666
2.34583
2.63784
2.92217
3.20323
3.50588
3.92776
4.81918
7.44574
0.0906694
0.271518
0.45092
0.627995
0.801975
0.972262
1.13855
1.30123
1.4626
1.63036
1.82669
2.11164
2.64395
3.85666
7.06993
0.0210545
0.0626505
0.10274
0.140424
0.174964
0.205878
0.233148
0.257768
0.283209
0.319029
0.388963
0.54602
0.88806
1.50543
1.95376
-0.0481869
-0.145118
-0.243682
-0.34484
-0.449368
-0.557775
-0.670175
-0.78598
-0.903075
-1.01564
-1.10886
-1.14763
-1.05856
-0.727952
-0.137169
-0.117022
-0.351694
-0.588202
-0.827621
-1.07082
-1.31842
-1.57086
-1.82852
-2.09214
-2.36333
-2.64405
-2.92958
-3.17241
-3.14156
-2.0081
-0.185399
-0.556927
-0.930588
-1.30762
-1.689
-2.07546
-2.46761
-2.86655
-3.27556
-3.70396
-4.17538
-4.74061
-5.47573
-6.3203
-5.88062
-0.253245
-0.760606
-1.27051
-1.78441
-2.30343
-2.82826
-3.35929
-3.8972
-4.44505
-5.01419
-5.641
-6.433
-7.70231
-10.3901
-17.6147
-0.320459
-0.962439
-1.60752
-2.25746
-2.91357
-3.57644
-4.24582
-4.92053
-5.59924
-6.28381
-6.99129
-7.79318
-8.94297
-11.3083
-17.9678
-0.386907
-1.16203
-1.941
-2.72602
-3.51872
-4.31977
-5.12825
-5.94062
-6.74883
-7.53691
-8.27534
-8.91099
-9.33865
-9.2431
-7.03832
-0.452412
-1.35887
-2.27013
-3.18902
-4.11778
-5.05756
-6.00753
-6.96311
-7.91182
-8.82383
-9.63003
-10.1725
-10.0968
-8.64181
-4.35246
-0.516752
-1.55228
-2.59378
-3.64493
-4.70888
-5.78786
-6.88245
-7.98983
-9.09971
-10.1835
-11.1671
-11.8624
-11.812
-10.0081
-4.73257
-0.579654
-1.74143
-2.91055
-4.09168
-5.28919
-6.50691
-7.74797
-9.01425
-10.305
-11.6121
-12.9037
-14.0693
-14.7442
-13.7845
-8.02179
-0.640805
-1.92537
-3.21878
-4.52681
-5.85511
-7.20931
-8.59543
-10.021
-11.4983
-13.0508
-14.7267
-16.616
-18.8104
-20.8955
-18.45
-0.699864
-2.10307
-3.51667
-4.94757
-6.40267
-7.88909
-9.41491
-10.9913
-12.6387
-14.4028
-16.4008
-18.9498
-22.9514
-31.1514
-52.8038
-0.756472
-2.27341
-3.80233
-5.35122
-6.92807
-8.541
-10.1987
-11.9117
-13.6971
-15.5915
-17.6913
-20.2736
-24.1754
-32.0636
-53.1545
-0.810265
-2.43531
-4.07392
-5.73514
-7.42801
-9.16133
-10.9434
-12.7812
-14.6791
-16.6367
-18.6456
-20.6799
-22.6296
-23.8055
-19.5992
-0.860878
-2.58767
-4.32958
-6.09678
-7.89941
-9.74727
-11.6488
-13.6082
-15.6187
-17.6452
-19.5811
-21.1437
-21.6199
-19.2836
-10.3427
-0.907952
-2.72938
-4.56745
-6.43347
-8.33896
-10.2954
-12.3132
-14.3989
-16.5465
-18.7157
-20.7749
-22.361
-22.5621
-19.3472
-9.24145
-0.951145
-2.8594
-4.78567
-6.74241
-8.74267
-10.8003
-12.9299
-15.1458
-17.4583
-19.8615
-22.2961
-24.5388
-25.8754
-24.195
-13.9572
-0.990148
-2.97676
-4.9825
-7.02078
-9.10606
-11.2547
-13.486
-15.8249
-18.3063
-20.9843
-23.9494
-27.3445
-31.2824
-34.9842
-30.9477
-1.02472
-3.08069
-5.15649
-7.26613
-9.425
-11.651
-13.9667
-16.4042
-19.0167
-21.9068
-25.303
-29.7718
-36.8518
-51.1456
-88.1166
-1.0547
-3.1707
-5.30673
-7.47693
-9.69683
-11.9844
-14.362
-16.8613
-19.5333
-22.4766
-25.9104
-30.3843
-37.4096
-51.5566
-88.2735
-1.08005
-3.24666
-5.43298
-7.65285
-9.92118
-12.2546
-14.6722
-17.1975
-19.8607
-22.7045
-25.7943
-29.2234
-33.0201
-36.2915
-31.4596
-1.10083
-3.30877
-5.53569
-7.79474
-10.0998
-12.4656
-14.9069
-17.4371
-20.0616
-22.7606
-25.4412
-27.8058
-28.9939
-26.6519
-14.9828
-1.11721
-3.35756
-5.61581
-7.9043
-10.2358
-12.6235
-15.0792
-17.6104
-20.2098
-22.8282
-25.3063
-27.204
-27.4175
-23.4882
-11.211
-1.12943
-3.39377
-5.67467
-7.98358
-10.3324
-12.7334
-15.1983
-17.7356
-20.3437
-22.9923
-25.5731
-27.7705
-28.7167
-26.1206
-14.4835
-1.13779
-3.41833
-5.71383
-8.03477
-10.3923
-12.7984
-15.2663
-17.8106
-20.4485
-23.2022
-26.1051
-29.2045
-32.4743
-35.0302
-29.79
-1.14268
-3.43233
-5.73507
-8.06018
-10.4179
-12.8198
-15.2804
-17.8198
-20.4719
-23.3073
-26.4994
-30.5185
-36.7262
-49.352
-82.831
-1.14452
-3.43711
-5.74053
-8.06261
-10.4122
-12.7999
-15.2392
-17.75
-20.3671
-23.1635
-26.3182
-30.3112
-36.5194
-49.1901
-82.7671
-1.14385
-3.43422
-5.73276
-8.04556
-10.3796
-12.7435
-15.1476
-17.6056
-20.1367
-22.7698
-25.5536
-28.5641
-31.8229
-34.5074
-29.5775
-1.14128
-3.42551
-5.71486
-8.01337
-10.3259
-12.6584
-15.0177
-17.4098
-19.8345
-22.2703
-24.6303
-26.6432
-27.5236
-25.111
-14.0427
-1.13753
-3.41309
-5.69036
-7.97108
-10.2578
-12.5542
-14.8644
-17.1904
-19.5238
-21.8223
-23.947
-25.5074
-25.5097
-21.7243
-10.3247
-1.13337
-3.39935
-5.66324
-7.92427
-10.1826
-12.4399
-14.6994
-16.965
-19.2364
-21.4939
-23.6544
-25.4525
-26.1251
-23.6241
-13.0295
-1.12969
-3.38692
-5.63788
-7.87897
-10.1077
-12.3235
-14.5296
-16.7348
-18.9578
-21.2319
-23.6125
-26.178
-28.9431
-31.1434
-26.4729
-1.12745
-3.37871
-5.61916
-7.84196
-10.0412
-12.2134
-14.3596
-16.4916
-18.6429
-20.8948
-23.4412
-26.7637
-32.1519
-43.4327
-73.4394
-1.12769
-3.37789
-5.61247
-7.82096
-9.99323
-12.1207
-14.199
-16.2344
-18.2573
-20.3523
-22.73
-25.9135
-31.2673
-42.7157
-73.1499
-1.1315
-3.3878
-5.62369
-7.82482
-9.97595
-12.0615
-14.0675
-15.9853
-17.821
-19.6124
-21.4583
-23.5549
-26.1488
-28.8123
-25.4989
-1.13994
-3.41175
-5.65886
-7.86309
-10.0038
-12.0573
-13.9966
-15.7925
-17.4149
-18.8339
-20.0116
-20.8501
-20.9807
-19.0582
-10.961
-1.15393
-3.45275
-5.72363
-7.9452
-10.0918
-12.1318
-14.0248
-15.7196
-17.1493
-18.2222
-18.7996
-18.6361
-17.2373
-13.5912
-6.02322
-1.17417
-3.51305
-5.82246
-8.07907
-10.2536
-12.3079
-14.1902
-15.8303
-17.1307
-17.9539
-18.1013
-17.2793
-15.0539
-10.8472
-4.19517
-1.20095
-3.5937
-5.95777
-8.26966
-10.4987
-12.6029
-14.5233
-16.1764
-17.443
-18.1543
-18.0757
-16.8962
-14.246
-9.80083
-3.57414
-1.23403
-3.69417
-6.12916
-8.51755
-10.8301
-13.0251
-15.0417
-16.7904
-18.1403
-18.9026
-18.814
-17.534
-14.684
-9.99131
-3.59299
-1.2726
-3.812
-6.33273
-8.81785
-11.2429
-13.5709
-15.7457
-17.6809
-19.2452
-20.241
-20.3793
-19.2614
-16.4012
-11.366
-4.15871
-1.31516
-3.94271
-6.56087
-9.15966
-11.7227
-14.2228
-16.6155
-18.8284
-20.7444
-22.1744
-22.8162
-22.1983
-19.6285
-14.2487
-5.49526
-1.35962
-4.07983
-6.80231
-9.52608
-12.2458
-14.9489
-17.6097
-20.1817
-22.5804
-24.6544
-26.1276
-26.4901
-24.8068
-19.4738
-8.38525
-1.40336
-4.21531
-7.04271
-9.89506
-12.7804
-15.7038
-18.6653
-21.6547
-24.6415
-27.5512
-30.2095
-32.202
-32.5189
-28.6953
-15.221
-1.44345
-4.33997
-7.26564
-10.241
-13.2881
-16.4319
-19.7009
-23.129
-26.7554
-30.6219
-34.7531
-39.0769
-43.1058
-44.618
-33.8395
-1.47683
-4.4443
-7.45396
-10.5368
-13.7285
-17.0726
-20.6257
-24.4649
-28.7021
-33.5082
-39.1622
-46.1556
-55.4395
-69.0748
-91.9716
165.018
123.191
97.889
80.4826
67.3519
56.8176
48.0005
40.3873
33.651
27.5676
21.9744
16.7466
11.7837
7.00071
2.32215
60.3212
78.6872
74.9993
66.9331
58.5483
50.7445
43.6468
37.1907
31.2738
25.7957
20.6668
15.8091
11.1534
6.63738
2.20344
26.6481
49.496
55.1487
53.6034
49.3399
44.1798
38.8466
33.6189
28.5912
23.7806
19.1706
14.731
10.4258
6.21693
2.06589
14.1193
32.2449
40.2955
42.1601
40.7529
37.7342
33.9724
29.9074
25.7573
21.6255
17.5556
13.5593
9.63109
5.75621
1.91492
8.61303
21.9894
29.7371
32.9879
33.284
31.8039
29.3079
26.2543
22.91
19.427
15.8892
12.34
8.79916
5.27206
1.75598
5.78
15.6423
22.3009
25.8667
27.048
26.5783
25.0301
22.8025
20.1586
17.2662
14.2302
11.1147
7.95751
4.78014
1.59415
4.12578
11.5196
17.012
20.4008
21.958
22.1009
21.2234
19.6394
17.5792
15.2047
12.6262
9.91807
7.12971
4.29411
1.4339
3.0671
8.71713
13.1835
16.2064
17.8497
18.3317
17.9069
16.8064
15.2178
13.2844
11.1119
8.77695
6.33459
3.82508
1.2789
2.34458
6.73642
10.3571
12.9697
14.5473
15.1919
15.0592
14.312
13.0954
11.5299
9.71032
7.71022
5.58598
3.38143
1.13196
1.82849
5.29107
8.23065
10.4514
11.8927
12.5913
12.6381
12.1431
11.2152
9.95147
8.43387
6.72954
4.89301
2.96892
0.995025
1.44735
4.20881
6.60315
8.47426
9.75338
10.4432
10.5928
10.2746
9.56792
8.54917
7.28691
5.84054
4.26073
2.59094
0.869288
1.1587
3.38139
5.33885
6.90799
8.02311
8.67001
8.87212
8.67559
8.13717
7.31578
6.26765
5.04407
3.69086
2.24891
0.755286
0.935783
2.73807
4.34408
5.65684
6.61781
7.20551
7.42807
7.31384
6.90275
6.23968
5.37009
4.33751
3.18254
1.9427
0.653042
0.760953
2.23101
3.55286
4.64985
5.47157
5.99441
6.21774
6.15809
5.84317
5.30687
4.58559
3.71586
2.73307
1.67106
0.562188
0.622115
1.8268
2.91771
3.83391
4.53276
4.99118
5.20379
5.17946
4.93718
4.5024
3.90409
3.17263
2.33856
1.43192
0.482086
0.510725
1.50155
2.40383
3.16883
3.76082
4.15851
4.35428
4.35208
4.16477
3.8114
3.31497
2.70059
1.9944
1.22275
0.411929
0.42059
1.23776
1.98523
2.62381
3.12373
3.46599
3.64214
3.65315
3.50757
3.21967
2.80766
2.29226
1.69565
1.04075
0.350814
0.34712
1.02235
1.6422
2.17502
2.59607
2.88874
3.04461
3.06288
2.94914
2.71407
2.3721
1.94028
1.43734
0.883067
0.297808
0.286846
0.845363
1.35957
1.80379
2.15752
2.40642
2.54258
2.56421
2.47489
2.28263
1.99888
1.63763
1.21465
0.74688
0.251987
0.237106
0.699135
1.12552
1.49537
1.79173
2.00234
2.12002
2.14254
2.07209
1.91469
1.67944
1.37781
1.02303
0.629513
0.212467
0.195822
0.577647
0.930698
1.23797
1.48544
1.66274
1.76352
1.78538
1.72962
1.60076
1.40606
1.15489
0.858292
0.528472
0.178421
0.161351
0.47613
0.767651
1.02207
1.22784
1.37626
1.46179
1.4821
1.43787
1.33253
1.17185
0.96349
0.716608
0.441469
0.149088
0.132381
0.390755
0.630356
0.839942
1.01004
1.13342
1.20533
1.2236
1.18853
1.10272
0.970738
0.798821
0.594532
0.366433
0.123776
0.107846
0.318411
0.513894
0.685219
0.824679
0.926306
0.986099
1.00211
0.974412
0.904949
0.79734
0.65662
0.488982
0.301498
0.101863
0.0868704
0.256535
0.414201
0.552615
0.665577
0.74823
0.797258
0.810967
0.789283
0.733657
0.646923
0.533104
0.397206
0.244999
0.0827893
0.0687245
0.202989
0.327873
0.437682
0.527516
0.593499
0.632935
0.644394
0.627716
0.583961
0.515309