/*--------------------------------*- C++ -*----------------------------------*\
| =========                 |                                                 |
| \\      /  F ield         | OpenFOAM: The Open Source CFD Toolbox           |
|  \\    /   O peration     | Version:  5.x                                   |
|   \\  /    A nd           | Web:      www.OpenFOAM.org                      |
|    \\/     M anipulation  |                                                 |
\*---------------------------------------------------------------------------*/
FoamFile
{
    version     2.0;
    format      ascii;
    class       volScalarField;
    location    "16.3";
    object      gradTy;
}
// * * * * * * * * * * * * * * * * * * * * * * * * * * * * * * * * * * * * * //

dimensions      [0 -1 0 1 0 0 0];

internalField   nonuniform List<scalar> 
6300
(
1005.6
1016.78
1027.91
1038.95
1049.88
1060.65
1071.24
1081.61
1091.73
1101.57
1111.1
1120.29
1129.11
1137.56
1145.6
0.0250138
0.0750335
0.125018
0.174911
0.224611
0.27394
0.322617
0.370226
0.416191
0.459746
0.499937
0.535638
0.565617
0.588632
0.603573
0.0416982
0.12509
0.208455
0.291726
0.374757
0.457282
0.538869
0.61886
0.696315
0.769967
0.838199
0.899066
0.950399
0.989979
1.0158
0.0583859
0.175171
0.29198
0.408769
0.525392
0.641545
0.756697
0.870005
0.980217
1.08558
1.1838
1.272
1.34691
1.40507
1.44327
0.0750564
0.22522
0.375516
0.525966
0.67648
0.826788
0.976347
1.12422
1.26894
1.40832
1.53937
1.6582
1.76014
1.84009
1.89314
0.0916741
0.275128
0.458882
0.643077
0.827747
1.01275
1.19765
1.38156
1.56294
1.73934
1.90712
2.06124
2.1953
2.30193
2.37368
0.108184
0.324728
0.541794
0.759691
0.978656
1.19878
1.4199
1.64138
1.86189
2.07894
2.28845
2.48426
2.65783
2.79857
2.89507
0.124512
0.373793
0.623852
0.875209
1.12837
1.38378
1.64172
1.90213
2.16422
2.42599
2.6834
2.92942
3.15309
3.33931
3.47033
0.140576
0.422067
0.70459
0.988892
1.2758
1.5662
1.86104
2.16112
2.4668
2.77731
3.08964
3.3968
3.68564
3.9351
4.11702
0.156298
0.469294
0.783527
1.09994
1.41968
1.74414
2.07504
2.41443
2.76444
3.12669
3.50093
3.88236
4.2574
4.59827
4.86002
0.171614
0.515269
0.860254
1.20764
1.55879
1.91556
2.2805
2.65704
3.04974
3.46396
3.90486
4.37415
4.86316
5.34038
5.73624
0.186499
0.559897
0.934553
1.31152
1.69223
2.07877
2.47424
2.88341
3.31337
3.77441
4.28022
4.84603
5.4805
6.16369
6.80156
0.200978
0.603248
1.00651
1.41162
1.81979
2.23295
2.65421
3.08885
3.54578
4.03991
4.59542
5.24907
6.04893
7.03209
8.13312
0.215138
0.645588
1.07658
1.50859
1.94232
2.37894
2.8207
3.27187
3.74083
4.24386
4.81231
5.50571
6.43387
7.78232
9.76593
0.229117
0.687359
1.14561
1.60381
2.06187
2.51973
2.97766
3.43696
3.90166
4.38223
4.90406
5.52742
6.39827
7.89704
11.1533
1152.6
1158.68
1164.47
1169.98
1175.21
1180.17
1184.88
1189.35
1193.58
1197.61
1201.45
1205.11
1208.62
1211.99
1215.25
1218.41
1221.49
1224.51
1227.5
1230.45
1233.4
1236.36
1239.35
1242.37
1245.44
1248.57
1251.78
1255.06
1258.42
1261.87
1265.4
1269.03
1272.73
1276.52
1280.39
1284.32
1288.31
1292.36
1296.44
1300.55
1304.68
1308.81
1312.92
1316.99
1321.01
1324.97
1328.83
1332.59
1336.22
1339.72
1343.05
1346.21
1349.18
1351.93
1354.44
1356.69
1358.66
1360.31
1361.62
1362.57
1363.11
1363.23
1362.87
1362.02
1360.62
1358.64
1356.03
1352.75
1348.73
1343.92
1338.25
1331.66
1324.07
1315.41
1305.6
1294.54
1282.17
1268.37
1253.07
1236.16
1217.56
1197.18
1174.93
1150.72
1124.49
1096.17
1065.73
1033.13
998.356
961.428
0.609109
0.607699
0.59984
0.585752
0.565863
0.540766
0.511163
0.47781
0.441469
0.402861
0.362647
0.321408
0.279643
0.237771
0.196148
0.155074
0.114815
0.0756197
0.0377345
0.00142001
-0.0330382
-0.0653226
-0.0950836
-0.121946
-0.145527
-0.165461
-0.18143
-0.193205
-0.200678
-0.203878
-0.202977
-0.198257
-0.190054
-0.178688
-0.16439
-0.14726
-0.127266
-0.104284
-0.0781857
-0.0489343
-0.0166754
0.0182141
0.055135
0.093341
0.132066
0.170671
0.208776
0.246334
0.283648
0.321312
0.360102
0.400844
0.444275
0.490936
0.541109
0.594821
0.651911
0.712145
0.775352
0.841552
0.911035
0.984392
1.06248
1.14635
1.23714
1.33594
1.44369
1.56108
1.68852
1.82609
1.9736
2.13064
2.29667
2.47104
2.65299
2.84164
3.03587
3.23416
3.43447
3.63408
3.8295
4.01643
4.18978
4.34393
4.47289
4.57081
4.63235
4.65322
4.63057
4.56337
1.02545
1.02313
1.00969
0.985534
0.951446
0.908501
0.85796
0.801163
0.739442
0.674044
0.606094
0.536567
0.466285
0.395934
0.32608
0.257198
0.189704
0.123984
0.0604258
-0.000554048
-0.0584907
-0.112856
-0.163054
-0.208435
-0.24832
-0.282044
-0.309023
-0.328822
-0.341225
-0.346287
-0.344338
-0.335937
-0.32176
-0.302448
-0.278456
-0.249957
-0.216823
-0.178719
-0.135274
-0.086285
-0.031917
0.0271859
0.089906
0.154799
0.220353
0.2853
0.348879
0.410996
0.472245
0.533785
0.597126
0.663858
0.735384
0.8127
0.896274
0.986044
1.08156
1.18221
1.28752
1.39738
1.51225
1.63314
1.76162
1.8996
2.04917
2.21233
2.3908
2.58583
2.79808
3.02766
3.27416
3.53677
3.81453
4.10633
4.41101
4.72725
5.05339
5.38715
5.72535
6.06363
6.39622
6.71584
7.0138
7.2802
7.50451
7.67621
7.78563
7.82492
7.78884
7.67541
1.45774
1.45453
1.43492
1.39957
1.34974
1.28713
1.21373
1.13158
1.04269
0.948891
0.851806
0.752808
0.653029
0.553386
0.454619
0.357333
0.262048
0.169246
0.0794189
-0.00689444
-0.0890688
-0.166369
-0.237941
-0.302818
-0.359959
-0.408316
-0.446931
-0.475063
-0.49232
-0.498766
-0.494964
-0.481911
-0.460836
-0.432922
-0.398992
-0.359305
-0.313515
-0.260828
-0.200325
-0.131363
-0.0539586
0.0309669
0.121565
0.215318
0.309529
0.401912
0.491097
0.576919
0.660431
0.743673
0.829274
0.919978
1.01817
1.12547
1.24252
1.369
1.50382
1.64558
1.79313
1.94602
2.10478
2.27097
2.44706
2.63617
2.84163
3.06669
3.31408
3.58575
3.88269
4.20488
4.55148
4.9211
5.31214
5.72304
6.15235
6.59858
7.0599
7.53371
8.01609
8.50134
8.98156
9.44643
9.8832
10.2771
10.6119
10.8712
11.0398
11.1051
11.0584
10.8965
1.91358
1.90954
1.88282
1.83446
1.76643
1.68133
1.58211
1.47173
1.35303
1.22851
1.10033
0.970235
0.839645
0.709652
0.581104
0.45467
0.330904
0.210319
0.0934485
-0.0190942
-0.12656
-0.228024
-0.322356
-0.408224
-0.484129
-0.548494
-0.59981
-0.636837
-0.658851
-0.665869
-0.658782
-0.6393
-0.609628
-0.571923
-0.527683
-0.477308
-0.420003
-0.354056
-0.277422
-0.188465
-0.0866956
0.0267145
0.148817
0.275314
0.401473
0.523261
0.638288
0.746299
0.849136
0.950292
1.05421
1.16545
1.28796
1.42431
1.57535
1.7401
1.9162
2.10073
2.29119
2.48635
2.68673
2.89465
3.11391
3.34929
3.606
3.88901
4.20251
4.54942
4.93105
5.34706
5.79576
6.27468
6.78126
7.31335
7.86941
8.44824
9.04851
9.66799
10.3027
10.9463
11.5891
12.2175
12.8144
13.359
13.8279
14.1969
14.4429
14.5464
14.4939
14.2799
2.40192
2.39713
2.3618
2.29759
2.2076
2.09578
1.96643
1.82377
1.67164
1.51332
1.3515
1.1883
1.02533
0.86377
0.704487
0.548109
0.395131
0.246
0.101206
-0.0386394
-0.172727
-0.299975
-0.418982
-0.527995
-0.624932
-0.707478
-0.773275
-0.820241
-0.846987
-0.853291
-0.840459
-0.811373
-0.769998
-0.720348
-0.665224
-0.605309
-0.538957
-0.462699
-0.372292
-0.264052
-0.136233
0.00990396
0.169696
0.335747
0.49966
0.654288
0.795522
0.923063
1.04019
1.15286
1.26849
1.39464
1.53773
1.70193
1.88833
2.09475
2.31637
2.54726
2.78237
3.01904
3.25773
3.5019
3.75741
4.03159
4.33235
4.66728
5.04271
5.46297
5.92976
6.44202
6.99636
7.58827
8.21347
8.86899
9.55349
10.2668
11.0093
11.7801
12.5765
13.3923
14.2169
15.0338
15.8208
16.5495
17.1874
17.6993
18.0509
18.2121
18.1617
17.8903
2.93402
2.92859
2.88223
2.79775
2.68009
2.53533
2.36978
2.18931
1.99901
1.80301
1.60451
1.40589
1.20884
1.01449
0.823576
0.63655
0.453719
0.275345
0.101754
-0.0665558
-0.228813
-0.383862
-0.530063
-0.665212
-0.786511
-0.890627
-0.973904
-1.0328
-1.0646
-1.06831
-1.04558
-1.00118
-0.94233
-0.876701
-0.809714
-0.742633
-0.672229
-0.591777
-0.492905
-0.367908
-0.212227
-0.0266596
0.181468
0.399155
0.611109
0.804487
0.972353
1.1147
1.23753
1.35104
1.46748
1.59926
1.75693
1.94741
2.17233
2.42736
2.70299
2.98754
3.27113
3.54864
3.82063
4.09263
4.3738
4.67537
5.0093
5.387
5.81812
6.30926
6.86276
7.4761
8.14261
8.85366
9.60173
10.3826
11.1957
12.0433
12.9288
13.8549
14.8218
15.8255
16.8553
17.8929
18.9104
19.8706
20.728
21.4323
21.9324
22.1823
22.1472
21.8109
3.5248
3.51882
3.45739
3.34552
3.19144
3.00467
2.79446
2.56887
2.33443
2.09613
1.85753
1.62108
1.38831
1.16013
0.936923
0.718819
0.505766
0.297687
0.0945922
-0.103288
-0.295373
-0.480576
-0.657137
-0.822448
-0.972905
-1.10385
-1.2097
-1.28445
-1.32273
-1.32145
-1.28198
-1.21187
-1.12448
-1.03508
-0.954413
-0.884818
-0.820047
-0.747458
-0.651221
-0.51604
-0.331362
-0.0958244
0.179346
0.470685
0.749163
0.99127
1.18577
1.33427
1.44816
1.54481
1.64424
1.76641
1.92872
2.14307
2.41279
2.73007
3.07655
3.42896
3.7684
4.08596
4.38326
4.66992
4.96058
5.27232
5.62294
6.0295
6.50683
7.06548
7.70926
8.43331
9.22441
10.0654
10.9424
11.8494
12.7879
13.7648
14.7894
15.8705
17.014
18.2204
19.4821
20.7804
22.0822
23.3391
24.4885
25.4586
26.1739
26.5622
26.5658
26.1542
4.19532
4.18873
4.10503
3.9539
3.74974
3.50769
3.24122
2.96114
2.67543
2.38967
2.10746
1.83095
1.56121
1.29859
1.04295
0.793848
0.550696
0.312902
0.0799825
-0.148297
-0.371766
-0.589651
-0.80032
-1.00097
-1.18729
-1.35309
-1.49016
-1.58852
-1.63769
-1.62945
-1.5624
-1.44734
-1.30942
-1.18077
-1.08306
-1.01995
-0.97902
-0.937081
-0.8655
-0.735336
-0.523628
-0.221968
0.154021
0.560805
0.939652
1.24666
1.4655
1.60373
1.68366
1.73465
1.78832
1.87587
2.02561
2.25908
2.58479
2.99077
3.44161
3.8891
4.29719
4.65249
4.96121
5.24149
5.51702
5.81332
6.15605
6.57012
7.07846
7.69909
8.44017
9.29397
10.2343
11.2251
12.24
13.2708
14.3247
15.4175
16.5686
17.7961
19.1154
20.5355
22.0562
23.6626
25.3185
26.9621
28.507
29.8517
30.8858
31.4961
31.5819
31.0817
4.97767
4.96954
4.84966
4.63856
4.36249
4.04578
3.70757
3.3615
3.01656
2.67817
2.34929
2.03117
1.72398
1.42716
1.13972
0.860464
0.588079
0.321274
0.0588791
-0.200035
-0.455995
-0.708901
-0.9577
-1.19991
-1.43099
-1.64347
-1.82609
-1.96315
-2.03508
-2.02187
-1.91169
-1.71546
-1.48077
-1.28166
-1.16163
-1.12289
-1.1392
-1.16914
-1.16389
-1.0718
-0.845173
-0.454894
0.0845889
0.691386
1.23382
1.62922
1.86153
1.95735
1.96106
1.92085
1.88386
1.89602
2.00218
2.24254
2.64146
3.1871
3.81171
4.40622
4.9022
5.28633
5.58034
5.8201
6.04377
6.28771
6.58666
6.97525
7.48861
8.15948
9.009
10.0302
11.1718
12.3503
13.5148
14.6592
15.8054
16.9867
18.2376
19.5899
21.0717
22.7058
24.507
26.4733
28.5727
30.7274
32.8137
34.692
36.2078
37.1853
37.4418
36.8403
5.92559
5.91113
5.72555
5.41664
5.03365
4.61463
4.18499
3.76001
3.34798
2.95273
2.57538
2.21547
1.87163
1.54201
1.22454
0.917022
0.617275
0.323157
0.0326341
-0.256145
-0.544729
-0.834164
-1.12465
-1.41496
-1.70153
-1.97692
-2.2277
-2.43162
-2.5551
-2.55399
-2.38492
-2.03902
-1.60095
-1.26874
-1.12318
-1.14664
-1.27982
-1.45197
-1.58742
-1.6021
-1.40249
-0.902792
-0.0819101
0.914502
1.73954
2.24646
2.45392
2.44341
2.30151
2.10216
1.90837
1.78059
1.78528
1.99742
2.48659
3.26948
4.2249
5.06493
5.66798
6.04966
6.2773
6.42155
6.54097
6.68254
6.88784
7.20037
7.67161
8.36225
9.33027
10.5925
12.056
13.4951
14.8182
16.0444
17.2351
18.455
19.7599
21.1968
22.808
24.6351
26.7193
29.0918
31.7464
34.5906
37.4192
40.0535
42.3043
43.9122
44.5362
43.8423
7.14201
7.09891
6.77876
6.30115
5.75645
5.19862
4.65557
4.13974
3.65511
3.20139
2.77626
2.37652
1.9987
1.63931
1.29495
0.962343
0.638329
0.319837
0.00386313
-0.312538
-0.632228
-0.957892
-1.29181
-1.63537
-1.9881
-2.34573
-2.6967
-3.01585
-3.25444
-3.32789
-3.11271
-2.49521
-1.56864
-0.986983
-0.841332
-1.01234
-1.3643
-1.78759
-2.1848
-2.4409
-2.39186
-1.81315
-0.501156
1.38437
2.70329
3.29482
3.3601
3.11857
2.72462
2.27544
1.83776
1.47437
1.26959
1.35334
1.90873
3.10334
4.80413
6.06476
6.75237
7.03463
7.09417
7.05863
7.00616
6.98546
7.03447
7.1968
7.53854
8.16544
9.22777
10.8646
12.9751
14.8068
16.2608
17.4805
18.6224
19.8007
21.092
22.5524
24.2329
26.1938
28.5161
31.3037
34.6465
38.4759
42.304
45.9666
49.3258
52.0551
53.5277
52.8751
8.8659
8.68524
8.05838
7.28197
6.49791
5.76109
5.08682
4.47444
3.91767
3.40885
2.94054
2.50599
2.09924
1.71498
1.34847
0.99534
0.651495
0.312967
-0.0242046
-0.364094
-0.711011
-1.06961
-1.44495
-1.84244
-2.26743
-2.72396
-3.21132
-3.71585
-4.19139
-4.51715
-4.41963
-3.39629
-1.0395
-0.0772597
-0.103369
-0.617338
-1.3459
-2.16062
-2.98516
-3.71891
-4.14374
-3.77926
-1.74613
2.67022
4.7145
5.10099
4.70806
4.01325
3.22728
2.43223
1.66028
0.93988
0.338573
0.0302308
0.410529
2.20842
6.0172
7.88973
8.42042
8.3403
8.04792
7.72009
7.4256
7.18803
7.01798
6.93493
6.99493
7.34166
8.29798
10.4549
14.2955
16.6622
18.0408
19.0285
19.9571
20.9834
22.1806
23.5907
25.2538
27.2319
29.6427
32.7159
36.8455
42.3628
47.4266
52.3159
57.254
62.007
65.5792
65.7557
11.8088
10.9138
9.55302
8.27356
7.17112
6.23322
5.42868
4.7288
4.11094
3.55777
3.05601
2.59527
2.16723
1.76497
1.38259
1.01486
0.656907
0.304059
-0.0484293
-0.405588
-0.773017
-1.15724
-1.56619
-2.00989
-2.50135
-3.05773
-3.70119
-4.4575
-5.34392
-6.31585
-7.05961
-6.21746
1.49777
2.25563
1.33706
0.0866434
-1.20345
-2.51951
-3.91619
-5.4417
-7.03213
-8.14815
-6.42296
7.37168
9.11267
8.02929
6.49048
5.03899
3.74285
2.55558
1.40842
0.233789
-1.01439
-2.28458
-3.12908
-1.58234
10.0182
11.6467
10.9677
9.95132
9.05241
8.33324
7.7628
7.29312
6.87595
6.46686
6.0382
5.63987
5.63908
7.6204
17.738
19.9398
20.3835
20.6609
21.1508
21.9195
22.9619
24.2642
25.8208
27.6463
29.8149
32.6062
37.0455
46.9019
52.7996
58.5942
65.4478
73.6583
82.519
87.8704
18.7145
13.8128
10.9302
9.00993
7.60711
6.51313
5.61966
4.86495
4.21095
3.63257
3.11234
2.63744
2.19806
1.78631
1.39565
1.0203
0.655012
0.294684
-0.0658621
-0.432214
-0.810745
-1.20915
-1.63728
-2.10843
-2.64164
-3.2659
-4.02833
-5.01154
-6.37305
-8.44277
-11.983
-18.9356
14.0537
7.00255
3.25534
0.84783
-1.02346
-2.7621
-4.6615
-7.07069
-10.6033
-16.608
-28.4794
29.4302
17.5777
11.6132
8.14703
5.84098
4.10161
2.6212
1.19621
-0.366255
-2.33549
-5.21216
-10.1118
-19.8504
28.3788
18.726
14.0007
11.393
9.79795
8.73214
7.95488
7.32258
6.72233
6.027
5.03787
3.36573
0.126066
-6.93026
32.579
25.7488
22.9652
21.9871
21.9428
22.4613
23.3687
24.5714
26.0003
27.5665
29.0901
30.1231
29.4446
57.1409
58.3204
63.3468
71.6868
84.3725
104.511
139.936
918.468
868.624
815.931
760.55
702.673
642.51
580.283
516.221
450.556
383.516
315.327
246.206
176.369
106.023
35.3747
4.44143
4.24987
4.00775
3.72516
3.41293
3.0815
2.74002
2.39582
2.05428
1.71882
1.39119
1.0717
0.759587
0.453285
0.150674
7.46732
7.1392
6.72452
6.24152
5.70957
5.14705
4.56976
3.99016
3.41709
2.85605
2.30961
1.77797
1.25953
0.751376
0.249719
10.5943
10.1151
9.50959
8.8068
8.03677
7.22735
6.40183
5.57795
4.76787
3.97867
3.21322
2.47103
1.74917
1.04295
0.346539
13.8708
13.217
12.3919
11.4392
10.4033
9.32371
8.23222
7.15194
6.09777
5.07755
4.09354
3.14374
2.22316
1.32471
0.440015
17.3545
16.4901
15.4016
14.1547
12.8134
11.4318
10.0513
8.69977
7.39369
6.14023
4.93964
3.78723
2.67498
1.59269
0.528823
21.1177
19.9869
18.5693
16.9644
15.2634
13.5386
11.8411
10.202
8.63691
7.15
5.73753
4.39055
3.09685
1.84222
0.61141
25.2551
23.77
21.924
19.8698
17.7367
15.618
13.5723
11.63
9.80178
8.08523
6.46989
4.94059
3.47961
2.06794
0.686002
29.8967
27.9138
25.4867
22.854
20.1955
17.6243
15.1997
12.9436
10.8548
8.91913
7.11614
5.42227
3.81304
2.26391
0.750664
35.2283
32.5017
29.255
25.8639
22.5667
19.484
16.6587
14.0898
11.7543
9.62023
7.65316
5.81926
4.08633
2.424
0.8034
41.5271
37.609
33.1672
28.7793
24.723
21.086
17.8612
15.0025
12.4523
10.1542
8.05693
6.11521
4.28897
2.54234
0.842331
49.2175
43.2395
37.0248
31.3628
26.4594
22.2753
18.6974
15.6063
12.898
10.4872
8.30507
6.29559
4.41198
2.61405
0.865903
58.8954
49.1064
40.3293
33.1874
27.4762
22.8583
19.0466
15.8271
13.0459
10.5913
8.3805
6.35005
4.44927
2.63593
0.873132
70.8772
53.9608
41.9981
33.5808
27.3991
22.635
18.8033
15.6094
12.867
10.4514
8.27552
6.27478
4.39906
2.60726
0.863817
81.2363
53.8603
40.1212
31.7379
25.904
21.4791
17.9217
14.9402
12.3609
10.0718
7.99527
6.07443
4.26489
2.53019
0.83869
0.241912
0.725607
1.20885
1.6911
2.17144
2.64842
3.1199
3.58301
4.0346
4.47262
4.90038
5.33691
5.84253
6.5813
7.97335
0.253633
0.760697
1.26705
1.77182
2.27347
2.76937
3.25517
3.72388
4.16456
4.56043
4.8859
5.10042
5.12724
4.75831
3.19547
0.265487
0.796267
1.32632
1.85466
2.37944
2.89726
3.40222
3.8841
4.32554
4.69702
4.94838
4.99412
4.68659
3.76429
1.77031
0.277472
0.832324
1.38675
1.93995
2.49017
3.03402
3.56518
4.07229
4.53499
4.91691
5.15352
5.13298
4.6728
3.51435
1.41915
0.289516
0.868658
1.44801
2.02726
2.60528
3.1795
3.74476
4.29121
4.80041
5.23758
5.53708
5.577
5.14382
3.91483
1.58401
0.301476
0.90483
1.50931
2.11537
2.72296
3.33112
3.93727
4.5359
5.11575
5.65373
6.10069
6.34946
6.16733
5.08036
2.33022
0.313151
0.940201
1.56947
2.20237
2.84019
3.48405
4.1349
4.79348
5.46007
6.13294
6.80169
7.42105
7.81901
7.40075
4.40296
0.324298
0.974007
1.62709
2.28592
2.95315
3.63202
4.32703
5.04538
5.79988
6.61491
7.53675
8.64625
10.0373
11.5123
10.509
0.334665
1.00545
1.68067
2.36358
3.05796
3.76869
4.50283
5.272
6.09752
7.02254
8.14127
9.67572
12.197
17.3445
30.5138
0.344014
1.03379
1.72889
2.43323
3.15135
3.889
4.65419
5.45932
6.32591
7.29548
8.45686
10.0196
12.5325
17.6056
30.6171
0.352143
1.0584
1.77065
2.49324
3.2311
3.9901
4.77768
5.60381
6.48259
7.43505
8.49347
9.70345
11.0899
12.3535
10.8526
0.358897
1.07881
1.80519
2.54261
3.29609
4.07125
4.87429
5.71159
6.58791
7.50086
8.42462
9.26447
9.73218
9.02085
5.11851
0.364167
1.09472
1.83201
2.58075
3.34596
4.13295
4.94699
5.7921
6.66763
7.55897
8.41381
9.08368
9.19302
7.90393
3.78339
0.367885
1.10592
1.85083
2.60739
3.38061
4.17576
4.99798
5.85134
6.73618
7.64224
8.53121
9.29191
9.62472
8.75311
4.84138
0.370019
1.11233
1.86152
2.62238
3.39996
4.19967
5.02722
5.88858
6.78983
7.73717
8.73745
9.79708
10.8926
11.7132
9.90691
0.370566
1.11393
1.86407
2.6257
3.40387
4.20413
5.03283
5.89796
6.81131
7.79515
8.90223
10.2771
12.3509
16.4974
27.4774
0.369551
1.11081
1.8586
2.61748
3.39236
4.18872
5.01302
5.8737
6.78367
7.76736
8.88077
10.2716
12.3697
16.5356
27.5031
0.36703
1.10312
1.84537
2.59808
3.36585
4.1538
4.96781
5.81504
6.70467
7.64932
8.66641
9.77462
10.9521
11.8499
10.0113
0.363089
1.09114
1.82485
2.56816
3.32525
4.10067
4.89942
5.72676
6.58728
7.48079
8.38855
9.22931
9.72839
9.06437
5.14675
0.35784
1.0752
1.79762
2.52861
3.27184
4.03126
4.81103
5.6153
6.4468
7.30217
8.157
8.92104
9.31218
8.53802
4.70983
0.351417
1.05571
1.7644
2.4805
3.20712
3.9476
4.70552
5.48478
6.28958
7.12375
7.9883
8.87149
9.70496
10.1323
8.15573
0.343973
1.03314
1.726
2.42501
3.13271
3.85175
4.58506
5.3364
6.1118
6.92405
7.80643
8.85628
10.3795
13.3958
21.5562
0.335671
1.008
1.68328
2.36344
3.05036
3.74589
4.45198
5.17117
5.90828
6.67551
7.50806
8.51214
10.017
13.0865
21.4212
0.326675
0.980782
1.63713
2.29711
2.96195
3.6326
4.30967
4.99337
5.68372
6.38144
7.09037
7.82004
8.56756
9.12054
7.68412
0.317146
0.951986
1.58842
2.22736
2.86943
3.51476
4.16265
4.81083
5.45388
6.07946
6.6581
7.11535
7.25307
6.53588
3.62173
0.30723
0.922059
1.53794
2.1554
2.77458
3.39507
4.01533
4.6317
5.23605
5.80991
6.30997
6.63238
6.53208
5.47673
2.56572
0.297049
0.891378
1.48634
2.08218
2.67877
3.27546
3.8706
4.46082
5.03926
5.59148
6.08504
6.4428
6.47417
5.70609
3.0516
0.286701
0.860233
1.43411
2.00838
2.58283
3.15684
3.7292
4.298
4.86056
5.41365
5.95427
6.47972
6.97128
7.24531
5.93236
0.276255
0.828831
1.38156
1.93441
2.48715
3.03929
3.59018
4.13942
4.68833
5.24436
5.83387
6.54005
7.61928
9.88643
16.1406
0.265758
0.797303
1.3289
1.86048
2.39182
2.92253
3.45221
3.98096
4.51106
5.05169
5.6323
6.34117
7.44216
9.75855
16.0925
0.255234
0.765718
1.27623
1.78668
2.29687
2.80642
3.3148
3.82147
4.32638
4.83115
5.34153
5.86983
6.42083
6.84049
5.77651
0.244692
0.7341
1.22356
1.71303
2.20232
2.69106
3.17849
3.66309
4.14168
4.60661
5.03817
5.3826
5.49057
4.95257
2.74447
0.234126
0.702428
1.17086
1.63945
2.10811
2.57656
3.04406
3.50881
3.96635
4.40515
4.7952
5.05944
5.00876
4.22432
1.99073
0.223521
0.67065
1.11803
1.56579
2.01401
2.46266
2.91146
3.35945
3.80394
4.23744
4.63948
4.95485
5.0364
4.50234
2.45073
0.212852
0.638684
1.0649
1.49177
1.91956
2.34861
2.77935
3.21245
3.64909
4.09147
4.54384
5.01253
5.49142
5.83411
4.88973
0.202088
0.606435
1.0113
1.41707
1.82419
2.23332
2.64553
3.06292
3.49015
3.93848
4.43676
5.06301
6.04088
8.05956
13.4641
0.191202
0.573813
0.957054
1.34139
1.72739
2.11585
2.50805
2.90647
3.31649
3.75073
4.24069
4.8692
5.86743
7.93353
13.4164
0.180169
0.540741
0.902025
1.26453
1.62885
1.99572
2.36618
2.7419
3.12593
3.5242
3.9483
4.41852
4.95226
5.43458
4.73482
0.168969
0.507161
0.846125
1.18639
1.52851
1.87306
2.22059
2.57148
2.92541
3.27965
3.6238
3.92361
4.07269
3.75639
2.14335
0.157587
0.473035
0.789302
1.10693
1.42645
1.74829
2.07262
2.3989
2.7246
3.04203
3.33
3.53329
3.51622
2.97863
1.40854
0.146013
0.438329
0.731515
1.02614
1.32274
1.62174
1.92325
2.22665
2.52947
2.8248
3.09492
3.29592
3.32112
2.91781
1.53964
0.134233
0.403008
0.672711
0.943957
1.21734
1.49341
1.77253
2.05475
2.33949
2.62502
2.90775
3.18057
3.4235
3.53392
2.85205
0.122236
0.367035
0.612821
0.860265
1.11006
1.36292
1.6196
1.88106
2.14891
2.42712
2.72738
3.08592
3.61782
4.70014
7.65205
0.110008
0.330368
0.551765
0.774923
1.00062
1.22973
1.46332
1.70287
1.95108
2.21388
2.50646
2.8708
3.42983
4.56793
7.60391
0.0975407
0.292973
0.489473
0.687801
0.888794
1.09342
1.30285
1.51863
1.74307
1.9799
2.23564
2.52041
2.83961
3.11765
2.69916
0.0848267
0.25483
0.425901
0.598812
0.774425
0.953739
1.13793
1.32835
1.5264
1.73276
1.9446
2.14604
2.27791
2.15099
1.25255
0.0718676
0.21594
0.361043
0.507933
0.657468
0.810653
0.968654
1.13273
1.30391
1.48176
1.66074
1.81993
1.89589
1.72005
0.921634
0.0586727
0.176328
0.294935
0.415204
0.537962
0.664204
0.795133
0.932162
1.07677
1.22993
1.39059
1.55158
1.68867
1.72141
1.31629
0.0452612
0.136051
0.227666
0.320738
0.416025
0.514483
0.617355
0.726306
0.843649
0.972868
1.12016
1.29979
1.55387
2.02681
3.25776
0.0316628
0.0951971
0.15938
0.224725
0.291874
0.361681
0.435339
0.514602
0.602265
0.703234
0.827237
0.996263
1.26703
1.80576
3.16916
0.0179187
0.0538899
0.0902836
0.127453
0.165869
0.206196
0.249414
0.297048
0.351625
0.41759
0.503022
0.622058
0.794081
1.01197
1.01943
0.0040809
0.0122876
0.0206456
0.0293115
0.0385318
0.0486949
0.0604113
0.0746589
0.093063
0.118417
0.155453
0.211037
0.289257
0.364274
0.290716
-0.00978843
-0.0294206
-0.0492077
-0.0692168
-0.0894623
-0.109888
-0.130355
-0.150625
-0.170333
-0.188873
-0.205005
-0.215715
-0.213353
-0.180257
-0.0853131
-0.0236194
-0.0710214
-0.118907
-0.167581
-0.217331
-0.268443
-0.321258
-0.3763
-0.434543
-0.497837
-0.569232
-0.651546
-0.737309
-0.767737
-0.5139
-0.0373369
-0.112286
-0.188057
-0.265195
-0.34425
-0.425813
-0.510611
-0.599748
-0.69524
-0.80117
-0.925873
-1.08497
-1.29968
-1.55261
-1.47995
-0.0508631
-0.152977
-0.256255
-0.361475
-0.469423
-0.580929
-0.696944
-0.818773
-0.948676
-1.09145
-1.25861
-1.47976
-1.8355
-2.56356
-4.45102
-0.0641191
-0.192858
-0.323101
-0.455853
-0.592119
-0.732905
-0.879228
-1.03218
-1.19316
-1.36478
-1.55385
-1.78106
-2.11271
-2.76932
-4.52991
-0.077026
-0.231692
-0.3882
-0.547783
-0.711664
-0.881022
-1.0569
-1.23999
-1.43022
-1.62596
-1.82257
-2.00978
-2.16424
-2.20839
-1.7381
-0.0895055
-0.269242
-0.451158
-0.63672
-0.827395
-1.0246
-1.22954
-1.44281
-1.66344
-1.88652
-2.09777
-2.26122
-2.29232
-2.00466
-1.03371
-0.10148
-0.305273
-0.511575
-0.722094
-0.938577
-1.16278
-1.39636
-1.6405
-1.89493
-2.15525
-2.40614
-2.60451
-2.64172
-2.27539
-1.09073
-0.112874
-0.339556
-0.569055
-0.803314
-1.04438
-1.29443
-1.55582
-1.83102
-2.12229
-2.4305
-2.75091
-3.05968
-3.27131
-3.11436
-1.83996
-0.123619
-0.371877
-0.623218
-0.879795
-1.14392
-1.41819
-1.70567
-2.01034
-2.33785
-2.69721
-3.10372
-3.58226
-4.15678
-4.72929
-4.25963
-0.133654
-0.40205
-0.673736
-0.951017
-1.2364
-1.53273
-1.84355
-2.17375
-2.53124
-2.93112
-3.40645
-4.03813
-5.04354
-7.06785
-12.2692
-0.142933
-0.42993
-0.720355
-1.0166
-1.32124
-1.63719
-1.96793
-2.31815
-2.69516
-3.11259
-3.60053
-4.23436
-5.22265
-7.19996
-12.3197
-0.151422
-0.455422
-0.762919
-1.07633
-1.39822
-1.73134
-2.07875
-2.44392
-2.83094
-3.24502
-3.69324
-4.18436
-4.71481
-5.1497
-4.42439
-0.159106
-0.478479
-0.80136
-1.13016
-1.46736
-1.81554
-2.1772
-2.55445
-2.94787
-3.35369
-3.75607
-4.10695
-4.27324
-3.90502
-2.17032
-0.165979
-0.49909
-0.83568
-1.17812
-1.52886
-1.89033
-2.26479
-2.65369
-3.05614
-3.46467
-3.85459
-4.15766
-4.20278
-3.6092
-1.72588
-0.172049
-0.517277
-0.865918
-1.22031
-1.58287
-1.95607
-2.34229
-2.74348
-3.16012
-3.58851
-4.01334
-4.38741
-4.57577
-4.20897
-2.3706
-0.17733
-0.533083
-0.892145
-1.25681
-1.62947
-2.01272
-2.40935
-2.82248
-3.25588
-3.71474
-4.20727
-4.74603
-5.3342
-5.83058
-5.03112
-0.181847
-0.546582
-0.914469
-1.28771
-1.66869
-2.06005
-2.4649
-2.88734
-3.33391
-3.81753
-4.369
-5.07026
-6.15626
-8.35196
-14.124
-0.185639
-0.557882
-0.933054
-1.31323
-1.70068
-2.09796
-2.50817
-2.9354
-3.38613
-3.87312
-4.4266
-5.12722
-6.20757
-8.38958
-14.1384
-0.188758
-0.567137
-0.948147
-1.33367
-1.72579
-2.12686
-2.53957
-2.96707
-3.4131
-3.88247
-4.38194
-4.92039
-5.49369
-5.95012
-5.07795
-0.191273
-0.574555
-0.960087
-1.34951
-1.74466
-2.14763
-2.56066
-2.98581
-3.4238
-3.87084
-4.31012
-4.68924
-4.86088
-4.43316
-2.46446
-0.193273
-0.580399
-0.969306
-1.36134
-1.75808
-2.16137
-2.57327
-2.99556
-3.42813
-3.86452
-4.27999
-4.60208
-4.64418
-3.98625
-1.90664
-0.194868
-0.584993
-0.976335
-1.36988
-1.7669
-2.16909
-2.57862
-2.9981
-3.42975
-3.87265
-4.31463
-4.70927
-4.91353
-4.52652
-2.55274
-0.196189
-0.588731
-0.981813
-1.37598
-1.77211
-2.17165
-2.57701
-2.99214
-3.42347
-3.88134
-4.38204
-4.94857
-5.59339
-6.16862
-5.37356
-0.197394
-0.592082
-0.986517
-1.38069
-1.77491
-2.17013
-2.56856
-2.97487
-3.3987
-3.86022
-4.40365
-5.13343
-6.32145
-8.76219
-15.1054
-0.198662
-0.595597
-0.991384
-1.38534
-1.77697
-2.16633
-2.55457
-2.94536
-3.34769
-3.78214
-4.29574
-4.99996
-6.17946
-8.64551
-15.058
-0.200196
-0.599897
-0.997504
-1.39156
-1.78059
-2.16325
-2.53876
-2.90778
-3.27429
-3.64902
-4.05537
-4.53632
-5.14389
-5.78811
-5.21326
-0.202204
-0.605637
-1.00607
-1.40125
-1.78859
-2.1651
-2.52738
-2.87187
-3.19512
-3.49387
-3.76311
-3.98466
-4.08276
-3.77716
-2.20991
-0.204885
-0.613448
-1.01825
-1.41635
-1.80408
-2.17677
-2.52832
-2.85066
-3.13287
-3.35916
-3.50388
-3.51864
-3.30191
-2.64227
-1.18745
-0.208401
-0.623855
-1.03508
-1.43861
-1.82997
-2.20307
-2.54947
-2.85725
-3.10939
-3.28102
-3.33481
-3.21331
-2.82857
-2.05953
-0.803903
-0.212848
-0.637184
-1.05722
-1.4693
-1.86851
-2.24788
-2.59738
-2.90242
-3.14174
-3.28463
-3.2874
-3.09071
-2.62202
-1.81466
-0.664912
-0.218235
-0.653488
-1.08485
-1.50889
-1.92077
-2.31338
-2.67611
-2.99315
-3.24101
-3.38546
-3.37841
-3.15695
-2.6506
-1.8075
-0.650962
-0.224461
-0.672477
-1.11755
-1.5569
-1.98637
-2.39956
-2.78652
-3.13186
-3.41201
-3.59144
-3.61822
-3.42094
-2.91296
-2.01798
-0.737956
-0.231309
-0.693496
-1.1542
-1.61173
-2.06324
-2.50391
-2.92576
-3.31576
-3.65287
-3.90332
-4.01354
-3.9006
-3.44399
-2.4958
-0.960962
-0.238451
-0.715531
-1.19301
-1.6707
-2.14759
-2.62127
-3.08704
-3.53631
-3.95381
-4.31249
-4.56373
-4.61881
-4.31632
-3.38095
-1.45274
-0.245463
-0.737269
-1.23166
-1.7302
-2.23411
-2.74407
-3.25971
-3.77882
-4.29548
-4.79614
-5.25
-5.58522
-5.62804
-4.9555
-2.6231
-0.251859
-0.757191
-1.26741
-1.78593
-2.31639
-2.86285
-3.42991
-4.02293
-4.64815
-5.31213
-6.01853
-6.75454
-7.43638
-7.68266
-5.81678
-0.257127
-0.773702
-1.29737
-1.83332
-2.38753
-2.96728
-3.582
-4.24457
-4.97375
-5.79851
-6.76637
-7.96134
-9.54687
-11.8764
-15.7934
57.2998
42.7467
33.9481
27.8991
23.3391
19.6831
16.6248
13.9854
11.6509
9.54352
7.60653
5.79652
4.07853
2.42299
0.803701
20.9407
27.3018
26.0106
23.2042
20.2908
17.5815
15.119
12.8803
10.8295
8.93145
7.155
5.47286
3.86094
2.29758
0.762727
9.24821
17.1708
19.1252
18.5834
17.1005
15.3084
13.4577
11.6447
9.90186
8.23488
6.63793
5.10037
3.6096
2.15235
0.715218
4.89858
11.1842
13.973
14.6159
14.1247
13.0758
11.7702
10.3602
8.92146
7.48959
6.07957
4.69535
3.33494
1.99314
0.663052
2.98746
7.62587
10.3108
11.4357
11.5363
11.0214
10.1549
9.09568
7.9362
6.72906
5.50325
4.27377
3.04734
1.82578
0.608113
2.00444
5.42404
7.73192
8.96691
9.37508
9.211
8.6734
7.90067
6.98396
5.98144
4.92942
3.85002
2.75632
1.65571
0.552167
1.43062
3.99419
5.89803
7.07218
7.61118
7.65992
7.35509
6.80556
6.09124
5.26815
4.37457
3.43618
2.47008
1.48767
0.496764
1.06349
3.02246
4.5708
5.61845
6.18767
6.3543
6.20663
5.82484
5.274
4.60378
3.85079
3.04155
2.19515
1.32551
0.443177
0.813008
2.33587
3.59123
4.49691
5.04367
5.26689
5.2207
4.96147
4.53962
3.99683
3.36604
2.6727
1.93633
1.17214
0.392383
0.634155
1.83503
2.85447
3.62458
4.12431
4.36652
4.38266
4.21098
3.88919
3.45097
2.92471
2.33369
1.69682
1.02958
0.345063
0.502128
1.46016
2.29082
2.93996
3.38374
3.62309
3.67503
3.56469
3.31959
2.9662
2.52831
2.02651
1.47839
0.899014
0.301631
0.402197
1.17373
1.85321
2.39794
2.7851
3.00977
3.08005
3.01196
2.82516
2.5401
2.17627
1.75148
1.28164
0.780942
0.262279
0.325084
0.951199
1.50916
1.9653
2.29928
2.50363
2.58114
2.54163
2.39895
2.16866
1.86655
1.50773
1.1063
0.675338
0.227019
0.26467
0.775991
1.23581
1.61748
1.90347
2.08555
2.16346
2.14292
2.03355
1.84709
1.59618
1.29354
0.951476
0.581778
0.195729
0.216767
0.636539
1.01672
1.3361
1.57981
1.73978
1.81413
1.8059
1.72165
1.57024
1.36174
1.10672
0.815829
0.499566
0.168194
0.178418
0.524574
0.839852
1.10724
1.31427
1.45347
1.52214
1.52163
1.45639
1.33304
1.15958
0.944787
0.697797
0.427842
0.144139
0.147483
0.434048
0.696227
0.920299
1.09582
1.21612
1.27818
1.28231
1.23147
1.13061
0.986107
0.80521
0.595707
0.365662
0.123261
0.122379
0.360454
0.579061
0.767058
0.915728
1.01919
1.07444
1.08116
1.04126
0.958491
0.837899
0.685489
0.507877
0.312058
0.105244
0.101916
0.300376
0.483145
0.641121
0.767018
0.855724
0.904396
0.912355
0.880828
0.812622
0.71178
0.583264
0.432684
0.266085
0.0897786
0.0851836
0.251192
0.404443
0.537455
0.644129
0.720054
0.762616
0.770966
0.745856
0.689409
0.604872
0.496355
0.368613
0.226851
0.0765696
0.0714771
0.210864
0.339793
0.452073
0.542589
0.607544
0.644587