/*--------------------------------*- C++ -*----------------------------------*\
| =========                 |                                                 |
| \\      /  F ield         | OpenFOAM: The Open Source CFD Toolbox           |
|  \\    /   O peration     | Version:  5.x                                   |
|   \\  /    A nd           | Web:      www.OpenFOAM.org                      |
|    \\/     M anipulation  |                                                 |
\*---------------------------------------------------------------------------*/
FoamFile
{
    version     2.0;
    format      ascii;
    class       volScalarField;
    location    "1.1";
    object      gradTx;
}
// * * * * * * * * * * * * * * * * * * * * * * * * * * * * * * * * * * * * * //

dimensions      [0 -1 0 1 0 0 0];

internalField   nonuniform List<scalar> 
6300
(
15822.6
15778.4
15689.6
15555.8
15376.4
15150.8
14878.3
14558.5
14191.5
13777.9
13319.3
12818.3
12278.8
11706.3
11107.2
15865.8
15821.8
15733.5
15600.3
15421.6
15196.6
14924.6
14604.8
14237.2
13822.1
13360.8
12855.9
12311.1
11732
11125.2
15952
15908.5
15821.1
15689.2
15512.1
15288.5
15017.5
14698
14329.3
13911.4
13445
12932.4
12377
11784.5
11162
16080.6
16037.9
15952.1
15822.5
15647.8
15426.8
15157.8
14839.3
14469.7
14048.1
13574.7
13050.7
12479.3
11866.2
11219.1
16250.8
16209.3
16125.9
15999.6
15828.9
15612.1
15346.8
15030.6
14661
14235.9
13754
13215.4
12622.6
11981
11299.3
16461.3
16421.6
16341.5
16220
16055.2
15844.7
15585.6
15274.2
14906.8
14479.5
13988.9
13433.4
12813.8
12135
11406.8
16710.5
16673.1
16597.5
16482.5
16326
16124.9
15875.5
15572.9
15211.6
14785.3
14287.9
13714.5
13063.3
12337.5
11548.2
16996
16961.5
16891.8
16785.5
16640.2
16452.3
16217.4
15929.3
15580.3
15161.2
14662
14072.6
13386.3
12602.9
11733.5
17314.7
17284
17221.7
17126.4
16995.7
16825.7
16611.4
16345.4
16018
15616.4
15125.1
14526.7
13805.5
12953.4
11979.2
17663.1
17636.7
17583.4
17501.6
17389.2
17242.4
17055.9
16821.9
16528.7
16160.2
15694.2
15102.7
14354.6
13425.2
12313
18036.6
18015.3
17972.3
17906.4
17815.8
17697.6
17546.9
17356.3
17113.6
16800.3
16387.7
15834.1
15084.3
14078.7
12784.6
18430.2
18414.5
18382.8
18334.6
18268.9
18184
18076.7
17941.4
17768.1
17538.6
17221.2
16760.8
16068.6
15019.7
13492.5
18838.3
18828.3
18808.5
18779
18740
18691.5
18633.3
18563.4
18477.4
18363.8
18196.5
17918.1
17408.6
16437.8
14654.5
19255.1
19250.8
19242.6
19231.6
19219.2
19207.7
19200.1
19200.4
19213.1
19241.3
19281.5
19305.5
19208.6
18667.3
16828.6
19674.8
19675.7
19678.3
19684.2
19696.2
19718.5
19757.7
19823.8
19931.9
20105.6
20381.4
20812.3
21451.7
22193
21709
10541.9
10019.4
9494.27
8971.6
8456.2
7952.49
7464.34
6995.04
6547.25
6122.96
5723.58
5350
5002.6
4681.38
4386
4115.88
3870.2
3647.99
3448.15
3269.48
3110.69
2970.41
2847.2
2739.56
2645.92
2564.67
2494.17
2432.75
2378.79
2330.7
2287.04
2246.46
2207.81
2170.1
2132.52
2094.39
2055.13
2014.26
1971.3
1925.82
1877.41
1825.7
1770.39
1711.26
1648.18
1581.12
1510.1
1435.19
1356.42
1273.77
1187.13
1096.28
1000.89
900.505
794.635
682.725
564.205
438.507
305.062
163.288
12.5709
-147.774
-318.529
-500.601
-695.033
-903.012
-1125.85
-1364.97
-1621.85
-1898.01
-2194.98
-2514.22
-2857.14
-3225.08
-3619.25
-4040.71
-4490.39
-4968.96
-5476.84
-6014.05
-6580.14
-7174.08
-7794.16
-8437.89
-9101.97
-9782.24
-10473.8
-11170.9
-11867.6
-12557.3
10552.2
10022.4
9490.07
8960.52
8438.81
7929.53
7436.68
6963.61
6512.95
6086.66
5686.06
5311.93
4964.56
4643.84
4349.34
4080.4
3836.13
3615.52
3417.43
3240.64
3083.83
2945.63
2824.59
2719.21
2627.9
2549.03
2480.92
2421.86
2370.16
2324.19
2282.44
2243.54
2206.31
2169.78
2133.17
2095.87
2057.34
2017.13
1974.8
1929.92
1882.04
1830.78
1775.79
1716.84
1653.81
1586.71
1515.62
1440.65
1361.92
1279.44
1193.13
1102.77
1008
908.358
803.288
692.203
574.512
449.641
317.04
176.164
26.4413
-132.767
-302.206
-482.76
-675.472
-881.545
-1102.33
-1339.29
-1593.96
-1867.92
-2162.74
-2479.93
-2820.93
-3187.1
-3579.68
-3999.8
-4448.46
-4926.43
-5434.23
-5972.05
-6539.58
-7135.95
-7759.56
-8408.03
-9078.04
-9765.38
-10464.9
-11170.9
-11876.7
-12575.7
10573.2
10028.4
9481.23
8937.56
8402.94
7882.36
7380.06
6899.45
6443.14
6012.96
5610.05
5234.98
4887.81
4568.22
4275.59
4009.1
3767.73
3550.38
3355.82
3182.79
3029.95
2895.93
2779.25
2678.41
2591.8
2517.74
2454.47
2400.2
2353.12
2311.46
2273.59
2238.06
2203.65
2169.43
2134.71
2098.97
2061.83
2022.92
1981.86
1938.2
1891.44
1841.1
1786.77
1728.18
1665.22
1597.96
1526.62
1451.46
1372.72
1290.54
1204.88
1115.53
1022.08
923.972
820.556
711.157
595.127
471.884
340.921
201.775
53.9756
-103.011
-269.848
-447.372
-636.619
-838.83
-1055.43
-1288
-1538.18
-1807.68
-2098.14
-2411.18
-2748.28
-3110.85
-3500.2
-3917.55
-4364.01
-4840.59
-5348.04
-5886.85
-6457.06
-7058.1
-7688.67
-8346.57
-9028.54
-9730.26
-10446.3
-11170.2
-11894.9
-12612.9
10605.5
10037.2
9466.7
8900.93
8346.28
7808.34
7291.67
6799.81
6335.24
5899.56
5493.59
5117.5
4771.01
4453.46
4163.93
3901.35
3664.51
3452.15
3262.98
3095.64
2948.8
2821.04
2710.93
2616.94
2537.45
2470.72
2414.9
2368.04
2328.11
2293.13
2261.23
2230.81
2200.58
2169.67
2137.55
2103.96
2068.73
2031.69
1992.54
1950.81
1905.86
1857.05
1803.79
1745.7
1682.69
1614.99
1543.03
1467.33
1388.4
1306.57
1221.89
1134.13
1042.8
947.172
846.394
739.62
626.094
505.221
376.572
239.838
94.744
-59.057
-222.077
-395.065
-579.047
-775.329
-985.474
-1211.24
-1454.48
-1717.1
-2000.9
-2307.6
-2638.76
-2995.82
-3380.15
-3793.08
-4235.92
-4709.94
-5216.33
-5756.05
-6329.68
-6937.24
-7577.91
-8249.87
-8950.02
-9673.87
-10415.5
-11167.7
-11922.2
-12670
10650.4
10048.4
9444.71
8847.67
8265
7703.13
7167.07
6660.38
6185.3
5742.98
5333.69
4957.05
4612.21
4298.03
4013.19
3756.25
3525.78
3320.32
3138.45
2978.79
2839.95
2720.56
2619.21
2534.41
2464.55
2407.83
2362.29
2325.73
2295.82
2270.2
2246.6
2223.12
2198.36
2171.52
2142.39
2111.15
2078.09
2043.37
2006.83
1967.91
1925.74
1879.3
1827.64
1770.18
1706.83
1638.06
1564.7
1487.77
1408.19
1326.6
1243.23
1157.82
1069.66
977.726
880.817
777.762
667.607
549.728
423.845
289.931
148.051
-1.8171
-159.931
-326.895
-503.716
-691.81
-892.956
-1109.21
-1342.78
-1595.88
-1870.55
-2168.65
-2491.76
-2841.32
-3218.69
-3625.28
-4062.62
-4532.37
-5036.28
-5576.02
-6153.03
-6768.21
-7421.6
-8112.03
-8836.75
-9591.21
-10368.8
-11161.2
-11958.2
-12748.9
10709.6
10061.6
9412.41
8773.11
8153.19
7560.24
6999.69
6474.96
5987.75
5538.43
5126.4
4750.44
4408.94
4100.07
3821.97
3572.8
3350.8
3154.29
2981.75
2831.73
2702.89
2593.91
2503.48
2430.21
2372.55
2328.7
2296.57
2273.68
2257.22
2244.2
2231.67
2217.15
2198.97
2176.51
2150.14
2120.84
2089.72
2057.54
2024.39
1989.56
1951.66
1908.93
1859.72
1803.01
1738.69
1667.64
1591.43
1511.92
1430.77
1349.13
1267.45
1185.38
1101.88
1015.38
924.035
826.083
720.205
605.73
482.661
351.484
212.856
67.304
-85.0225
-244.502
-412.113
-589.441
-778.614
-982.175
-1202.88
-1443.46
-1706.34
-1993.51
-2306.5
-2646.57
-3014.92
-3412.94
-3842.36
-4305.31
-4804.27
-5341.95
-5921
-6543.7
-7211.44
-7924.23
-8680.08
-9474.52
-10300.3
-11147.2
-12002.7
-12852.3
10786.1
10075.6
9365.3
8670.03
8001.99
7370.18
6780.27
6235.09
5735.24
5279.79
4866.82
4493.9
4158.35
3857.51
3588.84
3350
3138.86
2953.54
2792.41
2654
2537.05
2440.38
2362.88
2303.36
2260.48
2232.55
2217.4
2212.22
2213.53
2217.33
2219.45
2216.29
2205.6
2187.01
2161.97
2133
2102.73
2072.98
2044.26
2015.52
1984.41
1947.75
1902.5
1846.68
1780.12
1704.52
1622.83
1538.34
1453.97
1371.65
1292.13
1214.92
1138.37
1059.96
976.704
885.77
785.139
674.072
553.13
423.748
287.625
146.182
0.198506
-150.374
-306.484
-469.97
-643.494
-830.374
-1034.28
-1258.83
-1507.03
-1781.04
-2082.09
-2410.91
-2768.21
-3155.15
-3573.56
-4026.09
-4516.19
-5047.93
-5625.72
-6253.87
-6935.94
-7673.9
-8467.24
-9312.09
-10200.5
-11120.2
-12054.7
-12984.5
10883.9
10088.5
9295.98
8527.14
7798.08
7119.27
6495.99
5929.53
5418.43
4959.63
4549.27
4183.22
3857.49
3568.36
3312.52
3087.06
2889.51
2717.78
2570.15
2445.2
2341.83
2259.09
2196.22
2152.41
2126.74
2117.86
2123.71
2141.25
2166.13
2192.73
2214.69
2226.14
2223.45
2206.65
2179.31
2146.92
2114.85
2086.82
2064
2044.78
2025
1998.84
1960.38
1905.7
1834.47
1750.08
1658.12
1564.52
1474.12
1390.05
1313.42
1243.43
1177.48
1111.45
1040.37
959.366
865.054
756.595
635.721
505.698
370.043
231.595
92.0345
-48.2571
-190.203
-336.004
-489.091
-653.984
-835.903
-1040.02
-1270.47
-1529.49
-1817.53
-2134.05
-2478.65
-2851.82
-3255.36
-3692.5
-4167.84
-4687.26
-5257.54
-5885.98
-6579.47
-7343.29
-8179.65
-9086.26
-10055.1
-11071.2
-12112.7
-13151.9
11009.8
10096.7
9191.92
8326.38
7521.29
6787.9
6129.44
5543.81
5025.93
4569.4
4167.58
3814.22
3503.66
3231.04
2992.21
2783.73
2602.79
2447.13
2315.03
2205.19
2116.72
2049.06
2001.94
1975.21
1968.69
1981.78
2013.07
2059.58
2116.1
2174.67
2224.93
2256.21
2261.49
2241.32
2203.78
2160.22
2121.02
2093.01
2078.44
2074.72
2074.65
2067.49
2041.52
1988.43
1907.65
1806.43
1695.69
1585.96
1485.08
1397.63
1325.07
1266.06
1216.6
1170.16
1118.26
1052.07
965.288
856.952
731.453
595.728
456.466
318.599
184.922
56.2512
-68.3531
-191.517
-317.649
-453.027
-605.486
-783.236
-992.65
-1236.06
-1511.83
-1816.62
-2147.78
-2504.56
-2888.56
-3303.62
-3755.76
-4252.99
-4805.26
-5424.02
-6121.27
-6907.72
-7790.35
-8770.28
-9840.77
-10984.8
-12173
-13364.6
11174.1
10092
9030.77
8037.99
7140.74
6348.15
5657.56
5060.13
4544.71
4100.03
3715.83
3383.28
3094.97
2844.84
2628
2440.55
2279.46
2142.41
2027.71
1934.26
1861.48
1809.32
1778.16
1768.79
1782.24
1819.39
1880.37
1963.36
2063
2168.43
2262.34
2323.59
2336.02
2300.88
2236.77
2167.11
2110.94
2079.72
2077.12
2099.25
2134.4
2163.12
2161.56
2110.89
2010.16
1876.35
1731.71
1594.57
1476.62
1383.67
1317.11
1274.86
1251.3
1236.66
1216.65
1174.36
1096.5
981.973
841.863
690.818
540.857
399.552
270.592
154.905
51.4322
-42.7368
-132.866
-227.435
-338.602
-480.792
-665.801
-895.958
-1164.21
-1461.1
-1779.85
-2117.94
-2476.81
-2861.15
-3278.48
-3739.19
-4256.9
-4848.67
-5534.22
-6333.16
-7260.39
-8323.31
-9519.93
-10834
-12227.8
-13638.5
11394.9
10056.6
8770.37
7611.5
6608.99
5761.1
5051.19
4458.09
3961.35
3543.3
3189.48
2888.41
2631.08
2410.5
2221.27
2059.26
1921.38
1805.35
1709.65
1633.42
1576.45
1539.2
1522.87
1529.41
1561.54
1622.58
1715.83
1843.04
2001.43
2178.61
2346.66
2461.12
2478.9
2402
2277.6
2154.43
2064.81
2025.09
2040.05
2104.93
2203.25
2302.2
2352.18
2305.31
2160.16
1961.76
1756.82
1575.43
1432.07
1331.62
1274.09
1256.65
1273.08
1310.83
1347.04
1347.8
1280.45
1143.77
967.969
784.304
612.751
462.709
337.139
235.967
157.825
100.237
58.325
22.0817
-27.0139
-116.651
-273.886
-500.933
-775.256
-1073.99
-1383.95
-1701.25
-2028.21
-2370.96
-2738.49
-3143.04
-3601.59
-4137.92
-4783.52
-5573.42
-6534.56
-7683.22
-9029.33
-10567.7
-12257.3
-14000.1
11704.7
9945.32
8326.09
6959.32
5854.16
4974.96
4276.23
3716.94
3264.37
2893.82
2586.96
2330.36
2114.1
1930.85
1775.18
1643.1
1531.68
1438.89
1363.44
1304.73
1262.9
1238.88
1234.55
1253.06
1299.1
1379.3
1502.27
1677.71
1912.66
2201.82
2507.98
2737.71
2757.97
2571.37
2316.52
2093.29
1946.72
1891.57
1930.96
2062.31
2271.08
2511.64
2682.14
2641.11
2386.69
2056.48
1747.92
1501.42
1325.63
1217.68
1173.24
1189.6
1264.09
1387.14
1528.38
1619.24
1564.14
1361.84
1105.34
860.3
653.637
490.597
368.533
283.852
234.614
220.637
241.356
290.111
342.963
344.848
218.583
-37.7876
-351.096
-670.626
-977.372
-1270.53
-1556.73
-1844.92
-2145.01
-2468.92
-2834.02
-3269.54
-3824.71
-4566.7
-5538.28
-6758.29
-8261.25
-10083
-12209.4
-14496.5
12168.6
9631.68
7517.71
5929.93
4773.49
3928.63
3300.21
2821.85
2449.09
2152.4
1911.91
1714.06
1549.42
1411.33
1295.02
1197.07
1115.07
1047.37
993.018
951.662
923.639
910.096
913.27
936.973
987.383
1074.32
1213.08
1426.58
1745.72
2200.39
2779.2
3315.77
3334.72
2838.87
2309.76
1921.61
1696.85
1621.81
1689.33
1908.07
2292.98
2821.81
3316.53
3284
2722.21
2119.91
1649.53
1325.5
1121.41
1012.23
984.766
1038.79
1185.06
1437.16
1782.16
2100.76
2059.7
1657.86
1226.13
880.982
631.665
459.452
346.076
280.687
260.616
291.066
384.004
552.229
786.315
990.869
898.4
507.36
82.0543
-285.62
-590.296
-849.732
-1082.26
-1301.62
-1517.09
-1735.32
-1964.83
-2228.65
-2596.59
-3229.06
-4183.87
-5425.44
-7033.56
-9158.76
-11929.5
-15218.3
12929.2
8708.34
5951.09
4279.06
3243.83
2570.34
2107.89
1774.48
1524.13
1329.91
1175.32
1049.82
946.42
860.357
788.322
727.996
677.766
636.571
603.81
579.328
563.462
557.18
562.369
582.368
623.01
694.641
816.179
1023.23
1383.5
2020.06
3111.05
4639
4652.59
3154.07
2099.88
1514.55
1231.25
1146.69
1229.82
1514.42
2107.51
3180.9
4709.97
4688.84
3115.88
1993.23
1340.29
976.77
780.468
689.031
678.887
755.069
953.571
1353.32
2073.85
3100.06
3074.65
1996.82
1222.17
763.614
498.623
343.553
254.497
212.248
213.856
271.496
418.22
719.475
1272.15
2064.55
2008.11
1101.83
432.217
8.69412
-268.317
-467.62
-626.687
-763.821
-885.059
-985.382
-1046.07
-1037.67
-987.375
-1427.02
-2416.23
-3564.39
-5060.8
-7304.35
-10902.6
-16357
14311.5
5676.87
2821.36
1710.87
1193.04
907.996
729.606
607.381
518.226
450.262
396.775
353.686
318.382
289.121
264.713
244.332
227.411
213.582
202.641
194.548
189.443
187.711
190.103
198.001
213.969
243.052
296.091
399.183
623.314
1185.23
2813.5
8142.63
8147.59
2829.24
1214.69
672.461
479.392
430.002
480.122
676.436
1230.28
2883.61
8335.38
8328.03
2860.9
1190.04
614.207
387.185
288.469
248.726
248.656
295.16
432.214
807.492
1925.2
5613.48
5604.87
1899.08
762.933
367.469
207.262
132.574
95.4993
80.6435
86.3974
123.631
229.887
524.634
1412.71
4360.44
4341.46
1355.43
427.992
92.0366
-58.2155
-143.414
-202.649
-248.86
-283.087
-292.438
-226.728
93.0863
1327.44
1166.54
-419.529
-1201.64
-2011.82
-3498.75
-7202.1
-18338.2
-13299.6
-14082.5
-14826.8
-15524.6
-16169.5
-16757
-17284.4
-17750.3
-18154.5
-18497.6
-18780.7
-19005.1
-19172
-19282.6
-19337.8
-13327.6
-14120
-14872.4
-15576.5
-16225.8
-16816.1
-17344.7
-17810.8
-18214.4
-18556.4
-18838.1
-19061.2
-19227.1
-19336.9
-19391.6
-13384.7
-14196.7
-14965.4
-15682
-16340.1
-16935.6
-17466.5
-17932.6
-18334.6
-18674.1
-18953.1
-19173.4
-19336.9
-19445
-19498.8
-13473.1
-14315.6
-15109.4
-15845
-16515.8
-17118.5
-17652
-18117.2
-18516.1
-18851.2
-19125.3
-19341.1
-19500.7
-19606.1
-19658.5
-13596.6
-14482.2
-15310.8
-16071.7
-16758.6
-17369.4
-17904.6
-18366.9
-18760.1
-19088
-19354.6
-19563.5
-19717.5
-19818.9
-19869.2
-13761.1
-14704.8
-15578.8
-16371.2
-17076.5
-17694.6
-18228.9
-18684.7
-19068
-19384.7
-19640.4
-19839.5
-19985.6
-20081.5
-20129
-13975.8
-14996.1
-15927.4
-16756.6
-17480.4
-18102.5
-18630.5
-19073.6
-19441.1
-19741.4
-19981.4
-20167.1
-20302.6
-20391.2
-20435
-14254.7
-15375.5
-16377.1
-17246.4
-17984.9
-18603.2
-19115.7
-19536.9
-19880.3
-20156.8
-20375.6
-20543.3
-20665.1
-20744.4
-20783.4
-14620.7
-15873.1
-16958.1
-17865.7
-18608.4
-19208.6
-19690.8
-20076.8
-20384.8
-20628.8
-20819.4
-20964.2
-21068.6
-21136.3
-21169.6
-15111.3
-16537.2
-17715.1
-18648.8
-19373.1
-19930.8
-20360.6
-20693.4
-20952
-21152.9
-21307.6
-21424
-21507.4
-21561.2
-21587.7
-15794.1
-17448.3
-18715.1
-19639.9
-20303.2
-20779.6
-21126.2
-21382.7
-21575.5
-21721.8
-21832.7
-21915.4
-21974.2
-22012.2
-22030.7
-16799.9
-18745.6
-20055.7
-20891.4
-21418.7
-21756.7
-21980.4
-22134.3
-22244.1
-22324.6
-22384.6
-22429
-22460.6
-22480.9
-22490.9
-18414.6
-20677.4
-21869.3
-22449.9
-22722.1
-22846.8
-22903
-22928.5
-22940.3
-22946.6
-22950.7
-22954
-22956.6
-22958.5
-22959.5
-21363.8
-23678.4
-24293
-24315.3
-24171.4
-24003.7
-23855.1
-23734.5
-23640.6
-23569.2
-23516.2
-23478.1
-23451.9
-23435.5
-23427.6
-27839.2
-28378
-27307.1
-26345.5
-25642.7
-25140.2
-24777.5
-24512.3
-24316.6
-24171.8
-24065.4
-23988.7
-23935.7
-23902.3
-23886.2
20057.6
20062.5
20073.5
20092.4
20122.7
20170.1
20243.1
20355.4
20529.4
20803.1
21246.2
22001.1
23413.3
26546.7
35620.1
20401.1
20409.1
20426.2
20454.5
20497.7
20561.9
20656.1
20795
21002.4
21318.4
21814.8
22624.5
24000.1
26378.4
29997
20738.1
20748.5
20770.1
20805.2
20857.3
20931.8
21037.1
21186.1
21398.8
21707.5
22164.7
22853.8
23889.6
25347.5
26900.9
21067
21079
21103.8
21143.2
21200.2
21279.3
21386.9
21532
21727.7
21992.5
22352.7
22841.2
23484.7
24249
24898.1
21386.6
21399.6
21426.2
21467.9
21526.8
21606.1
21709.5
21841.7
22007.4
22210.2
22450.4
22719.9
22994.9
23229.5
23360.3
21696.3
21709.7
21737.2
21779.6
21838.3
21915.1
22011.3
22127.2
22260.2
22400.9
22526.9
22593.8
22532.1
22280.8
21927.9
21995.5
22009.1
22036.8
22078.9
22136.3
22209.6
22298.2
22399.8
22506.6
22600.7
22643.2
22555.9
22199.8
21401.7
20265
22284.2
22297.8
22325.2
22366.6
22422.3
22492.3
22575.3
22667.6
22760.7
22835.4
22848.8
22703.6
22173.3
20756.7
17827.4
22562.4
22575.8
22602.8
22643.3
22697.4
22765
22844.7
22933.8
23026.6
23111.5
23163.3
23117.7
22761.4
21161.1
13370.3
22830.3
22843.5
22869.8
22909.4
22962.2
23028.1
23106.5
23196.4
23297
23409.6
23544.2
23746.6
24212.2
25863.4
33650.3
23087.9
23100.8
23126.6
23165.3
23217
23281.5
23359.1
23450.4
23558
23691.2
23877.1
24191.6
24838.4
26303.8
29220.8
23335.5
23348.1
23373.4
23411.2
23461.6
23524.8
23601.3
23691.9
23800.1
23935.1
24119.4
24404.7
24895.1
25734.7
26832.6
23573.3
23585.6
23610.2
23647.1
23696.3
23758
23832.4
23920
24022.5
24143.7
24290.5
24474.4
24708
24985.2
25222.3
23801.4
23813.4
23837.4
23873.4
23921.3
23981.2
24053.1
24136.6
24230.9
24333.3
24434.6
24508.3
24489.6
24262.3
23792.5
24020
24031.7
24055.2
24090.3
24136.9
24195.1
24264.7
24344.6
24432.6
24522.6
24596.8
24605.3
24414.8
23706.8
22052.1
24229.4
24240.8
24263.7
24297.9
24343.4
24400.1
24467.8
24545.7
24631.8
24721.8
24803.4
24839.4
24698.3
23807.6
19178.4
24429.7
24440.9
24463.2
24496.6
24541
24596.4
24662.8
24739.8
24827.1
24925.7
25040.5
25195.3
25501.1
26503.6
31168.5
24621.1
24632
24653.8
24686.4
24729.8
24784.1
24849.2
24925.4
25013.5
25117.3
25248.6
25445.2
25818.8
26655.1
28351.8
24803.8
24814.5
24835.7
24867.6
24910
24963
25026.9
25101.6
25187.9
25288.5
25410.1
25571.1
25813.9
26207.8
26729.6
24978
24988.4
25009.1
25040.2
25081.6
25133.4
25195.7
25268.5
25351.4
25443.9
25543.1
25639.1
25702.9
25670.5
25486.3
25143.8
25153.9
25174.2
25204.5
25244.9
25295.4
25356.2
25427
25506.9
25593.5
25677.2
25728.1
25657.6
25237.4
24131.7
25301.4
25311.3
25331
25360.5
25399.9
25449.2
25508.6
25577.9
25656.8
25743.8
25832.8
25900.3
25853.9
25279.1
22025.7
25451
25460.6
25479.8
25508.6
25546.9
25594.9
25652.8
25720.9
25799.8
25891.6
26002.1
26150.5
26415.8
27179.7
30533.7
25592.8
25602.1
25620.8
25648.7
25686
25732.6
25788.8
25855.1
25932.6
26025.3
26143.9
26318.2
26630.3
27280.3
28531.1
25726.9
25736
25754.1
25781.2
25817.3
25862.5
25916.7
25980.2
26053.6
26139.8
26245.7
26389.1
26608.9
26962.5
27414.1
25853.5
25862.3
25880
25906.3
25941.3
25984.9
26036.9
26097.1
26164.7
26239.4
26320.2
26405.7
26493.4
26575.3
26627.8
25972.8
25981.4
25998.5
26024.1
26058.1
26100.3
26150.4
26207.4
26269.7
26333.5
26390.2
26419.7
26380.6
26207.2
25894.9
26084.9
26093.3
26110
26134.9
26168
26209.1
26257.7
26312.9
26372.4
26431.5
26477.7
26480
26359.8
25934.3
24962.3
26190
26198.2
26214.5
26238.8
26271.2
26311.4
26359.3
26414.1
26474.3
26537.1
26594.5
26624.3
26549.7
26039.6
23371.8
26288.2
26296.2
26312.1
26336
26367.7
26407.3
26454.8
26510.1
26573.2
26645.1
26729.2
26840
27040.9
27642.2
30339.8
26379.7
26387.5
26403.1
26426.4
26457.5
26496.5
26543.7
26599.5
26664.9
26743.4
26844.1
26991.7
27252.7
27787.7
28804.3
26464.6
26472.2
26487.4
26510.2
26540.6
26579
26625.5
26680.8
26746.1
26825.1
26925.2
27063.4
27273.1
27597.4
27992.3
26543
26550.4
26565.2
26587.4
26617.1
26654.5
26700
26753.8
26816.8
26890.8
26978.5
27084.4
27212.5
27356.7
27471.8
26615
26622.2
26636.6
26658.1
26687
26723.3
26767.4
26819.2
26878.7
26945.6
27017.9
27088.6
27139.6
27134.9
27048.7
26680.8
26687.8
26701.7
26722.6
26750.5
26785.6
26828.2
26877.9
26934.1
26995.6
27057.2
27105.3
27103.9
26968.4
26583.2
26740.6
26747.3
26760.7
26780.8
26807.8
26841.7
26882.7
26930.6
26984.8
27044.1
27104.6
27155.2
27160.1
26974.2
25867.5
26794.6
26801
26813.8
26833.1
26859
26891.7
26931.3
26977.7
27030.8
27090.7
27157.6
27235.5
27347.4
27618.1
28751.2
26842.9
26849
26861.2
26879.6
26904.3
26935.7
26973.8
27018.8
27070.9
27131
27201.6
27290.9
27423.3
27661.8
28088.5
26885.7
26891.5
26903
26920.4
26943.9
26973.8
27010.3
27053.7
27104.2
27162.9
27231.5
27315
27424.4
27573.5
27739.6
26923.4
26928.7
26939.5
26955.8
26977.8
27006.1
27040.8
27082.3
27130.8
27186.5
27249.7
27320.1
27396.5
27472.2
27523.3
26956.1
26961
26970.8
26985.8
27006.3
27032.7
27065.4
27104.8
27151
27203.8
27261.6
27319.7
27367.8
27386.8
27359.8
26984.2
26988.5
26997.4
27010.9
27029.5
27053.7
27084.1
27121.3
27165.5
27216.5
27272
27325
27357.9
27332
27194.7
27008
27011.8
27019.4
27031.2
27047.6
27069.2
27097
27131.7
27174.1
27224.8
27282.9
27343.1
27387.7
27353.4
26951.5
27028
27031.1
27037.4
27047.1
27060.8
27079.3
27103.7
27135.3
27175.6
27226.9
27291.2
27370.7
27471.1
27628.7
28088
27044.7
27047
27051.6
27058.9
27069.5
27084.2
27104.3
27131.6
27168.4
27218.7
27287.7
27382.6
27513.6
27693.4
27918.6
27058.6
27060
27062.8
27067.3
27074.1
27084.1
27098.8
27120
27150.8
27196.4
27265
27368.3
27520.9
27725.6
27922.4
27070.4
27070.7
27071.4
27072.8
27075.3
27079.8
27087.5
27100.4
27121.6
27157.1
27216.9
27318.7
27490.9
27762
28079.6
27080.7
27079.9
27078.4
27076.3
27073.9
27072
27071.4
27073.7
27081.3
27099.6
27138.4
27219.1
27391.2
27764.9
28473.9
27090.4
27088.4
27084.5
27078.7
27071.1
27062.1
27052.2
27041.9
27032.6
27026.8
27029.8
27054.9
27150.4
27534
29377.2
27100.1
27097
27090.7
27081.1
27068.1
27051.7
27031.9
27008.3
26980.3
26946.9
26904.5
26840.7
26708.4
26288.3
24404.5
27110.9
27106.6
27097.9
27084.6
27066.3
27042.6
27013
26976.3
26930.5
26872.1
26792.8
26673.2
26465.3
26058.1
25312.4
27123.3
27118
27107.1
27090.2
27066.9
27036.5
26997.9
26949.4
26888.4
26810.6
26708
26565.8
26359.5
26062.1
25718.7
27138.3
27132
27119.1
27099.1
27071.3
27034.9
26988.5
26930
26856.8
26765.2
26649.5
26502.1
26315.9
26097.1
25902.9
27156.4
27149.3
27134.7
27112.1
27080.6
27039.1
26986.1
26919.5
26836.8
26735.3
26611.9
26464.2
26293.9
26114.3
25968.4
27178.2
27170.5
27154.6
27129.9
27095.5
27050
26991.9
26918.9
26828.7
26719.5
26590
26441.1
26277.2
26107.3
25949.1
27204.2
27196
27179.3
27153.3
27116.8
27068.6
27006.7
26928.9
26832.7
26716.6
26580.5
26427.2
26263.7
26091.5
25836.7
27234.5
27226.2
27209.1
27182.5
27145.2
27095.5
27031.3
26950.2
26849.2
26726.4
26581.5
26419.2
26255.2
26132
26184.7
27269.3
27261.1
27244.3
27217.9
27180.8
27131.1
27066.5
26983.9
26879.7
26750.3
26593.3
26411
26217.1
26048.6
25967.8
27308.6
27300.7
27284.7
27259.5
27223.8
27175.8
27112.9
27031.3
26926.3
26791.9
26621.4
26409.4
26159.9
25902.8
25713.8
27351.9
27344.8
27330.1
27306.9
27274.1
27229.6
27170.8
27093.6
26992
26857.4
26676.9
26432.4
26106.4
25707.9
25348
27398.9
27392.7
27380
27359.8
27331.1
27292.1
27240.2
27171.3
27079.2
26953.4
26775.3
26510.6
26101.9
25484.5
24751.7
27448.9
27443.9
27433.6
27417.3
27394
27362.2
27320
27263.8
27188.4
27084.3
26932.2
26687.4
26240.7
25339.7
23666.2
27501
27497.5
27490.1
27478.3
27461.4
27438.4
27408
27368.2
27316
27247.3
27152.2
27002.8
26693.4
25730
21438.3
27554.3
27552.3
27548.1
27541.4
27531.7
27518.4
27501.2
27479.6
27453.9
27427
27408.3
27427.8
27598.9
28429.9
32615.5
27607.6
27607.3
27606.6
27605.3
27603.1
27599.9
27596.1
27592.3
27591.1
27599.8
27636.3
27746.1
28044.4
28798.7
30353.9
27659.7
27661.2
27664.1
27668.3
27673.7
27680.6
27689.5
27701.6
27720
27751.7
27811.9
27932
28171.6
28609.8
29192.6
27709.5
27712.8
27719.3
27729.1
27742.1
27758.6
27779.3
27805.2
27838.2
27882.5
27944.4
28033.3
28159.2
28318.7
28456.3
27755.6
27760.7
27770.9
27786.2
27806.6
27832.4
27864.1
27902.2
27947.2
27999.5
28056.6
28107.5
28121.9
28041.1
27835.8
27796.8
27803.7
27817.6
27838.3
27866
27900.8
27943.1
27992.8
28049.7
28111.8
28171.6
28205.5
28149.1
27848.3
27093.1
27831.8
27840.6
27858.1
27884.3
27919.1
27962.8
28015.5
28077.1
28147.1
28224.3
28303
28364.6
28344.4
27969.5
25846.2
27859.4
27870
27891.2
27922.7
27964.7
28017.2
28080.2
28153.9
28238.3
28334.4
28444.7
28579.1
28784.7
29303.1
31485.6
27878.3
27890.8
27915.6
27952.6
28001.7
28063
28136.3
28221.7
28319.9
28433.3
28568.2
28742.7
29006.1
29479.8
30319.2
27887.3
27901.6
27930.1
27972.7
28029.1
28099
28182.5
28279.2
28389.6
28515.7
28662.9
28843.2
29080.2
29401.1
29755.1
27884.9
27901.2
27933.6
27981.8
28045.6
28124.5
28218.1
28325.8
28446.9
28582.2
28733.1
28903
29094.6
29298.1
29455.9
27870
27888.3
27924.6
27978.8
28050.3
28138.5
28242.7
28361.4
28493.2
28636.4
28788.9
28946.2
29099.3
29225.5
29285.3
27841
27861.4
27901.9
27962.3
28042
28140.2
28255.7
28386.6
28530.2
28683
28839.7
28991.2
29121.2
29197.6
29175.2
27796.6
27819.2
27864.1
27931.1
28019.6
28128.6
28256.7
28401.6
28559.4
28725.5
28892.7
29049.9
29178.8
29236.9
29068.5
27735.3
27760.1
27809.7
27883.6
27981.5
28102.5
28244.9
28406
28581.6
28766
28951.1
29126.9
29284.4
29432
29688.2
27655.4
27682.6
27736.9
27818.2
27926.2
28060.2
28218.7
28399
28596.4
28804.7
29014.7
29215.2
29395.5
29550.3
29679.6
27555.3
27584.9
27644.1
27733
27851.6
27999.7
28176.2
28378.6
28602.4
28840.9
29083.5
29316.4
29523.1
29685.2
29778.9
27433.5
27465.4
27529.3
27625.8
27755.3
27918.2
28114.3
28341.9
28597
28872.9
29157.8
29434.6
29680.2
29866.4
29961.4
27288.3
27322.2
27390.6
27494.3
27634.5
27812.5
28029.4
28284.7
28576
28897.2
29236.4
29573.1
29877.3
30109.6
30227.7
27118.2
27154
27226.1
27336.2
27486.1
27678.7
27916.4
28201.1
28532.8
28907.9
29315.4
29733
30123
30430.8
30594.1
26922.2
26959.1
27034.1
27149
27307
27512.2
27769.5
28083.6
28458.4
28894.8
29386
29910.8
30424.4
30851.1
31091.7
26699.2
26736.7
26813
26930.7
27093.9
27308.5
27581.8
27922.5
28339.9
28842.4
29432
30095.1
30784.8
31399.2
31774.3
26448.9
26486.1
26561.8
26679.4
26844
27062.8
27346.1
27706.7
28161
28728.1
29425.7
30259.5
31196.1
32112.1
32735.3
26171.8
26207.4
26280.4
26394.4
26555.1
26771.3
27055.5
27424.7
27902.6
28521.9
29323.6
30351.1
31620.3
33027
34146.8
25868.6
25901.6
25969.3
26075.6
26226.5
26431.5
26704.6
27065.7
27544.9
28187.7
29063.3
30273.6
31947.6
34139.8
36353.6
25541.4
25570.5
25630.3
25724.5
25859.1
26043.4
26291.3
26623.4
27072.2
27690.7
28569.2
29872.7
31913.7
35236
40115.3
25192.9
25216.8
25266.3
25344.3
25456.2
25610.1
25818.2
26098.8
26480.7
27011.8
27778.7
28958.2
30988.6
35249.4
47282.9
-45963.8
-34159.9
-29968.3
-27967.8
-26806
-26052.3
-25532.2
-25160.1
-24888.1
-24687.6
-24540.2
-24433.6
-24359.7
-24313
-24290.4
-38915.2
-34128.2
-30864.6
-28858.8
-27578.9
-26718.1
-26114.3
-25678.1
-25356.9
-25118.6
-24942.3
-24814.2
-24725
-24668.5
-24641.1
-35208.3
-33036.9
-30886.1
-29244.4
-28059.4
-27204.3
-26578.9
-26114.9
-25767
-25505.4
-25309.9
-25166.7
-25066.4
-25002.6
-24971.6
-33026.7
-31929.8
-30552.6
-29311.6
-28309.3
-27529.8
-26930.3
-26469.8
-26116
-25845.1
-25640.1
-25488.3
-25381.2
-25312.8
-25279.4
-31624.3
-31016.1
-30123
-29211.8
-28403.2
-27729.2
-27183.9
-26749.3
-26406.2
-26138.1
-25932
-25777.7
-25667.9
-25597.4
-25562.9
-30661.9
-30298.7
-29704.6
-29039.4
-28402.2
-27837.9
-27359.4
-26964
-26643
-26386.9
-26186.7
-26035.1
-25926.2
-25855.8
-25821.2
-29969.3
-29740.3
-29334.2
-28846.3
-28349.2
-27885.8
-27475.9
-27125.7
-26833.6
-26595.6
-26406.6
-26261.6
-26156.5
-26088.1
-26054.4
-29453.4
-29303.6
-29019.2
-28658.1
-28271.6
-27895.2
-27549.8
-27245.6
-26985.4
-26769.2
-26594.6
-26459.1
-26360
-26295.1
-26263
-29059.1
-28959.2
-28756.1
-28486.3
-28185.5
-27881.7
-27594
-27333.4
-27105.6
-26912.5
-26754.4
-26630.2
-26538.5
-26478.1
-26448.1
-28752.1
-28684.9
-28538
-28334.8
-28100.3
-27855.9
-27618
-27397.3
-27200.3
-27030.5
-26889.4
-26777.4
-26694
-26638.8
-26611.2
-28509.3
-28464.8
-28357.7
-28203.7
-28020.5
-27824.4
-27628.7
-27443.4
-27274.8
-27127.3
-27003.1
-26903.5
-26828.7
-26778.9
-26754
-28315.3
-28286.8
-28208.7
-28091.7
-27948.4
-27791.2
-27631.1
-27476.5
-27333.6
-27206.6
-27098.5
-27011
-26944.8
-26900.5
-26878.3
-28158.7
-28142
-28085.4
-27996.5
-27884.5
-27758.9
-27628.4
-27500.2
-27379.9
-27271.6
-27178.5
-27102.4
-27044.5
-27005.5
-26985.9
-28031.6
-28023.6
-27983.3
-27916.1
-27828.8
-27728.7
-27622.8
-27517.1
-27416.5
-27325
-27245.4
-27179.9
-27129.7
-27095.8
-27078.7
-27927.6
-27926.4
-27898.6
-27848.3
-27780.7
-27701.3
-27615.8
-27529.2
-27445.6
-27368.7
-27301.4
-27245.4
-27202.4
-27173.1
-27158.3
-27842.4
-27846.3
-27828.3
-27791.4
-27739.4
-27676.9
-27608.3
-27537.7
-27468.8
-27404.8
-27348.1
-27300.8
-27264.2
-27239.2
-27226.5
-27772.2
-27780.1
-27769.8
-27743.5
-27704.2
-27655.4
-27600.8
-27543.8
-27487.4
-27434.4
-27387.2
-27347.5
-27316.5
-27295.4
-27284.6
-27714.2
-27725.4
-27721.2
-27703.4
-27674.4
-27636.8
-27593.8
-27548.1
-27502.3
-27458.8
-27419.8
-27386.7
-27360.9
-27343.1
-27334
-27666.3
-27680
-27680.7
-27669.8
-27649.1
-27620.8
-27587.4
-27551.2
-27514.4
-27479
-27447
-27419.7
-27398.3
-27383.5
-27375.9
-27626.7
-27642.4
-27647.1
-27641.7
-27627.8
-27607
-27581.6
-27553.4
-27524.1
-27495.7
-27469.7
-27447.4
-27429.8
-27417.5
-27411.3
-27593.9
-27611.3
-27619.1
-27618.2
-27609.8
-27595.3
-27576.5
-27554.9
-27532
-27509.4
-27488.5
-27470.5
-27456.2
-27446.2
-27441.1
-27566.8
-27585.5
-27595.9
-27598.7
-27594.8
-27585.5
-27572.1
-27556
-27538.4
-27520.7
-27504.2
-27489.8
-27478.3
-27470.2
-27466.1
-27544.5
-27564.3
-27576.8
-27582.5
-27582.3
-27577.2
-27568.3
-27556.7
-27543.6
-27530
-27517.1
-27505.8
-27496.7
-27490.3
-27486.9
-27526.2
-27546.8
-27561
-27569.2
-27572
-27570.3
-27565
-27557.2
-27547.7
-27537.6
-27527.8
-27519.1
-27511.9
-27506.9
-27504.2
-27511.3
-27532.7
-27548.2
-27558.3
-27563.5
-27564.6
-27562.3
-27557.6
-27551.1
-27543.8
-27536.5
-27529.9
-27524.4
-27520.5
-27518.4
-27499.4
-27521.3
-27537.9
-27549.5
-27556.7
-27559.9
-27560
-27557.8
-27553.7
-27548.7
-27543.5
-27538.6
-27534.5
-27531.5
-27529.9
-27490
-27512.3
-27529.8
-27542.6
-27551.2
-27556.2
-27558.2
-27557.9
-27555.8
-27552.6
-27549
-27545.5
-27542.5
-27540.3
-27539.1
-27482.9
-27505.5
-27523.6
-27537.3
-27547
-27553.3
-27556.7
-27557.9
-27557.2
-27555.5
-27553.2
-27550.8
-27548.7
-27547.1
-27546.2
-27477.8
-27500.7
-27519.1
-27533.4
-27543.9
-27551.1
-27555.5
-27557.8
-27558.2
-27557.5
-27556.2
-27554.7
-27553.2