/*--------------------------------*- C++ -*----------------------------------*\
| =========                 |                                                 |
| \\      /  F ield         | OpenFOAM: The Open Source CFD Toolbox           |
|  \\    /   O peration     | Version:  5.x                                   |
|   \\  /    A nd           | Web:      www.OpenFOAM.org                      |
|    \\/     M anipulation  |                                                 |
\*---------------------------------------------------------------------------*/
FoamFile
{
    version     2.0;
    format      ascii;
    class       volScalarField;
    location    "1.1";
    object      gradTy;
}
// * * * * * * * * * * * * * * * * * * * * * * * * * * * * * * * * * * * * * //

dimensions      [0 -1 0 1 0 0 0];

internalField   nonuniform List<scalar> 
6300
(
8927.63
24760.9
40527.8
56183.9
71683.8
86981.9
102031
116785
131195
145213
158795
171894
184469
196484
207907
32.2915
97.068
162.406
228.611
295.885
364.272
433.605
503.441
573.012
641.178
706.423
766.891
820.495
865.094
898.729
53.6026
161.152
269.704
379.821
491.894
606.059
722.101
839.347
956.559
1071.85
1182.64
1285.73
1377.43
1453.92
1511.66
74.5655
224.224
375.423
529.053
685.779
845.929
1009.35
1175.23
1341.96
1506.94
1666.49
1815.86
1949.49
2061.4
2145.97
94.9966
285.74
478.688
675.155
876.199
1082.48
1294.06
1510.19
1729.03
1947.36
2160.38
2361.61
2543.11
2696.06
2811.92
114.673
345.034
578.404
816.637
1061.33
1313.66
1574.14
1842.34
2116.48
2392.95
2665.91
2926.93
3165.07
3367.61
3521.64
133.324
401.299
673.222
951.61
1238.76
1536.59
1846.39
2168.43
2501.44
2841.89
3183.2
3514.92
3822.43
4087.45
4290.34
150.64
453.589
761.535
1077.76
1405.43
1747.46
2106.28
2483.41
2878.78
3289.77
3709.84
4126.9
4522.01
4869.14
5137.88
166.278
500.856
841.522
1192.39
1557.64
1941.42
2347.72
2779.97
3240.31
3728.37
4239.23
4760.57
5269.28
5728.91
6091.53
179.883
542.003
911.251
1292.57
1691.21
2112.73
2563.06
3048.25
3573.91
4143.91
4757.85
5406.58
6065.28
6685.35
7190.54
191.12
575.989
968.843
1375.36
1801.77
2255.08
2743.36
3275.85
3862.92
4515.24
5241.39
6042.26
6899.53
7756.23
8494.04
199.718
601.95
1012.71
1438.17
1885.3
2362.32
2879.25
3448.66
4086.44
4812.44
5649.88
6621.16
7733.88
8945.48
10093
205.509
619.346
1041.8
1479.2
1938.82
2429.48
2962.48
3552.87
4221.49
4997.88
5924.17
7058.17
8468.82
10198.2
12116.5
208.467
628.08
1055.89
1497.92
1961.15
2454.15
2988.13
3578.63
4248.48
5033.12
5990.33
7218.06
8884.49
11261.2
14639.7
208.731
628.576
1055.69
1495.35
1953.58
2437.67
2957.07
3524.81
4160.42
4895.45
5785.57
6938.75
8589.31
11321.8
16864.5
217815
226386
234517
242206
249460
256286
262695
268703
274327
279587
284502
289095
293387
297401
301158
304680
307988
311102
314041
316823
319466
321985
324396
326712
328945
331107
333207
335253
337252
339210
341131
343018
344873
346696
348489
350251
351981
353678
355341
356967
358554
360100
361601
363055
364458
365806
367098
368328
369494
370593
371622
372577
373454
374251
374962
375582
376107
376531
376848
377050
377130
377082
376897
376565
376077
375423
374590
373566
372337
370886
369198
367255
365036
362523
359693
356524
352993
349075
344746
339982
334758
329049
322833
316088
308795
300938
292505
283489
273887
263702
918.124
926.548
925.648
915.689
897.279
871.304
838.842
801.068
759.176
714.309
667.511
619.703
571.666
524.047
477.368
432.041
388.387
346.656
307.044
269.712
234.798
202.43
172.728
145.806
121.77
100.703
82.6537
67.6196
55.5284
46.2295
39.4932
35.0248
32.4916
31.56
31.9336
33.3816
35.7512
38.9601
42.9719
47.7622
53.2853
59.4504
66.1149
73.0983
80.2112
87.293
94.2463
101.058
107.807
114.646
121.781
129.437
137.822
147.099
157.377
168.7
181.071
194.468
208.885
224.352
240.957
258.855
278.26
299.423
322.617
348.101
376.101
406.783
440.243
476.505
515.523
557.197
601.387
647.918
696.582
747.125
799.22
852.435
906.2
959.768
1012.2
1062.34
1108.85
1150.24
1184.95
1211.43
1228.27
1234.32
1228.83
1211.51
1544.85
1559.09
1557.18
1539.61
1507.52
1462.51
1406.53
1341.67
1270.02
1193.57
1114.11
1033.18
952.082
871.885
793.431
717.375
644.222
574.358
508.083
445.644
387.255
333.118
283.433
238.399
198.206
163.019
132.946
108.006
88.0965
72.9655
62.2089
55.2917
51.6011
50.5213
51.5124
54.1707
58.2535
63.6621
70.3892
78.4475
87.7981
98.2995
109.694
121.632
133.741
145.698
157.306
168.537
179.538
190.609
202.146
214.573
228.283
243.576
260.629
279.498
300.143
322.483
346.459
372.092
399.521
429.011
460.946
495.785
534.025
576.14
622.537
673.517
729.245
789.749
854.936
924.616
998.541
1076.42
1157.94
1242.7
1330.21
1419.82
1510.61
1601.4
1690.61
1776.31
1856.2
1927.69
1988
2034.37
2064.26
2075.56
2066.88
2037.65
2194.37
2214.7
2211.06
2184.26
2136.15
2069.31
1986.79
1891.83
1787.57
1676.96
1562.59
1446.66
1330.98
1216.99
1105.82
998.318
895.116
796.691
703.404
615.553
533.402
457.212
387.26
323.842
267.261
217.8
175.676
140.98
113.614
93.2341
79.2279
70.7443
66.7827
66.3316
68.5208
72.7382
78.6756
86.2929
95.7159
107.097
120.477
135.685
152.307
169.738
187.305
204.421
220.723
236.157
250.98
265.712
281.033
297.669
316.271
337.318
361.066
387.535
416.57
447.936
481.44
517.039
554.904
595.435
639.232
687.032
739.629
797.785
862.147
933.181
1011.13
1096.01
1187.63
1285.67
1389.74
1499.44
1614.35
1734.03
1857.91
1985.2
2114.76
2245
2373.78
2498.35
2615.36
2720.92
2810.81
2880.74
2926.68
2945.27
2934.2
2892.54
2877.81
2904.69
2898.12
2859.45
2791.6
2698.54
2584.85
2455.22
2314.15
2165.65
2013.2
1859.66
1707.32
1557.94
1412.83
1272.97
1139.05
1011.55
890.83
777.192
670.907
572.272
481.634
399.4
326.026
261.981
207.677
163.371
129.046
104.3
88.2705
79.6625
76.8866
78.3174
82.5862
88.8064
96.6555
106.3
118.199
132.843
150.498
171.006
193.726
217.619
241.487
264.281
285.357
304.62
322.516
339.927
357.99
377.896
400.694
427.129
457.537
491.83
529.59
570.255
613.347
658.663
706.385
757.09
811.686
871.302
937.155
1010.41
1092.06
1182.8
1282.95
1392.46
1510.98
1637.93
1772.72
1914.82
2063.77
2219.18
2380.55
2547.14
2717.74
2890.52
3062.83
3231.09
3390.77
3536.48
3662.14
3761.43
3828.26
3857.45
3845.34
3790.39
3608.56
3642.62
3631.16
3576.45
3483.12
3357.28
3205.66
3034.95
2851.26
2659.9
2465.26
2270.84
2079.31
1892.63
1712.21
1539.01
1373.66
1216.57
1068.01
928.2
797.361
675.788
563.882
462.18
371.344
292.127
225.277
171.386
130.686
102.813
86.6288
80.1847
80.9358
86.2194
93.8441
102.531
112.052
123.062
136.73
154.256
176.408
203.143
233.455
265.531
297.211
326.605
352.594
375.04
394.74
413.192
432.279
453.942
479.865
511.203
548.394
591.109
638.401
689.052
742.021
796.79
853.535
913.102
976.867
1046.54
1123.97
1210.9
1308.83
1418.79
1541.2
1675.87
1822.07
1978.8
2145.08
2320.2
2503.76
2695.59
2895.53
3103.14
3317.43
3536.55
3757.5
3975.97
4186.12
4380.69
4551.22
4688.61
4783.83
4828.89
4817.99
4748.5
4403.8
4445.9
4426.26
4348.88
4221.28
4052.95
3853.81
3633.2
3399.28
3158.77
2916.95
2677.82
2444.27
2218.28
2001.18
1793.74
1596.39
1409.34
1232.63
1066.33
910.526
765.444
631.51
509.39
400.015
304.554
224.309
160.506
113.954
84.5962
71.0663
70.4516
78.5642
90.8562
103.678
115.162
125.41
136.105
149.807
169.113
195.822
230.23
270.748
314.115
356.324
393.934
425.028
449.509
468.856
485.634
502.95
523.946
551.328
586.938
631.385
683.883
742.454
804.591
868.175
932.141
996.687
1063.13
1133.6
1210.68
1297.13
1395.6
1508.33
1636.87
1781.82
1942.69
2118.02
2305.92
2504.7
2713.39
2931.79
3160.28
3399.39
3649.44
3910.07
4179.8
4455.65
4732.68
5003.74
5259.33
5487.86
5676.35
5811.41
5880.71
5874.79
5789.04
5286.66
5337.82
5304.24
5193.33
5017.86
4792.75
4532.63
4250.39
3956.56
3659.29
3364.56
3076.59
2798.16
2531.02
2276.11
2033.83
1804.22
1587.1
1382.21
1189.29
1008.2
839.008
682.094
538.224
408.634
295.059
199.661
124.786
72.4648
43.5946
36.9138
48.1596
70.1827
94.7376
115.447
129.581
138.128
144.824
154.819
173.309
204.15
248.517
303.934
364.361
422.053
470.634
506.974
531.357
546.656
557.284
568.303
584.73
610.92
649.92
702.753
767.882
841.336
918.006
993.737
1066.61
1137.05
1207.31
1280.73
1361.25
1452.92
1559.69
1684.97
1831.22
1999.42
2188.56
2395.75
2617.21
2849.89
3092.43
3345.13
3609.46
3887.29
4180.29
4489.34
4813.98
5151.79
5497.7
5843.33
6176.59
6481.82
6740.67
6933.33
7040.46
7046.18
6941.84
6290.31
6351.44
6293.21
6130.42
5885.59
5582.64
5242.99
4883.94
4518.49
4155.84
3802.15
3461.31
3135.53
2825.88
2532.6
2255.44
1993.84
1747.07
1514.37
1295.04
1088.58
894.752
713.761
546.368
394.076
259.283
145.358
56.494
-2.88582
-29.4487
-23.1408
10.26
58.0661
104.066
136.591
151.95
153.419
148.695
147.504
159.625
192.897
250.788
329.796
418.433
500.786
564.838
606.013
626.161
631.055
628.242
625.74
631.32
651.929
692.842
756.272
839.741
935.434
1032.61
1123.25
1204.4
1277.52
1346.74
1417.48
1495.54
1586.78
1696.9
1831.17
1993.76
2186.63
2408.18
2652.65
2912.06
3180.6
3456.5
3741.4
4038.84
4352.97
4687.63
5045.76
5428.77
5835.82
6262.64
6700.25
7133.68
7542.02
7899.74
8177.82
8345.67
8375.45
8249.72
7465.74
7536.5
7432.32
7185.21
6836.58
6424.96
5980.92
5526.42
5076.15
4639.27
4221.07
3824.19
3449.56
3097.04
2765.78
2454.58
2162.06
1886.74
1627.23
1382.26
1150.76
932.034
725.878
532.81
354.372
193.52
55.0378
-54.1797
-125.412
-149.743
-122.126
-48.3025
48.6284
132.873
182.526
194.39
177.698
147.551
121.094
115.558
146.27
222.724
341.858
481.615
605.928
692.037
735.376
742.978
726.596
698.798
671.59
656.316
663.751
703.385
780.977
894.034
1027.42
1156.67
1266.43
1353.76
1423.58
1484
1543.67
1610.85
1693.44
1799.33
1936.56
2112.64
2332.49
2594.7
2887.97
3193.67
3500.58
3807.48
4119.45
4444.01
4788.87
5160.96
5566.09
6008.69
6491.05
7011.75
7562.8
8126.54
8674.72
9173.02
9580.6
9849.22
9928.16
9778.97
8898.98
8972.96
8776.74
8385.73
7877.85
7313.57
6733.53
6162.47
5614.19
5095.52
4609.02
4154.8
3731.59
3337.4
2969.92
2626.72
2305.38
2003.57
1719.12
1450.01
1194.51
951.199
719.147
498.193
289.366
95.5744
-77.3814
-219.503
-315.422
-344.784
-287.596
-140.089
57.5024
211.532
282.912
277.992
221.393
141.136
64.6018
19.3361
33.8134
133.238
324.25
567.056
766.097
880.833
916.205
894.339
838.582
768.514
700.262
648.621
629.217
659.274
754.612
919.048
1125.34
1308.75
1441.9
1528.31
1583.13
1622.29
1659
1703.91
1766.46
1856.56
1985.94
2168.41
2417.23
2736.38
3105.26
3473.37
3820.4
4150.96
4479.13
4819.69
5185.3
5586.43
6032.16
6530.98
7090.71
7716.71
8406.65
9141.31
9878.7
10576.4
11182.9
11625.3
11808.7
11640.6
10755.2
10797.9
10401.1
9754.02
8999.83
8224.44
7472.77
6765.29
6109.23
5505.08
4950.15
4440.44
3971.53
3539.06
3138.89
2767.18
2420.39
2095.25
1788.75
1498.06
1220.61
954.054
696.358
446.054
202.664
-32.4081
-254.224
-451.369
-601.277
-664.462
-583.131
-304.013
129.078
409.171
493.134
435.971
299.121
129.33
-36.9413
-162.938
-200.992
-88.1645
232.014
715.46
1047.59
1183.83
1179.38
1094.42
971.102
835.543
704.943
594.44
523.389
521.09
628.666
883.693
1256.13
1533.07
1684.54
1748.21
1765.11
1763.97
1762.39
1771.41
1799.66
1857.07
1958.68
2128.47
2400.47
2806.25
3323.41
3783.15
4163.65
4497.58
4820.62
5158.95
5530.22
5947.24
6421.34
6965.08
7594.44
8329.05
9185.49
10151.5
11139.1
12110.4
13020.6
13773.5
14194.7
14046.8
13416.1
13255
12385.3
11275.9
10151.7
9100.61
8147.88
7293.66
6529.17
5843.45
5225.91
4667.09
4158.8
3694.02
3266.72
2871.64
2504.13
2160.04
1835.53
1527.02
1231.03
944.148
662.948
383.997
104.042
-179.409
-466.505
-751.155
-1011.91
-1192.13
-1163.37
-689.565
421.04
889.286
906.621
708.749
424.338
112.525
-196.401
-471.76
-652.978
-608.067
-95.2611
1081.79
1611.19
1689.45
1558.47
1349.76
1121.27
895.456
680.721
483.493
318.608
224.731
290.431
679.288
1524.44
1938.04
2053.6
2035.4
1973.03
1906.22
1850.49
1811.19
1790.82
1793.89
1833.2
1941.28
2191
2715.6
3624.09
4206.87
4573.77
4859.64
5139.87
5450.51
5808.96
6225.55
6709.88
7275.51
7946.16
8765.47
9806.06
11129.9
12422.5
13731.6
15084
16398.7
17399.6
17487.7
18009.4
16731.8
14713.7
12818.2
11197.8
9834.5
8680.61
7692.33
6835.22
6083.27
5416.77
4820.66
4283.13
3794.79
3347.95
2936.2
2554
2196.49
1859.18
1537.84
1228.25
926.009
626.263
323.37
10.4531
-321.142
-682.269
-1085.3
-1538.43
-2020.63
-2384.4
-1992.05
1637.99
2018.67
1629.96
1106.11
589.005
91.5693
-404.171
-916.101
-1430.53
-1801.69
-1379.03
2380.69
2824.33
2496.27
2049.44
1633.5
1267.51
939.379
631.261
325.954
11.5698
-301.42
-513.156
-182.222
2414.11
2772.09
2615.12
2386.09
2187.2
2032.42
1914.8
1823.61
1748.1
1678.42
1608.57
1549.99
1585.57
2071.99
4393.55
4941.21
5100.27
5229.49
5414.98
5672.89
6003.58
6405.9
6880.88
7434.23
8083.29
8882.65
10018.1
12152.7
13681.1
15289.6
17200.9
19474.4
21917.6
23413.9
28852.2
21273.9
16864.5
13963.6
11872.9
10266.2
8974.31
7901.59
6989.43
6199.63
5505.95
4889.55
4336.36
3835.55
3378.46
2958.02
2568.19
2203.7
1859.73
1531.66
1214.83
904.238
594.09
277.178
-56.2178
-420.304
-837.628
-1347.2
-2022.97
-3019.54
-4694.05
-7956.66
7533.93
4255.87
2547.84
1493.73
725.337
68.1967
-588.569
-1356.75
-2414.28
-4138.25
-7468.04
8454.62
5148.57
3473.98
2495.84
1845.23
1359.21
954.449
577.748
181.496
-297.444
-973.325
-2098.12
-4305.86
6526.87
4347.48
3280.29
2693.23
2337.72
2105
1940.95
1813.33
1696.87
1563.12
1367.6
1023.03
330.841
-1214.35
7717.15
6234.81
5669.44
5517.97
5585.5
5790.08
6094.69
6481.2
6938.6
7454.65
8003.45
8515.32
8790.6
14047.6
14823.4
16410.8
18795
22304.6
27797.6
37391.8
251867
238151
223664
208451
192563
176056
158990
141427
123429
105058
86375
67439.2
48308.7
29040.1
9689.18
1179.67
1129.34
1065.5
990.801
908.127
820.247
729.6
638.146
547.319
458.045
370.795
285.674
202.492
120.841
40.1673
1983.33
1897.12
1787.78
1660.11
1519.25
1370.1
1216.85
1062.84
910.44
761.13
615.612
473.965
335.786
200.321
66.5763
2813.71
2687.83
2528.19
2342.43
2138.53
1923.89
1704.73
1485.8
1270.37
1060.34
856.504
658.759
466.358
278.082
92.3983
3683.76
3512.08
3294.54
3042.71
2768.37
2482.05
2192.24
1905.15
1624.78
1353.26
1091.22
838.158
592.78
353.24
117.335
4608.96
4382.01
4095
3765.35
3410.03
3043.54
2676.91
2317.65
1970.22
1636.59
1316.86
1009.8
713.318
424.741
141.033
5608.67
5311.78
4937.92
4513.46
4062.7
3605.03
3154.07
2718.23
2301.79
1905.93
1529.71
1170.77
825.893
491.337
163.076
6708.11
6318.16
5831.1
5287.55
4722.02
4159.56
3615.89
3099.27
2612.67
2155.55
1725.2
1317.6
928.077
551.6
182.991
7941.98
7421.1
6780.28
6083.16
5377.91
4694.97
4050.35
3450.04
2893.88
2378.28
1897.82
1446.27
1017.15
603.951
200.264
9360.54
8643.57
7785.38
6886.56
6011.16
5191.79
4440.23
3756.39
3134.35
2565.72
2041.39
1552.41
1090.21
646.751
214.363
11039.1
10006.8
8830.71
7666.15
6588.04
5620.53
4762.12
4000.73
3321.22
2708.68
2149.5
1631.64
1144.46
678.431
224.784
13092.9
11513
9863.84
8358.7
7053.87
5939.78
4986.67
4162.91
3440.94
2798.12
2216.14
1680.08
1177.49
697.678
231.111
15685.3
13087.6
10752.4
8850.34
7328.51
6097.69
5081.5
4223.03
3481.28
2826.54
2236.73
1694.93
1187.65
703.636
233.078
18908
14399
11207.3
8961.15
7311.69
6040.59
5018.28
4166.14
3434.4
2789.84
2209.16
1675.16
1174.45
696.096
230.628
21723
14391.9
10715.9
8474.68
6916.03
5734.32
4784.54
3988.61
3300.11
2689.08
2134.77
1621.96
1138.82
675.628
223.953
206.948
622.846
1044.82
1477.17
1924.59
2392.47
2887.34
3417.57
3994.83
4636.96
5374.11
6262.67
7419.04
9106.75
11966.5
203.774
612.923
1026.89
1448.92
1882.3
2330.35
2796.32
3283.18
3793.15
4326.52
4878.51
5428.79
5901.7
6000.31
4462.61
199.478
599.626
1003.31
1412.72
1829.74
2255.68
2690.67
3132.59
3575.02
4002.94
4383.91
4648.41
4643.98
4029.93
2088.74
194.346
583.849
975.698
1371.15
1770.91
2174.63
2580.08
2981.52
3366.8
3711.75
3969.99
4054.6
3809.37
2981.01
1267.76
188.642
566.413
945.537
1326.53
1709.25
2092.3
2472.17
2841.56
3186.42
3480.61
3676.49
3689.64
3379.58
2546.43
1017.73
182.592
548.011
914.029
1280.66
1647.26
2012.07
2371.43
2718.51
3041.08
3317.58
3509.73
3548.94
3312.88
2594.78
1119.56
176.369
529.167
882.049
1234.75
1586.46
1935.55
2279.11
2612.34
2927.6
3212.99
3449.01
3599.25
3580.8
3168.78
1751.83
170.097
510.24
850.155
1189.45
1527.4
1862.78
2193.87
2518.51
2834.74
3142.56
3447.68
3766.58
4121.85
4440.5
3833.14
163.853
491.446
818.646
1145.04
1470.05
1792.93
2113.03
2430.4
2747.57
3073.91
3436.59
3908.49
4688.17
6355.1
10816.3
157.683
472.903
787.653
1101.54
1414.11
1724.95
2034
2342.31
2653.88
2979.92
3349.48
3836.49
4638.14
6328.96
10809.4
151.61
454.669
757.222
1058.9
1359.3
1658.14
1955.4
2251.88
2550.01
2855.61
3180.66
3545.84
3970.43
4365.35
3815.97
145.646
436.769
727.37
1017.08
1305.52
1592.34
1877.28
2160.19
2440.83
2717.66
2983.83
3213.77
3323.16
3057.3
1740.89
139.797
419.217
698.108
976.099
1252.8
1527.77
1800.47
2070
2334.17
2587
2812.05
2965.27
2936.34
2478.67
1169.46
134.065
402.02
669.446
935.976
1201.21
1464.7
1725.8
1983.45
2235.27
2475.54
2690.01
2843.12
2847.14
2491.26
1313.06
128.449
385.175
641.381
896.712
1150.79
1403.21
1653.46
1900.86
2144.28
2381.87
2610.46
2824.4
3007.74
3074.81
2462.1
122.948
368.676
613.9
858.28
1101.48
1343.16
1583.03
1820.93
2057.26
2294.35
2540.98
2826.78
3248.96
4130.28
6605.13
117.559
352.514
586.98
820.635
1053.17
1284.31
1513.89
1742.02
1969.63
2200.12
2444.17
2734.34
3171.18
4078.95
6588.12
112.279
336.676
560.598
783.732
1005.79
1226.5
1445.7
1663.39
1879.91
2096.37
2315.21
2539.93
2766.21
2915.36
2411.26
107.104
321.155
534.738
747.546
959.286
1169.69
1378.51
1585.49
1790.14
1990.88
2182.08
2344.32
2414.69
2205.29
1233.2
102.034
305.946
509.393
712.068
913.674
1113.93
1312.54
1509.15
1703
1891.93
2068.97
2212.4
2257.35
2024.78
1092.79
97.0679
291.048
484.562
677.301
868.963
1059.25
1247.9
1434.65
1619.22
1801.14
1979.13
2148.76
2292.62
2329.87
1822.89
92.2058
276.462
460.249
643.254
825.165
1005.68
1184.53
1361.61
1537.21
1713.01
1894.99
2102.92
2401.84
3012.81
4732.63
87.4484
262.189
436.46
609.94
782.302
953.213
1122.36
1289.53
1454.99
1620.5
1792.77
1993.8
2294.26
2925.56
4695.79
82.7959
248.233
413.202
577.378
740.416
901.934
1061.5
1218.59
1372.66
1523.25
1670.48
1815.55
1956.83
2047.27
1696.19
78.2478
234.592
390.477
545.582
699.555
851.979
1002.31
1149.71
1292.69
1428.27
1549.62
1639.85
1654.62
1475.5
808.525
73.802
221.261
368.279
514.551
659.741
803.447
945.116
1083.84
1217.82
1343.11
1450.3
1516.48
1486.98
1242.46
580.599
69.4544
208.226
346.586
484.252
620.932
756.298
889.936
1021.21
1148.94
1270.47
1379.42
1459.49
1468.6
1299.19
699.408
65.1995
195.471
325.36
454.62
583.012
710.32
836.361
961.02
1084.31
1206.53
1328.52
1451.73
1574.13
1654.74
1373.07
61.0312
182.974
304.561
425.573
545.823
665.196
783.718
901.742
1020.39
1142.69
1276.73
1444.47
1708.62
2261.79
3758.12
56.9443
170.718
284.151
397.04
509.226
620.639
731.393
842.001
953.887
1070.67
1201.5
1370.2
1642.33
2213.79
3740.01
52.9359
158.693
264.11
368.984
473.15
576.521
679.147
781.345
883.954
988.857
1099.92
1224.05
1368.12
1502.68
1314.33
49.0059
146.899
244.438
341.407
437.613
532.905
627.181
720.381
812.4
902.736
989.242
1064.01
1100.45
1015.75
583.268
45.1576
135.346
225.157
314.351
402.699
489.98
575.946
660.219
741.995
819.253
886.689
930.55
916.889
770.317
361.94
41.3964
124.052
206.3
287.874
368.516
447.957
525.876
601.778
674.711
742.573
800.49
837.02
825.604
706.671
359.703
37.7296
113.04
187.906
262.04
335.16
406.984
477.197
545.39
610.938
672.791
729.133
776.776
808.977
801.381
616.104
34.1657
102.334
170.018
236.905
302.7
367.124
429.916
490.833
549.728
606.832
663.816
727.256
819.99
1019.49
1599.55
30.7146
91.9642
152.68
212.525
271.189
328.397
383.933
437.68
489.76
540.96
594.017
657.402
756.875
973.333
1582.03
27.388
81.964
135.947
188.966
240.687
290.831
339.195
385.688
430.407
473.806
517.057
562.501
612.539
654.818
559.067
24.2003
72.3753
119.883
166.308
211.282
254.504
295.761
334.935
371.979
406.769
438.592
464.43
473.615
432.182
246.115
21.1691
63.2501
104.57
144.657
183.094
219.545
253.779
285.671
315.128
341.812
364.307
377.951
369.875
310.015
145.791
18.3165
54.6537
90.1146
124.154
156.287
186.13
213.433
238.109
260.22
279.787
296.197
306.593
302.137
260.36
133.927
15.6693
46.6659
76.6472
104.974
131.075
154.485
174.917
192.342
207.096
219.982
232.299
245.595
260.374
269.553
220.312
13.2596
39.3832
64.3287
87.3428
107.732
124.913
138.499
148.443
155.289
160.601
167.764
183.623
222.576
319.414
578.589
11.1245
32.9183
53.3513
71.5345
86.6189
97.8416
104.616
106.708
104.566
99.966
97.2358
105.68
144.673
256.696
552.717
9.30504
27.3975
43.9351
57.8772
68.1874
73.8604
73.9903
67.922
55.5689
38.0598
18.9907
6.58429
16.1534
66.3537
132.354
7.8444
22.9546
36.3186
46.7392
52.9734
53.7267
47.6694
33.5062
10.1653
-22.74
-63.8447
-107.717
-140.502
-134.858
-58.2506
6.78455
19.7213
30.7418
38.503
41.5597
38.3165
26.9727
5.46283
-28.59
-77.8297
-144.73
-229.67
-323.781
-385.277
-276.514
6.16236
17.8147
27.4219
33.5252
34.5106
28.5202
13.3242
-13.8794
-56.8022
-120.649
-213.072
-345.218
-529.659
-753.87
-803.252
6.00524
17.3226
26.5262
32.0891
32.2905
25.0987
7.99466
-22.3248
-70.4991
-143.633
-253.822
-424.429
-707.873
-1243.8
-2479.83
6.32708
18.291
28.1468
34.3596
35.1832
28.5351
11.8137
-18.4007
-66.8918
-140.91
-252.627
-425.273
-710.713
-1247.44
-2481.75
7.12527
20.7146
32.2825
40.3517
43.2368
38.9323
24.9634
-1.8269
-45.6019
-112.05
-209.153
-347.81
-539.034
-766.563
-810.489
8.37908
24.5313
38.8301
49.9181
56.2489
55.9975
46.9649
26.4847
-8.62853
-61.9721
-136.887
-233.9
-342.177
-413.184
-295.356
10.0495
29.6227
47.5863
62.7582
73.7915
79.1088
76.8525
64.8851
40.9233
2.99174
-49.3765
-112.273
-171.298
-191.005
-108.631
12.0803
35.8178
58.2571
78.4379
95.2574
107.42
113.41
111.527
100.074
77.8581
45.3009
6.50356
-27.8966
-39.8693
-15.65
14.3998
42.8984
70.4697
96.4135
119.906
139.952
155.352
164.714
166.576
159.754
144.125
122
99.6667
85.8565
72.2318
16.9227
50.606
83.7834
116.05
146.892
175.638
201.397
222.999
238.969
247.59
247.234
237.352
220.939
210.976
250.496
19.5522
58.6471
97.6995
136.63
175.275
213.324
250.233
285.078
316.318
341.465
356.709
356.904
337.258
300.973
285.881
22.1822
66.6996
111.669
157.365
204.01
251.723
300.407
349.538
397.744
442.019
476.379
489.896
464.647
375.492
189.603
24.7001
74.42
125.102
177.395
231.946
289.372
350.175
414.521
481.747
549.265
610.289
649.504
636.014
516.691
227.09
26.9899
81.4544
137.387
195.814
257.827
324.604
397.391
477.389
565.403
660.837
759.13
845.447
880.573
775.824
378.674
28.9375
87.4523
147.912
211.701
280.346
355.596
439.515
534.589
643.773
770.265
916.105
1076.72
1222.04
1237.8
780.289
30.4356
92.0839
156.098
224.179
298.231
380.507
473.819
581.896
710.014
866.123
1062.66
1318.42
1653.29
2028.28
1947.84
31.3893
95.0583
161.438
232.476
310.362
397.702
497.804
615.202
756.719
933.791
1167.96
1505.05
2056.5
3134.87
5764.72
31.7207
96.1383
163.523
235.99
315.894
405.993
509.723
631.689
778.651
961.725
1201.66
1542.69
2093.63
3163.83
5776.15
31.3714
95.1485
162.062
234.318
314.319
404.788
508.942
630.764
775.439
950.112
1165.06
1434.46
1770.06
2121.69
1985.84
30.3018
91.9746
156.878
227.248
305.455
394.06
495.871
613.936
751.349
910.492
1090.59
1280.21
1435.26
1417.99
859.181
28.4893
86.554
147.89
214.726
289.355
374.147
471.501
583.658
712.147
856.3
1009.49
1149.92
1220.11
1090.33
537.743
25.9231
78.8618
135.082
196.787
266.193
345.507
436.85
542.039
662.064
795.836
937.272
1068.44
1143.84
1056.32
579.439
22.5997
68.8938
118.469
173.502
236.152
308.52
392.595
490.134
602.452
730.078
872.226
1025.73
1180.77
1292.79
1094.81
18.5184
56.6528
98.0723
144.94
199.374
263.417
339.011
427.994
532.247
654.288
799.36
982.057
1247.72
1744.71
2993.43
13.6773
42.1378
73.9042
111.14
155.944
210.32
276.159
355.292
449.739
562.576
700.455
880.897
1154.19
1674.9
2966.55
8.07128
25.3361
45.9528
72.1056
105.895
149.297
204.12
272.005
354.527
453.558
572.098
715.398
889.038
1070.03
1006.62
1.68949
6.21708
14.1745
27.7924
49.2041
80.3835
123.061
178.616
247.925
331.088
426.659
528.968
618.957
635.099
400.939
-5.48589
-15.2717
-21.5144
-21.9049
-14.2332
3.53178
33.117
75.7439
131.785
200.105
276.656
351.231
400.309
374.134
189.593
-13.4803
-39.2076
-61.2448
-77.1692
-84.6388
-81.4776
-65.822
-36.3685
7.20529
63.5104
128.144
191.339
234.062
223.27
113.477
-22.326
-65.6913
-105.195
-138.27
-162.383
-175.109
-174.276
-158.208
-126.124
-78.7603
-19.2464
45.7998
105.125
141.294
118.801
-32.0601
-94.8401
-153.584
-205.558
-247.986
-278.098
-293.241
-291.086
-269.967
-229.359
-170.347
-95.6215
-7.56659
100.238
273.665
-42.719
-126.775
-206.647
-279.435
-342.092
-391.423
-424.146
-437.045
-427.246
-392.628
-332.225
-246.148
-133.787
13.8664
242.342
-54.3321
-161.596
-264.6
-360.306
-445.399
-516.219
-568.745
-598.677
-601.656
-573.692
-511.798
-414.778
-284.332
-128.379
19.5538
-66.9114
-199.358
-327.589
-448.502
-558.564
-653.654
-728.959
-778.936
-797.451
-778.207
-715.641
-606.482
-452.434
-264.884
-73.1928
-80.44
-240.029
-395.629
-544.19
-682.066
-804.761
-906.683
-980.951
-1019.36
-1012.7
-951.719
-829.234
-643.675
-404.15
-134.412
-94.859
-283.451
-468.523
-647.249
-816.05
-970.221
-1103.53
-1207.77
-1272.46
-1284.79
-1230.4
-1095.67
-872.289
-564.315
-194.959
-110.053
-329.297
-545.79
-757.154
-960.128
-1150.09
-1320.47
-1461.97
-1561.82
-1603.09
-1564.75
-1423.56
-1159.55
-767.039
-269.76
-125.841
-377.031
-626.582
-872.833
-1113.18
-1343.49
-1557.36
-1744.98
-1891.74
-1976.56
-1970.42
-1836.62
-1535.96
-1042.45
-373.872
-141.962
-425.881
-709.629
-992.56
-1273.12
-1548.22
-1812.37
-2056.24
-2264.55
-2413.06
-2464.61
-2365.42
-2046.21
-1439.37
-532.932
-158.081
-474.826
-793.204
-1113.88
-1436.77
-1760.47
-2081.37
-2392.07
-2678.76
-2916.77
-3063.33
-3046.9
-2756.07
-2044.26
-802.674
-173.785
-522.612
-875.141
-1233.6
-1599.77
-1974.57
-2357.34
-2744.44
-3126.61
-3483.82
-3775.07
-3918.77
-3758.15
-3016.93
-1324.98
-188.609
-567.801
-952.915
-1347.91
-1756.7
-2183.03
-2630.17
-3100.08
-3591.65
-4096.52
-4589.08
-5001.78
-5163.22
-4649.72
-2512.48
-202.055
-608.85
-1023.78
-1452.56
-1901.34
-2376.93
-2887.05
-3440.52
-4047.27
-4717.56
-5458.33
-6259.03
-7036.72
-7409.93
-5705.24
-213.627
-644.222
-1084.99
-1543.26
-2027.26
-2546.72
-3113.68
-3743.8
-4458.58
-5289.43
-6285.68
-7532
-9190.76
-11612.8
-15637.9
15341.8
11431.7
9072.45
7452.99
6233.49
5256.43
4439.44
3734.55
3111.2
2548.51
2031.31
1547.99
1089.21
647.09
214.639
5605.01
7301.6
6952.59
6200.26
5420.6
4696.21
4038.15
3440.09
2892.32
2385.41
1910.98
1461.73
1031.22
613.664
203.718
2474.48
4591.79
5112.47
4966.25
4569.07
4089.72
3595.01
3110.55
2644.94
2199.65
1773.08
1362.39
964.182
574.93
191.047
1310.25
2990.55
3735.25
3906.28
3774.41
3493.71
3144.6
2767.77
2383.33
2000.78
1624.09
1254.31
890.888
532.442
177.126
798.884
2038.89
2756.26
3056.48
3082.94
2945.04
2713.3
2430.15
2120.29
1797.74
1470.23
1141.75
814.102
487.759
162.457
535.925
1450.07
2066.82
2396.65
2505.47
2461.4
2317.58
2110.98
1865.97
1598.07
1316.97
1028.58
736.373
442.333
147.514
382.455
1067.73
1576.52
1890.19
2034.07
2046.93
1965.34
1818.4
1627.46
1407.5
1168.72
917.999
659.887
397.429
132.709
284.274
807.884
1221.66
1501.56
1653.56
1697.96
1658.39
1556.28
1409.04
1229.92
1028.72
812.51
586.391
354.078
118.383
217.287
624.274
959.724
1201.68
1347.69
1407.23
1394.79
1325.45
1212.68
1067.63
899.092
713.868
517.172
313.06
104.798
169.449
490.314
762.669
968.369
1101.8
1166.42
1170.65
1124.71
1038.69
921.596
781.013
623.16
453.082
274.91
92.1345
134.126
390.02
611.869
785.202
903.658
967.5
981.288
951.748
886.237
791.833
674.892
540.915
394.593
239.947
80.504
107.378
313.353
494.733
640.11
743.4
803.294
821.973
803.723
753.807
677.686
580.573
467.22
341.868
208.303
69.9573
86.7246
253.751
402.577
524.215
613.243
667.673
688.266
677.654
639.54
578.087
497.508
401.836
294.832
179.971
60.497
70.5279
206.776
329.283
430.942
507.083
555.52
576.198
570.652
541.453
491.745
424.9
344.305
253.238
154.834
52.0899
57.6668
169.334
270.452
355.371
420.14
462.619
482.315
480.049
457.584
417.281
361.824
294.031
216.729
132.705
44.6775
47.3495
139.209
222.857
293.776
348.655
385.519
403.662
403.452
386.084
353.322
307.3
250.346
184.88
113.348
38.1855
39.002
114.779
184.092
243.308
289.665
321.401
337.734
338.754
325.254
298.558
260.352
212.56
157.237
96.5085
32.5308
32.199
94.8333
152.331
201.757
240.816
267.965
282.427
284.124
273.575
251.772
220.051
179.994
133.339
81.921
27.6273
26.6193
78.4499
126.169
167.396
200.226
223.329
235.971
237.984
229.701
211.862
185.53
152.003
112.744
69.3265
23.3899
22.0162
64.9178
104.511
138.858
166.382
185.947
196.885
198.985
192.451
177.84
155.997
127.985
95.0318
58.4782
19.7372
18.1973
53.6802
86.4917
115.052
138.059
154.548
163.928
165.973
160.802
148.834
130.74
107.392
79.8159
49.1463
16.5929
15.0106
44.2957
71.4205
95.0984
114.255
128.081
136.058
137.966
133.866
124.075
109.126
89.732
66.7446
41.1205
13.8872
12.3344
36.4095
58.74
78.2804
94.1485
105.669
112.396
114.124
110.877
102.893
90.5951
74.5628
55.5013
34.2106
11.5564
10.0699
29.7333
47.9948
64.0093
77.0577
86.5808
92.2012
93.7318
91.1734
84.7026
74.6533
61.4941
45.8039
28.246
9.54377
8.13606
24.0296
38.808
51.7955
62.4119
70.1998
74.8429
76.1756
74.1828
68.9936
60.868
50.1807
37.4015
23.0748
7.79833
6.46481
19.0993
30.8634
41.2265
49.7281
55.9999
59.7808
60.9259
59.4093
55.3212
48.8595
40.3182
30.0725
18.5624
6.27492
4.99833
14.7728
23.8909
31.9487
38.5911
43.5281
46.5471
47.5224
46.4196
43.2952
38.2935
31.6377
23.6204
14.5893
4.93347
3.68601
10.9017
17.6539
23.6529
28.6375
32.3868
34.7312
35.5608
34.8322
32.5718
28.8749
23.902
17.8716
11.0497
3.73846
2.48223
7.35223
11.9399
16.0612
19.5411
22.2207
23.9666
24.6804
24.308
22.8452
20.3418
16.9002
12.6719
7.84986
2.6584
1.34407
3.99891
6.5497
8.91496
11.0005
12.703
13.9186
14.5544
14.5407
13.8412
12.46
10.4446
7.88461
4.90647
1.66539
0.229147
0.718157
1.2888
1.96353
2.72653
3.52406
4.2738
4.87995
5.25017
5.31094
5.01893
4.36746
3.3878
2.14581
0.734729
-0.906925
-2.61874
-4.04352
-5.0481
-5.57018
-5.62042
-5.27004
-4.62954
-3.8245
-2.97356
-2.17193
-1.48134
-0.926478
-0.497188
-0.155312
-2.11357
-6.15413
-9.66631
-12.3931
-14.1926
-15.0411
-15.0134
-14.2515
-12.9294
-11.2225
-9.28472
-7.2352
-5.15306
-3.07917
-1.02357
-3.44937
-10.0553
-15.8326
-20.3796
-23.4728
-25.0672
-25.2637
-24.2597
-22.2993
-19.6299
-16.4737
-13.0108
-9.37334
-5.64815