/*--------------------------------*- C++ -*----------------------------------*\
| =========                 |                                                 |
| \\      /  F ield         | OpenFOAM: The Open Source CFD Toolbox           |
|  \\    /   O peration     | Version:  5.x                                   |
|   \\  /    A nd           | Web:      www.OpenFOAM.org                      |
|    \\/     M anipulation  |                                                 |
\*---------------------------------------------------------------------------*/
FoamFile
{
    version     2.0;
    format      ascii;
    class       volScalarField;
    location    "0.3";
    object      gradTx;
}
// * * * * * * * * * * * * * * * * * * * * * * * * * * * * * * * * * * * * * //

dimensions      [0 -1 0 1 0 0 0];

internalField   nonuniform List<scalar> 
2048
(
-0.00154751
-0.00449546
-0.00701379
-0.00880564
-0.00957198
-0.00902808
-0.00689772
-0.00294988
0.00298713
0.011014
0.0211499
0.0333298
0.0474051
0.063143
0.0802216
0.0982202
0.116609
0.134748
0.151896
0.167248
0.179999
0.189429
0.194996
0.196415
0.193709
0.187203
0.177472
0.165261
0.151378
0.136608
0.121644
0.107048
0.0932322
0.0804726
0.0689226
0.0586394
0.0496088
0.0417679
0.0350241
0.0292691
0.0243898
0.0202752
0.016821
0.0139318
0.0115226
0.00951861
0.00785518
0.00647666
0.00533574
0.00439235
0.00361277
0.00296866
0.00243633
0.00199595
0.00163097
0.00132761
0.00107435
0.000861589
0.000681232
0.000526398
0.000391148
0.000270268
0.000158965
5.25601e-05
-0.0046948
-0.0136467
-0.0213308
-0.0268756
-0.0293827
-0.0279963
-0.0218892
-0.0103616
0.00710774
0.0308231
0.060843
0.0969745
0.138779
0.185572
0.236411
0.29006
0.344956
0.399194
0.450554
0.496606
0.5349
0.563228
0.579919
0.584097
0.575828
0.556116
0.526735
0.489963
0.448269
0.40403
0.359328
0.315831
0.27476
0.23691
0.202716
0.172326
0.14568
0.122576
0.102728
0.0858074
0.0714739
0.0593959
0.0492624
0.0407911
0.0337303
0.0278594
0.0229875
0.0189512
0.0156113
0.0128501
0.0105688
0.00868412
0.00712668
0.00583837
0.00477073
0.00388336
0.00314258
0.00252028
0.00199278
0.0015399
0.00114426
0.000790816
0.000465968
0.000154516
-0.00802492
-0.0233602
-0.0366374
-0.0464394
-0.0512712
-0.0496937
-0.0403116
-0.0219309
0.00633952
0.0450173
0.0942015
0.153573
0.222415
0.299625
0.383687
0.472614
0.563869
0.654312
0.740232
0.8175
0.881893
0.929559
0.957552
0.964318
0.949971
0.916283
0.866384
0.804254
0.734161
0.660161
0.585753
0.513692
0.445949
0.383773
0.327809
0.278233
0.23489
0.197404
0.165271
0.137928
0.114803
0.0953429
0.0790348
0.0654147
0.0540714
0.0446462
0.0368293
0.0303561
0.0250019
0.0205769
0.0169219
0.0139032
0.0114091
0.00934636
0.0076371
0.00621656
0.00503078
0.00403473
0.00319049
0.00246561
0.00183205
0.00126617
0.000748102
0.000249366
-0.0116801
-0.0340731
-0.0536811
-0.0685649
-0.0766306
-0.0758247
-0.0641337
-0.0398159
-0.00156963
0.0513536
0.11909
0.201186
0.296654
0.404005
0.521221
0.645648
0.77385
0.901493
1.02333
1.13337
1.2254
1.29359
1.33347
1.34264
1.32125
1.27203
1.19975
1.11041
1.01034
0.905455
0.800726
0.699977
0.605856
0.519964
0.443052
0.375233
0.316178
0.265282
0.221785
0.184869
0.153716
0.12755
0.105656
0.0873948
0.0722033
0.0595922
0.0491411
0.0404922
0.0333422
0.0274359
0.0225591
0.0185328
0.015207
0.012457
0.0101787
0.00828542
0.00670515
0.00537784
0.00425294
0.00328711
0.00244255
0.00168738
0.000999314
0.000335016
-0.0157543
-0.0460761
-0.0729727
-0.0940103
-0.106486
-0.107679
-0.0948775
-0.0657049
-0.018386
0.0480804
0.133852
0.238311
0.360189
0.49765
0.648259
0.808815
0.975105
1.14165
1.30162
1.44697
1.56909
1.65977
1.71254
1.72389
1.69404
1.62694
1.52946
1.41008
1.27761
1.14002
1.00387
0.874002
0.753634
0.644579
0.547554
0.462489
0.388787
0.325541
0.271691
0.226134
0.187792
0.155661
0.128827
0.106482
0.0879185
0.0725252
0.0597805
0.0492416
0.040535
0.0333468
0.0274144
0.0225185
0.0184758
0.0151339
0.0123658
0.0100658
0.00814615
0.00653388
0.00516752
0.00399456
0.00296877
0.00204952
0.001216
0.000410089
-0.0202976
-0.0595303
-0.0948165
-0.123267
-0.141552
-0.146213
-0.133719
-0.10093
-0.0455072
0.0338266
0.137209
0.263794
0.411999
0.579674
0.764078
0.961635
1.16753
1.37525
1.57633
1.76045
1.9161
2.03203
2.09916
2.11247
2.07225
1.98407
1.85756
1.70438
1.53628
1.36362
1.1946
1.03501
0.888484
0.756852
0.640627
0.539405
0.452212
0.377764
0.314647
0.261444
0.216805
0.179494
0.148403
0.12256
0.101122
0.0833685
0.0686852
0.056554
0.0465393
0.0382764
0.0314607
0.0258382
0.0211976
0.0173625
0.0141865
0.011548
0.00934602
0.00749659
0.00592908
0.00458355
0.00340732
0.0023502
0.00139632
0.000473741
-0.0253187
-0.0744776
-0.11933
-0.156589
-0.182282
-0.192114
-0.181568
-0.146557
-0.0840518
0.00752196
0.128201
0.27679
0.451318
0.649346
0.867972
1.10348
1.35069
1.60229
1.84817
2.07544
2.26912
2.41403
2.49754
2.51257
2.45947
2.34605
2.1856
1.99386
1.78619
1.57565
1.37211
1.18217
1.00964
0.856139
0.721755
0.605589
0.506167
0.421746
0.350512
0.290705
0.240696
0.199013
0.164361
0.135615
0.11181
0.0921218
0.0758575
0.0624328
0.0513591
0.0422286
0.0347016
0.0284955
0.0233752
0.0191452
0.015643
0.0127339
0.0103062
0.00826714
0.00653841
0.00505442
0.00375803
0.00258903
0.00153952
0.00052545
-0.0307878
-0.0908477
-0.146457
-0.194014
-0.228894
-0.24584
-0.239126
-0.203457
-0.134931
-0.0316619
0.106142
0.276737
0.477626
0.706096
0.959262
1.23357
1.52387
1.82231
2.1173
2.3931
2.6305
2.80922
2.91185
2.92834
2.85914
2.71516
2.51462
2.27854
2.0267
1.77516
1.5354
1.31458
1.11638
0.941911
0.790587
0.660833
0.550552
0.457464
0.379312
0.313975
0.259535
0.214295
0.17678
0.145723
0.120048
0.0988449
0.0813495
0.066923
0.0550329
0.0452361
0.0371648
0.0305133
0.025028
0.0204981
0.0167484
0.0136341
0.0110353
0.00885228
0.00700073
0.00541094
0.00402332
0.00276725
0.00164572
0.000564948
-0.0366383
-0.108464
-0.175976
-0.235374
-0.281392
-0.307658
-0.306942
-0.27237
-0.198911
-0.0843583
0.0705994
0.263351
0.490659
0.749531
1.03731
1.35102
1.68601
2.03439
2.38333
2.71404
3.00224
3.22101
3.34635
3.36405
3.27463
3.09334
2.84516
2.55793
2.25673
1.96087
1.68328
1.43131
1.20806
1.01377
0.846932
0.7051
0.585435
0.485052
0.401214
0.331432
0.273502
0.225509
0.185813
0.153021
0.125958
0.103642
0.0852507
0.0701007
0.0576248
0.0473527
0.0388949
0.0319288
0.0261867
0.0214463
0.0175233
0.0142654
0.0115469
0.00926279
0.00732439
0.0056594
0.00420752
0.00288754
0.00171594
0.000592235
-0.0427695
-0.12705
-0.207502
-0.280302
-0.339573
-0.377666
-0.385453
-0.353968
-0.276675
-0.151044
0.0213804
0.236637
0.49043
0.779461
1.10158
1.45484
1.83578
2.23713
2.64527
3.03835
3.38603
3.65281
3.80563
3.82428
3.70935
3.48226
3.17724
2.83094
2.4747
2.13122
1.81447
1.53141
1.28409
1.07145
0.890763
0.738519
0.611037
0.504777
0.416504
0.343357
0.28286
0.232895
0.191673
0.157693
0.1297
0.10665
0.0876769
0.0720633
0.0592164
0.0486464
0.0399487
0.0327889
0.0268899
0.0220219
0.017994
0.0146491
0.0118579
0.0095122
0.00751994
0.00580786
0.0043164
0.00295381
0.00175215
0.000607676
-0.0490489
-0.146233
-0.240503
-0.328235
-0.403034
-0.455803
-0.475021
-0.448912
-0.368875
-0.232073
-0.0414749
0.1969
0.477251
0.795932
1.15161
1.544
1.9716
2.42865
2.90152
3.36546
3.78317
4.1081
4.29469
4.31402
4.16677
3.88321
3.51026
3.09586
2.67859
2.28436
1.92757
1.61403
1.34406
1.11487
0.922216
0.761367
0.627712
0.517021
0.425559
0.350106
0.287932
0.23674
0.194612
0.159958
0.131459
0.108026
0.0887605
0.0729219
0.0599005
0.0491944
0.0403901
0.0331464
0.0271813
0.0222604
0.0181895
0.0148089
0.0119875
0.00961572
0.00759929
0.00586553
0.00435675
0.00297105
0.00175742
0.000612122
-0.0553169
-0.165558
-0.274295
-0.378413
-0.471164
-0.541855
-0.575969
-0.557916
-0.476205
-0.327707
-0.117689
0.144761
0.451754
0.799253
1.18713
1.61747
2.09167
2.6066
3.14977
3.69411
4.19455
4.59052
4.81918
4.83894
4.65053
4.29708
3.84296
3.35034
2.86592
2.41829
2.02121
1.67839
1.38769
1.14411
0.941592
0.774066
0.635931
0.522258
0.428829
0.352091
0.289087
0.237365
0.194907
0.160052
0.131436
0.107939
0.0886434
0.0727949
0.0597756
0.0490784
0.0402866
0.0330571
0.0271066
0.0221995
0.0181407
0.0147696
0.0119558
0.00958941
0.00757509
0.00584236
0.0043361
0.00294518
0.00173599
0.000606997
-0.0613914
-0.184496
-0.308066
-0.429881
-0.543129
-0.635447
-0.688604
-0.681818
-0.599461
-0.438143
-0.206738
0.0811807
0.414908
0.790017
1.20807
1.67427
2.19401
2.76819
3.38698
4.02217
4.62048
5.10383
5.38561
5.40554
5.16443
4.72421
4.17322
3.59134
3.03383
2.53086
2.09409
1.72391
1.41492
1.15943
0.949353
0.777164
0.63626
0.521035
0.426818
0.349763
0.286718
0.235112
0.192849
0.158222
0.129839
0.106564
0.0874705
0.0718027
0.0589416
0.0483811
0.0397065
0.0325773
0.026712
0.021877
0.0178782
0.0145565
0.0117831
0.0094495
0.00746018
0.00574869
0.00426243
0.00288286
0.00169319
0.000594288
-0.0670757
-0.202465
-0.340887
-0.481493
-0.617858
-0.736017
-0.813231
-0.821656
-0.739625
-0.563529
-0.307832
0.00747592
0.36803
0.769112
1.21455
1.71355
2.27661
2.91025
3.60935
4.34653
5.06052
5.65194
6.00157
6.02144
5.71241
5.16422
4.49796
3.81509
3.17912
2.6199
2.14506
1.75023
1.42591
1.1613
0.946107
0.771319
0.629346
0.513951
0.420065
0.343592
0.281232
0.230327
0.188732
0.154715
0.126873
0.104071
0.0853849
0.0700641
0.0574968
0.0471836
0.0387168
0.0317618
0.0260426
0.0213299
0.0174324
0.0141939
0.0114891
0.00921187
0.00726724
0.0055949
0.0041439
0.00279115
0.0016351
0.000576379
-0.072167
-0.218851
-0.371736
-0.531921
-0.694019
-0.842778
-0.950165
-0.978757
-0.897955
-0.703979
-0.41988
-0.0746611
0.312776
0.737716
1.20699
1.73465
2.33747
3.02931
3.81232
4.66289
5.51325
6.23887
6.67614
6.69572
6.29853
5.61575
4.81301
4.0171
3.29836
2.68335
2.1732
1.75723
1.42104
1.15036
0.9326
0.757279
0.615891
0.501639
0.409123
0.334057
0.273038
0.223355
0.182844
0.149771
0.12274
0.100628
0.0825245
0.0676931
0.0555351
0.0455635
0.0373812
0.0306632
0.0251415
0.0205931
0.0168317
0.013705
0.0110925
0.00889172
0.00700846
0.0053912
0.00398862
0.00267702
0.00156784
0.000555721
-0.0764671
-0.233036
-0.399539
-0.579671
-0.76999
-0.954662
-1.09971
-1.15485
-1.0761
-0.859566
-0.541444
-0.163149
0.25112
0.697269
1.18602
1.73714
2.37472
3.12173
3.9906
4.96565
5.97591
6.86857
7.42025
7.43935
6.9268
6.07613
5.11285
4.19218
3.38798
2.71935
2.17793
1.74514
1.40096
1.12743
0.909689
0.735862
0.596634
0.484747
0.394551
0.321632
0.262533
0.214529
0.175463
0.143621
0.11763
0.0963918
0.0790191
0.0647966
0.0531448
0.0435933
0.0357594
0.0293303
0.0240487
0.0196996
0.0161029
0.0131116
0.010611
0.00850334
0.00669532
0.00514738
0.00380437
0.00254679
0.00149678
0.000534407
-0.0797931
-0.244429
-0.423203
-0.623114
-0.843844
-1.07023
-1.26212
-1.35218
-1.27622
-1.03029
-0.670671
-0.255509
0.18531
0.649432
1.15255
1.72092
2.38678
3.18389
4.13829
5.24776
6.44398
7.54473
8.24726
8.2657
7.60097
6.54096
5.39056
4.33458
3.44448
2.72636
2.15904
1.71448
1.36652
1.09349
0.878319
0.707928
0.572329
0.463923
0.376895
0.306775
0.250098
0.204164
0.16685
0.13648
0.111721
0.0915089
0.074989
0.0614736
0.0504073
0.0413399
0.0339062
0.0278083
0.0228011
0.0186794
0.0152704
0.0124334
0.0100607
0.00805997
0.00633844
0.00487254
0.00359834
0.00240554
0.00142555
0.000513752
-0.0819895
-0.252499
-0.441676
-0.660526
-0.913329
-1.18759
-1.43754
-1.57372
-1.50118
-1.21599
-0.8052
-0.348872
0.117809
0.596024
1.1077
1.68619
2.37246
3.21235
4.24899
5.50055
6.91069
8.27031
9.17366
9.19127
8.32408
7.00355
5.63763
4.43809
3.46463
2.70335
2.11677
1.66612
1.31883
1.04962
0.839499
0.674361
0.543732
0.439798
0.356682
0.28992
0.236092
0.192555
0.157246
0.128547
0.105176
0.0861128
0.0705438
0.0578141
0.0473962
0.0388637
0.0318713
0.0261378
0.0214318
0.0175596
0.0143564
0.0116886
0.00945632
0.00757367
0.0059475
0.00457484
0.00337692
0.00225666
0.00135547
0.000494056
-0.0829375
-0.256806
-0.453991
-0.690153
-0.975871
-1.30424
-1.62581
-1.8233
-1.75475
-1.41626
-0.942055
-0.439994
0.0512099
0.538944
1.05278
1.63357
2.33106
3.2041
4.31613
5.71379
7.36633
9.04693
10.22
10.2366
9.09781
7.45433
5.84399
4.49634
3.44563
2.64983
2.05184
1.60124
1.25915
0.997024
0.794271
0.636043
0.511576
0.412979
0.334407
0.271473
0.220846
0.179972
0.146873
0.120002
0.0981406
0.0803239
0.0657821
0.0538987
0.0441777
0.036219
0.0296991
0.024355
0.0199708
0.0163645
0.0133806
0.0108931
0.00881084
0.00705533
0.00553114
0.00426132
0.00314551
0.00210166
0.00128535
0.000474663
-0.0825634
-0.257035
-0.459334
-0.710282
-1.0286
-1.41693
-1.82633
-2.10597
-2.04184
-1.63019
-1.07751
-0.525312
-0.0118731
0.48008
0.989246
1.564
2.26252
3.15678
4.33322
5.87572
7.79761
9.87376
11.4121
11.4277
9.92139
7.88012
5.99805
4.50307
3.38541
2.56603
1.96543
1.5213
1.18889
0.936941
0.743682
0.593839
0.476563
0.384034
0.310531
0.251806
0.20466
0.16666
0.135928
0.111006
0.0907475
0.0742491
0.0607911
0.0497986
0.04081
0.0334534
0.0274286
0.0224921
0.018444
0.0151155
0.0123606
0.0100611
0.00813589
0.00651463
0.005097
0.00393761
0.00290846
0.00194049
0.00121207
0.000454366
-0.0808434
-0.253012
-0.457096
-0.719339
-1.0684
-1.52154
-2.03766
-2.42825
-2.36892
-1.85608
-1.20694
-0.601016
-0.0689226
0.42122
0.91861
1.47882
2.16746
3.06895
4.29433
5.97336
8.18692
10.746
12.7826
12.797
10.7901
8.26342
6.087
4.45257
3.28279
2.45289
1.85919
1.428
1.10957
0.870637
0.688761
0.548572
0.439353
0.353489
0.285474
0.231255
0.187806
0.152836
0.124587
0.101701
0.0831118
0.0679823
0.0556474
0.0455764
0.0373442
0.0306086
0.0250939
0.0205768
0.0168743
0.0138311
0.0113114
0.00920509
0.00744154
0.00596002
0.00465179
0.00360795
0.00266904
0.00177216
0.00113172
0.000432063
-0.077804
-0.244725
-0.446921
-0.715991
-1.09205
-1.61288
-2.25707
-2.79866
-2.74439
-2.09091
-1.32472
-0.663182
-0.117655
0.36396
0.842412
1.37964
2.04717
2.94026
4.19453
5.99297
8.51162
11.6526
14.373
14.3862
11.693
8.58173
6.09726
4.34014
3.13775
2.3121
1.73517
1.32322
1.02275
0.799366
0.630496
0.501017
0.400552
0.321821
0.259611
0.210119
0.170521
0.13869
0.113004
0.0922111
0.0753338
0.061605
0.0504171
0.0412859
0.0338241
0.0277204
0.0227243
0.0186332
0.0152812
0.0125274
0.0102461
0.00833577
0.00673651
0.00539871
0.00420132
0.00327518
0.00242948
0.00159579
0.0010412
0.000407417
-0.0735195
-0.23232
-0.428744
-0.699256
-1.09633
-1.68466
-2.47982
-3.2282
-3.1792
-2.32971
-1.42411
-0.707945
-0.156155
0.309627
0.762143
1.26837
1.90368
2.7716
4.03037
5.92078
8.74362
12.573
16.2366
16.2485
12.6095
8.80704
6.01525
4.16257
2.95148
2.14607
1.59575
1.20895
0.930011
0.724337
0.569813
0.451884
0.360709
0.289456
0.233278
0.188661
0.153013
0.124389
0.101312
0.0826435
0.0674997
0.0551868
0.0451566
0.0369729
0.0302871
0.0248194
0.0203448
0.0166816
0.0136815
0.0112179
0.00917596
0.00746232
0.00602821
0.00483672
0.00375068
0.00294099
0.00219113
0.00141173
0.000939661
0.000381214
-0.068105
-0.216096
-0.402808
-0.66861
-1.0783
-1.72941
-2.69821
-3.73116
-3.68754
-2.56454
-1.49723
-0.731732
-0.183013
0.259223
0.679199
1.14707
1.73961
2.56518
3.80045
5.74405
8.84928
13.4725
18.4411
18.4517
13.505
8.90581
5.82836
3.91868
2.7265
1.95786
1.44355
1.08723
0.832873
0.646691
0.507564
0.401817
0.320312
0.25677
0.206765
0.16711
0.135463
0.110076
0.0896233
0.0730886
0.0596823
0.0487866
0.0399137
0.0326762
0.0267648
0.0219312
0.0179763
0.0147392
0.0120892
0.00991414
0.00811028
0.00659255
0.00532294
0.0042788
0.00330426
0.00260633
0.0019546
0.00122238
0.000829219
0.000355143
-0.0617073
-0.196483
-0.369664
-0.624078
-1.03551
-1.73864
-2.90023
-4.32595
-4.28778
-2.78321
-1.53523
-0.731548
-0.197424
0.213392
0.594839
1.01792
1.55811
2.32452
3.50576
5.45233
8.78998
14.2964
21.0738
21.0831
14.3249
8.83952
5.52628
3.60966
2.46662
1.75104
1.28132
0.96008
0.73279
0.567477
0.444518
0.351384
0.279789
0.224087
0.180321
0.145657
0.11802
0.0958682
0.0780334
0.0636222
0.0519426
0.0424534
0.034728
0.028428
0.0232831
0.0190771
0.015636
0.0128201
0.0105158
0.0086255
0.00705684
0.005733
0.00462595
0.0037286
0.00286577
0.00227195
0.00171989
0.00103248
0.000714654
0.000330903
-0.0544947
-0.174014
-0.33014
-0.566293
-0.966396
-1.70315
-3.06785
-5.03627
-5.00353
-2.96749
-1.52861
-0.705301
-0.199273
0.172419
0.510158
0.883125
1.3627
2.05431
3.15003
5.03896
8.52373
14.9616
24.2461
24.254
14.986
8.56625
5.10248
3.23941
2.17682
1.52952
1.11186
0.829417
0.631105
0.487643
0.381354
0.30108
0.239507
0.191683
0.154157
0.124465
0.100813
0.0818665
0.0666208
0.0543069
0.0443305
0.0362274
0.0296319
0.0242543
0.0198635
0.0162742
0.0133382
0.010936
0.00897079
0.00735972
0.00602197
0.00488904
0.00394166
0.00318867
0.00243825
0.0019389
0.00148667
0.000848519
0.000601884
0.000308884
-0.0466473
-0.149288
-0.285298
-0.496517
-0.870533
-1.61372
-3.17475
-5.89244
-5.8651
-3.09091
-1.46784
-0.652144
-0.189156
0.136249
0.426078
0.744812
1.15712
1.76023
2.73978
4.50265
8.00816
15.3463
28.1002
28.1068
15.3667
8.0437
4.55578
2.81464
1.863
1.2974
0.937875
0.697043
0.529026
0.408022
0.318658
0.251327
0.199775
0.159789
0.128446
0.103668
0.0839433
0.0681513
0.0554492
0.0451933
0.0368865
0.0301409
0.0246515
0.0201764
0.0165229
0.0135367
0.0110941
0.00909593
0.0074618
0.006123
0.00501073
0.00406503
0.00327378
0.00266069
0.00202397
0.00160899
0.00125443
0.000677349
0.000495733
0.000286952
-0.0383482
-0.122936
-0.23637
-0.416605
-0.749015
-1.46209
-3.18345
-6.9331
-6.91107
-3.11587
-1.34445
-0.57279
-0.168352
0.104544
0.343349
0.604995
0.945113
1.4486
2.28417
3.84896
7.20537
15.2765
32.8167
32.822
15.2929
7.23404
3.89183
2.34464
1.53172
1.0588
0.761912
0.564581
0.427619
0.32933
0.256928
0.202479
0.160849
0.128593
0.103332
0.0833741
0.0674949
0.0547871
0.0445692
0.0363212
0.0296423
0.0242196
0.0198073
0.0162108
0.0132747
0.0108752
0.00891262
0.00730726
0.00599475
0.00492019
0.00402706
0.0032644
0.00262535
0.00214566
0.00162432
0.00128502
0.00102277
0.000524212
0.000397875
0.000260143
-0.0297777
-0.0955888
-0.184674
-0.328912
-0.604665
-1.24255
-3.0418
-8.2071
-8.19024
-2.9901
-1.15254
-0.469753
-0.138728
0.0767521
0.262556
0.465502
0.730318
1.12606
1.79462
3.09144
6.08922
14.5099
38.6237
38.6277
14.5225
6.11115
3.12427
1.84094
1.18981
0.817641
0.586294
0.433456
0.327793
0.252171
0.196574
0.154822
0.122934
0.0982466
0.0789246
0.0636671
0.0515323
0.0418241
0.03402
0.0277218
0.0226225
0.0184829
0.015115
0.0123699
0.0101292
0.00829801
0.00680038
0.00557543
0.00457417
0.00375501
0.00307396
0.00248973
0.00199889
0.00164418
0.00123978
0.000970644
0.000791598
0.000390813
0.000306143
0.000221992
-0.0211094
-0.0678435
-0.131538
-0.236145
-0.442142
-0.954112
-2.67877
-9.77572
-9.7639
-2.6425
-0.890947
-0.347437
-0.102585
0.0521858
0.184142
0.327934
0.516074
0.799198
1.28402
2.2521
4.65531
12.716
45.8071
45.81
12.7248
4.6707
2.27515
1.31655
0.844001
0.577513
0.413056
0.30488
0.230305
0.177036
0.137925
0.108584
0.0861914
0.0688656
0.0553111
0.0446117
0.0361044
0.0292998
0.0238307
0.0194177
0.015845
0.0129451
0.0105859
0.00866315
0.00709372
0.00581117
0.00476229
0.00390443
0.00320336
0.0026302
0.00215361
0.00174284
0.00139634
0.00115669
0.000869981
0.00066996
0.000561446
0.00027412
0.000216106
0.000167788
-0.0125081
-0.0402472
-0.0782185
-0.141161
-0.267804
-0.603317
-1.99948
-11.7152
-11.7083
-1.97813
-0.56611
-0.212006
-0.0624513
0.0301068
0.10843
0.193645
0.305336
0.474169
0.76589
1.36077
2.9344
9.45331
54.7225
54.7242
9.45851
2.94346
1.37435
0.785063
0.500585
0.341586
0.24392
0.179854
0.135767
0.104313
0.0812392
0.06394
0.0507438
0.0405372
0.0325545
0.0262546
0.0212463
0.017241
0.0140221
0.011425
0.00932262
0.00761619
0.00622805
0.00509674
0.00417334
0.00341875
0.00280166
0.00229697
0.00188458
0.00154766
0.00126753
0.00102494
0.000819159
0.00068367
0.000513824
0.000386831
0.000333666
0.000166596
0.000125045
9.91445e-05
-0.00412683
-0.0132795
-0.0258285
-0.0467302
-0.0892789
-0.207902
-0.879571
-14.1196
-14.1173
-0.87255
-0.19567
-0.0709327
-0.0208496
0.00979943
0.0356404
0.0637341
0.100587
0.156412
0.253289
0.4531
1.00919
4.14269
65.8076
65.8081
4.1444
1.01217
0.457566
0.259594
0.1651
0.112513
0.0802827
0.059168
0.0446498
0.0342977
0.0267068
0.0210172
0.016678
0.0133225
0.0106983
0.00862764
0.00698159
0.00566526
0.00460747
0.00375402
0.00306318
0.00250246
0.00204633
0.00167461
0.0013712
0.00112327
0.000920506
0.000754684
0.000619204
0.000508603
0.000416676
0.000336654
0.000268211
0.000225809
0.000169789
0.000124089
0.00011064
5.82281e-05
3.69566e-05
2.80488e-05
)
;

boundaryField
{
    left
    {
        type            calculated;
        value           uniform 0;
    }
    right
    {
        type            calculated;
        value           uniform 0;
    }
    interface
    {
        type            calculated;
        value           nonuniform List<scalar> 
64
(
-0.00412683
-0.0132795
-0.0258285
-0.0467302
-0.0892789
-0.207902
-0.879571
-14.1196
-14.1173
-0.87255
-0.19567
-0.0709327
-0.0208496
0.00979943
0.0356404
0.0637341
0.100587
0.156412
0.253289
0.4531
1.00919
4.14269
65.8076
65.8081
4.1444
1.01217
0.457566
0.259594
0.1651
0.112513
0.0802827
0.059168
0.0446498
0.0342977
0.0267068
0.0210172
0.016678
0.0133225
0.0106983
0.00862764
0.00698159
0.00566526
0.00460747
0.00375402
0.00306318
0.00250246
0.00204633
0.00167461
0.0013712
0.00112327
0.000920506
0.000754684
0.000619204
0.000508603
0.000416676
0.000336654
0.000268211
0.000225809
0.000169789
0.000124089
0.00011064
5.82281e-05
3.69566e-05
2.80488e-05
)
;
    }
    bottom
    {
        type            calculated;
        value           nonuniform List<scalar> 
64
(
-0.00154751
-0.00449546
-0.00701379
-0.00880564
-0.00957198
-0.00902808
-0.00689772
-0.00294988
0.00298713
0.011014
0.0211499
0.0333298
0.0474051
0.063143
0.0802216
0.0982202
0.116609
0.134748
0.151896
0.167248
0.179999
0.189429
0.194996
0.196415
0.193709
0.187203
0.177472
0.165261
0.151378
0.136608
0.121644
0.107048
0.0932322
0.0804726
0.0689226
0.0586394
0.0496088
0.0417679
0.0350241
0.0292691
0.0243898
0.0202752
0.016821
0.0139318
0.0115226
0.00951861
0.00785518
0.00647666
0.00533574
0.00439235
0.00361277
0.00296866
0.00243633
0.00199595
0.00163097
0.00132761
0.00107435
0.000861589
0.000681232
0.000526398
0.000391148
0.000270268
0.000158965
5.25601e-05
)
;
    }
    defaultFaces
    {
        type            empty;
    }
}


// ************************************************************************* //
