/*--------------------------------*- C++ -*----------------------------------*\
| =========                 |                                                 |
| \\      /  F ield         | OpenFOAM: The Open Source CFD Toolbox           |
|  \\    /   O peration     | Version:  5.x                                   |
|   \\  /    A nd           | Web:      www.OpenFOAM.org                      |
|    \\/     M anipulation  |                                                 |
\*---------------------------------------------------------------------------*/
FoamFile
{
    version     2.0;
    format      ascii;
    class       volScalarField;
    location    "0.3";
    object      gradTy;
}
// * * * * * * * * * * * * * * * * * * * * * * * * * * * * * * * * * * * * * //

dimensions      [0 -1 0 1 0 0 0];

internalField   nonuniform List<scalar> 
2048
(
-24.0216
-24.0285
-24.0416
-24.0597
-24.0808
-24.1025
-24.1215
-24.1342
-24.1362
-24.1231
-24.0902
-24.033
-23.947
-23.8283
-23.6735
-23.4802
-23.2466
-22.9727
-22.6596
-22.3103
-21.9297
-21.5243
-21.1021
-20.6722
-20.2439
-19.8261
-19.4266
-19.0518
-18.7062
-18.3925
-18.1118
-17.8637
-17.6469
-17.4591
-17.2979
-17.1605
-17.044
-16.9458
-16.8633
-16.7943
-16.7368
-16.689
-16.6492
-16.6163
-16.5891
-16.5665
-16.548
-16.5326
-16.52
-16.5096
-16.5011
-16.494
-16.4882
-16.4835
-16.4796
-16.4765
-16.4739
-16.4718
-16.4702
-16.4689
-16.4679
-16.4672
-16.4667
-16.4665
-24.0133
-24.0206
-24.0347
-24.0543
-24.0776
-24.1018
-24.1239
-24.1399
-24.1456
-24.1362
-24.107
-24.0533
-23.9705
-23.8545
-23.7018
-23.5096
-23.2763
-23.0012
-22.6857
-22.3324
-21.9464
-21.5344
-21.1049
-20.6675
-20.2319
-19.8077
-19.403
-19.0245
-18.6766
-18.362
-18.0815
-17.8346
-17.6194
-17.4337
-17.2747
-17.1395
-17.0252
-16.929
-16.8484
-16.781
-16.7249
-16.6783
-16.6396
-16.6076
-16.5812
-16.5593
-16.5413
-16.5264
-16.5141
-16.504
-16.4957
-16.4889
-16.4833
-16.4787
-16.475
-16.4719
-16.4694
-16.4674
-16.4658
-16.4646
-16.4636
-16.4629
-16.4625
-16.4622
-23.9971
-24.0054
-24.0214
-24.0439
-24.071
-24.1002
-24.128
-24.1505
-24.1632
-24.1611
-24.139
-24.092
-24.0153
-23.9045
-23.7558
-23.5661
-23.3332
-23.0563
-22.7361
-22.3753
-21.979
-21.5543
-21.1105
-20.6582
-20.2085
-19.7719
-19.3573
-18.9717
-18.6197
-18.3035
-18.0237
-17.7789
-17.5672
-17.3855
-17.2308
-17.1
-16.9898
-16.8974
-16.8203
-16.756
-16.7026
-16.6583
-16.6216
-16.5913
-16.5663
-16.5456
-16.5286
-16.5146
-16.503
-16.4935
-16.4857
-16.4793
-16.474
-16.4697
-16.4661
-16.4633
-16.4609
-16.459
-16.4575
-16.4563
-16.4554
-16.4548
-16.4544
-16.4542
-23.9734
-23.983
-24.0017
-24.0283
-24.0609
-24.0971
-24.1332
-24.1651
-24.1879
-24.1961
-24.1843
-24.1471
-24.0792
-23.9761
-23.8333
-23.6473
-23.4155
-23.1362
-22.8096
-22.4382
-22.0269
-21.5836
-21.1188
-20.6446
-20.1741
-19.7193
-19.2904
-18.8948
-18.5372
-18.2192
-17.9407
-17.6996
-17.493
-17.3173
-17.169
-17.0444
-16.9401
-16.8532
-16.781
-16.7211
-16.6714
-16.6304
-16.5965
-16.5686
-16.5456
-16.5266
-16.5109
-16.4981
-16.4875
-16.4788
-16.4716
-16.4658
-16.4609
-16.457
-16.4538
-16.4511
-16.449
-16.4473
-16.4459
-16.4448
-16.444
-16.4434
-16.443
-16.4428
-23.9425
-23.9538
-23.9757
-24.0073
-24.0469
-24.0919
-24.1387
-24.1826
-24.2184
-24.2401
-24.2415
-24.2169
-24.1605
-24.0672
-23.9323
-23.7517
-23.5217
-23.24
-22.9058
-22.5209
-22.0903
-21.6226
-21.1299
-20.6267
-20.1285
-19.6499
-19.2025
-18.7945
-18.4302
-18.1108
-17.8347
-17.5989
-17.3994
-17.2317
-17.0917
-16.9751
-16.8785
-16.7985
-16.7324
-16.6779
-16.633
-16.596
-16.5656
-16.5406
-16.52
-16.503
-16.4891
-16.4777
-16.4683
-16.4605
-16.4542
-16.449
-16.4447
-16.4412
-16.4383
-16.436
-16.4341
-16.4326
-16.4314
-16.4304
-16.4297
-16.4292
-16.4288
-16.4286
-23.9046
-23.9176
-23.9432
-23.9807
-24.0285
-24.084
-24.1435
-24.2021
-24.2538
-24.2918
-24.3093
-24.2998
-24.2573
-24.1763
-24.0514
-23.8779
-23.651
-23.3674
-23.0248
-22.6242
-22.1701
-21.672
-21.1441
-20.6041
-20.0712
-19.5629
-19.0931
-18.6706
-18.2993
-17.9792
-17.7073
-17.4789
-17.2886
-17.1311
-17.0013
-16.8946
-16.807
-16.7352
-16.6764
-16.6283
-16.5888
-16.5565
-16.53
-16.5083
-16.4905
-16.4759
-16.4639
-16.454
-16.446
-16.4394
-16.4339
-16.4295
-16.4258
-16.4228
-16.4204
-16.4184
-16.4168
-16.4155
-16.4144
-16.4136
-16.413
-16.4125
-16.4122
-16.4121
-23.8595
-23.8745
-23.9041
-23.948
-24.0049
-24.0724
-24.1468
-24.2226
-24.293
-24.3502
-24.3865
-24.3948
-24.3685
-24.3018
-24.1891
-24.0247
-23.8028
-23.5182
-23.1672
-22.749
-22.2675
-21.7328
-21.1618
-20.5765
-20.001
-19.4571
-18.9611
-18.5226
-18.1447
-17.8255
-17.5599
-17.3413
-17.1628
-17.0176
-16.9
-16.8048
-16.7277
-16.6652
-16.6146
-16.5735
-16.5401
-16.5129
-16.4907
-16.4727
-16.4579
-16.4458
-16.4359
-16.4279
-16.4212
-16.4158
-16.4114
-16.4077
-16.4047
-16.4023
-16.4003
-16.3987
-16.3973
-16.3963
-16.3954
-16.3947
-16.3942
-16.3939
-16.3937
-16.3935
-23.8076
-23.8245
-23.8582
-23.9088
-23.9755
-24.0564
-24.1476
-24.2432
-24.3351
-24.4144
-24.4722
-24.5005
-24.4926
-24.4425
-24.3441
-24.1911
-23.9764
-23.6928
-23.334
-22.897
-22.3842
-21.8064
-21.1836
-20.5434
-19.9166
-19.3306
-18.805
-18.3497
-17.9663
-17.6503
-17.3939
-17.188
-17.0239
-16.8935
-16.7899
-16.7077
-16.6423
-16.5902
-16.5484
-16.515
-16.4881
-16.4664
-16.4488
-16.4346
-16.423
-16.4136
-16.4059
-16.3997
-16.3946
-16.3904
-16.387
-16.3842
-16.3819
-16.38
-16.3785
-16.3772
-16.3762
-16.3754
-16.3747
-16.3742
-16.3738
-16.3736
-16.3734
-16.3733
-23.749
-23.7677
-23.8054
-23.8627
-23.9397
-24.035
-24.145
-24.2629
-24.3795
-24.4839
-24.5656
-24.6161
-24.6285
-24.5967
-24.5148
-24.3759
-24.1712
-23.8912
-23.5264
-23.0703
-22.5228
-21.8949
-21.2102
-20.504
-19.816
-19.1811
-18.6227
-18.1506
-17.7638
-17.4543
-17.2106
-17.0209
-16.874
-16.7606
-16.6731
-16.6053
-16.5526
-16.5115
-16.4793
-16.4539
-16.4338
-16.4178
-16.405
-16.3947
-16.3865
-16.3798
-16.3744
-16.37
-16.3665
-16.3636
-16.3612
-16.3592
-16.3577
-16.3564
-16.3553
-16.3544
-16.3537
-16.3532
-16.3527
-16.3524
-16.3521
-16.3519
-16.3518
-16.3517
-23.6841
-23.7043
-23.7455
-23.8093
-23.8967
-24.0073
-24.1379
-24.281
-24.4255
-24.558
-24.6662
-24.7407
-24.7748
-24.763
-24.6998
-24.5777
-24.3865
-24.1137
-23.7457
-23.2712
-22.6862
-22.0007
-21.2427
-20.4573
-19.6967
-19.0056
-18.4117
-17.9239
-17.5372
-17.2384
-17.0117
-16.8418
-16.7152
-16.6212
-16.5513
-16.4992
-16.4602
-16.4307
-16.4084
-16.3914
-16.3782
-16.3681
-16.3601
-16.3539
-16.3489
-16.345
-16.3418
-16.3393
-16.3373
-16.3357
-16.3343
-16.3333
-16.3324
-16.3317
-16.3311
-16.3306
-16.3302
-16.3299
-16.3296
-16.3294
-16.3293
-16.3292
-16.3292
-16.3291
-23.6133
-23.6346
-23.6788
-23.7483
-23.8457
-23.9722
-24.1253
-24.2967
-24.4726
-24.6366
-24.7736
-24.8736
-24.9304
-24.9398
-24.8972
-24.7949
-24.6212
-24.3603
-23.9934
-23.5026
-22.8781
-22.1271
-21.2823
-20.402
-19.5554
-18.8003
-18.1691
-17.6682
-17.2862
-17.0035
-16.7987
-16.6526
-16.5494
-16.477
-16.4264
-16.3911
-16.3663
-16.349
-16.3369
-16.3283
-16.3222
-16.3179
-16.3147
-16.3125
-16.3108
-16.3096
-16.3087
-16.308
-16.3075
-16.3071
-16.3068
-16.3065
-16.3063
-16.3062
-16.306
-16.3059
-16.3058
-16.3058
-16.3057
-16.3057
-16.3056
-16.3056
-16.3057
-16.3057
-23.5372
-23.5592
-23.6053
-23.6793
-23.7861
-23.9286
-24.1059
-24.309
-24.5207
-24.7197
-24.8878
-25.0141
-25.094
-25.1254
-25.105
-25.0256
-24.874
-24.6308
-24.2708
-23.7678
-23.1029
-22.2781
-21.3308
-20.3363
-19.388
-18.5609
-17.8918
-17.3819
-17.0111
-16.7509
-16.5736
-16.4556
-16.3789
-16.3302
-16.3002
-16.2824
-16.2725
-16.2675
-16.2656
-16.2655
-16.2664
-16.2678
-16.2694
-16.271
-16.2726
-16.274
-16.2752
-16.2763
-16.2772
-16.278
-16.2787
-16.2793
-16.2797
-16.2801
-16.2804
-16.2807
-16.2809
-16.281
-16.2812
-16.2813
-16.2814
-16.2815
-16.2815
-16.2816
-23.4567
-23.4785
-23.5253
-23.6023
-23.717
-23.8753
-24.0784
-24.317
-24.5695
-24.8076
-25.0087
-25.1618
-25.2645
-25.3179
-25.321
-25.2675
-25.1431
-24.9244
-24.5792
-24.0703
-23.366
-22.4591
-21.3905
-20.2581
-19.1892
-18.2818
-17.576
-17.0639
-16.7124
-16.4823
-16.3384
-16.2529
-16.2056
-16.1825
-16.1742
-16.1746
-16.1797
-16.1871
-16.1954
-16.2036
-16.2113
-16.2183
-16.2245
-16.2299
-16.2345
-16.2385
-16.2418
-16.2446
-16.2469
-16.2488
-16.2504
-16.2518
-16.2528
-16.2537
-16.2545
-16.2551
-16.2556
-16.2559
-16.2563
-16.2565
-16.2567
-16.2569
-16.257
-16.2571
-23.3725
-23.3935
-23.4393
-23.5172
-23.6377
-23.8107
-24.0412
-24.3199
-24.6194
-24.9013
-25.1371
-25.3163
-25.4405
-25.5153
-25.5427
-25.518
-25.4261
-25.2399
-24.9192
-24.4135
-23.6735
-22.6767
-21.4643
-20.1642
-18.9526
-17.9569
-17.2182
-16.7131
-16.3911
-16.1997
-16.0956
-16.0469
-16.0317
-16.0357
-16.0499
-16.0687
-16.0889
-16.1086
-16.1268
-16.1432
-16.1575
-16.1699
-16.1805
-16.1895
-16.197
-16.2033
-16.2086
-16.213
-16.2166
-16.2196
-16.2221
-16.2242
-16.2258
-16.2272
-16.2283
-16.2293
-16.23
-16.2306
-16.2311
-16.2315
-16.2318
-16.232
-16.2322
-16.2323
-23.2857
-23.3048
-23.3478
-23.424
-23.5474
-23.7334
-23.9923
-24.3166
-24.6708
-25.0018
-25.2735
-25.4773
-25.6209
-25.7154
-25.7674
-25.774
-25.7202
-25.5756
-25.2913
-24.8013
-24.0328
-22.9392
-21.5565
-20.0507
-18.6696
-17.579
-16.8146
-16.3291
-16.0489
-15.9057
-15.8479
-15.8399
-15.8591
-15.8914
-15.9285
-15.9658
-16.0009
-16.0326
-16.0605
-16.0847
-16.1053
-16.1228
-16.1376
-16.1499
-16.1602
-16.1687
-16.1758
-16.1817
-16.1866
-16.1906
-16.1939
-16.1966
-16.1988
-16.2007
-16.2022
-16.2034
-16.2044
-16.2052
-16.2058
-16.2063
-16.2067
-16.207
-16.2072
-16.2073
-23.1974
-23.2136
-23.2517
-23.3229
-23.4455
-23.6414
-23.9294
-24.3055
-24.7246
-25.1111
-25.4193
-25.6448
-25.8041
-25.9161
-25.9922
-26.0325
-26.0223
-25.9288
-25.695
-25.237
-24.4521
-23.2572
-21.6726
-19.9118
-18.3296
-17.1396
-16.3617
-15.9123
-15.688
-15.6031
-15.5979
-15.6344
-15.6897
-15.751
-15.8112
-15.8668
-15.9165
-15.9597
-15.9969
-16.0284
-16.055
-16.0773
-16.0959
-16.1114
-16.1242
-16.1348
-16.1436
-16.1509
-16.1569
-16.1618
-16.1659
-16.1692
-16.172
-16.1742
-16.176
-16.1775
-16.1787
-16.1797
-16.1805
-16.1812
-16.1816
-16.182
-16.1822
-16.1823
-23.1087
-23.121
-23.1519
-23.2144
-23.3314
-23.533
-23.8495
-24.285
-24.7823
-25.2317
-25.5758
-25.8185
-25.9889
-26.1151
-26.2143
-26.2899
-26.3286
-26.2962
-26.1287
-25.7234
-24.9405
-23.6444
-21.8205
-19.7398
-17.9192
-16.6297
-15.8567
-15.4641
-15.3117
-15.2954
-15.3488
-15.4326
-15.5254
-15.6159
-15.6989
-15.7724
-15.836
-15.8903
-15.9361
-15.9746
-16.0067
-16.0335
-16.0557
-16.0741
-16.0892
-16.1018
-16.1121
-16.1207
-16.1277
-16.1335
-16.1382
-16.1421
-16.1453
-16.1479
-16.1501
-16.1518
-16.1532
-16.1544
-16.1553
-16.1561
-16.1566
-16.157
-16.1572
-16.1573
-23.0208
-23.028
-23.0494
-23.0993
-23.2049
-23.406
-23.7491
-24.2526
-24.8463
-25.367
-25.7447
-25.9983
-26.1737
-26.3101
-26.4309
-26.5427
-26.6349
-26.6737
-26.5899
-26.2623
-25.508
-24.1177
-22.0116
-19.5234
-17.4214
-16.0394
-15.2977
-14.9869
-14.9238
-14.9863
-15.1034
-15.2368
-15.3676
-15.4872
-15.5924
-15.683
-15.7598
-15.8245
-15.8785
-15.9234
-15.9607
-15.9915
-16.017
-16.038
-16.0553
-16.0696
-16.0814
-16.091
-16.099
-16.1055
-16.1109
-16.1153
-16.119
-16.1219
-16.1243
-16.1263
-16.1279
-16.1292
-16.1303
-16.1311
-16.1317
-16.1322
-16.1324
-16.1325
-22.9347
-22.9361
-22.9455
-22.9786
-23.066
-23.2584
-23.6236
-24.2047
-24.9199
-25.5215
-25.9281
-26.1837
-26.3569
-26.4989
-26.639
-26.7875
-26.9371
-27.0563
-27.0744
-26.8542
-26.1647
-24.6984
-22.2621
-19.2463
-16.815
-15.3587
-14.6844
-14.4849
-14.5291
-14.6798
-14.8648
-15.0491
-15.2178
-15.3657
-15.4923
-15.599
-15.6883
-15.7626
-15.8241
-15.8749
-15.9168
-15.9514
-15.9799
-16.0033
-16.0225
-16.0384
-16.0514
-16.0621
-16.0709
-16.0781
-16.0841
-16.089
-16.093
-16.0962
-16.0989
-16.1011
-16.1029
-16.1043
-16.1054
-16.1064
-16.107
-16.1075
-16.1078
-16.1079
-22.8516
-22.8462
-22.8417
-22.8537
-22.9153
-23.0883
-23.4675
-24.1364
-25.0084
-25.7007
-26.1277
-26.3741
-26.5367
-26.6793
-26.8361
-27.021
-27.2306
-27.4386
-27.5766
-27.4972
-26.9201
-25.4125
-22.5961
-18.8847
-16.074
-14.578
-14.0186
-13.9636
-14.1332
-14.3802
-14.6357
-14.8713
-15.0771
-15.2522
-15.3989
-15.5208
-15.6216
-15.7046
-15.773
-15.8292
-15.8753
-15.9132
-15.9444
-15.9699
-15.9909
-16.0082
-16.0223
-16.034
-16.0435
-16.0513
-16.0578
-16.0631
-16.0674
-16.0709
-16.0738
-16.0762
-16.0781
-16.0797
-16.0809
-16.0819
-16.0826
-16.0831
-16.0834
-16.0835
-22.7724
-22.7597
-22.7394
-22.7262
-22.7539
-22.894
-23.2742
-24.0401
-25.1195
-25.9116
-26.3454
-26.5684
-26.7112
-26.8492
-27.02
-27.2401
-27.5112
-27.8144
-28.0895
-28.1869
-27.7823
-26.2917
-23.049
-18.4033
-15.1671
-13.6894
-13.3049
-13.4302
-13.7419
-14.0914
-14.4189
-14.7049
-14.9465
-15.1472
-15.3127
-15.4485
-15.5597
-15.6507
-15.7252
-15.7862
-15.8361
-15.877
-15.9105
-15.938
-15.9605
-15.979
-15.9942
-16.0066
-16.0168
-16.0252
-16.0321
-16.0377
-16.0423
-16.0461
-16.0492
-16.0517
-16.0538
-16.0555
-16.0568
-16.0578
-16.0585
-16.0591
-16.0595
-16.0596
-22.6979
-22.6775
-22.6401
-22.5981
-22.5834
-22.6746
-23.0359
-23.9046
-25.2645
-26.162
-26.5821
-26.7648
-26.8784
-27.0068
-27.1886
-27.4423
-27.7747
-28.1774
-28.6042
-28.9155
-28.7562
-27.3729
-23.6739
-17.7492
-14.0572
-12.6882
-12.5511
-12.8935
-13.3617
-13.8175
-14.2166
-14.5512
-14.8264
-15.051
-15.2336
-15.382
-15.5026
-15.6008
-15.6807
-15.746
-15.7992
-15.8428
-15.8784
-15.9075
-15.9314
-15.9509
-15.967
-15.9801
-15.9909
-15.9997
-16.007
-16.0129
-16.0178
-16.0218
-16.0251
-16.0278
-16.0299
-16.0317
-16.0331
-16.0342
-16.0349
-16.0355
-16.0359
-16.0361
-22.6289
-22.6006
-22.5453
-22.4718
-22.4066
-22.4303
-22.7438
-23.7131
-25.4608
-26.4611
-26.8381
-26.9611
-27.0362
-27.1505
-27.3405
-27.6254
-28.0176
-28.5213
-29.111
-29.6717
-29.8418
-28.6979
-24.5499
-16.8434
-12.7031
-11.5745
-11.7687
-12.3634
-12.9989
-13.5621
-14.0306
-14.4111
-14.7175
-14.9637
-15.1617
-15.3213
-15.4503
-15.5547
-15.6395
-15.7085
-15.7646
-15.8104
-15.8478
-15.8784
-15.9035
-15.924
-15.9407
-15.9545
-15.9658
-15.975
-15.9826
-15.9888
-15.994
-15.9981
-16.0016
-16.0043
-16.0066
-16.0085
-16.0099
-16.0111
-16.0118
-16.0124
-16.0129
-16.0131
-22.5657
-22.5297
-22.4565
-22.3496
-22.2269
-22.1629
-22.3887
-23.4405
-25.7338
-26.8185
-27.112
-27.1541
-27.1822
-27.2788
-27.4746
-27.7878
-28.2369
-28.84
-29.599
-30.4401
-31.0316
-30.3103
-25.7949
-15.5683
-11.061
-10.356
-10.9734
-11.851
-12.6596
-13.3281
-13.8624
-14.2852
-14.6197
-14.8852
-15.0969
-15.2664
-15.4026
-15.5125
-15.6014
-15.6736
-15.7322
-15.78
-15.819
-15.8508
-15.8768
-15.8981
-15.9155
-15.9298
-15.9415
-15.9511
-15.959
-15.9654
-15.9707
-15.9751
-15.9786
-15.9815
-15.9839
-15.9858
-15.9872
-15.9885
-15.9893
-15.9899
-15.9904
-15.9906
-22.5089
-22.4655
-22.3748
-22.2339
-22.0484
-21.8761
-21.9617
-23.0494
-26.121
-27.2433
-27.4002
-27.34
-27.3143
-27.3908
-27.5901
-27.9285
-28.43
-29.1283
-30.057
-31.2014
-32.3083
-32.2516
-27.5832
-13.7495
-9.0896
-9.05013
-10.1843
-11.3676
-12.3492
-13.118
-13.7127
-14.1735
-14.533
-14.8154
-15.0389
-15.2168
-15.3593
-15.4738
-15.5663
-15.6412
-15.7019
-15.7513
-15.7916
-15.8245
-15.8514
-15.8733
-15.8913
-15.906
-15.9181
-15.928
-15.9361
-15.9427
-15.9482
-15.9526
-15.9563
-15.9593
-15.9617
-15.9637
-15.9652
-15.9664
-15.9673
-15.9679
-15.9685
-15.9686
-22.4584
-22.4083
-22.3012
-22.1273
-21.8761
-21.5765
-21.4566
-22.4851
-26.6778
-27.7423
-27.6967
-27.5142
-27.4306
-27.4858
-27.6868
-28.047
-28.5955
-29.3816
-30.4742
-31.9334
-33.6421
-34.5524
-30.1709
-11.1311
-6.75842
-7.68673
-9.42396
-10.9239
-12.0724
-12.9334
-13.582
-14.0761
-14.457
-14.7539
-14.9874
-15.1725
-15.3201
-15.4386
-15.534
-15.6111
-15.6736
-15.7244
-15.7658
-15.7995
-15.827
-15.8496
-15.868
-15.8831
-15.8954
-15.9055
-15.9138
-15.9206
-15.9262
-15.9308
-15.9345
-15.9376
-15.9401
-15.9421
-15.9436
-15.9449
-15.9458
-15.9464
-15.947
-15.9472
-22.4143
-22.3581
-22.2366
-22.0317
-21.7151
-21.2736
-20.8718
-21.668
-27.4838
-28.3172
-27.9922
-27.6718
-27.5293
-27.5634
-27.765
-28.1435
-28.7325
-29.5965
-30.8407
-32.6117
-34.989
-37.2196
-33.9291
-7.342
-4.06054
-6.30982
-8.71663
-10.5299
-11.8324
-12.7751
-13.4702
-13.9924
-14.3913
-14.7002
-14.9419
-15.1329
-15.2848
-15.4064
-15.5042
-15.5831
-15.6471
-15.699
-15.7412
-15.7757
-15.8038
-15.8267
-15.8455
-15.8609
-15.8735
-15.8838
-15.8923
-15.8992
-15.9049
-15.9095
-15.9134
-15.9165
-15.919
-15.9211
-15.9226
-15.9239
-15.9249
-15.9255
-15.926
-15.9262
-22.3765
-22.3152
-22.1811
-21.9489
-21.5709
-20.98
-20.2153
-20.4842
-28.6534
-28.9605
-28.2745
-27.808
-27.6091
-27.6239
-27.8252
-28.2185
-28.8411
-29.7711
-31.1487
-33.2118
-36.2902
-40.217
-39.3891
-1.85101
-1.03224
-4.97835
-8.08703
-10.1936
-11.6314
-12.6431
-13.3767
-13.9219
-14.3353
-14.6537
-14.9021
-15.0977
-15.253
-15.3771
-15.4768
-15.5572
-15.6222
-15.675
-15.718
-15.7529
-15.7815
-15.8048
-15.8239
-15.8395
-15.8523
-15.8627
-15.8713
-15.8783
-15.8841
-15.8888
-15.8927
-15.8959
-15.8984
-15.9005
-15.9021
-15.9034
-15.9045
-15.9051
-15.9055
-15.9057
-22.3447
-22.2791
-22.1351
-21.8803
-21.4483
-20.7115
-19.5102
-18.773
-30.3477
-29.6493
-28.5283
-27.9184
-27.6695
-27.6677
-27.8684
-28.273
-28.9221
-29.9049
-31.3925
-33.711
-37.4734
-43.4376
-47.3
6.09091
2.2192
-3.76459
-7.55791
-9.92087
-11.4702
-12.5371
-13.3008
-13.8638
-14.2884
-14.6141
-14.8675
-15.0666
-15.2245
-15.3505
-15.4516
-15.5331
-15.599
-15.6524
-15.6959
-15.7313
-15.7602
-15.7838
-15.803
-15.8188
-15.8317
-15.8423
-15.851
-15.8581
-15.8639
-15.8687
-15.8726
-15.8758
-15.8784
-15.8805
-15.8822
-15.8834
-15.8845
-15.8851
-15.8855
-15.8858
-22.3185
-22.2498
-22.0984
-21.8263
-21.3514
-20.4854
-18.8032
-16.3113
-32.7902
-30.3376
-28.7367
-27.9994
-27.7103
-27.6957
-27.8957
-28.3085
-28.9767
-29.9986
-31.5695
-34.0912
-38.4582
-46.6654
-58.702
17.5238
5.47772
-2.7494
-7.14769
-9.71454
-11.3482
-12.4558
-13.2414
-13.8173
-14.2498
-14.5808
-14.8378
-15.0394
-15.1991
-15.3264
-15.4286
-15.5108
-15.5773
-15.6312
-15.6751
-15.7107
-15.7398
-15.7636
-15.7831
-15.799
-15.812
-15.8226
-15.8314
-15.8385
-15.8444
-15.8492
-15.8532
-15.8564
-15.859
-15.8611
-15.8628
-15.864
-15.8651
-15.8658
-15.866
-15.8665
-22.2974
-22.2268
-22.0705
-21.7872
-21.2827
-20.3191
-18.1747
-12.7942
-36.2863
-30.9455
-28.883
-28.0492
-27.7324
-27.7091
-27.9085
-28.3265
-29.0071
-30.0542
-31.6801
-34.3411
-39.1647
-49.5263
-75.0163
33.8684
8.36877
-2.01285
-6.86803
-9.57465
-11.2639
-12.3978
-13.1975
-13.7815
-14.2191
-14.5534
-14.8126
-15.0159
-15.1767
-15.3049
-15.4076
-15.4904
-15.5572
-15.6114
-15.6555
-15.6914
-15.7206
-15.7445
-15.764
-15.78
-15.7931
-15.8038
-15.8126
-15.8198
-15.8257
-15.8305
-15.8345
-15.8377
-15.8403
-15.8424
-15.8442
-15.8453
-15.8465
-15.8472
-15.8474
-15.848
-22.2811
-22.2096
-22.0509
-21.7621
-21.2428
-20.2262
-17.7526
-7.81184
-41.246
-31.345
-28.9537
-28.0675
-27.7367
-27.7092
-27.9083
-28.3288
-29.0152
-30.0745
-31.7272
-34.4579
-39.5289
-51.4244
-98.152
57.0342
10.2968
-1.61874
-6.72146
-9.49801
-11.2144
-12.361
-13.1674
-13.7553
-14.1953
-14.5312
-14.7914
-14.9954
-15.1568
-15.2854
-15.3884
-15.4714
-15.5384
-15.5928
-15.637
-15.6729
-15.7022
-15.7262
-15.7458
-15.7618
-15.7749
-15.7856
-15.7944
-15.8016
-15.8075
-15.8124
-15.8164
-15.8196
-15.8222
-15.8243
-15.8261
-15.8272
-15.8283
-15.8292
-15.8293
-15.8299
)
;

boundaryField
{
    left
    {
        type            calculated;
        value           nonuniform List<scalar> 
32
(
-24.0216
-24.0133
-23.9971
-23.9734
-23.9425
-23.9046
-23.8595
-23.8076
-23.749
-23.6841
-23.6133
-23.5372
-23.4567
-23.3725
-23.2857
-23.1974
-23.1087
-23.0208
-22.9347
-22.8516
-22.7724
-22.6979
-22.6289
-22.5657
-22.5089
-22.4584
-22.4143
-22.3765
-22.3447
-22.3185
-22.2974
-22.2811
)
;
    }
    right
    {
        type            calculated;
        value           nonuniform List<scalar> 
32
(
-16.4665
-16.4622
-16.4542
-16.4428
-16.4286
-16.4121
-16.3935
-16.3733
-16.3517
-16.3291
-16.3057
-16.2816
-16.2571
-16.2323
-16.2073
-16.1823
-16.1573
-16.1325
-16.1079
-16.0835
-16.0596
-16.0361
-16.0131
-15.9906
-15.9686
-15.9472
-15.9262
-15.9057
-15.8858
-15.8665
-15.848
-15.8299
)
;
    }
    interface
    {
        type            calculated;
        value           nonuniform List<scalar> 
64
(
-22.274
-22.2022
-22.043
-21.7528
-21.2299
-20.1995
-17.6126
-4.89569
-44.1503
-31.4732
-28.9687
-28.0687
-27.7345
-27.706
-27.905
-28.3261
-29.014
-30.0762
-31.7354
-34.4832
-39.6189
-52.0423
-111.698
70.5953
10.9297
-1.51365
-6.68114
-9.4749
-11.1978
-12.3475
-13.1555
-13.7443
-14.185
-14.5212
-14.7817
-14.9859
-15.1474
-15.2761
-15.3792
-15.4622
-15.5293
-15.5837
-15.6279
-15.6638
-15.6932
-15.7171
-15.7367
-15.7527
-15.7659
-15.7766
-15.7854
-15.7926
-15.7985
-15.8034
-15.8074
-15.8106
-15.8132
-15.8153
-15.8172
-15.8183
-15.8193
-15.8202
-15.8203
-15.8208
)
;
    }
    bottom
    {
        type            calculated;
        value           nonuniform List<scalar> 
64
(
-24.0238
-24.0305
-24.0433
-24.061
-24.0816
-24.1027
-24.1209
-24.1327
-24.1338
-24.1197
-24.0858
-24.0277
-23.9409
-23.8215
-23.6662
-23.4725
-23.239
-22.9653
-22.6528
-22.3046
-21.9254
-21.5216
-21.1014
-20.6734
-20.247
-19.8309
-19.4327
-19.0589
-18.7139
-18.4004
-18.1197
-17.8713
-17.654
-17.4658
-17.304
-17.166
-17.0489
-16.9502
-16.8672
-16.7978
-16.7399
-16.6917
-16.6517
-16.6186
-16.5911
-16.5685
-16.5497
-16.5343
-16.5216
-16.5111
-16.5025
-16.4954
-16.4895
-16.4848
-16.4809
-16.4777
-16.4751
-16.473
-16.4713
-16.47
-16.469
-16.4683
-16.4679
-16.4676
)
;
    }
    defaultFaces
    {
        type            empty;
    }
}


// ************************************************************************* //
