/*--------------------------------*- C++ -*----------------------------------*\
| =========                 |                                                 |
| \\      /  F ield         | OpenFOAM: The Open Source CFD Toolbox           |
|  \\    /   O peration     | Version:  5.x                                   |
|   \\  /    A nd           | Web:      www.OpenFOAM.org                      |
|    \\/     M anipulation  |                                                 |
\*---------------------------------------------------------------------------*/
FoamFile
{
    version     2.0;
    format      ascii;
    class       volScalarField;
    location    "0.3";
    object      T;
}
// * * * * * * * * * * * * * * * * * * * * * * * * * * * * * * * * * * * * * //

dimensions      [0 0 0 1 0 0 0];

internalField   nonuniform List<scalar> 
2048
(
9.82741
9.82736
9.82727
9.82714
9.82699
9.82684
9.82671
9.82662
9.82662
9.82672
9.82696
9.82738
9.828
9.82886
9.82998
9.83137
9.83304
9.83501
9.83726
9.83976
9.84248
9.84538
9.8484
9.85148
9.85454
9.85753
9.86039
9.86308
9.86555
9.86781
9.86982
9.87161
9.87317
9.87452
9.87568
9.87668
9.87752
9.87823
9.87882
9.87932
9.87974
9.88008
9.88037
9.88061
9.8808
9.88097
9.8811
9.88121
9.8813
9.88138
9.88144
9.88149
9.88153
9.88157
9.8816
9.88162
9.88164
9.88165
9.88167
9.88167
9.88168
9.88169
9.88169
9.88169
9.48983
9.48968
9.4894
9.48902
9.48856
9.4881
9.48769
9.48741
9.48736
9.48764
9.48833
9.48954
9.49136
9.49387
9.49716
9.50126
9.50622
9.51204
9.5187
9.52612
9.53421
9.54284
9.55182
9.56096
9.57007
9.57895
9.58745
9.59541
9.60276
9.60942
9.61538
9.62065
9.62525
9.62924
9.63266
9.63557
9.63804
9.64013
9.64187
9.64334
9.64455
9.64557
9.64641
9.64711
9.64769
9.64816
9.64856
9.64888
9.64915
9.64937
9.64955
9.6497
9.64982
9.64992
9.65
9.65007
9.65013
9.65017
9.6502
9.65023
9.65025
9.65027
9.65028
9.65028
9.16718
9.16693
9.16645
9.16579
9.165
9.16418
9.16345
9.16292
9.16276
9.16312
9.16417
9.16607
9.16897
9.17302
9.17833
9.18501
9.1931
9.20263
9.21355
9.22576
9.23909
9.25332
9.26814
9.28324
9.29828
9.31293
9.32691
9.34
9.35204
9.36295
9.37268
9.38125
9.38873
9.39519
9.40072
9.40543
9.40942
9.41277
9.41558
9.41794
9.41989
9.42152
9.42287
9.42399
9.42492
9.42568
9.42631
9.42683
9.42726
9.42762
9.42791
9.42814
9.42834
9.4285
9.42863
9.42874
9.42883
9.4289
9.42895
9.429
9.42903
9.42905
9.42907
9.42908
8.8589
8.85854
8.85784
8.85686
8.85569
8.85446
8.85332
8.85246
8.85208
8.85241
8.85369
8.85613
8.85997
8.8654
8.8726
8.88169
8.89277
8.90587
8.92095
8.93785
8.95636
8.97615
8.99679
9.01782
9.03875
9.05911
9.0785
9.0966
9.1132
9.12817
9.14149
9.15319
9.16337
9.17213
9.17962
9.18597
9.19134
9.19585
9.19963
9.20278
9.20541
9.20759
9.20939
9.21089
9.21213
9.21315
9.21399
9.21468
9.21525
9.21572
9.21611
9.21643
9.21669
9.2169
9.21708
9.21722
9.21734
9.21743
9.21751
9.21756
9.21761
9.21764
9.21766
9.21767
8.56444
8.56395
8.563
8.56167
8.56006
8.55834
8.5567
8.55537
8.55464
8.5548
8.55615
8.55898
8.56359
8.57024
8.57915
8.5905
8.60442
8.62097
8.6401
8.66164
8.68532
8.71068
8.73718
8.7642
8.79105
8.81713
8.8419
8.86493
8.88596
8.90485
8.92159
8.93623
8.9489
8.95978
8.96904
8.97689
8.9835
8.98904
8.99367
8.99753
9.00074
9.0034
9.0056
9.00742
9.00893
9.01017
9.01119
9.01204
9.01273
9.0133
9.01377
9.01416
9.01448
9.01474
9.01495
9.01512
9.01527
9.01538
9.01547
9.01554
9.01559
9.01563
9.01566
9.01567
8.28326
8.28263
8.2814
8.27966
8.27755
8.27524
8.27298
8.27106
8.26982
8.26964
8.27088
8.27393
8.27913
8.2868
8.29724
8.31068
8.32729
8.34716
8.37027
8.39642
8.42528
8.4563
8.48878
8.5219
8.5548
8.58666
8.6168
8.64471
8.67006
8.69272
8.71268
8.73005
8.74502
8.75781
8.76867
8.77783
8.78553
8.79196
8.79733
8.8018
8.8055
8.80857
8.81111
8.81321
8.81494
8.81637
8.81755
8.81852
8.81931
8.81997
8.82051
8.82095
8.82132
8.82162
8.82186
8.82206
8.82222
8.82235
8.82246
8.82254
8.8226
8.82264
8.82267
8.82269
8.01485
8.01405
8.01252
8.01032
8.00762
8.00463
8.00162
7.99895
7.99704
7.99633
7.99728
8.00033
8.00593
8.01444
8.02622
8.04156
8.0607
8.08377
8.11077
8.14153
8.17563
8.21244
8.25107
8.29048
8.32959
8.36734
8.4029
8.43564
8.46521
8.49146
8.51445
8.53434
8.55139
8.56589
8.57815
8.58845
8.59707
8.60426
8.61025
8.61522
8.61933
8.62274
8.62555
8.62788
8.62979
8.63137
8.63267
8.63374
8.63462
8.63535
8.63594
8.63643
8.63683
8.63716
8.63743
8.63765
8.63783
8.63797
8.63809
8.63818
8.63824
8.63829
8.63832
8.63834
7.75869
7.75773
7.75585
7.75315
7.74979
7.746
7.74211
7.73853
7.73575
7.73431
7.73476
7.73763
7.74341
7.75255
7.76547
7.78253
7.80402
7.83015
7.86097
7.89632
7.93575
7.97852
8.02354
8.06951
8.11505
8.15886
8.1999
8.23744
8.2711
8.30078
8.32658
8.34876
8.36766
8.38365
8.39709
8.40835
8.41774
8.42556
8.43204
8.43741
8.44185
8.44552
8.44855
8.45104
8.4531
8.4548
8.45619
8.45734
8.45828
8.45906
8.4597
8.46022
8.46065
8.461
8.46129
8.46153
8.46172
8.46187
8.46199
8.46209
8.46216
8.46221
8.46225
8.46227
7.51431
7.51316
7.51092
7.50766
7.50356
7.49887
7.49395
7.48928
7.48544
7.48306
7.4828
7.48527
7.49103
7.5006
7.51445
7.53302
7.55667
7.5857
7.62025
7.66018
7.70506
7.754
7.80572
7.85858
7.91084
7.96091
8.00751
8.04982
8.08744
8.12034
8.14872
8.17295
8.19345
8.2107
8.22513
8.23716
8.24716
8.25546
8.26232
8.268
8.27268
8.27654
8.27973
8.28235
8.28451
8.28629
8.28775
8.28895
8.28994
8.29075
8.29142
8.29197
8.29242
8.29278
8.29309
8.29333
8.29353
8.29369
8.29382
8.29392
8.294
8.29405
8.29409
8.29411
7.28122
7.27988
7.27725
7.2734
7.26849
7.26279
7.25669
7.25074
7.24562
7.24209
7.2409
7.24276
7.2483
7.25809
7.27266
7.29251
7.31812
7.34988
7.38803
7.43255
7.48298
7.53836
7.59713
7.65728
7.71664
7.7732
7.82546
7.87249
7.91393
7.94982
7.98053
8.00653
8.02838
8.04665
8.06187
8.07449
8.08494
8.09359
8.10072
8.1066
8.11145
8.11544
8.11873
8.12143
8.12365
8.12548
8.12699
8.12822
8.12924
8.13007
8.13076
8.13132
8.13178
8.13216
8.13247
8.13273
8.13293
8.1331
8.13323
8.13333
8.13341
8.13347
8.1335
8.13352
7.05896
7.05743
7.05439
7.04991
7.04414
7.03732
7.02989
7.02248
7.01586
7.01095
7.00861
7.00965
7.01476
7.02457
7.03964
7.06055
7.08789
7.12217
7.16378
7.21284
7.26895
7.33106
7.39733
7.46527
7.53214
7.59548
7.65349
7.70518
7.75024
7.78888
7.82163
7.84912
7.87206
7.89112
7.9069
7.91994
7.9307
7.93956
7.94685
7.95286
7.95779
7.96186
7.96519
7.96794
7.97019
7.97204
7.97357
7.97482
7.97585
7.97669
7.97738
7.97795
7.97842
7.9788
7.97912
7.97937
7.97958
7.97975
7.97988
7.97998
7.98006
7.98012
7.98015
7.98017
6.84709
6.84536
6.84192
6.83679
6.83009
6.82206
6.81316
6.80407
6.79572
6.78918
6.78548
6.78551
6.79001
6.79962
6.81498
6.83672
6.86553
6.90209
6.94698
7.00052
7.06242
7.1316
7.20588
7.2822
7.3571
7.42753
7.49138
7.54762
7.59608
7.63718
7.67165
7.70034
7.7241
7.74371
7.75985
7.77313
7.78404
7.793
7.80036
7.8064
7.81137
7.81544
7.81878
7.82153
7.82378
7.82564
7.82716
7.82841
7.82943
7.83027
7.83097
7.83153
7.832
7.83238
7.83269
7.83295
7.83315
7.83332
7.83345
7.83356
7.83364
7.83369
7.83373
7.83375
6.64516
6.64324
6.63939
6.63361
6.62596
6.61664
6.6061
6.59512
6.58479
6.57639
6.5711
6.56993
6.57364
6.58289
6.59833
6.62064
6.65065
6.68921
6.73715
6.79505
6.86285
6.93944
7.02234
7.10774
7.19126
7.26913
7.33889
7.39954
7.45112
7.49435
7.53021
7.55979
7.58409
7.604
7.62032
7.63367
7.6446
7.65356
7.66089
7.66689
7.67182
7.67585
7.67916
7.68188
7.68411
7.68594
7.68744
7.68867
7.68968
7.69051
7.69119
7.69175
7.69221
7.69259
7.6929
7.69315
7.69335
7.69352
7.69365
7.69375
7.69383
7.69388
7.69392
7.69393
6.45273
6.45064
6.44641
6.43998
6.43136
6.42068
6.40836
6.39526
6.38268
6.37215
6.36507
6.36253
6.36531
6.37403
6.38934
6.41199
6.44289
6.48313
6.53383
6.59592
6.66966
6.75406
6.84629
6.94161
7.03446
7.12013
7.19584
7.26069
7.31506
7.36003
7.39693
7.42707
7.45163
7.47163
7.48792
7.50119
7.51202
7.52086
7.52808
7.53399
7.53882
7.54278
7.54602
7.54867
7.55085
7.55264
7.5541
7.55531
7.55629
7.5571
7.55777
7.55831
7.55876
7.55913
7.55943
7.55967
7.55987
7.56003
7.56016
7.56026
7.56033
7.56039
7.56042
7.56044
6.2694
6.26714
6.26256
6.25553
6.24594
6.23384
6.2196
6.20415
6.18902
6.17609
6.16702
6.16296
6.16468
6.17274
6.18774
6.21046
6.24194
6.2835
6.33661
6.40264
6.48233
6.57493
6.67729
6.78356
6.88653
6.98039
7.06202
7.13079
7.18756
7.23387
7.27141
7.30178
7.32633
7.34619
7.36228
7.37533
7.38594
7.39458
7.40162
7.40736
7.41206
7.41589
7.41904
7.42161
7.42372
7.42544
7.42686
7.42802
7.42898
7.42976
7.4304
7.43093
7.43136
7.43171
7.432
7.43224
7.43243
7.43258
7.43271
7.4328
7.43288
7.43293
7.43296
7.43298
6.09474
6.09235
6.08746
6.07987
6.06935
6.05581
6.03951
6.02144
6.00342
5.98781
5.97656
5.97089
5.97147
5.97874
5.99325
6.0158
6.04754
6.09001
6.14509
6.21472
6.30027
6.40147
6.51491
6.63335
6.74739
6.84981
6.93727
7.00959
7.06828
7.11546
7.15326
7.18352
7.20779
7.2273
7.24303
7.25573
7.26602
7.27438
7.28117
7.28671
7.29122
7.29491
7.29793
7.30039
7.30241
7.30407
7.30543
7.30654
7.30745
7.3082
7.30881
7.30932
7.30973
7.31007
7.31035
7.31057
7.31075
7.3109
7.31102
7.31111
7.31118
7.31123
7.31126
7.31128
5.92836
5.92587
5.92073
5.91265
5.90125
5.88628
5.86781
5.84683
5.82555
5.80695
5.79336
5.78599
5.78537
5.79179
5.80567
5.8278
5.85945
5.90239
5.95894
6.03171
6.12294
6.23309
6.35871
6.49081
6.61701
6.72834
6.82142
6.8968
6.95687
7.00444
7.04207
7.07191
7.09565
7.11461
7.12982
7.14206
7.15194
7.15994
7.16644
7.17172
7.17603
7.17954
7.18241
7.18475
7.18667
7.18824
7.18953
7.19059
7.19145
7.19216
7.19274
7.19322
7.19361
7.19393
7.1942
7.19441
7.19459
7.19473
7.19484
7.19492
7.19499
7.19504
7.19506
7.19508
5.76987
5.76731
5.76198
5.75351
5.74134
5.72496
5.70423
5.68004
5.65505
5.63313
5.61705
5.60797
5.60615
5.61165
5.62477
5.64626
5.67747
5.7204
5.77785
5.85318
5.94974
6.06914
6.20819
6.35582
6.49542
6.61595
6.71428
6.79212
6.85297
6.90039
6.93745
6.96654
6.98952
7.00776
7.02232
7.03399
7.04339
7.05098
7.05713
7.06213
7.06619
7.06951
7.07221
7.07442
7.07623
7.07771
7.07892
7.07991
7.08073
7.08139
7.08194
7.08239
7.08276
7.08306
7.08331
7.08351
7.08367
7.0838
7.08391
7.08399
7.08405
7.08409
7.08412
7.08414
5.61888
5.61629
5.61086
5.6021
5.58929
5.57161
5.54853
5.5208
5.49155
5.46596
5.4473
5.43653
5.43355
5.43813
5.45039
5.47103
5.50144
5.54387
5.60156
5.67875
5.78012
5.90895
6.06284
6.22832
6.38273
6.51263
6.61568
6.69525
6.75619
6.80293
6.839
6.86705
6.88904
6.9064
6.92019
6.93122
6.94007
6.94721
6.95298
6.95766
6.96146
6.96456
6.96708
6.96915
6.97083
6.97221
6.97334
6.97427
6.97503
6.97565
6.97616
6.97658
6.97692
6.9772
6.97743
6.97762
6.97777
6.9779
6.97799
6.97807
6.97813
6.97817
6.97819
6.97821
5.47503
5.47245
5.467
5.4581
5.4448
5.42595
5.40052
5.36888
5.33471
5.30507
5.28377
5.2714
5.26735
5.27103
5.28235
5.30194
5.33123
5.37265
5.42988
5.50806
5.61349
5.75173
5.92205
6.10836
6.27916
6.41841
6.52542
6.60584
6.66614
6.71164
6.74633
6.77306
6.79387
6.81021
6.82315
6.83345
6.8417
6.84834
6.85371
6.85805
6.86157
6.86444
6.86678
6.86869
6.87025
6.87153
6.87257
6.87343
6.87413
6.8747
6.87517
6.87556
6.87588
6.87614
6.87635
6.87652
6.87666
6.87678
6.87687
6.87694
6.87699
6.87703
6.87705
6.87706
5.33796
5.33543
5.33005
5.32115
5.30757
5.28776
5.26002
5.22408
5.18414
5.15005
5.12614
5.11234
5.10736
5.11018
5.12052
5.13889
5.16673
5.20662
5.26264
5.34082
5.44931
5.59666
5.78512
5.99612
6.18502
6.33331
6.44326
6.52353
6.5824
6.62611
6.65905
6.68421
6.70368
6.71889
6.73088
6.74041
6.74803
6.75414
6.75907
6.76306
6.7663
6.76893
6.77108
6.77283
6.77425
6.77542
6.77638
6.77716
6.7778
6.77833
6.77876
6.77911
6.7794
6.77964
6.77983
6.77999
6.78012
6.78023
6.78031
6.78037
6.78042
6.78045
6.78048
6.78049
5.20732
5.20489
5.19968
5.19093
5.1773
5.1568
5.1269
5.08627
5.03944
5.0005
4.9741
4.95911
4.95337
4.95543
4.96475
4.98175
5.00786
5.04573
5.09975
5.17681
5.28703
5.4428
5.65117
5.89195
6.10074
6.25736
6.36892
6.4479
6.50455
6.54595
6.5768
6.60018
6.61815
6.63214
6.64313
6.65184
6.65879
6.66436
6.66884
6.67247
6.67541
6.6778
6.67974
6.68133
6.68263
6.68369
6.68455
6.68526
6.68584
6.68632
6.68671
6.68703
6.68729
6.68751
6.68768
6.68783
6.68794
6.68804
6.68811
6.68817
6.68821
6.68824
6.68826
6.68828
5.0828
5.0805
5.07554
5.0671
5.05369
5.03284
5.00104
4.95535
4.90016
4.856
4.82735
4.81149
4.80523
4.80661
4.81491
4.83043
4.85454
4.88992
4.94116
5.01587
5.12618
5.28911
5.51909
5.7965
6.02685
6.19055
6.30207
6.37852
6.43215
6.47076
6.49922
6.52062
6.53699
6.54969
6.55963
6.56749
6.57375
6.57876
6.5828
6.58605
6.58869
6.59084
6.59258
6.594
6.59516
6.59611
6.59689
6.59752
6.59804
6.59847
6.59882
6.5991
6.59934
6.59953
6.59969
6.59982
6.59992
6.60001
6.60007
6.60012
6.60017
6.60019
6.60021
6.60022
4.96406
4.96194
4.95731
4.94935
4.93642
4.91565
4.88237
4.83133
4.76577
4.7161
4.68563
4.66931
4.66277
4.66359
4.67087
4.68481
4.70671
4.73918
4.78687
4.85794
4.96638
5.13448
5.38739
5.71077
5.96401
6.1328
6.24231
6.31493
6.36477
6.40014
6.42596
6.44525
6.45993
6.47127
6.48014
6.48714
6.4927
6.49715
6.50072
6.50361
6.50594
6.50784
6.50938
6.51064
6.51167
6.51251
6.51319
6.51375
6.51421
6.51459
6.5149
6.51515
6.51536
6.51553
6.51567
6.51578
6.51588
6.51595
6.51601
6.51605
6.51609
6.51611
6.51613
6.51614
4.85083
4.8489
4.84469
4.83735
4.82518
4.80499
4.77085
4.71435
4.63567
4.58036
4.54869
4.53239
4.52583
4.52622
4.5325
4.5448
4.56431
4.5935
4.63695
4.70305
4.80733
4.97774
5.2541
5.63629
5.91294
6.08395
6.18918
6.25664
6.30198
6.33372
6.3567
6.37377
6.3867
6.39667
6.40444
6.41056
6.41542
6.4193
6.42242
6.42493
6.42697
6.42862
6.42997
6.43106
6.43195
6.43268
6.43328
6.43377
6.43417
6.4345
6.43477
6.43499
6.43517
6.43531
6.43544
6.43554
6.43562
6.43568
6.43573
6.43577
6.4358
6.43582
6.43584
6.43585
4.7428
4.7411
4.73736
4.73078
4.71966
4.70058
4.66644
4.60471
4.50906
4.44835
4.41632
4.40058
4.39428
4.39435
4.39967
4.41029
4.42727
4.45288
4.49147
4.55132
4.64893
4.81768
5.11648
5.57537
5.87442
6.04369
6.14212
6.20314
6.24335
6.27117
6.29115
6.30591
6.31707
6.32563
6.3323
6.33755
6.34171
6.34504
6.3477
6.34985
6.35159
6.353
6.35415
6.35509
6.35585
6.35647
6.35698
6.3574
6.35774
6.35802
6.35825
6.35843
6.35859
6.35871
6.35882
6.3589
6.35897
6.35903
6.35907
6.3591
6.35913
6.35915
6.35916
6.35917
4.63971
4.63826
4.63505
4.62934
4.61953
4.60214
4.5691
4.50292
4.38496
4.31964
4.28837
4.27377
4.26799
4.26786
4.27225
4.28117
4.29553
4.31733
4.35053
4.40295
4.49124
4.65321
4.97081
5.53134
5.84915
6.01155
6.10051
6.15391
6.18847
6.21213
6.22902
6.24144
6.2508
6.25797
6.26355
6.26793
6.2714
6.27417
6.2764
6.27819
6.27964
6.28081
6.28177
6.28254
6.28318
6.2837
6.28412
6.28447
6.28475
6.28498
6.28517
6.28533
6.28546
6.28556
6.28565
6.28572
6.28578
6.28582
6.28586
6.28589
6.28591
6.28592
6.28593
6.28594
4.54131
4.54012
4.53747
4.53273
4.52445
4.50932
4.47876
4.40984
4.2621
4.19387
4.16473
4.15186
4.14683
4.14659
4.1501
4.15732
4.16901
4.18686
4.21428
4.25824
4.33456
4.48341
4.81195
5.50893
5.83763
5.98683
6.0637
6.10845
6.13697
6.15632
6.17005
6.18013
6.1877
6.19349
6.19799
6.20152
6.20432
6.20655
6.20833
6.20978
6.21094
6.21188
6.21265
6.21328
6.21379
6.2142
6.21454
6.21482
6.21505
6.21524
6.21539
6.21552
6.21562
6.2157
6.21577
6.21583
6.21587
6.21591
6.21594
6.21596
6.21598
6.21599
6.216
6.21601
4.44737
4.44644
4.44438
4.44066
4.4341
4.42177
4.39527
4.32671
4.1388
4.07077
4.04536
4.03475
4.03068
4.03042
4.03308
4.03862
4.04762
4.06144
4.08281
4.11752
4.17942
4.30781
4.63285
5.5148
5.83997
5.96863
6.03094
6.06626
6.08847
6.10344
6.11403
6.12177
6.12757
6.13201
6.13545
6.13815
6.14029
6.14199
6.14336
6.14446
6.14535
6.14607
6.14666
6.14713
6.14752
6.14784
6.1481
6.14831
6.14849
6.14863
6.14875
6.14884
6.14892
6.14898
6.14904
6.14908
6.14912
6.14914
6.14917
6.14918
6.1492
6.14921
6.14921
6.14922
4.35764
4.35698
4.35552
4.35287
4.34814
4.33905
4.31833
4.25534
4.01284
3.95022
3.93026
3.92238
3.9194
3.91917
3.92103
3.92493
3.93128
3.94106
3.95625
3.98118
4.02663
4.12666
4.42401
5.55813
5.85557
5.95578
6.00153
6.02688
6.04267
6.05326
6.06072
6.06616
6.07024
6.07336
6.07578
6.07767
6.07917
6.08037
6.08132
6.08209
6.08272
6.08322
6.08363
6.08397
6.08424
6.08446
6.08464
6.08479
6.08491
6.08501
6.0851
6.08516
6.08522
6.08526
6.0853
6.08533
6.08535
6.08537
6.08539
6.0854
6.08541
6.08542
6.08542
6.08543
4.27193
4.27154
4.27067
4.2691
4.26626
4.26073
4.24741
4.19824
3.88131
3.83236
3.81949
3.81467
3.81287
3.81272
3.81381
3.81611
3.81986
3.82565
3.83468
3.84958
3.8772
3.94128
4.17262
5.65136
5.88275
5.94694
5.97473
5.98989
5.99926
6.00553
6.00994
6.01315
6.01556
6.0174
6.01882
6.01993
6.02082
6.02152
6.02208
6.02254
6.0229
6.0232
6.02344
6.02364
6.0238
6.02393
6.02404
6.02413
6.0242
6.02426
6.0243
6.02434
6.02438
6.0244
6.02442
6.02444
6.02446
6.02447
6.02448
6.02448
6.02449
6.02449
6.02449
6.0245
4.19004
4.18991
4.18962
4.1891
4.18816
4.18631
4.18167
4.15883
3.74043
3.71766
3.71316
3.71155
3.71095
3.7109
3.71125
3.71201
3.71325
3.71515
3.71813
3.72307
3.73229
3.75461
3.86175
5.81109
5.91826
5.9406
5.94989
5.9549
5.958
5.96006
5.96151
5.96257
5.96336
5.96397
5.96444
5.9648
5.96509
5.96532
5.96551
5.96566
5.96578
5.96588
5.96595
5.96602
5.96607
5.96612
5.96615
5.96618
5.9662
5.96622
5.96624
5.96625
5.96626
5.96627
5.96628
5.96628
5.96629
5.96629
5.96629
5.9663
5.9663
5.9663
5.9663
5.9663
)
;

boundaryField
{
    left
    {
        type            zeroGradient;
    }
    right
    {
        type            zeroGradient;
    }
    interface
    {
        type            fixedValue;
        value           nonuniform List<scalar> 
64
(
4.15003
4.15003
4.15003
4.15003
4.15003
4.15003
4.15003
4.15003
3.66113
3.66113
3.66113
3.66113
3.66113
3.66113
3.66113
3.66113
3.66113
3.66113
3.66113
3.66113
3.66113
3.66113
3.66113
5.93789
5.93789
5.93789
5.93789
5.93789
5.93789
5.93789
5.93789
5.93789
5.93789
5.93789
5.93789
5.93789
5.93789
5.93789
5.93789
5.93789
5.93789
5.93789
5.93789
5.93789
5.93789
5.93789
5.93789
5.93789
5.93789
5.93789
5.93789
5.93789
5.93789
5.93789
5.93789
5.93789
5.93789
5.93789
5.93789
5.93789
5.93789
5.93789
5.93789
5.93789
)
;
    }
    bottom
    {
        type            fixedValue;
        value           uniform 10;
    }
    defaultFaces
    {
        type            empty;
    }
}


// ************************************************************************* //
