/*--------------------------------*- C++ -*----------------------------------*\
| =========                 |                                                 |
| \\      /  F ield         | OpenFOAM: The Open Source CFD Toolbox           |
|  \\    /   O peration     | Version:  5.x                                   |
|   \\  /    A nd           | Web:      www.OpenFOAM.org                      |
|    \\/     M anipulation  |                                                 |
\*---------------------------------------------------------------------------*/
FoamFile
{
    version     2.0;
    format      ascii;
    class       volScalarField;
    location    "12";
    object      gradTx;
}
// * * * * * * * * * * * * * * * * * * * * * * * * * * * * * * * * * * * * * //

dimensions      [0 -1 0 1 0 0 0];

internalField   nonuniform List<scalar> 
6300
(
68.4659
68.262
67.8543
67.2425
66.4269
65.4079
64.1872
62.7674
61.1536
59.3532
57.3776
55.2422
52.9676
50.5791
48.107
68.6666
68.4628
68.0551
67.4433
66.6271
65.6068
64.3832
62.9587
61.3372
59.5257
57.5347
55.379
53.079
50.6603
48.1542
69.0679
68.8644
68.4571
67.8453
67.0284
66.0058
64.7774
63.344
61.7082
59.8751
57.8537
55.6577
53.3066
50.8267
48.2509
69.6695
69.4666
69.0603
68.4494
67.6324
66.6077
65.3735
63.9288
62.2735
60.4102
58.3448
56.0889
53.6606
51.0868
48.4028
70.4709
70.2691
69.8648
69.2563
68.4411
67.416
66.1773
64.7211
63.0441
61.1444
59.0239
56.6898
54.1578
51.4546
48.6192
71.4707
71.271
70.8704
70.2668
69.4565
68.4348
67.1955
65.7314
64.0343
62.0968
59.9138
57.486
54.8237
51.9521
48.9146
72.667
72.4704
72.0759
71.4806
70.6802
69.6681
68.4356
66.9715
65.262
63.2918
61.0459
58.5138
55.6963
52.6133
49.3121
74.0566
73.8645
73.4788
72.8964
72.1123
71.1185
69.9042
68.4539
66.7475
64.7596
62.4612
59.8245
56.8318
53.4901
49.8479
75.6349
75.4488
75.0751
74.5108
73.7506
72.7863
71.6055
70.1894
68.5114
66.5347
64.2119
61.4884
58.3137
54.6649
50.5815
77.396
77.2172
76.8586
76.3175
75.5897
74.6675
73.5387
72.1835
70.5708
68.6529
66.3604
63.6006
60.2669
56.2719
51.6153
79.3323
79.162
78.8209
78.3077
77.6196
76.7517
75.6948
74.4318
72.9322
71.1425
68.973
66.2837
62.8786
58.538
53.1366
81.4353
81.2741
80.9519
80.4691
79.8258
79.0215
78.0535
76.9133
75.5803
74.0084
72.1024
69.6798
66.423
61.8623
55.5214
83.6958
83.5435
83.2399
82.7873
82.1893
81.4515
80.5806
79.5839
78.4638
77.2051
75.7451
73.9068
71.2683
66.9639
59.6133
86.1049
85.9604
85.6731
85.247
84.689
84.0105
83.2299
82.3743
81.4821
80.5996
79.7629
78.9306
77.776
75.1085
67.597
88.6546
88.5162
88.2414
87.8348
87.3051
86.6679
85.9502
85.1976
84.4871
83.9447
83.7725
84.273
85.793
88.0936
86.1551
45.7981
43.6861
41.585
39.5162
37.5
35.5553
33.6986
31.944
30.3032
28.7853
27.3968
26.1425
25.0249
24.0453
23.2032
22.4973
21.925
21.4831
21.1674
20.9728
20.8934
20.9221
21.0511
21.2712
21.5722
21.9426
22.3702
22.8419
23.3443
23.8638
24.3876
24.9037
25.4011
25.8703
26.3027
26.6908
27.0271
27.3048
27.5166
27.6556
27.715
27.6891
27.5737
27.3663
27.0671
26.6779
26.2024
25.6453
25.011
24.3033
23.5247
22.6757
21.755
20.76
19.6871
18.5321
17.2914
15.9615
14.5399
13.0243
11.4124
9.70141
7.88726
5.96423
3.9246
1.75867
-0.545134
-2.99982
-5.61928
-8.4177
-11.4089
-14.6061
-18.0213
-21.6651
-25.5469
-29.6747
-34.0548
-38.6917
-43.5874
-48.7409
-54.1471
-59.796
-65.6715
-71.7505
-78.0027
-84.39
-90.8671
-97.3827
-103.881
-110.303
45.8118
43.6686
41.5367
39.4385
37.3955
35.427
33.55
31.7788
30.125
28.5974
27.2025
25.9443
24.8253
23.8461
23.0061
22.3037
21.7363
21.3005
20.9921
20.8061
20.7366
20.7769
20.919
21.1538
21.4712
21.8594
22.3058
22.7969
23.3185
23.8566
24.3978
24.9295
25.4407
25.9222
26.3656
26.764
27.1106
27.3985
27.6205
27.769
27.8368
27.817
27.7049
27.4977
27.1955
26.801
26.319
25.7553
25.1156
24.4046
23.6252
22.778
21.8612
20.8715
19.8044
18.655
17.419
16.093
14.6746
13.1623
11.5547
9.84958
8.04374
6.13185
4.1063
1.9571
-0.327904
-2.7625
-5.36146
-8.1398
-11.1121
-14.2919
-17.6914
-21.3216
-25.1919
-29.3104
-33.684
-38.3177
-43.2148
-48.3754
-53.796
-59.4679
-65.3763
-71.499
-77.8058
-84.258
-90.8089
-97.4049
-103.987
-110.493
45.84
43.6327
41.4377
39.2797
37.182
35.1653
33.2475
31.4431
29.7636
28.2173
26.8099
25.5446
24.4231
23.4452
22.6098
21.9147
21.3571
20.9335
20.6396
20.4706
20.4209
20.4841
20.6523
20.9168
21.2671
21.6914
22.1761
22.7068
23.268
23.8441
24.4205
24.9836
25.5223
26.0276
26.4923
26.9108
27.2774
27.5859
27.8289
27.9978
28.0833
28.0769
27.9718
27.7646
27.4557
27.0492
26.5523
25.9737
25.3219
24.6035
23.8225
22.9794
22.0716
21.0937
20.0394
18.9018
17.6755
16.3569
14.9441
13.4373
11.8367
10.1424
8.3526
6.4629
4.46588
2.35096
0.104704
-2.28844
-4.84518
-7.58239
-10.5161
-13.6607
-17.029
-20.6318
-24.4787
-28.578
-32.9374
-37.5634
-42.4613
-47.634
-53.0812
-58.7974
-64.7705
-70.9802
-77.3971
-83.9812
-90.683
-97.4439
-104.199
-110.878
45.8848
43.5773
41.2836
39.0324
36.8501
34.7596
32.78
30.9262
29.2091
27.636
26.2113
24.9369
23.8129
22.8381
22.0104
21.3268
20.7842
20.3786
20.1062
19.9624
19.9419
20.0389
20.2462
20.5553
20.9557
21.4353
21.9794
22.5719
23.1949
23.8304
24.4611
25.0719
25.651
26.1902
26.6846
27.1312
27.5268
27.8666
28.143
28.3454
28.4611
28.4776
28.3847
28.177
27.8552
27.4265
26.9023
26.2967
25.623
24.8916
24.1083
23.2732
22.3818
21.4254
20.3934
19.2757
18.0644
16.7555
15.3487
13.8466
12.2533
10.5724
8.80495
6.94819
4.99505
2.93381
0.74878
-1.57875
-4.06894
-6.74186
-9.61595
-12.7071
-16.0282
-19.5899
-23.4011
-27.4703
-31.8058
-36.4164
-41.3106
-46.496
-51.9775
-57.7551
-63.8218
-70.1611
-76.745
-83.5325
-90.4694
-97.4892
-104.516
-111.468
45.9496
43.4998
41.0664
38.6842
36.3841
34.1925
32.1299
30.2111
28.4459
26.8399
25.3951
24.1113
22.9867
22.0182
21.2023
20.5351
20.0127
19.6313
19.3869
19.2755
19.293
19.4341
19.6927
20.0612
20.5296
21.0852
21.7122
22.3919
23.1029
23.8226
24.5294
25.2049
25.836
26.4162
26.9448
27.4238
27.8553
28.2374
28.5625
28.8166
28.9807
29.0348
28.9618
28.7524
28.4079
27.94
27.3685
26.7166
26.0061
25.2535
24.4674
23.6474
22.7849
21.865
20.87
19.7835
18.5933
17.2946
15.8897
14.3866
12.7957
11.1267
9.38547
7.572
5.67963
3.69481
1.59798
-0.634787
-3.02948
-5.61147
-8.40305
-11.4218
-14.6805
-18.188
-21.9514
-25.9782
-30.2771
-34.8597
-39.7393
-44.9302
-50.4457
-56.2946
-62.4784
-68.9875
-75.7973
-82.8661
-90.1335
-97.5216
-104.938
-112.281
46.0399
43.3965
40.7738
38.2157
35.7603
33.4381
31.2711
29.2734
27.4523
25.8102
24.3458
23.0556
21.9347
20.9777
20.1791
19.5339
19.0374
18.6856
18.475
18.4025
18.465
18.659
18.9803
19.4225
19.977
20.6313
21.3683
22.1659
22.9972
23.8324
24.6418
25.4006
26.0931
26.7157
27.275
27.7838
28.2537
28.6892
29.0832
29.4161
29.6577
29.7738
29.7341
29.5213
29.137
28.6016
27.9494
27.2197
26.4487
25.6628
24.8745
24.082
23.2696
22.4117
21.4779
20.4397
19.2777
17.9858
16.5715
15.0524
13.4501
11.7847
10.0696
8.30911
6.49709
4.61692
2.64284
0.54233
-1.72024
-4.17913
-6.86275
-9.79077
-12.974
-16.4169
-20.122
-24.0932
-28.3391
-32.8742
-37.7184
-42.8958
-48.432
-54.35
-60.6649
-67.3788
-74.4745
-81.9111
-89.621
-97.5104
-105.462
-113.344
46.1642
43.2614
40.3864
37.5974
34.9429
32.4587
30.1671
28.0798
26.1995
24.5233
23.0446
21.7551
20.6458
19.7081
18.9343
18.3177
17.8528
17.5358
17.3635
17.3343
17.4468
17.7001
18.0926
18.6213
19.2799
20.0574
20.9362
21.8903
22.885
23.8783
24.8261
25.6906
26.45
27.1049
27.6769
28.1986
28.7006
29.1996
29.6909
30.1456
30.5142
30.7358
30.7544
30.5361
30.0824
29.4303
28.6406
27.7813
26.912
26.0742
25.2867
24.5441
23.819
23.067
22.235
21.2734
20.1486
18.8527
17.4036
15.8372
14.1949
12.5136
10.8186
9.12012
7.4124
5.67405
3.86961
1.95276
-0.128283
-2.42307
-4.97033
-7.79196
-10.8931
-14.268
-17.9086
-21.8118
-25.9839
-30.4425
-35.2164
-40.3434
-45.8672
-51.8319
-58.275
-65.2182
-72.6584
-80.5598
-88.8476
-97.4064
-106.083
-114.699
46.3361
43.0844
39.873
36.7836
33.879
31.2002
28.7677
26.5867
24.6516
22.9508
21.4699
20.1939
19.1087
18.2016
17.4622
16.882
16.4548
16.1766
16.0454
16.0611
16.225
16.5398
17.0083
17.6322
18.4106
19.3367
20.3947
21.5555
22.7738
23.9886
25.1292
26.1308
26.9561
27.6125
28.1502
28.6406
29.1505
29.7198
30.3499
30.9981
31.5809
31.989
32.1145
31.8888
31.3124
30.4558
29.4311
28.3562
27.3287
26.4124
25.6333
24.98
24.4062
23.8364
23.1781
22.3413
21.2651
19.9393
18.4042
16.7307
14.9954
13.2619
11.5722
9.94405
8.37152
6.8261
5.25807
3.59953
1.77143
-0.3034
-2.68266
-5.39046
-8.41755
-11.7359
-15.3165
-19.1425
-23.2151
-27.5558
-32.2047
-37.2183
-42.6661
-48.6235
-55.163
-62.3397
-70.1762
-78.6495
-87.681
-97.1293
-106.79
-116.407
46.5773
42.8475
39.1823
35.7018
32.4885
29.5856
27.0052
24.7384
22.7652
21.0606
19.5991
18.3571
17.3141
16.453
15.76
15.2252
14.8414
14.605
14.5151
14.5736
14.7854
15.1576
15.6992
16.42
17.3278
18.4254
19.7043
21.1367
22.6668
24.2048
25.6315
26.8238
27.7043
28.2899
28.6901
29.0537
29.5134
30.1514
30.9819
31.9433
32.898
33.6477
33.9791
33.7452
32.9445
31.7222
30.2927
28.8618
27.5841
26.5519
25.798
25.3006
24.9865
24.7325
24.3774
23.7529
22.7404
21.3265
19.6032
17.7128
15.7928
13.9467
12.2367
10.6875
9.29132
8.01043
6.77663
5.49032
4.02636
2.25464
0.078169
-2.52901
-5.52234
-8.82578
-12.3707
-16.1173
-20.0597
-24.2244
-28.6666
-33.4671
-38.7295
-44.5754
-51.1317
-58.509
-66.7747
-75.9329
-85.9113
-96.5438
-107.555
-118.567
46.9244
42.5159
38.2239
34.2336
30.6494
27.5054
24.7897
22.4664
20.4911
18.8193
17.4113
16.233
15.2569
14.4613
13.8296
13.3501
13.0153
12.8219
12.7703
12.8648
13.1141
13.5307
14.1317
14.9376
15.971
17.2523
18.7919
20.5762
22.5475
24.5804
26.47
27.9647
28.8761
29.2332
29.2817
29.327
29.6183
30.3045
31.4239
32.8969
34.5091
35.9073
36.6566
36.4166
35.1824
33.2856
31.1552
29.1455
27.4849
26.2897
25.5921
25.3566
25.4791
25.7734
25.9636
25.7223
24.7929
23.1585
21.0422
18.7367
16.4831
14.4349
12.6693
11.2103
10.0447
9.12669
8.37055
7.63673
6.72432
5.39546
3.45921
0.8886
-2.18038
-5.56756
-9.1343
-12.8095
-16.5833
-20.4927
-24.6118
-29.0495
-33.9515
-39.5028
-45.9164
-53.3972
-62.0859
-72.0329
-83.1969
-95.4099
-108.315
-121.334
47.4416
42.0144
36.8295
32.1791
28.1748
24.8069
22.0076
19.692
17.7786
16.1974
14.8917
13.8171
12.9393
12.2328
11.6793
11.2659
10.9851
10.834
10.8144
10.9328
11.2011
11.6377
12.2683
13.1269
14.2565
15.7066
17.5263
19.7457
22.3387
25.161
27.8761
29.9443
30.8448
30.6198
29.8765
29.2447
29.1536
29.8322
31.3556
33.6487
36.4271
39.0997
40.7571
40.5181
38.3731
35.1842
31.8427
28.9254
26.7145
25.31
24.7196
24.8958
25.7237
26.9631
28.17
28.6818
27.8597
25.6838
22.7527
19.6851
16.8771
14.5155
12.66
11.3102
10.4412
10.0095
9.93201
10.0401
10.0218
9.41072
7.75364
5.02383
1.61988
-2.05059
-5.74132
-9.35948
-12.9112
-16.4582
-20.0976
-23.9621
-28.2374
-33.1873
-39.1629
-46.5442
-55.5829
-66.3783
-78.9695
-93.2762
-108.908
-124.966
48.2511
41.162
34.6632
29.1928
24.7828
21.2887
18.5283
16.3378
14.5871
13.1781
12.0389
11.1169
10.3742
9.78374
9.32659
8.99024
8.76762
8.65646
8.65937
8.78425
9.04534
9.46494
10.076
10.9256
12.0798
13.6281
15.6844
18.3762
21.7988
25.8949
30.2127
33.6042
34.4328
32.7516
30.3093
28.3826
27.5792
28.1425
30.1776
33.7004
38.4961
43.7522
47.5868
47.3627
43.0654
37.3013
31.9179
27.6871
24.7817
23.1573
22.7423
23.4957
25.3746
28.1988
31.3763
33.5612
32.8748
29.2957
24.6588
20.2592
16.6277
13.8669
11.9219
10.7173
10.2077
10.3819
11.2259
12.6251
14.1724
14.932
13.5926
10.1296
5.80389
1.49566
-2.45263
-6.00472
-9.24533
-12.2902
-15.2584
-18.2823
-21.551
-25.3936
-30.3837
-37.3032
-46.5484
-58.1355
-72.2692
-89.2316
-108.885
-129.915
49.6056
39.4575
31.0144
24.6787
20.0705
16.7129
14.2273
12.3494
10.9026
9.76988
8.87268
8.15798
7.58947
7.14225
6.7995
6.55046
6.38922
6.31423
6.3283
6.43919
6.66093
7.01609
7.53961
8.28515
9.33524
10.8173
12.9267
15.9537
20.2881
26.3084
33.8818
40.9531
41.6333
35.9781
29.9983
25.9019
24.0354
24.3324
26.8559
31.9179
39.9003
50.4502
60.2592
60.0709
49.8679
38.8688
30.332
24.5393
21.003
19.2622
19.0817
20.474
23.6631
28.9249
36.0105
42.5744
42.054
34.4298
26.2222
19.7265
15.124
12.0429
10.1174
9.1231
8.98918
9.78944
11.7201
14.9963
19.4569
23.4754
22.489
16.4776
9.96253
4.52358
0.265595
-3.09831
-5.86101
-8.23211
-10.3384
-12.2494
-14.0373
-15.9464
-18.825
-24.7118
-34.1401
-46.2235
-61.4935
-81.3096
-106.874
-137.047
52.077
35.2965
24.3292
17.6754
13.5565
10.8809
9.05042
7.73953
6.76564
6.02196
5.44326
4.98818
4.62972
4.34997
4.13718
3.98395
3.88634
3.84347
3.85751
3.93424
4.08412
4.32448
4.68321
5.20578
5.96825
7.10257
8.8471
11.6476
16.349
24.4845
38.2723
57.5035
57.9548
39.6707
26.9737
20.2091
17.3752
17.3149
19.8778
25.9288
37.6059
58.2126
87.3255
87.1979
57.815
36.889
24.7936
18.1411
14.638
13.1195
13.1555
14.8643
18.9662
27.0233
41.3949
61.7872
61.4612
40.4027
25.3197
16.467
11.4288
8.55425
6.97162
6.28966
6.42514
7.56884
10.2764
15.6614
25.3773
39.2252
38.6206
23.5503
12.5713
5.85079
1.69638
-1.05749
-3.04038
-4.55506
-5.69905
-6.39334
-6.34872
-5.10216
-2.93395
-7.01939
-17.9073
-29.7212
-44.1697
-65.107
-98.225
-148.166
57.0032
22.7625
11.4317
7.02118
4.96332
3.83134
3.12503
2.64407
2.29682
2.03618
1.83559
1.67903
1.55639
1.4611
1.3889
1.33716
1.30448
1.29059
1.29629
1.32375
1.37686
1.46221
1.59067
1.78075
2.06554
2.50885
3.24653
4.60389
7.46391
14.5201
34.8229
101.094
101.253
35.3163
15.405
8.85543
6.72027
6.51937
7.87604
11.8369
22.4514
53.724
156.495
156.449
53.5816
22.1917
11.4164
7.2072
5.41478
4.7377
4.81996
5.80794
8.57319
16.028
38.108
110.832
110.721
37.7692
15.4449
7.71384
4.61769
3.20495
2.52865
2.27891
2.40904
3.09603
4.97688
10.0897
25.3467
75.7855
75.5817
24.7308
9.04744
3.48267
1.11034
-0.126828
-0.893844
-1.41163
-1.70703
-1.60101
-0.39052
4.41531
21.963
20.4693
-0.340511
-9.42384
-17.5002
-31.3618
-65.3469
-167.258
-117.202
-124.467
-131.364
-137.82
-143.779
-149.201
-154.063
-158.355
-162.075
-165.23
-167.832
-169.893
-171.427
-172.442
-172.948
-117.48
-124.832
-131.801
-138.312
-144.311
-149.757
-154.63
-158.921
-162.634
-165.779
-168.368
-170.416
-171.939
-172.947
-173.449
-118.046
-125.574
-132.691
-139.315
-145.39
-150.882
-155.772
-160.061
-163.758
-166.877
-169.439
-171.461
-172.961
-173.952
-174.446
-118.92
-126.726
-134.068
-140.862
-147.05
-152.602
-157.512
-161.789
-165.453
-168.529
-171.044
-173.022
-174.485
-175.451
-175.931
-120.139
-128.336
-135.991
-143.011
-149.34
-154.96
-159.88
-164.126
-167.732
-170.738
-173.181
-175.093
-176.502
-177.43
-177.89
-121.759
-130.482
-138.546
-145.846
-152.335
-158.014
-162.917
-167.096
-170.606
-173.505
-175.842
-177.661
-178.996
-179.872
-180.305
-123.865
-133.282
-141.862
-149.488
-156.135
-161.839
-166.675
-170.728
-174.087
-176.827
-179.017
-180.708
-181.943
-182.75
-183.148
-126.589
-136.916
-146.126
-154.104
-160.872
-166.528
-171.209
-175.051
-178.179
-180.696
-182.684
-184.207
-185.312
-186.031
-186.385
-130.145
-141.663
-151.617
-159.928
-166.714
-172.188
-176.576
-180.083
-182.877
-185.087
-186.811
-188.118
-189.06
-189.671
-189.971
-134.885
-147.969
-158.748
-167.271
-173.865
-178.928
-182.82
-185.824
-188.154
-189.96
-191.347
-192.389
-193.135
-193.616
-193.852
-141.436
-156.575
-168.13
-176.537
-182.541
-186.834
-189.944
-192.234
-193.948
-195.244
-196.224
-196.951
-197.468
-197.8
-197.963
-151.01
-168.761
-180.657
-188.2
-192.921
-195.92
-197.882
-199.215
-200.156
-200.84
-201.346
-201.717
-201.98
-202.148
-202.231
-166.242
-186.798
-197.531
-202.678
-205.02
-206.035
-206.442
-206.582
-206.614
-206.609
-206.596
-206.586
-206.579
-206.577
-206.576
-193.796
-214.653
-219.986
-219.952
-218.441
-216.751
-215.262
-214.051
-213.103
-212.379
-211.837
-211.443
-211.169
-210.997
-210.914
-253.767
-258.028
-247.799
-238.697
-232.037
-227.26
-223.797
-221.251
-219.363
-217.96
-216.924
-216.173
-215.651
-215.322
-215.162
91.1151
90.9805
90.7128
90.316
89.7981
89.174
88.4719
87.7436
87.084
86.6682
86.8278
88.2317
92.4227
103.879
139.7
93.4427
93.3103
93.0464
92.653
92.1352
91.5034
90.7797
90.0077
89.2728
88.7417
88.7384
89.892
93.4013
101.306
114.895
95.8593
95.7287
95.467
95.0735
94.5483
93.8938
93.1183
92.2431
91.3174
90.4459
89.8426
89.9135
91.3245
94.7825
99.5674
98.3638
98.2352
97.9761
97.5824
97.0482
96.3651
95.523
94.511
93.3214
91.9608
90.4756
89.0019
87.8233
87.3342
87.6041
100.955
100.829
100.575
100.186
99.6482
98.9437
98.0427
96.8992
95.4412
93.5589
91.0978
87.8824
83.8404
79.3558
75.8701
103.63
103.51
103.266
102.889
102.361
101.656
100.728
99.503
97.8527
95.5558
92.2408
87.3343
80.1619
70.6813
61.7578
106.384
106.273
106.046
105.693
105.193
104.518
103.616
102.399
100.71
98.2565
94.486
88.3569
78.0837
61.6175
41.4913
109.213
109.114
108.911
108.594
108.145
107.536
106.72
105.62
104.094
101.869
98.366
92.2546
80.3037
55.0932
7.29151
112.108
112.024
111.852
111.583
111.204
110.693
110.019
109.134
107.961
106.365
104.054
100.204
91.7292
64.2552
-60.0596
115.058
114.992
114.856
114.646
114.351
113.96
113.46
112.844
112.119
111.354
110.808
111.362
116.345
140.666
262.968
118.05
118.004
117.909
117.763
117.56
117.299
116.98
116.625
116.299
116.188
116.795
119.441
127.53
149.029
194.316
121.072
121.046
120.994
120.915
120.807
120.673
120.522
120.383
120.326
120.52
121.363
123.736
129.397
140.867
157.166
124.107
124.103
124.095
124.083
124.068
124.055
124.053
124.081
124.175
124.398
124.864
125.742
127.228
129.348
131.389
127.142
127.159
127.194
127.248
127.324
127.426
127.559
127.73
127.929
128.104
128.075
127.322
124.614
117.879
107.083
130.162
130.199
130.276
130.394
130.557
130.77
131.037
131.355
131.695
131.948
131.784
130.256
124.792
109.228
75.3349
133.151
133.209
133.326
133.505
133.752
134.073
134.475
134.961
135.516
136.077
136.438
135.918
131.98
113.301
20.106
136.097
136.173
136.328
136.565
136.891
137.315
137.851
138.514
139.328
140.341
141.7
143.95
149.402
169.117
262.71
138.986
139.079
139.268
139.558
139.957
140.476
141.135
141.959
142.998
144.361
146.338
149.752
156.914
173.625
207.875
141.806
141.915
142.135
142.471
142.934
143.537
144.299
145.251
146.438
147.949
149.974
152.948
157.791
165.947
176.887
144.548
144.669
144.915
145.292
145.81
146.482
147.329
148.375
149.649
151.175
152.948
154.839
156.363
156.331
153.558
147.2
147.333
147.601
148.011
148.573
149.301
150.215
151.336
152.679
154.225
155.835
156.981
156.011
148.613
128.367
149.757
149.898
150.183
150.619
151.216
151.987
152.954
154.139
155.564
157.227
159.041
160.586
160.118
149.812
89.181
152.212
152.359
152.657
153.111
153.732
154.534
155.537
156.771
158.277
160.119
162.428
165.583
171.054
185.955
249.481
154.56
154.711
155.017
155.483
156.117
156.935
157.955
159.211
160.753
162.68
165.225
168.966
175.435
188.325
212.436
156.799
156.952
157.262
157.732
158.371
159.19
160.206
161.447
162.955
164.81
167.184
170.451
175.351
182.898
192.202
158.926
159.08
159.39
159.86
160.494
161.303
162.297
163.493
164.91
166.573
168.52
170.797
173.424
176.245
178.497
160.943
161.096
161.403
161.867
162.492
163.282
164.244
165.381
166.688
168.134
169.622
170.895
171.357
169.981
166.424
162.849
163
163.302
163.758
164.369
165.137
166.065
167.147
168.366
169.66
170.868
171.55
170.562
165.226
151.95
164.646
164.794
165.09
165.536
166.132
166.878
167.773
168.814
169.984
171.241
172.474
173.36
172.783
165.981
128.324
166.335
166.48
166.77
167.205
167.785
168.509
169.376
170.386
171.537
172.834
174.316
176.181
179.32
188.158
226.898
167.919
168.061
168.344
168.769
169.332
170.035
170.876
171.856
172.984
174.291
175.889
178.111
181.896
189.563
204.164
169.401
169.54
169.816
170.23
170.778
171.46
172.274
173.219
174.301
175.543
177.023
178.949
181.77
186.148
191.639
170.782
170.917
171.188
171.591
172.126
172.789
173.576
174.482
175.501
176.623
177.844
179.16
180.559
181.954
182.998
172.064
172.197
172.462
172.857
173.38
174.026
174.79
175.663
176.623
177.63
178.593
179.309
179.344
178
175.152
173.25
173.38
173.641
174.029
174.542
175.176
175.925
176.777
177.708
178.662
179.509
179.924
179.084
175.085
165.399
174.34
174.469
174.726
175.109
175.615
176.242
176.984
177.833
178.772
179.762
180.719
181.405
181.011
176.113
148.991
175.337
175.464
175.718
176.097
176.599
177.222
177.964
178.822
179.793
180.881
182.114
183.63
186.063
192.569
220.525
176.24
176.367
176.618
176.995
177.494
178.115
178.858
179.726
180.729
181.893
183.307
185.214
188.28
194.123
204.838
177.052
177.177
177.427
177.802
178.299
178.918
179.662
180.534
181.546
182.727
184.152
185.988
188.562
192.29
196.663
177.772
177.896
178.145
178.518
179.013
179.631
180.371
181.239
182.239
183.386
184.706
186.245
188.038
190.002
191.596
178.401
178.525
178.773
179.144
179.637
180.252
180.988
181.847
182.826
183.919
185.105
186.32
187.391
187.966
187.707
178.939
179.062
179.31
179.679
180.171
180.783
181.516
182.367
183.329
184.382
185.478
186.489
187.082
186.503
183.708
179.386
179.51
179.756
180.125
180.616
181.227
181.957
182.804
183.762
184.809
185.906
186.942
187.583
186.575
177.84
179.744
179.867
180.113
180.481
180.971
181.582
182.312
183.162
184.126
185.198
186.372
187.664
189.223
192.007
201.695
180.011
180.134
180.38
180.748
181.238
181.849
182.581
183.434
184.41
185.51
186.752
188.194
190.008
192.641
196.628
180.189
180.312
180.557
180.925
181.415
182.026
182.76
183.618
184.602
185.718
186.988
188.46
190.218
192.328
194.4
180.276
180.399
180.644
181.012
181.502
182.114
182.849
183.709
184.696
185.815
187.08
188.522
190.18
192.037
193.681
180.275
180.397
180.642
181.009
181.498
182.111
182.847
183.708
184.694
185.804
187.044
188.427
190
191.889
194.172
180.184
180.306
180.55
180.916
181.405
182.017
182.753
183.615
184.6
185.7
186.904
188.195
189.595
191.461
196.318
180.004
180.125
180.368
180.733
181.22
181.831
182.568
183.432
184.419
185.518
186.698
187.883
188.861
188.951
185.171
179.735
179.855
180.096
180.459
180.944
181.554
182.291
183.159
184.156
185.274
186.485
187.709
188.74
189.123
188.2
179.378
179.497
179.736
180.095
180.577
181.183
181.919
182.791
183.804
184.961
186.258
187.663
189.065
190.197
190.655
178.935
179.052
179.287
179.641
180.117
180.717
181.449
182.322
183.347
184.545
185.951
187.614
189.574
191.733
193.495
178.406
178.521
178.751
179.098
179.565
180.156
180.877
181.741
182.765
183.981
185.461
187.355
189.938
193.541
197.625
177.793
177.905
178.129
178.467
178.922
179.499
180.203
181.046
182.043
183.228
184.68
186.611
189.591
195.01
204.655
177.099
177.207
177.423
177.75
178.19
178.748
179.428
180.238
181.187
182.284
183.561
185.135
187.544
193.539
218.45
176.325
176.428
176.636
176.95
177.372
177.907
178.558
179.331
180.222
181.21
182.232
183.075
183.002
178.925
155.065
175.476
175.574
175.771
176.07
176.471
176.98
177.601
178.337
179.183
180.11
181.023
181.645
181.235
178.047
169.716
174.554
174.646
174.832
175.113
175.491
175.971
176.559
177.262
178.084
179.015
180.011
180.927
181.394
180.736
178.644
173.564
173.65
173.822
174.083
174.435
174.882
175.434
176.101
176.904
177.87
179.051
180.515
182.329
184.418
186.179
172.511
172.589
172.747
172.986
173.308
173.717
174.223
174.843
175.605
176.573
177.889
179.857
183.068
188.323
194.998
171.399
171.47
171.612
171.826
172.115
172.481
172.931
173.481
174.158
175.03
176.271
178.331
182.385
191.236
208.513
170.234
170.297
170.422
170.611
170.864
171.181
171.566
172.026
172.571
173.227
174.08
175.414
178.366
188.292
234.086
169.022
169.076
169.185
169.347
169.563
169.83
170.147
170.508
170.901
171.284
171.551
171.369
169.501
160.435
115.07
167.768
167.814
167.906
168.042
168.221
168.44
168.692
168.966
169.232
169.416
169.332
168.491
165.63
157.784
141.054
166.478
166.516
166.592
166.704
166.848
167.022
167.218
167.426
167.617
167.731
167.633
167.01
165.219
161.297
155.477
165.158
165.189
165.25
165.338
165.451
165.584
165.734
165.892
166.05
166.191
166.295
166.336
166.284
166.124
165.912
163.814
163.837
163.884
163.951
164.035
164.132
164.239
164.357
164.49
164.671
164.997
165.724
167.42
170.984
176.253
162.449
162.466
162.5
162.548
162.605
162.669
162.735
162.806
162.894
163.047
163.417
164.435
167.255
174.655
190.308
161.068
161.081
161.103
161.134
161.167
161.199
161.224
161.24
161.248
161.268
161.385
161.888
163.907
172.59
215.286
159.676
159.684
159.697
159.714
159.727
159.731
159.717
159.675
159.588
159.419
159.081
158.286
155.927
146.902
103.928
158.275
158.279
158.286
158.291
158.289
158.27
158.226
158.139
157.981
157.685
157.09
155.766
152.573
144.785
128.815
156.868
156.87
156.873
156.871
156.858
156.825
156.76
156.649
156.465
156.155
155.603
154.541
152.406
148.349
142.659
155.456
155.457
155.459
155.454
155.437
155.397
155.324
155.208
155.033
154.789
154.465
154.058
153.571
153.043
152.601
154.039
154.042
154.045
154.043
154.027
153.989
153.916
153.802
153.646
153.474
153.383
153.627
154.763
157.672
162.284
152.617
152.623
152.631
152.637
152.63
152.6
152.534
152.423
152.266
152.101
152.066
152.571
154.719
161.117
175.216
151.188
151.199
151.217
151.235
151.245
151.233
151.181
151.072
150.889
150.633
150.369
150.373
151.72
159.212
197.986
149.749
149.766
149.798
149.837
149.873
149.889
149.865
149.769
149.558
149.167
148.484
147.238
144.451
135.578
95.8679
148.295
148.321
148.371
148.437
148.509
148.571
148.596
148.544
148.349
147.9
146.988
145.168
141.407
133.357
118.079
146.819
146.857
146.928
147.03
147.15
147.275
147.377
147.414
147.314
146.952
146.118
144.444
141.339
136.151
129.724
145.315
145.365
145.463
145.605
145.785
145.991
146.2
146.377
146.456
146.328
145.828
144.712
142.713
139.804
136.949
143.774
143.837
143.963
144.151
144.398
144.7
145.044
145.405
145.737
145.962
145.962
145.59
144.718
143.417
142.234
142.186
142.262
142.417
142.652
142.971
143.378
143.873
144.45
145.089
145.747
146.354
146.81
147.017
146.945
146.74
140.542
140.631
140.811
141.09
141.479
141.991
142.643
143.45
144.425
145.565
146.846
148.202
149.506
150.564
151.146
138.835
138.933
139.134
139.45
139.898
140.504
141.301
142.331
143.642
145.282
147.284
149.627
152.162
154.509
156
137.056
137.16
137.374
137.714
138.205
138.882
139.795
141.014
142.627
144.744
147.481
150.915
154.946
159.045
161.932
135.203
135.307
135.524
135.871
136.379
137.092
138.074
139.42
141.259
143.772
147.193
151.785
157.681
164.419
169.912
133.275
133.373
133.58
133.914
134.408
135.111
136.099
137.481
139.421
142.165
146.089
151.745
159.827
170.654
181.75
131.276
131.362
131.545
131.842
132.288
132.931
133.847
135.151
137.02
139.736
143.78
150.018
160.063
176.698
201.335
129.213
129.282
129.427
129.665
130.027
130.558
131.323
132.427
134.027
136.38
139.946
145.644
155.72
177.181
238.07
-419.829
-311.061
-272.256
-253.636
-242.766
-235.683
-230.772
-227.241
-224.651
-222.735
-221.32
-220.293
-219.577
-219.125
-218.906
-354.888
-310.683
-280.466
-261.828
-249.887
-241.826
-236.149
-232.029
-228.987
-226.722
-225.042
-223.816
-222.959
-222.416
-222.152
-320.715
-300.584
-280.63
-265.363
-254.309
-246.309
-240.438
-236.065
-232.778
-230.3
-228.443
-227.078
-226.119
-225.508
-225.211
-300.594
-290.356
-277.533
-265.967
-256.606
-249.308
-243.68
-239.343
-236.003
-233.441
-231.496
-230.053
-229.032
-228.379
-228.06
-287.655
-281.916
-273.557
-265.035
-257.464
-251.144
-246.019
-241.924
-238.685
-236.149
-234.195
-232.73
-231.684
-231.012
-230.683
-278.772
-275.291
-269.688
-263.436
-257.449
-252.143
-247.637
-243.906
-240.872
-238.448
-236.551
-235.11
-234.073
-233.402
-233.073
-272.378
-270.134
-266.265
-261.648
-256.956
-252.582
-248.711
-245.398
-242.633
-240.377
-238.583
-237.204
-236.203
-235.551
-235.229
-267.614
-266.101
-263.354
-259.908
-256.236
-252.666
-249.392
-246.504
-244.035
-241.981
-240.321
-239.03
-238.085
-237.465
-237.159
-263.973
-262.919
-260.923
-258.32
-255.439
-252.54
-249.798
-247.315
-245.145
-243.306
-241.798
-240.612
-239.735
-239.157
-238.87
-261.137
-260.386
-258.908
-256.919
-254.65
-252.3
-250.019
-247.905
-246.019
-244.396
-243.046
-241.973
-241.173
-240.643
-240.379
-258.895
-258.352
-257.241
-255.707
-253.912
-252.008
-250.118
-248.33
-246.708
-245.29
-244.097
-243.138
-242.418
-241.939
-241.699
-257.101
-256.707
-255.864
-254.671
-253.245
-251.701
-250.139
-248.635
-247.25
-246.023
-244.979
-244.132
-243.492
-243.063
-242.848
-255.655
-255.369
-254.724
-253.791
-252.654
-251.402
-250.113
-248.854
-247.678
-246.624
-245.718
-244.977
-244.414
-244.034
-243.844
-254.479
-254.274
-253.78
-253.047
-252.139
-251.122
-250.061
-249.01
-248.017
-247.117
-246.337
-245.694
-245.202
-244.87
-244.702
-253.518
-253.375
-252.997
-252.42
-251.693
-250.868
-249.996
-249.121
-248.286
-247.522
-246.855
-246.301
-245.875
-245.586
-245.44
-252.728
-252.633
-252.345
-251.893
-251.311
-250.642
-249.926
-249.2
-248.5
-247.856
-247.288
-246.814
-246.447
-246.197
-246.071
-252.078
-252.02
-251.804
-251.449
-250.985
-250.443
-249.857
-249.256
-248.672
-248.13
-247.65
-247.246
-246.933
-246.719
-246.61
-251.54
-251.512
-251.352
-251.077
-250.707
-250.27
-249.791
-249.296
-248.811
-248.357
-247.952
-247.611
-247.344
-247.162
-247.069
-251.094
-251.09
-250.976
-250.764
-250.472
-250.12
-249.731
-249.324
-248.923
-248.545
-248.205
-247.918
-247.692
-247.538
-247.459
-250.725
-250.739
-250.662
-250.501
-250.273
-249.992
-249.677
-249.345
-249.013
-248.7
-248.417
-248.176
-247.987
-247.856
-247.789
-250.417
-250.447
-250.399
-250.282
-250.104
-249.882
-249.629
-249.359
-249.087
-248.829
-248.594
-248.393
-248.234
-248.125
-248.069
-250.161
-250.204
-250.181
-250.097
-249.963
-249.789
-249.587
-249.369
-249.148
-248.935
-248.742
-248.575
-248.443
-248.352
-248.305
-249.949
-250.002
-249.998
-249.943
-249.844
-249.71
-249.551
-249.376
-249.197
-249.024
-248.865
-248.728
-248.618
-248.542
-248.503
-249.772
-249.833
-249.846
-249.814
-249.744
-249.644
-249.52
-249.381
-249.237
-249.097
-248.968
-248.856
-248.765
-248.702
-248.67
-249.625
-249.693
-249.719
-249.707
-249.661
-249.587
-249.493
-249.385
-249.271
-249.158
-249.054
-248.962
-248.888
-248.837
-248.81
-249.503
-249.577
-249.615
-249.618
-249.591
-249.541
-249.471
-249.387
-249.298
-249.209
-249.125
-249.051
-248.991
-248.948
-248.926
-249.403
-249.481
-249.528
-249.544
-249.534
-249.502
-249.452
-249.389
-249.32
-249.25
-249.184
-249.124
-249.075
-249.041
-249.023
-249.321
-249.403
-249.457
-249.484
-249.486
-249.47
-249.437
-249.391
-249.339
-249.284
-249.232
-249.184
-249.145
-249.117
-249.102
-249.254
-249.339
-249.399
-249.434
-249.448