/*--------------------------------*- C++ -*----------------------------------*\
| =========                 |                                                 |
| \\      /  F ield         | OpenFOAM: The Open Source CFD Toolbox           |
|  \\    /   O peration     | Version:  5.x                                   |
|   \\  /    A nd           | Web:      www.OpenFOAM.org                      |
|    \\/     M anipulation  |                                                 |
\*---------------------------------------------------------------------------*/
FoamFile
{
    version     2.0;
    format      ascii;
    class       volScalarField;
    location    "12";
    object      gradTy;
}
// * * * * * * * * * * * * * * * * * * * * * * * * * * * * * * * * * * * * * //

dimensions      [0 -1 0 1 0 0 0];

internalField   nonuniform List<scalar> 
6300
(
1034.31
1102.82
1171.03
1238.73
1305.72
1371.79
1436.73
1500.36
1562.46
1622.85
1681.34
1737.76
1791.96
1843.81
1893.2
0.150479
0.451536
0.752835
1.05433
1.35565
1.6559
1.95353
2.2461
2.53007
2.80071
3.05201
3.27688
3.46748
3.61592
3.71513
0.250678
0.752274
1.25448
1.75739
2.26055
2.7627
3.26146
3.75298
4.23152
4.68923
5.11595
5.4994
5.82581
6.08105
6.25226
0.350628
1.05236
1.75538
2.46013
3.16636
3.87278
4.57652
5.27268
5.95365
6.60857
7.22294
7.77872
8.25503
8.62991
8.88289
0.450094
1.35111
2.25446
3.16128
4.07188
4.98536
5.89898
6.80736
7.70158
8.56816
9.38822
10.1371
10.7853
11.3002
11.6507
0.548711
1.64745
2.75001
3.85852
4.97435
6.09761
7.22643
8.35592
9.47683
10.5739
11.6242
12.5959
13.4483
14.1344
14.607
0.645991
1.9399
3.2395
4.54829
5.86918
7.20404
8.55291
9.91271
11.2755
12.6259
13.9383
15.1733
16.2768
17.1814
17.8148
0.741325
2.22659
3.71968
5.22577
6.74981
8.2962
9.86809
11.4661
13.086
14.7155
16.3289
17.8815
19.3035
20.4989
21.3551
0.834014
2.50535
4.18672
5.88509
7.6078
9.3625
11.1567
12.997
14.8863
16.8203
18.7797
20.7195
22.5557
24.1545
25.3375
0.923356
2.77399
4.63658
6.51983
8.4335
10.3888
12.3989
14.4782
16.6413
18.899
21.249
23.6601
26.0444
28.225
29.9175
1.00874
3.03055
5.06561
7.12389
9.21716
11.36
13.5712
15.8748
18.301
20.8843
23.6565
26.6263
29.7357
32.7824
35.3261
1.08978
3.27373
5.47123
7.69267
9.95082
12.2624
14.6505
17.1482
19.8026
22.6798
25.8653
29.4518
33.4883
37.8415
41.9142
1.16638
3.50322
5.85268
8.22445
10.6306
13.0876
15.6196
18.264
21.0807
24.1659
27.6719
31.8263
36.9227
43.1793
50.1689
1.23885
3.71998
6.21159
8.7215
11.2591
13.8373
16.4756
19.2068
22.0893
25.2301
28.8288
33.2575
39.195
47.7822
60.3247
1.30785
3.9261
6.55198
9.19047
11.8466
14.5262
17.2379
19.9975
22.8386
25.8354
29.1547
33.1781
38.8157
48.4274
69.0213
1936.16
1973.45
2008.96
2042.72
2074.75
2105.13
2133.91
2161.17
2187.01
2211.53
2234.83
2257.02
2278.23
2298.57
2318.14
2337.07
2355.48
2373.46
2391.13
2408.59
2425.95
2443.28
2460.69
2478.26
2496.05
2514.13
2532.55
2551.36
2570.58
2590.24
2610.35
2630.9
2651.88
2673.27
2695.04
2717.16
2739.58
2762.27
2785.17
2808.22
2831.36
2854.51
2877.61
2900.58
2923.33
2945.8
2967.9
2989.56
3010.73
3031.34
3051.32
3070.63
3089.2
3106.97
3123.89
3139.88
3154.88
3168.81
3181.59
3193.16
3203.42
3212.29
3219.71
3225.57
3229.79
3232.26
3232.88
3231.54
3228.08
3222.38
3214.28
3203.62
3190.2
3173.86
3154.38
3131.57
3105.23
3075.13
3041.05
3002.79
2960.12
2912.84
2860.74
2803.63
2741.36
2673.79
2600.82
2522.39
2438.5
2349.17
3.75609
3.75372
3.71158
3.63098
3.51455
3.36594
3.18952
2.98999
2.77208
2.54032
2.29881
2.05119
1.80059
1.54963
1.30051
1.05512
0.815079
0.581888
0.35702
0.142004
-0.061505
-0.251687
-0.426554
-0.583995
-0.721874
-0.838186
-0.931253
-0.999941
-1.04387
-1.06351
-1.06025
-1.03615
-0.993644
-0.935149
-0.862591
-0.777151
-0.679214
-0.568587
-0.444942
-0.308352
-0.159797
-0.00145508
0.163313
0.330323
0.495207
0.654166
0.804649
0.945769
1.07839
1.20486
1.32852
1.45301
1.58162
1.71679
1.8597
2.01036
2.16777
2.3305
2.49724
2.6674
2.84143
3.02101
3.20895
3.4088
3.62451
3.85986
4.11808
4.4014
4.7109
5.04648
5.40699
5.79056
6.19487
6.61748
7.05593
7.50766
7.96981
8.43883
8.91004
9.37724
9.8324
10.2655
10.6646
11.0163
11.3065
11.5211
11.6472
11.6744
11.5961
11.4097
6.32326
6.31949
6.24714
6.10861
5.90871
5.65407
5.35253
5.01243
4.64205
4.2492
3.84089
3.42321
3.00134
2.57955
2.16138
1.74978
1.3473
0.956301
0.579078
0.218074
-0.124015
-0.444158
-0.738968
-1.00477
-1.23776
-1.43428
-1.59119
-1.70628
-1.7787
-1.80929
-1.80056
-1.7565
-1.68186
-1.5813
-1.45849
-1.31547
-1.15252
-0.968643
-0.76242
-0.533196
-0.28213
-0.0128798
0.268379
0.553661
0.834489
1.10347
1.35567
1.5895
1.8068
2.0123
2.2126
2.41483
2.62535
2.84868
3.08688
3.3395
3.60411
3.87737
4.15621
4.43903
4.7264
5.02127
5.32879
5.65561
6.00907
6.39623
6.823
7.29346
7.80946
8.37056
8.9744
9.61733
10.2951
11.0034
11.7382
12.4957
13.2717
14.0609
14.8562
15.6477
16.4223
17.1631
17.8497
18.4586
18.9647
19.3426
19.5692
19.6255
19.4989
19.1847
8.98859
8.98383
8.8778
8.67444
8.38149
8.00955
7.57086
7.07825
6.54419
5.98018
5.39631
4.80119
4.20191
3.60424
3.01279
2.43133
1.86308
1.31096
0.77789
0.267037
-0.217979
-0.672941
-1.09297
-1.47259
-1.80595
-2.0872
-2.31111
-2.4738
-2.57355
-2.61141
-2.59151
-2.52063
-2.40714
-2.25925
-2.08325
-1.88223
-1.65575
-1.40065
-1.11282
-0.789294
-0.430465
-0.0414226
0.367816
0.78357
1.19098
1.57706
1.9333
2.25717
2.5523
2.82733
3.094
3.36479
3.65069
3.95922
4.29338
4.65145
5.02809
5.41624
5.80951
6.20418
6.60058
7.00334
7.42084
7.86406
8.34509
8.87552
9.46497
10.1199
10.843
11.633
12.4854
13.3938
14.3512
15.3509
16.3877
17.4569
18.5542
19.6738
20.8073
21.9422
23.0605
24.1385
25.1462
26.0485
26.8068
27.3816
27.7361
27.8396
27.6714
27.2235
11.7985
11.7934
11.6479
11.3685
10.9673
10.4604
9.86608
9.20298
8.48869
7.73893
6.96714
6.18437
5.39945
4.61926
3.84913
3.09324
2.35503
1.6376
0.944151
0.27826
-0.355739
-0.952525
-1.50564
-2.00751
-2.44962
-2.82312
-3.11961
-3.3324
-3.45794
-3.49715
-3.45629
-3.34659
-3.18242
-2.97815
-2.74454
-2.48617
-2.20069
-1.88037
-1.51516
-1.09683
-0.622933
-0.0997059
0.457188
1.02478
1.57748
2.09289
2.55674
2.96544
3.32595
3.65358
3.96859
4.29213
4.64253
5.03197
5.46449
5.9357
6.43452
6.9468
7.45978
7.96585
8.4646
8.96314
9.47479
10.017
10.6089
11.2687
12.0115
12.8471
13.779
14.8043
15.9146
17.0987
18.3449
19.6438
20.989
22.3765
23.8033
25.2654
26.7551
28.2589
29.7553
31.2135
32.5929
33.8442
34.9114
35.7362
36.2627
36.4432
36.245
35.6548
14.8089
14.8042
14.6103
14.2375
13.7047
13.0365
12.2598
11.4008
10.4836
9.52879
8.55316
7.57006
6.58959
5.61925
4.66447
3.72922
2.8166
1.92935
1.07037
0.243235
-0.547374
-1.29525
-1.99236
-2.62866
-3.1923
-3.67011
-4.0488
-4.3168
-4.46677
-4.49835
-4.42037
-4.25113
-4.01561
-3.73947
-3.44171
-3.12933
-2.79604
-2.42495
-1.99427
-1.48468
-0.886746
-0.206824
0.530765
1.28702
2.01721
2.68248
3.25912
3.7426
4.1464
4.4975
4.83032
5.18024
5.57754
6.04202
6.57924
7.17953
7.82087
8.47564
9.1193
9.73728
10.3282
10.9033
11.4839
12.0976
12.774
13.5416
14.4234
15.4346
16.5797
17.8522
19.2367
20.7128
22.2616
23.869
25.5282
27.2381
29.0002
30.8158
32.6812
34.5849
36.5036
38.4003
40.2225
41.9032
43.3636
44.5189
45.2855
45.5905
45.3815
44.636
18.0897
18.0866
17.8296
17.3359
16.6362
15.7682
14.7712
13.682
12.5323
11.3481
10.1495
8.95149
7.76473
6.59644
5.45132
4.33232
3.24139
2.18015
1.15055
0.155462
-0.800659
-1.71118
-2.56667
-3.35449
-4.05858
-4.65982
-5.13736
-5.47114
-5.64604
-5.65728
-5.51583
-5.2511
-4.9073
-4.53193
-4.15992
-3.80265
-3.4459
-3.05538
-2.58707
-1.99981
-1.26874
-0.397132
0.577265
1.58656
2.55016
3.39939
4.09533
4.63416
5.0424
5.36743
5.66708
5.99979
6.41546
6.94692
7.60273
8.36381
9.18738
10.02
10.8153
11.5472
12.2139
12.835
13.445
14.0872
14.8074
15.6492
16.6484
17.8285
19.1961
20.7383
22.4258
24.2217
26.0928
28.0187
29.9936
32.0232
34.1192
36.2932
38.5512
40.8879
43.2824
45.6929
48.0544
50.2778
52.2537
53.8598
54.9717
55.4765
55.2892
54.37
21.7339
21.7338
21.389
20.7304
19.8093
18.685
17.4152
16.0501
14.6307
13.1882
11.7451
10.3169
8.91349
7.54055
6.20088
4.89535
3.62381
2.38585
1.18152
0.0121289
-1.11902
-2.2057
-3.23777
-4.2002
-5.07221
-5.8269
-6.43216
-6.85348
-7.06018
-7.03529
-6.78805
-6.36412
-5.84369
-5.31881
-4.85617
-4.47449
-4.14363
-3.79715
-3.35046
-2.72133
-1.8524
-0.734777
0.574161
1.95251
3.24841
4.33758
5.15833
5.71432
6.05874
6.27443
6.4568
6.70045
7.08724
7.67334
8.47518
9.45862
10.5414
11.6185
12.6029
13.4514
14.1659
14.7829
15.3601
15.9647
16.6663
17.5305
18.6133
19.953
21.5612
23.4152
25.4593
27.6223
29.8451
32.0979
34.3803
36.7127
39.1257
41.6496
44.3074
47.1077
50.0376
53.0557
56.0848
59.0085
61.6757
63.9116
65.5314
66.3585
66.2502
65.1321
25.8732
25.8765
25.3995
24.5022
23.2745
21.8109
20.1955
18.4958
16.7619
15.0287
13.3191
11.6466
10.0183
8.43679
6.90137
5.4096
3.95811
2.54338
1.16254
-0.185887
-1.50099
-2.77836
-4.00861
-5.17555
-6.25415
-7.20856
-7.99114
-8.5442
-8.80715
-8.73277
-8.31404
-7.61545
-6.78581
-6.01546
-5.4352
-5.07254
-4.86327
-4.68264
-4.37606
-3.78764
-2.79368
-1.34745
0.471555
2.43759
4.24471
5.66264
6.60293
7.09942
7.26072
7.22966
7.15852
7.19526
7.47228
8.0894
9.0864
10.4106
11.904
13.3504
14.5867
15.5488
16.2583
16.7885
17.2357
17.7028
18.291
19.0971
20.2081
21.6908
23.5725
25.8182
28.3215
30.9365
33.5541
36.1341
38.6944
41.286
43.9718
46.8125
49.8577
53.1398
56.6651
60.402
64.2657
68.1074
71.7178
74.8494
77.2316
78.5861
78.6644
77.315
30.7082
30.7096
30.014
28.7489
27.0784
25.1542
23.0961
20.9895
18.8908
16.834
14.8382
12.9113
11.0548
9.26556
7.538
5.86492
4.23859
2.65131
1.09611
-0.432573
-1.93792
-3.41947
-4.87115
-6.2786
-7.61535
-8.83802
-9.88102
-10.653
-11.0402
-10.9264
-10.2434
-9.05586
-7.64294
-6.43882
-5.70136
-5.4502
-5.54217
-5.75003
-5.80811
-5.43858
-4.38692
-2.49767
0.156391
3.15063
5.80046
7.67447
8.68552
8.96612
8.73856
8.24143
7.70367
7.34279
7.36629
7.95712
9.22513
11.1176
13.3326
15.3837
16.9637
18.0083
18.6073
18.9119
19.0813
19.2646
19.6002
20.2228
21.2661
22.8523
25.0575
27.8485
31.0209
34.2447
37.315
40.1965
42.961
45.7211
48.5925
51.6781
55.0643
58.819
62.9851
67.5624
72.4752
77.5364
82.4459
86.863
90.4081
92.6478
93.1311
91.5202
36.575
36.5452
35.4467
33.5779
31.2461
28.689
26.0655
23.4712
20.9583
18.5512
16.2573
14.0742
11.9939
10.0053
8.09595
6.25281
4.46277
2.71306
0.991566
-0.7127
-2.40892
-4.1033
-5.79704
-7.48303
-9.14036
-10.7257
-12.1606
-13.3153
-13.994
-13.9392
-12.8985
-10.8203
-8.19894
-6.1898
-5.26696
-5.33345
-6.05392
-7.03275
-7.85553
-8.07137
-7.18595
-4.74892
-0.648447
4.35965
8.47333
10.9288
11.8197
11.5643
10.6044
9.31157
7.99401
6.93678
6.44329
6.84962
8.46448
11.3602
14.9969
18.0951
20.1112
21.1089
21.38
21.2294
20.9066
20.6066
20.4957
20.7424
21.5418
23.1219
25.6987
29.3286
33.6458
37.7731
41.3467
44.4266
47.2327
49.9947
52.9034
56.1097
59.7388
63.9042
68.7114
74.238
80.4691
87.1819
93.8808
100.13
105.462
109.236
110.611
108.761
44.1178
43.9178
41.987
39.0719
35.7366
32.3183
28.9917
25.8347
22.8728
20.1047
17.5165
15.0889
12.8006
10.6307
8.55848
6.56422
4.62896
2.73432
0.86244
-1.00411
-2.88221
-4.78759
-6.73356
-8.72816
-10.7684
-12.8292
-14.8429
-16.6623
-18.0029
-18.3711
-17.0467
-13.3664
-7.87272
-4.37598
-3.40747
-4.27448
-6.19312
-8.53964
-10.7764
-12.2894
-12.2187
-9.39502
-2.75995
6.85676
13.534
16.4358
16.6045
15.1769
12.9494
10.4173
7.90951
5.71908
4.22472
4.00197
5.85949
10.5357
17.4366
22.3643
24.7249
25.2556
24.7594
23.7947
22.6988
21.6758
20.8763
20.4658
20.6929
21.9559
24.8231
29.8185
36.5436
42.0979
46.0884
49.0501
51.5669
54.0559
56.7845
59.931
63.6396
68.0637
73.4001
79.8971
87.7676
96.8453
105.961
114.714
122.757
129.278
132.729
130.972
54.8311
53.781
49.9432
45.1694
40.3453
35.8141
31.6721
27.9159
24.5069
21.398
18.5434
15.9017
13.4362
11.1146
8.90803
6.79009
4.73611
2.72236
0.725292
-1.27918
-3.31638
-5.41353
-7.6001
-9.90749
-12.3666
-15.0005
-17.8045
-20.6982
-23.4117
-25.2397
-24.587
-18.5234
-4.67095
1.07836
1.09498
-1.70132
-5.71625
-10.2046
-14.7393
-18.7878
-21.2156
-19.5296
-9.16532
13.586
24.0307
25.8773
23.6871
19.9404
15.7321
11.4874
7.36722
3.49837
0.1744
-1.84189
-0.805152
6.507
22.7165
30.3291
31.9723
30.8798
28.8121
26.5474
24.3849
22.4222
20.6953
19.27
18.351
18.4788
20.8814
27.8162
41.1257
48.6729
52.3096
54.3124
55.9389
57.7699
60.0615
62.9407
66.5075
70.9068
76.415
83.5753
93.3244
106.45
118.561
130.318
142.24
153.734
162.343
162.617
73.1574
67.656
59.2449
51.3371
44.5303
38.7478
33.7957
29.4959
25.7079
22.3244
19.2632
16.4602
13.864
11.4326
9.12976
6.92375
4.78534
2.68647
0.598971
-1.50686
-3.6639
-5.91025
-8.29213
-10.8677
-13.7125
-16.9258
-20.6361
-24.9926
-30.0943
-35.6794
-39.9179
-34.8952
10.1997
14.7879
9.64815
2.62687
-4.55723
-11.8024
-19.4014
-27.619
-36.1356
-42.1597
-33.4074
38.0364
46.9078
41.1311
33.0102
25.3681
18.5668
12.3779
6.46304
0.493171
-5.75871
-12.0818
-16.5061
-10.3339
40.3756
46.8888
43.1585
37.9076
33.1479
29.1524
25.783
22.8285
20.0795
17.345
14.5016
11.7257
10.4129
16.6338
54.0046
60.8778
60.8823
60.1152
60.0148
60.8192
62.4911
64.9585
68.1748
72.1513
77.0485
83.5236
94.0166
117.514
131.667
145.68
162.334
182.341
203.957
216.947
116.201
85.7177
67.8189
55.917
47.2384
40.4838
34.9783
30.3376
26.3253
22.7856
19.6101
16.7198
14.0541
11.5648
9.21157
6.95969
4.77732
2.634
0.498941
-1.66083
-3.88271
-6.21166
-8.70495
-11.4399
-14.5271
-18.1347
-22.5366
-28.2127
-36.0795
-48.0568
-68.5833
-108.969
83.3994
42.5048
20.9102
7.18925
-3.31024
-12.8903
-23.1721
-36.0185
-54.6435
-86.0663
-147.924
152.59
90.8761
59.7591
41.6422
29.5841
20.5186
12.8734
5.63759
-2.10611
-11.5893
-25.0556
-47.4654
-91.3081
121.676
78.1974
56.5325
44.2269
36.3818
30.8548
26.5825
22.9379
19.442
15.5761
10.5546
2.865
-10.9047
-39.4049
110.798
82.9716
70.564
64.956
62.7861
62.6171
63.773
65.8956
68.7453
72.0673
75.4072
77.6834
75.9796
142.028
144.974
157.235
177.594
208.626
257.985
344.936
2245.03
2123.95
1995.74
1860.79
1719.6
1572.7
1420.65
1264.01
1103.37
939.3
772.361
603.1
432.051
259.735
86.662
11.0881
10.5956
9.98096
9.26883
8.4857
7.65705
6.80519
5.94796
5.09835
4.26464
3.45097
2.65799
1.88367
1.12399
0.373599
18.637
17.7945
16.7429
15.5267
14.1933
12.7875
11.3479
9.90483
8.47963
7.08556
5.72869
4.40931
3.12321
1.86301
0.61914
26.43
25.202
23.6688
21.9012
19.9727
17.9513
15.8939
13.8435
11.8297
9.86924
7.96896
6.12736
4.33689
2.58569
0.8591
34.5842
32.9133
30.8281
28.4355
25.8441
23.1504
20.432
17.7452
15.1258
12.5926
10.1505
7.79426
5.51129
3.28377
1.09069
43.2398
41.0377
38.2933
35.1675
31.8166
28.3732
24.9378
21.5787
18.3352
15.2243
12.2458
9.38785
6.63021
3.9474
1.31062
52.5732
49.7033
46.139
42.1237
37.8807
33.5871
29.3667
25.2956
21.4112
17.7228
14.2202
10.8809
7.67423
4.56496
1.51501
62.8157
59.0626
54.4349
49.3069
43.9949
38.7271
33.6458
28.8252
24.2905
20.0347
16.0308
12.2408
8.62071
5.12315
1.69948
74.283
69.2951
63.2301
56.6728
50.0638
43.6796
37.6637
32.0686
26.8906
22.0939
17.6268
13.4306
9.44438
5.60731
1.85924
87.4271
80.6014
72.5146
64.0882
55.9058
48.2619
41.2595
34.8942
29.1086
23.8229
18.9514
14.4099
10.1187
6.00232
1.98937
102.929
93.1665
82.1367
71.2575
61.2079
52.201
44.2166
37.1391
30.8259
25.1371
19.9454
15.1386
10.6177
6.29378
2.08526
121.83
106.997
91.6068
77.5959
65.4659
55.1163
46.2656
38.6186
31.918
25.9532
20.5538
15.581
10.9194
6.4697
2.1431
145.586
121.38
99.6942
82.0511
67.9414
56.5309
47.1097
39.1506
32.2736
26.2032
20.7348
15.7118
11.009
6.52232
2.16048
174.965
133.239
103.736
82.9708
67.7156
55.9542
46.4904
38.5994
31.8216
25.8502
20.47
15.5219
10.8823
6.44992
2.13696
200.265
132.872
99.0358
78.3784
63.9943
53.078
44.297
36.9342
30.5622
24.9053
19.7723
15.023
10.5481
6.25797
2.07436
1.36887
4.10841
6.853
9.60481
12.3642
15.1289
17.8935
20.6493
23.3878
26.1089
28.8472
31.7347
35.1581
40.1415
49.2911
1.42293
4.27013
7.12079
9.97512
12.8297
15.6754
18.4935
21.251
23.893
26.3311
28.4263
29.9489
30.4445
28.6312
19.5286
1.47601
4.42935
7.38586
10.3449
13.3011
16.2405
19.1351
21.9324
24.539
26.7907
28.4019
28.8754
27.3337
22.1817
10.5674
1.52815
4.58625
7.64896
10.7165
13.7837
16.8363
19.8436
22.7457
25.4309
27.6943
29.1665
29.2005
26.7291
20.2195
8.21717
1.579
4.73985
7.90855
11.0879
14.276
17.4631
20.6245
23.7089
26.615
29.1465
30.929
31.2646
28.9279
22.071
8.94451
1.62784
4.88788
8.16058
11.4528
14.7687
18.1071
21.4583
24.7954
28.0583
31.1179
33.6955
35.1837
34.2649
28.2757
12.9789
1.67361
5.027
8.39883
11.8011
15.2451
18.7418
22.3013
25.9327
29.642
33.4229
37.2177
40.7731
43.1221
40.9432
24.4163
1.71505
5.15322
8.61578
12.1199
15.6845
19.3324
23.0938
27.0153
31.1753
35.7169
40.9055
47.1989
55.1223
63.5735
58.2876
1.75087
5.26238
8.80367
12.3964
16.0657
19.8434
23.7746
27.9315
32.4426
37.5605
43.8251
52.4914
66.7545
95.7415
169.441
1.77987
5.35075
8.95563
12.6194
16.3711
20.2471
24.298
28.601
33.2878
38.6065
45.0757
53.8956
68.1596
96.8563
169.888
1.80111
5.4154
9.06648
12.7811
16.5896
20.5288
24.6455
29.0033
33.6932
38.8525
44.6925
51.5177
59.5402
67.18
59.7821
1.81394
5.45437
9.13302
12.8772
16.717
20.6866
24.8249
29.174
33.7719
38.6246
43.6237
48.307
51.1849
47.9447
27.568
1.818
5.46668
9.15385
12.9066
16.7538
20.7268
24.8571
29.1712
33.6727
38.294
42.7731
46.3485
47.0769
40.6083
19.4915
1.81321
5.45214
9.12893
12.8699
16.703
20.6571
24.761
29.0375
33.4892
38.0613
42.5488
46.366
47.9656
43.443
23.8216
1.79969
5.41116
9.05918
12.7691
16.5676
20.4829
24.5443
28.7814
33.2214
37.8861
42.789
47.9221
53.1045
56.762
47.6104
1.77774
5.34467
8.94622
12.6064
16.3507
20.2066
24.205
28.3837
32.7965
37.5443
42.8684
49.4426
59.3009
78.9747
131.168
1.74779
5.254
8.79232
12.385
16.0558
19.8307
23.74
27.8226
32.1383
36.8014
42.0786
48.6812
58.6795
78.602
131.068
1.71043
5.14091
8.60044
12.1091
15.6882
19.361
23.154
27.099
31.238
35.6309
40.3673
45.5605
51.1649
55.6274
47.3605
1.66636
5.00754
8.37423
11.784
15.2552
18.8074
22.4618
26.24
30.1605
34.2209
38.3379
42.1529
44.442
41.4913
23.689
1.61638
4.85634
8.11793
11.4159
14.7655
18.1824
21.6829
25.2816
28.9853
32.7709
36.5171
39.804
41.3566
37.6677
20.5556
1.56138
4.69
7.83619
11.0117
14.2286
17.499
20.8352
24.2496
27.7525
31.3474
35.0145
38.6586
41.9102
43.1649
34.0878
1.50229
4.51137
7.53387
10.5786
13.6543
16.7694
19.9328
23.1554
26.4551
29.873
33.5269
37.7846
43.8497
55.8357
88.66
1.44005
4.3233
7.21595
10.1238
13.0523
16.0058
18.9889
22.0073
25.0749
28.234
31.6193
35.6547
41.6763
54.0343
87.8917
1.37557
4.12864
6.88728
9.65454
12.4324
15.2214
18.02
20.8246
23.6305
26.4372
29.2596
32.1445
35.1019
37.3015
31.4333
1.30974
3.93002
6.55248
9.17766
11.8046
14.43
17.0466
19.6404
22.1853
24.6289
26.8559
28.5833
29.0528
26.1704
14.5563
1.24331
3.72982
6.21565
8.69934
11.1777
13.6444
16.0885
18.4898
20.8098
22.9704
24.7987
25.895
25.3309
21.1026
9.8307
1.17696
3.53002
5.88021
8.22458
10.5585
12.8743
15.1599
17.3952
19.5448
21.542
23.2492
24.3594
24.1529
20.9257
10.931
1.11117
3.33214
5.5487
7.75696
9.95156
12.1248
14.266
16.3597
18.3851
20.3147
22.1139
23.7376
25.0722
25.448
20.2721
1.04632
3.13726
5.22284
7.2987
9.35929
11.3975
13.4046
15.3713
17.2917
19.1776
21.1002
23.316
26.6568
33.8252
54.1744
0.982646
2.94606
4.90365
6.8509
8.78239
10.6916
12.5712
14.4147
16.2218
18.0146
19.8824
22.1126
25.5831
33.0484
53.8816
0.920258
2.75886
4.59157
6.41394
8.22081
10.006
11.7626
13.4831
15.1618
16.7993
18.4127
20.0476
21.7347
22.9877
19.3231
0.859184
2.57571
4.28659
5.98766
7.67412
9.34022
10.9788
12.5803
14.13
15.6003
16.9279
17.946
18.1874
16.3418
9.05716
0.799379
2.39645
3.98838
5.57144
7.14144
8.69337
10.2207
11.7134
13.1532
14.5003
15.6577
16.3836
16.0892
13.4727
6.31168
0.740736
2.22073
3.69627
5.16422
6.62123
8.06351
9.48637
10.883
12.2408
13.5318
14.687
15.5296
15.6033
13.7593
7.35944
0.683109
2.0481
3.40939
4.76455
6.11118
7.44703
8.77021
10.0794
11.3745
12.6573
13.9333
15.2093
16.449
17.2095
14.1843
0.62633
1.878
3.12675
4.37076
5.60855
6.8393
8.06366
9.28556
10.5166
11.7876
13.1795
14.9139
17.6275
23.2887
38.6085
0.570234
1.70993
2.84737
3.98126
5.11077
6.23596
7.35878
8.48531
9.63098
10.8337
12.1879
13.9385
16.7589
22.6603
38.3714
0.514672
1.54342
2.57044
3.59479
4.61597
5.63423
6.65129
7.67172
8.70571
9.77457
10.9209
12.2202
13.7505
15.2195
13.4154
0.459524
1.37811
2.29535
3.21053
4.12319
5.03332
5.94145
6.84873
7.75621
8.66166
9.54767
10.3413
10.7848
10.0516
5.83919
0.4047
1.21374
2.02171
2.82802
3.63219
4.4338
5.23223
6.02563
6.80816
7.56228
8.23861
8.70574
8.63616
7.3
3.4476
0.350132
1.05011
1.74924
2.44703
3.14299
3.83654
4.52653
5.21012
5.8799
6.51698
7.07489
7.44296
7.36717
6.2958
3.16908
0.295769
0.887082
1.47774
2.06734
2.65552
3.2418
3.82535
4.40429
4.97444
5.52677
6.04313
6.48854
6.7897
6.71907
5.12083
0.241568
0.724532
1.207
1.6887
2.16942
2.64904
3.12745
3.60469
4.08148
4.56167
5.06082
5.63449
6.47064
8.20342
13.0752
0.187496
0.562353
0.936836
1.31078
1.68418
2.05722
2.4305
2.80554
3.18632
3.58359
4.02697
4.59841
5.52921
7.50832
12.808
0.133527
0.400465
0.667095
0.933331
1.19928
1.46535
1.73247
2.00258
2.27989
2.5737
2.90443
3.31307
3.86011
4.50769
4.24542
0.0796489
0.238826
0.397686
0.556162
0.714407
0.87289
1.03252
1.19482
1.36223
1.53844
1.72808
1.93191
2.12153
2.13926
1.39739
0.0258681
0.0774483
0.128612
0.179251
0.229496
0.279794
0.330904
0.383727
0.438698
0.494122
0.542202
0.560966
0.502677
0.298655
-0.0248456
-0.0277898
-0.0835958
-0.14002
-0.19728
-0.255309
-0.313689
-0.37169
-0.428612
-0.484864
-0.544779
-0.622967
-0.756081
-1.01456
-1.45859
-1.70602
-0.0812745
-0.244161
-0.407989
-0.573156
-0.739712
-0.907239
-1.0748
-1.24115
-1.40557
-1.57064
-1.7496
-1.98562
-2.40242
-3.35183
-5.92801
-0.134508
-0.404019
-0.674937
-0.947937
-1.22327
-1.50055
-1.77851
-2.05472
-2.32549
-2.58647
-2.83619
-3.08909
-3.41983
-4.11459
-6.22549
-0.187378
-0.562841
-0.940342
-1.32096
-1.70529
-2.09316
-2.48316
-2.87177
-3.25184
-3.6097
-3.9201
-4.138
-4.18385
-3.89312
-2.68848
-0.239737
-0.720187
-1.20348
-1.69125
-2.18464
-2.68405
-3.18849
-3.69442
-4.19325
-4.66544
-5.06776
-5.30586
-5.18102
-4.30572
-2.04844
-0.291399
-0.875493
-1.46341
-2.05746
-2.65961
-3.27118
-3.89245
-4.52166
-5.15274
-5.76925
-6.32897
-6.72525
-6.69879
-5.67755
-2.68564
-0.342139
-1.02808
-1.71895
-2.41789
-3.12781
-3.85131
-4.59056
-5.34723
-6.12191
-6.91201
-7.70314
-8.43764
-8.90681
-8.41742
-4.97496
-0.391702
-1.17716
-1.96876
-2.77052
-3.58635
-4.42019
-5.27623
-6.15988
-7.07992
-8.05354
-9.11607
-10.3337
-11.7798
-13.2074
-11.783
-0.439813
-1.32191
-2.2114
-3.11318
-4.03215
-4.97334
-5.94236
-6.94683
-8.00025
-9.13275
-10.4207
-12.0702
-14.665
-19.9772
-33.9665
-0.486183
-1.46144
-2.44536
-3.44371
-4.46227
-5.50685
-6.58351
-7.69935
-8.86514
-10.1034
-11.4737
-13.1495
-15.6622
-20.7199
-34.2519
-0.530521
-1.59487
-2.66915
-3.76001
-4.87405
-6.01774
-7.19704
-8.41676
-9.67917
-10.9818
-12.3137
-13.647
-14.8912
-15.5764
-12.7181
-0.572535
-1.72132
-2.8813
-4.05999
-5.26496
-6.50354
-7.7821
-9.10403
-10.4647
-11.8393
-13.1522
-14.2054
-14.5074
-12.8929
-6.86252
-0.611938
-1.83992
-3.0803
-4.34151
-5.63224
-6.96123
-8.33662
-9.76389
-11.2402
-12.7388
-14.1703
-15.2849
-15.4537
-13.2751
-6.35015
-0.648459
-1.94983
-3.26467
-4.60232
-5.97267
-7.38633
-8.85465
-10.3892
-11.9994
-13.6844
-15.4077
-17.0202
-18.0295
-16.9529
-9.84809
-0.681857
-2.0503
-3.43305
-4.8402
-6.28272
-7.77308
-9.32624
-10.9615
-12.7062
-14.6027
-16.7214
-19.1736
-22.0531
-24.816
-22.0896
-0.711946
-2.14072
-3.58433
-5.05329
-6.55926
-8.11585
-9.74035
-11.4573
-13.3069
-15.366
-17.8028
-21.0295
-26.1565
-36.4901
-63.1168
-0.738613
-2.22076
-3.71784
-5.24046
-6.80032
-8.41107
-10.0898
-11.8605
-13.7616
-15.8663
-18.3348
-21.5647
-26.643
-36.8479
-63.2532
-0.761835
-2.29033
-3.83345
-5.40152
-7.00574
-8.65867
-10.375
-12.1725
-14.0744
-16.1131
-18.3372
-20.8153
-23.5682
-25.9539
-22.5347
-0.781677
-2.34964
-3.93159
-5.53726
-7.17701
-8.86187
-10.6032
-12.4115
-14.2916
-16.2304
-18.1624
-19.8742
-20.7473
-19.09
-10.7389
-0.798284
-2.39916
-4.01308
-5.64909
-7.31663
-9.02543
-10.7846
-12.6001
-14.4673
-16.3518
-18.1397
-19.5148
-19.6829
-16.8736
-8.0584
-0.811868
-2.43953
-4.07908
-5.73878
-7.4273
-9.1536
-10.9264
-12.7522
-14.6304
-16.5397
-18.4028
-19.9928
-20.6851
-18.8273
-10.4481
-0.822694
-2.47155
-4.13094
-5.80824
-7.51141
-9.24911
-11.0309
-12.8675
-14.7714
-16.759
-18.8547
-21.0935
-23.4575
-25.309
-21.5298
-0.83108
-2.49617
-4.17019
-5.85951
-7.57125
-9.31362
-11.0969
-12.9354
-14.8536
-16.9023
-19.2067
-22.1062
-26.5848
-35.7
-59.8885
-0.8374
-2.5145
-4.19864
-5.895
-7.6095
-9.34937
-11.1241
-12.9476
-14.8446
-16.8675
-19.1446
-22.0213
-26.491
-35.6222
-59.8568
-0.842095
-2.52786
-4.21847
-5.91765
-7.62983
-9.36055
-11.1169
-12.9082
-14.7477
-16.6555
-18.6653
-20.8295
-23.1592
-25.0544
-21.4227
-0.84567
-2.53775
-4.2322
-5.93105
-7.63699
-9.35356
-11.085
-12.8349
-14.6028
-16.372
-18.0782
-19.5218
-20.1281
-18.3237
-10.2196
-0.848701
-2.54592
-4.24273
-5.9393
-7.63648
-9.33591
-11.0397
-12.7487
-14.4564
-16.1315
-17.6728
-18.7948
-18.7704
-15.9671
-7.58207
-0.851831
-2.55429
-4.25328
-5.94693
-7.63413
-9.31486
-10.9905
-12.663
-14.332
-15.9834
-17.5579
-18.8633
-19.3419
-17.4861
-9.65199
-0.855768
-2.565
-4.2674
-5.95885
-7.636
-9.29704
-10.9429
-12.5793
-14.2193
-15.8882
-17.6293
-19.5051
-21.5338
-23.1561
-19.6867
-0.861281
-2.58035
-4.289
-5.9805
-7.64878
-9.28942
-10.9017
-12.4926
-14.0861
-15.7423
-17.6066
-20.04
-24.0071
-32.361
-54.6543
-0.869193
-2.60287
-4.32236
-6.01806
-7.68051
-9.3012
-10.8748
-12.4038
-13.9088
-15.4513
-17.188
-19.5092
-23.4333
-31.8848
-54.4595
-0.880348
-2.63517
-4.37211
-6.07854
-7.74097
-9.34539
-10.8786
-12.3312
-13.7049
-15.0249
-16.3629
-17.8645
-19.7147
-21.5998
-19.0271
-0.89556
-2.6798
-4.44293
-6.16939
-7.84147
-9.43875
-10.9379
-12.3132
-13.538
-14.5856
-15.4238
-15.9771
-15.9713
-14.4096
-8.2342
-0.915528
-2.73901
-4.53908
-6.29782
-7.99369
-9.59996
-11.0828
-12.3993
-13.4936
-14.2912
-14.6819
-14.4776
-13.3078
-10.423
-4.58889
-0.940731
-2.81441
-4.66383
-6.46973
-8.20791
-9.84659
-11.3431
-12.6392
-13.655
-14.2789
-14.3528
-13.648
-11.8348
-8.4841
-3.26543
-0.971318
-2.90658
-4.81868
-6.6885
-8.491
-10.1917
-11.7421
-13.0735
-14.0881
-14.6482
-14.5642
-13.5878
-11.4292
-7.84219
-2.85311
-1.007
-3.01477
-5.00276
-6.95387
-8.84456
-10.6409
-12.293
-13.7274
-14.8364
-15.4643
-15.3948
-14.3482
-12.0151
-8.17375
-2.93873
-1.04698
-3.13664
-5.21233
-7.26103
-9.26344
-11.1899
-12.9947
-14.607
-15.9183
-16.7643
-16.9036
-16.0018
-13.6481
-9.47294
-3.47042
-1.08992
-3.26813
-5.44053
-7.60018
-9.73481
-11.8233
-13.8298
-15.6954
-17.323
-18.5545
-19.135
-18.6631
-16.5456
-12.0409
-4.65366
-1.13399
-3.40358
-5.67748
-7.95652
-10.238
-12.5131
-14.7625
-16.9486
-19.0022
-20.7964
-22.0969
-22.4669
-21.1005
-16.6104
-7.17019
-1.1769
-3.53598
-5.91073
-8.31099
-10.7455
-13.2206
-15.7387
-18.2934
-20.8612
-23.3808
-25.7043
-27.476
-27.824
-24.6172
-13.0895
-1.21613
-3.65744
-6.12616
-8.64155
-11.2244
-13.898
-16.689
-19.6287
-22.7532
-26.1007
-29.6944
-33.4732
-37.0158
-38.4015
-29.1833
-1.24906
-3.7598
-6.30908
-8.92509
-11.6402
-14.4936
-17.5357
-20.835
-24.4898
-28.6492
-33.5554
-39.6334
-47.7047
-59.5487
-79.4072
141.17
105.41
83.7692
68.8778
57.6423
48.6276
41.0819
34.5662
28.8009
23.5944
18.8073
14.333
10.0854
5.99176
1.98748
51.6067
67.3292
64.1796
57.2804
50.1066
43.429
37.3552
31.8301
26.7662
22.0777
17.6882
13.5307
9.54595
5.68081
1.88588
22.7999
42.3525
47.1925
45.8725
42.2253
37.8103
33.2467
28.7729
24.4702
20.3531
16.4077
12.608
8.92327
5.32099
1.76817
12.0811
27.5919
34.4825
36.0796
34.8765
32.2939
29.075
25.5965
22.0448
18.5088
15.0256
11.6053
8.24319
4.92673
1.63898
7.37014
18.8169
25.4477
28.2305
28.4848
27.2188
25.0832
22.4702
19.6082
16.6274
13.5995
10.5619
7.5313
4.51244
1.50298
4.94617
13.386
19.0847
22.1368
23.1484
22.747
21.4224
19.5163
17.2537
14.7783
12.18
9.51342
6.81114
4.09153
1.36451
3.53077
9.85843
14.5591
17.4597
18.7929
18.9157
18.1651
16.8097
15.0466
13.0144
10.8075
8.48959
6.1029
3.6757
1.22741
2.62493
7.4605
11.2832
13.8707
15.2776
15.6906
15.3273
14.3857
13.0262
11.3715
9.51203
7.51335
5.42268
3.27445
1.09481
2.00674
5.76579
8.86496
11.1014
12.4521
13.0041
12.891
12.2516
11.2105
9.87053
8.31302
6.60085
4.78232
2.89497
0.969118
1.56519
4.52921
7.04565
8.9469
10.1809
10.7794
10.8197
10.3963
9.60218
8.52045
7.22126
5.7621
4.18965
2.54218
0.852008
1.23914
3.60338
5.6534
7.25557
8.351
8.94194
9.07035
8.79819
8.19337
7.32121
6.24044
5.00191
3.64901
2.21898
0.744498
0.992246
2.89567
4.57205
5.91599
6.87122
7.42553
7.59894
7.43094
6.97005
6.26671
5.36907
4.32104
3.16188
1.92662
0.647052
0.801631
2.34558
3.72146
4.84622
5.66971
6.17349
6.36448
6.26692
5.91496
5.34702
4.60202
3.71726
2.72752
1.66498
0.55969
0.652191
1.91215
3.04517
3.98556
4.6901
5.13854
5.33028
5.27945
5.00975
4.55019
3.93194
3.18632
2.34366
1.433
0.482103
0.53358
1.56685
2.5026
3.28859
3.88825
4.28174
4.46443
4.44386
4.23627
3.86346
3.35025
2.72269
2.00698
1.22893
0.413749
0.438496
1.28922
2.06398
2.72096
3.22949
3.57125
3.73965
3.73806
3.57746
3.27417
2.8479
2.32022
1.71357
1.05061
0.353941
0.361647
1.06432
1.70711
2.25636
2.68647
2.98107
3.13285
3.14261
3.01766
2.77021
2.4159
1.97255
1.45923
0.895673
0.301916
0.299112
0.880972
1.41517
1.87446
2.23752
2.49
2.62463
2.64065
2.54286
2.34041
2.0457
1.67343
1.23974
0.761695
0.256881
0.247935
0.730707
1.17523
1.55934
1.86531
2.08072
2.19871
2.21769
2.1407
1.97462
1.72934
1.41692
1.05102
0.646296
0.218057
0.205849
0.606988
0.97723
1.29846
1.55595
1.73906
1.84152
1.86132
1.80036
1.66381
1.45955
1.19753
0.889239
0.547214
0.184695
0.171092
0.504715
0.813241
1.08183
1.29823
1.45338
1.54168
1.56101
1.51247
1.39998
1.22985
1.01026
0.750868
0.462354
0.156103
0.142279
0.419861
0.676973
0.901419
1.08302
1.21408
1.28971
1.30782
1.26897
1.17616
1.03446
0.850615
0.632707
0.389803
0.131644
0.118306
0.349217
0.563378
0.75075
0.902873
1.01327
1.07768
1.09414
1.06292
0.986285
0.868327
0.714609
0.531892
0.32784
0.110743
0.0982903
0.290201
0.468377
0.62455
0.751696
0.844372
0.898926
0.913576
0.888375
0.82509
0.727012
0.59873
0.445886
0.274932
0.0928886
0.0815164
0.24072
0.388651
0.5185
0.624447
0.70194
0.747873
0.76067
0.740271
0.688047
0.606664
0.4999
0.37245
0.229722
0.0776258
0.0674013
0.199064
0.321479
0.429044
0.516952
0.581417
0.619825
0.630811
0.61426
0.571248
0.503936
0.41543