/*--------------------------------*- C++ -*----------------------------------*\
| =========                 |                                                 |
| \\      /  F ield         | OpenFOAM: The Open Source CFD Toolbox           |
|  \\    /   O peration     | Version:  5.x                                   |
|   \\  /    A nd           | Web:      www.OpenFOAM.org                      |
|    \\/     M anipulation  |                                                 |
\*---------------------------------------------------------------------------*/
FoamFile
{
    version     2.0;
    format      ascii;
    class       volScalarField;
    location    "0.4";
    object      gradTx;
}
// * * * * * * * * * * * * * * * * * * * * * * * * * * * * * * * * * * * * * //

dimensions      [0 -1 0 1 0 0 0];

internalField   nonuniform List<scalar> 
3200
(
46.3473
40.0681
2.00095
-3.37552
-3.69612
-3.22242
-3.17904
-2.36405
-2.29883
-1.55441
-1.49273
-0.822698
-0.786279
-0.688982
-0.661529
-0.212049
-0.17817
0.111709
0.130754
0.252965
0.260283
0.299456
0.297185
0.205785
0.207562
0.346861
0.373618
0.845334
0.855937
0.623856
0.610652
0.515807
0.503793
0.308655
0.316454
0.710263
0.717902
0.509137
0.494189
0.39394
0.386556
0.331154
0.325676
0.262384
0.255603
0.192605
0.185808
0.108973
0.105627
0.120945
0.118555
0.0598323
0.055785
0.0259482
0.0229539
-0.0119234
-0.0134568
-0.0103735
-0.0114019
-0.0346858
-0.0380107
-0.0948263
-0.0957058
-0.0652306
-0.0624067
-0.038246
-0.0345669
0.00149771
0.00734444
0.064026
0.0716089
0.122952
0.131638
0.204721
0.214358
0.0769435
0.0652024
0.0254278
0.00730007
-76.8162
50.6532
32.4809
3.68221
-2.4088
-3.20015
-2.94253
-2.86046
-2.22472
-2.0862
-1.48924
-1.35584
-0.816758
-0.735281
-0.634311
-0.571628
-0.205961
-0.13119
0.106749
0.148925
0.250597
0.266681
0.297276
0.292374
0.221759
0.225317
0.335644
0.393617
0.770002
0.793075
0.609746
0.582154
0.512775
0.487371
0.33005
0.346125
0.654969
0.671097
0.504822
0.47114
0.383368
0.366853
0.324285
0.312159
0.256417
0.240582
0.186434
0.171091
0.108317
0.100471
0.108864
0.103239
0.0561642
0.0472407
0.0220919
0.0154579
-0.0126182
-0.0160692
-0.0147371
-0.0170967
-0.0360644
-0.0431011
-0.0868412
-0.0884963
-0.0639569
-0.0574449
-0.0353544
-0.0264319
0.00731409
0.0216121
0.0747272
0.0937614
0.146843
0.168618
0.239172
0.271428
0.225802
0.196727
0.0754165
0.0214086
-78.2732
54.8209
26.1841
4.45514
-1.65408
-2.74615
-2.65564
-2.56405
-2.06552
-1.89192
-1.40555
-1.2352
-0.792528
-0.685074
-0.578121
-0.493857
-0.18825
-0.0907486
0.10961
0.164707
0.251647
0.272494
0.296513
0.290188
0.234765
0.2388
0.32652
0.400878
0.708802
0.738467
0.589405
0.555328
0.507983
0.476225
0.344511
0.364087
0.611385
0.631589
0.495204
0.450257
0.369948
0.348195
0.316201
0.300389
0.248856
0.227096
0.178713
0.158274
0.105466
0.0946675
0.0973462
0.0895838
0.0509714
0.0393466
0.0174962
0.00882061
-0.0142971
-0.0188722
-0.0189524
-0.0221266
-0.0379196
-0.0467228
-0.0805389
-0.0823342
-0.0619618
-0.0531059
-0.0319359
-0.0192897
0.0139083
0.0343268
0.0867911
0.114551
0.171986
0.203645
0.275152
0.33161
0.373994
0.331937
0.12271
0.0340426
-79.7308
58.826
20.9196
4.60326
-1.10008
-2.3395
-2.36884
-2.28396
-1.89336
-1.71019
-1.30925
-1.12548
-0.754909
-0.634868
-0.521043
-0.42496
-0.162235
-0.0544401
0.118264
0.179203
0.255329
0.278173
0.296959
0.289962
0.245389
0.248933
0.317929
0.398793
0.658729
0.691007
0.564464
0.529031
0.502567
0.469078
0.35292
0.37294
0.576887
0.598347
0.481932
0.430791
0.354189
0.329949
0.307473
0.290051
0.240107
0.214679
0.169877
0.146754
0.100937
0.0883274
0.0862485
0.0771647
0.0447014
0.0318637
0.0123751
0.00276253
-0.0167163
-0.0218538
-0.0230428
-0.0266508
-0.0400535
-0.0493432
-0.0755167
-0.077058
-0.0595054
-0.049259
-0.0281761
-0.0129695
0.0210137
0.0457593
0.0998421
0.134152
0.198156
0.237075
0.311729
0.392347
0.525556
0.473826
0.165175
0.0442237
-81.1895
62.6666
16.4727
4.32683
-0.724674
-1.9813
-2.08665
-2.01614
-1.71293
-1.5372
-1.20429
-1.02325
-0.707297
-0.584439
-0.463281
-0.362755
-0.130048
-0.0207522
0.131368
0.193073
0.26113
0.284004
0.298428
0.291234
0.254085
0.256444
0.30886
0.389544
0.617761
0.649897
0.535875
0.502374
0.497433
0.465239
0.355884
0.374439
0.549691
0.570624
0.466052
0.412348
0.33634
0.311637
0.298548
0.28102
0.230384
0.203042
0.160179
0.136146
0.0950841
0.0815697
0.0754344
0.0656841
0.0376494
0.0246493
0.00686135
-0.0028989
-0.0197074
-0.0249917
-0.027035
-0.0307819
-0.0423508
-0.0512871
-0.0714787
-0.0725447
-0.056756
-0.045845
-0.0241808
-0.00740021
0.0284883
0.0560175
0.113683
0.152562
0.225326
0.269069
0.34806
0.450972
0.684505
0.625983
0.200126
0.0509935
-82.6497
66.3555
12.664
3.76658
-0.501108
-1.6692
-1.81156
-1.75767
-1.52745
-1.37053
-1.09329
-0.926461
-0.651991
-0.533971
-0.404722
-0.305866
-0.0929538
0.0111957
0.148065
0.20667
0.268723
0.290162
0.300754
0.293698
0.261196
0.26195
0.298657
0.374389
0.584632
0.61463
0.504064
0.474574
0.493388
0.464487
0.353733
0.369673
0.528671
0.547924
0.448142
0.394801
0.316443
0.292865
0.289805
0.273319
0.219733
0.192031
0.149732
0.126224
0.0881332
0.0745208
0.0647689
0.0549385
0.0299992
0.0176293
0.00102896
-0.00827617
-0.0231574
-0.0282574
-0.0309575
-0.0345988
-0.0447522
-0.0527796
-0.0682047
-0.0687045
-0.0538106
-0.0428605
-0.0199898
-0.00259507
0.0362971
0.0650695
0.128273
0.169614
0.253653
0.299647
0.383425
0.504362
0.855126
0.792823
0.224001
0.0534515
-84.1114
69.9142
9.34206
3.02112
-0.401571
-1.3982
-1.54437
-1.50631
-1.33909
-1.20872
-0.977908
-0.834006
-0.590457
-0.483981
-0.344976
-0.253568
-0.0515375
0.0418077
0.167869
0.22011
0.277925
0.296743
0.303778
0.297174
0.266972
0.266015
0.286889
0.353852
0.55871
0.584983
0.469008
0.44484
0.491252
0.467011
0.346516
0.359186
0.513244
0.52999
0.428378
0.378259
0.294359
0.273278
0.281605
0.267107
0.208053
0.181608
0.138539
0.11689
0.0802073
0.0673215
0.0541103
0.0448008
0.0218496
0.0107815
-0.00509274
-0.0134282
-0.0269966
-0.0316173
-0.0348408
-0.0381538
-0.0472373
-0.0539751
-0.0655265
-0.065479
-0.0507065
-0.0403521
-0.0155793
0.00135031
0.0445104
0.0727435
0.143736
0.184956
0.283497
0.328708
0.417296
0.548548
1.04226
0.979915
0.231937
0.0508313
-85.575
73.3696
6.37679
2.15969
-0.399118
-1.16126
-1.2846
-1.26017
-1.14929
-1.05096
-0.859083
-0.745565
-0.523468
-0.435319
-0.283353
-0.205721
-0.00579981
0.0710868
0.190605
0.23331
0.288674
0.303785
0.307341
0.301589
0.271575
0.269203
0.273276
0.327795
0.539928
0.561023
0.430277
0.412282
0.491942
0.473385
0.333974
0.343046
0.503312
0.516793
0.406558
0.363072
0.269766
0.252519
0.274323
0.262682
0.195074
0.171856
0.126493
0.108162
0.0713333
0.0601389
0.0432991
0.0352121
0.0132276
0.00412845
-0.0115137
-0.0183689
-0.031192
-0.0350314
-0.0387191
-0.0414768
-0.0498152
-0.0549769
-0.0633113
-0.0628417
-0.047425
-0.0384199
-0.0108548
0.00424658
0.0533206
0.0787063
0.160389
0.198002
0.31547
0.356028
0.449453
0.578227
1.25162
1.19442
0.217192
0.0426368
-87.0401
76.7516
3.65401
1.2319
-0.468567
-0.949919
-1.03079
-1.01751
-0.95902
-0.896972
-0.737149
-0.661492
-0.451142
-0.389229
-0.218776
-0.162787
0.0448387
0.0986414
0.216397
0.245991
0.301024
0.311282
0.311271
0.306971
0.27507
0.272131
0.257642
0.295432
0.528786
0.543134
0.387034
0.375816
0.496561
0.484594
0.315494
0.320861
0.499254
0.508548
0.382071
0.349881
0.242135
0.230201
0.268383
0.2605
0.180323
0.162993
0.113369
0.100176
0.061437
0.0531849
0.0321406
0.0261819
0.00409251
-0.00226083
-0.0182844
-0.0230692
-0.0357453
-0.0384504
-0.0426335
-0.0445756
-0.0525192
-0.055851
-0.0614474
-0.0608015
-0.0438864
-0.0372296
-0.0056314
0.00578403
0.0630781
0.0824166
0.178803
0.207852
0.350516
0.381229
0.48019
0.586114
1.4902
1.44573
0.170335
0.0288711
-88.5067
80.0921
1.06997
0.275237
-0.586803
-0.754621
-0.780761
-0.77669
-0.768912
-0.746912
-0.611864
-0.58282
-0.372892
-0.347495
-0.149634
-0.125931
0.101617
0.123626
0.245704
0.257645
0.315158
0.319185
0.315368
0.313455
0.277404
0.275519
0.239916
0.255245
0.526403
0.532062
0.337996
0.334072
0.506489
0.502089
0.290037
0.291755
0.501961
0.505736
0.353814
0.339714
0.210673
0.205881
0.264288
0.261212
0.163061
0.155424
0.0987902
0.0932143
0.0503231
0.0467445
0.0203804
0.0177986
-0.00567056
-0.00826202
-0.0255036
-0.027453
-0.0406965
-0.0418095
-0.0466369
-0.0474336
-0.0554071
-0.0566339
-0.0598326
-0.0594115
-0.0399371
-0.0370367
0.000399466
0.00548636
0.0743537
0.0830446
0.199909
0.213156
0.390039
0.403697
0.510645
0.562069
1.76672
1.74626
0.0781179
0.0104099
-89.9743
130.371
5.83376
5.65445
-1.0202
-1.39524
-4.50359
-4.61835
-5.04841
-4.98834
-4.12736
-3.99012
-2.88759
-2.78999
-2.19919
-2.23132
-3.2472
-3.21651
-1.84408
-1.71784
-1.05337
-0.980911
-0.526149
-0.478008
-0.196752
-0.167894
-0.0032077
0.0147776
0.122947
0.135658
0.166931
0.178996
0.342129
0.346795
0.261233
0.272356
0.529067
0.53554
0.363454
0.350975
0.250839
0.251116
0.384069
0.383394
0.25445
0.245568
0.180847
0.174675
0.115136
0.113967
0.169386
0.167911
0.0999393
0.0948909
0.0601433
0.0590464
0.0870964
0.0863287
0.0535287
0.0533643
0.0934613
0.0934113
0.0656262
0.0624031
0.0316805
0.0258552
-0.0475682
-0.0610055
-0.243073
-0.271492
-0.637187
-0.683749
-1.22209
-1.31876
-3.08462
-3.02962
-0.15063
-0.0229209
-0.00495372
-0.00113194
-85.1276
144.962
3.47781
2.96236
-2.16224
-2.92604
-5.29646
-5.5084
-5.73135
-5.56358
-4.72763
-4.38348
-3.31233
-3.07944
-2.64113
-2.72311
-3.55683
-3.47656
-2.2496
-1.94225
-1.3036
-1.12521
-0.69709
-0.578254
-0.304275
-0.23323
-0.0826843
-0.0382034
0.0735687
0.10714
0.152606
0.181991
0.316453
0.327722
0.267215
0.294627
0.515558
0.53211
0.395618
0.368071
0.286373
0.285913
0.384326
0.382087
0.28011
0.2605
0.205054
0.191014
0.141638
0.138203
0.176839
0.172798
0.117345
0.105905
0.0758078
0.0726972
0.0914933
0.0893187
0.0629261
0.0621279
0.0910375
0.0903908
0.0669471
0.0593604
0.0311517
0.0173755
-0.0477672
-0.0789344
-0.236354
-0.301974
-0.616851
-0.724101
-1.18835
-1.39392
-2.73106
-2.60621
-0.341837
-0.0643717
-0.0142948
-0.00327945
-84.8811
159.415
1.28102
0.454644
-3.47868
-4.39256
-6.17566
-6.39801
-6.42994
-6.16558
-5.30827
-4.80595
-3.70357
-3.37714
-3.06231
-3.18488
-3.90307
-3.78254
-2.61838
-2.17996
-1.53547
-1.27952
-0.855687
-0.68473
-0.4037
-0.301761
-0.157933
-0.0938889
0.0273063
0.0781353
0.138915
0.180776
0.295699
0.311515
0.269676
0.309155
0.510223
0.534801
0.423423
0.387333
0.318657
0.316756
0.388609
0.38477
0.302476
0.276866
0.227606
0.208769
0.166303
0.160757
0.186002
0.179744
0.132992
0.117666
0.0903944
0.0854731
0.0967302
0.0932785
0.0713008
0.0697042
0.0897967
0.0882827
0.0676341
0.0571427
0.0300457
0.0109504
-0.0493256
-0.091814
-0.233309
-0.322487
-0.604821
-0.750172
-1.16494
-1.42381
-2.43598
-2.26837
-0.453562
-0.0967235
-0.0220717
-0.00509277
-84.6346
173.81
-0.823998
-1.92877
-4.91585
-5.82426
-7.11726
-7.29523
-7.1404
-6.79134
-5.87477
-5.2525
-4.06384
-3.67445
-3.46606
-3.6229
-4.28294
-4.13034
-2.95821
-2.42599
-1.75185
-1.44061
-1.00421
-0.795645
-0.495993
-0.371995
-0.230013
-0.151882
-0.0161607
0.0487158
0.125966
0.176626
0.2789
0.297607
0.268879
0.317215
0.511944
0.542928
0.448215
0.407898
0.348271
0.34465
0.395922
0.390594
0.322577
0.294181
0.248944
0.227471
0.189495
0.182083
0.196427
0.188312
0.147384
0.129908
0.104089
0.0976041
0.102558
0.0979814
0.0788621
0.0764143
0.0894214
0.0869411
0.0679156
0.0555897
0.0286196
0.00617209
-0.0515963
-0.100735
-0.232359
-0.335276
-0.598271
-0.765463
-1.14777
-1.42356
-2.18808
-1.9964
-0.506959
-0.117783
-0.027539
-0.00639443
-84.388
188.221
-2.89932
-4.23687
-6.43609
-7.24051
-8.10342
-8.20576
-7.85867
-7.43986
-6.42957
-5.72178
-4.39222
-3.96461
-3.8553
-4.0409
-4.69543
-4.51903
-3.27255
-2.67778
-1.9538
-1.60677
-1.14369
-0.910251
-0.581299
-0.442982
-0.299568
-0.212205
-0.0568186
0.0187796
0.114063
0.170397
0.265432
0.285587
0.264993
0.319415
0.520212
0.556082
0.47083
0.429235
0.375645
0.37035
0.405501
0.398928
0.341096
0.312173
0.269334
0.246836
0.211467
0.202541
0.207754
0.198197
0.160842
0.142487
0.117014
0.109281
0.108769
0.103269
0.0857587
0.0825083
0.0896672
0.0862625
0.06793
0.0546228
0.0270126
0.00280609
-0.0542135
-0.106358
-0.232559
-0.341664
-0.595553
-0.772145
-1.13484
-1.40374
-1.9784
-1.77633
-0.516335
-0.126878
-0.0302388
-0.00706215
-84.1412
202.72
-5.00683
-6.51046
-8.01206
-8.65436
-9.11998
-9.13427
-8.57984
-8.1121
-6.97236
-6.21602
-4.68462
-4.24213
-4.23285
-4.44025
-5.14128
-4.95065
-3.56094
-2.93485
-2.14076
-1.77764
-1.27403
-1.02873
-0.659023
-0.51421
-0.366915
-0.275279
-0.0943125
-0.0119682
0.103697
0.162603
0.254946
0.275188
0.258099
0.315754
0.535074
0.574077
0.491698
0.451052
0.401089
0.394433
0.416752
0.409316
0.358463
0.330725
0.288914
0.26672
0.232385
0.222439
0.219675
0.209197
0.173544
0.155354
0.129233
0.120671
0.115183
0.109039
0.0920874
0.0881879
0.0903373
0.0861825
0.0677443
0.0542285
0.0252694
0.000751993
-0.0570269
-0.109021
-0.233446
-0.342263
-0.595926
-0.771378
-1.12565
-1.37168
-1.79978
-1.59855
-0.490877
-0.124253
-0.029996
-0.00703779
-83.8942
217.379
-7.21336
-8.78409
-9.62233
-10.0752
-10.1545
-10.0855
-9.29759
-8.8113
-7.4999
-6.74137
-4.93357
-4.50243
-4.60184
-4.81996
-5.62291
-5.43036
-3.81889
-3.19873
-2.31056
-1.95421
-1.39411
-1.15224
-0.727795
-0.585575
-0.432069
-0.341958
-0.127889
-0.0440731
0.0955813
0.153455
0.247331
0.266271
0.248208
0.305621
0.557144
0.596926
0.510896
0.473242
0.424801
0.41736
0.429196
0.421443
0.374908
0.349843
0.307713
0.287093
0.252332
0.242053
0.23191
0.221209
0.185551
0.168543
0.140752
0.131942
0.121626
0.115244
0.0978965
0.0936278
0.0912614
0.0866751
0.0673626
0.0544525
0.0233485
2.77154e-05
-0.0600732
-0.108789
-0.23496
-0.33707
-0.599428
-0.763453
-1.12079
-1.33231
-1.64631
-1.45702
-0.435764
-0.110727
-0.0268973
-0.00633008
-83.6471
232.279
-9.59682
-11.087
-11.2479
-11.511
-11.195
-11.0656
-10.0033
-9.54357
-8.0054
-7.30877
-5.12753
-4.7416
-4.96617
-5.17639
-6.14447
-5.96693
-4.0373
-3.47343
-2.45918
-2.139
-1.50152
-1.2831
-0.785318
-0.657425
-0.494717
-0.413621
-0.15628
-0.0784331
0.0907186
0.142852
0.242702
0.258826
0.235291
0.28772
0.58768
0.624805
0.528157
0.495863
0.446873
0.439517
0.442425
0.435125
0.390498
0.369647
0.325656
0.308035
0.271303
0.261665
0.244171
0.234223
0.196815
0.182166
0.151516
0.143277
0.127915
0.121891
0.103185
0.0989935
0.0922759
0.087758
0.0667257
0.0554046
0.0211162
0.000774038
-0.0635761
-0.105461
-0.237439
-0.32547
-0.606863
-0.747791
-1.12174
-1.28883
-1.51296
-1.34876
-0.352791
-0.087546
-0.0212643
-0.0050118
-83.3999
247.513
-12.2538
-13.443
-12.8694
-12.9698
-12.228
-12.0829
-10.685
-10.319
-8.47731
-7.93562
-5.24975
-4.95641
-5.33115
-5.50259
-6.71195
-6.57367
-4.20115
-3.76622
-2.58009
-2.33653
-1.59221
-1.42516
-0.828076
-0.730694
-0.554125
-0.492356
-0.17751
-0.116462
0.0905223
0.130329
0.241413
0.252959
0.21933
0.259913
0.628727
0.658033
0.542843
0.519152
0.467282
0.461265
0.456065
0.450301
0.405139
0.39038
0.342546
0.329744
0.289193
0.281594
0.256132
0.248338
0.207172
0.196431
0.161385
0.154898
0.133832
0.129047
0.107894
0.104462
0.0932036
0.0895024
0.0657009
0.0572757
0.018326
0.00328017
-0.0679786
-0.0985314
-0.241677
-0.306137
-0.619916
-0.722803
-1.13096
-1.24306
-1.39513
-1.27375
-0.240582
-0.0564022
-0.0136271
-0.00321224
-83.1525
263.194
-15.3099
-15.8695
-14.4639
-14.4623
-13.2371
-13.1504
-11.3254
-11.1535
-8.89725
-8.64828
-5.27631
-5.14455
-5.70432
-5.78733
-7.33338
-7.26983
-4.28756
-4.0891
-2.66334
-2.55413
-1.65983
-1.58446
-0.850866
-0.807147
-0.608955
-0.581227
-0.188602
-0.16034
0.0970042
0.114948
0.2441
0.248896
0.200397
0.218974
0.683354
0.69704
0.553869
0.543568
0.485856
0.482981
0.469729
0.467056
0.418565
0.412437
0.358036
0.352565
0.305767
0.302239
0.267389
0.263789
0.216314
0.211671
0.170114
0.167105
0.1391
0.136858
0.111896
0.110244
0.0938298
0.0920515
0.0640615
0.0603679
0.0145796
0.00803446
-0.0740101
-0.0870988
-0.249065
-0.276831
-0.641404
-0.685602
-1.15202
-1.19567
-1.28822
-1.2352
-0.0944076
-0.0195997
-0.00469361
-0.00110544
-82.905
262.64
-14.9801
-15.4969
-13.8177
-13.7993
-12.8538
-12.8413
-11.8247
-11.7219
-9.52288
-9.26266
-5.59235
-5.44003
-5.94994
-6.02157
-7.6123
-7.56367
-4.68735
-4.49927
-2.99486
-2.87123
-1.86225
-1.77382
-0.939818
-0.888669
-0.690134
-0.661044
-0.285105
-0.254928
0.0403475
0.060766
0.203219
0.209506
0.179455
0.198344
0.644872
0.659509
0.539806
0.530934
0.47392
0.470761
0.453089
0.450475
0.404355
0.398474
0.341786
0.33559
0.27256
0.265053
0.167595
0.165413
0.229599
0.226835
0.113477
0.10684
0.0826586
0.0762479
0.00625769
-0.012489
-0.219829
-0.304269
-1.76104
-1.90832
-3.20746
-3.43811
-6.13923
-6.53917
-10.7545
-11.3094
-16.5247
-16.9404
-17.8842
-17.5672
-8.69673
-7.74727
-0.712151
-0.158939
-0.0386966
-0.00919072
47.6348
246.776
-11.9116
-12.9922
-12.1299
-12.178
-11.6305
-11.6703
-11.1147
-10.9266
-9.1341
-8.56737
-5.64798
-5.30526
-5.59922
-5.7358
-6.95287
-6.85454
-4.64461
-4.24055
-2.97044
-2.69021
-1.84031
-1.64166
-0.95239
-0.836151
-0.650213
-0.583596
-0.276298
-0.210201
0.028176
0.0735566
0.196009
0.210877
0.192189
0.233709
0.590303
0.622312
0.528497
0.508243
0.456649
0.449907
0.441037
0.435539
0.393349
0.379348
0.330043
0.315749
0.261894
0.245193
0.167238
0.161849
0.207243
0.200698
0.111009
0.0960696
0.071031
0.0550526
-0.0135612
-0.0602084
-0.267936
-0.461449
-1.67531
-2.01869
-3.2127
-3.7631
-6.1855
-7.14067
-10.9519
-12.2836
-16.989
-18.0228
-19.1652
-18.5058
-11.1609
-8.87273
-1.87715
-0.459484
-0.112454
-0.0266864
58.375
231.348
-9.23479
-10.5652
-10.4055
-10.5805
-10.3836
-10.5231
-10.39
-10.1955
-8.6963
-7.96623
-5.60059
-5.14507
-5.25484
-5.40687
-6.34612
-6.22993
-4.5297
-4.01653
-2.90647
-2.53201
-1.79237
-1.52917
-0.942065
-0.786442
-0.605538
-0.515791
-0.257857
-0.172377
0.0237139
0.0832559
0.193095
0.213585
0.20251
0.256468
0.548716
0.590148
0.514245
0.486804
0.437584
0.429138
0.428852
0.422072
0.381218
0.361636
0.316902
0.297493
0.249743
0.227785
0.16398
0.156255
0.186966
0.177887
0.105552
0.0857041
0.0590417
0.0359626
-0.0342601
-0.101488
-0.316619
-0.577826
-1.62442
-2.09506
-3.24371
-4.01325
-6.2905
-7.62796
-11.2484
-13.123
-17.6001
-19.1009
-20.5182
-19.7117
-13.4226
-10.1864
-2.81898
-0.717167
-0.175744
-0.0416135
69.1158
216.242
-6.82612
-8.1978
-8.66775
-8.99776
-9.12316
-9.38686
-9.66769
-9.51657
-8.22778
-7.43056
-5.47685
-4.96233
-4.90885
-5.04653
-5.78167
-5.66876
-4.36738
-3.81647
-2.81316
-2.38848
-1.72542
-1.42967
-0.914523
-0.737778
-0.557246
-0.45474
-0.232542
-0.138997
0.024697
0.0909298
0.193744
0.217547
0.210224
0.26969
0.517158
0.562674
0.498053
0.466237
0.416889
0.408045
0.41693
0.409971
0.368239
0.344934
0.302752
0.280375
0.236565
0.212054
0.158482
0.149126
0.168284
0.15761
0.0979988
0.075613
0.0469099
0.018758
-0.0550813
-0.136857
-0.363469
-0.662806
-1.59659
-2.14435
-3.28994
-4.20314
-6.43315
-8.024
-11.6148
-13.8582
-18.3302
-20.1822
-21.96
-21.1367
-15.562
-11.6652
-3.55008
-0.912378
-0.222715
-0.0525426
79.8574
201.365
-4.5902
-5.86643
-6.93548
-7.42314
-7.85715
-8.24984
-8.96268
-8.88319
-7.73965
-6.94123
-5.29563
-4.76125
-4.55531
-4.66239
-5.25126
-5.15526
-4.17517
-3.63461
-2.69679
-2.25457
-1.64385
-1.33902
-0.873496
-0.689311
-0.505871
-0.39851
-0.202109
-0.108449
0.029557
0.0971232
0.197541
0.222744
0.215258
0.275387
0.493674
0.539603
0.480549
0.446371
0.394575
0.386244
0.405644
0.399264
0.354528
0.328991
0.287815
0.264118
0.222619
0.197491
0.15122
0.140862
0.1508
0.139294
0.0889592
0.0657768
0.0347572
0.00338026
-0.0755886
-0.166441
-0.407426
-0.722432
-1.58424
-2.16977
-3.34552
-4.34044
-6.60146
-8.34013
-12.0353
-14.5044
-19.1651
-21.2664
-23.5056
-22.7516
-17.6342
-13.3125
-4.06195
-1.0296
-0.248868
-0.0584074
90.6002
186.635
-2.44948
-3.54329
-5.22637
-5.85058
-6.59271
-7.09997
-8.28935
-8.29241
-7.23778
-6.48586
-5.07005
-4.54713
-4.18936
-4.25911
-4.74837
-4.67724
-3.9655
-3.46875
-2.56071
-2.1275
-1.55012
-1.25486
-0.821273
-0.640862
-0.451495
-0.345879
-0.167601
-0.0797038
0.037211
0.101983
0.204331
0.229236
0.217579
0.274751
0.47708
0.520729
0.462048
0.427209
0.370524
0.363337
0.395393
0.390097
0.340054
0.31368
0.272183
0.248578
0.208024
0.183777
0.142526
0.13179
0.134177
0.122535
0.0788368
0.0562566
0.02262
-0.0100947
-0.0956247
-0.19003
-0.448438
-0.760215
-1.58299
-2.17164
-3.4084
-4.42717
-6.79074
-8.57809
-12.5048
-15.0629
-20.1025
-22.345
-25.1708
-24.5408
-19.6742
-15.1567
-4.32496
-1.05667
-0.251369
-0.0586025
101.344
171.979
-0.336643
-1.19653
-3.55951
-4.27319
-5.33758
-5.92277
-7.66347
-7.74396
-6.72385
-6.05712
-4.80885
-4.3265
-3.80642
-3.83916
-4.26802
-4.22498
-3.74736
-3.31947
-2.40575
-2.00629
-1.4452
-1.1763
-0.758981
-0.59282
-0.393812
-0.296193
-0.12951
-0.0521475
0.0469269
0.105322
0.214203
0.23718
0.217138
0.268302
0.466828
0.505945
0.442591
0.408922
0.344495
0.338863
0.386641
0.382724
0.324638
0.298978
0.255841
0.233722
0.192781
0.170749
0.132616
0.122197
0.118119
0.107062
0.067873
0.047181
0.010447
-0.021458
-0.11531
-0.207067
-0.487334
-0.777586
-1.59114
-2.14764
-3.48007
-4.46019
-7.00317
-8.73057
-13.0292
-15.5223
-21.1516
-23.4002
-26.9741
-26.4992
-21.7
-17.2534
-4.2853
-0.985158
-0.229327
-0.0530516
112.09
157.323
1.8117
1.21042
-1.95854
-2.68168
-4.10155
-4.6993
-7.10398
-7.23957
-6.19585
-5.65172
-4.5171
-4.10748
-3.40147
-3.40348
-3.80666
-3.79022
-3.52734
-3.18973
-2.23031
-1.89163
-1.32865
-1.10374
-0.686695
-0.546137
-0.332112
-0.249302
-0.0878757
-0.0254853
0.0582489
0.106623
0.227499
0.246833
0.21384
0.255953
0.462949
0.495258
0.421947
0.391865
0.316114
0.312255
0.379959
0.377522
0.30793
0.28498
0.238663
0.219623
0.176787
0.158369
0.121602
0.112355
0.102345
0.092718
0.0561722
0.0387492
-0.0019182
-0.0303443
-0.135083
-0.216574
-0.525847
-0.774051
-1.60961
-2.09265
-3.5659
-4.43076
-7.2483
-8.78028
-13.6259
-15.8562
-22.336
-24.4022
-28.9391
-28.6303
-23.7115
-19.6907
-3.8588
-0.811804
-0.184064
-0.042237
122.836
142.591
4.06054
3.72011
-0.455324
-1.06224
-2.89834
-3.40352
-6.63527
-6.78237
-5.64791
-5.27
-4.19641
-3.90039
-2.96827
-2.95183
-3.36218
-3.36541
-3.3104
-3.08495
-2.03012
-1.786
-1.19865
-1.03892
-0.603389
-0.502426
-0.265192
-0.205583
-0.0423036
0.000302998
0.0709687
0.105012
0.244845
0.258572
0.207533
0.237003
0.466054
0.488794
0.399572
0.376634
0.28486
0.282787
0.376086
0.37501
0.28936
0.271921
0.220398
0.20648
0.15982
0.146727
0.10949
0.102546
0.0865583
0.0794535
0.0437089
0.0312489
-0.0147724
-0.036179
-0.15579
-0.216976
-0.566816
-0.747044
-1.64221
-1.99809
-3.67611
-4.32329
-7.54491
-8.69752
-14.3272
-16.0202
-23.6969
-25.3054
-31.0978
-30.9456
-25.6869
-22.6003
-2.9208
-0.541632
-0.119334
-0.0271818
133.583
127.701
6.48216
6.38324
0.905194
0.606419
-1.74834
-1.99866
-6.28993
-6.37645
-5.06973
-4.91615
-3.84467
-3.71879
-2.49851
-2.48318
-2.93405
-2.943
-3.10034
-3.0134
-1.79754
-1.69415
-1.05157
-0.985152
-0.506727
-0.464188
-0.191187
-0.166027
0.00808061
0.0249564
0.085143
0.09916
0.26723
0.272896
0.198001
0.210068
0.47741
0.486807
0.374545
0.364158
0.250018
0.249505
0.375989
0.375882
0.268064
0.260227
0.200632
0.194649
0.141512
0.136053
0.0961689
0.0931019
0.0704184
0.0673362
0.0303156
0.025092
-0.0286108
-0.0380862
-0.178836
-0.205837
-0.614579
-0.691453
-1.69641
-1.85068
-3.82759
-4.11289
-7.92433
-8.43572
-15.186
-15.9449
-25.3006
-26.0411
-33.4942
-33.4651
-27.5753
-26.1735
-1.29074
-0.193158
-0.0413782
-0.00937404
144.331
100.614
-3.49395
-3.69316
-3.16063
-3.0571
-1.7203
-1.62554
-1.81977
-1.76876
-0.773997
-0.687351
-0.284279
-0.24549
-0.0130355
0.0142118
0.24666
0.27576
0.549913
0.559941
0.432524
0.425074
0.341118
0.334343
0.263102
0.272674
0.469899
0.487685
0.640336
0.632976
0.357951
0.349393
0.493974
0.494379
0.381212
0.379088
0.349129
0.343763
0.245138
0.234063
0.163409
0.165552
0.285697
0.286693
0.178937
0.169869
0.111113
0.105375
0.0627976
0.0607454
0.0858171
0.0856649
0.0639469
0.062008
0.0414185
0.0376122
-0.00326822
-0.0122021
-0.134822
-0.167558
-0.728352
-0.79695
-1.66273
-1.79309
-3.6361
-3.87506
-7.0636
-7.44565
-12.4102
-12.929
-19.2538
-19.7818
-25.374
-25.6275
-26.4519
-27.3594
-51.8993
-50.8618
-2.28677
-0.306149
212.049
102.314
-3.47488
-3.97796
-3.71592
-3.47182
-2.13791
-1.89176
-2.01477
-1.88968
-0.995166
-0.784208
-0.395566
-0.301514
-0.096337
-0.0310112
0.18798
0.257345
0.490087
0.515104
0.425557
0.411065
0.345001
0.330341
0.274597
0.299038
0.481738
0.522525
0.63329
0.615515
0.39666
0.37552
0.47184
0.471832
0.393089
0.392272
0.382071
0.370688
0.278569
0.251231
0.186067
0.190688
0.292972
0.295543
0.204573
0.183302
0.130373
0.116753
0.0791202
0.0734998
0.0882145
0.0876116
0.0729146
0.0686351
0.0484223
0.0391573
0.00184055
-0.0191364
-0.128524
-0.202014
-0.665004
-0.819223
-1.55256
-1.84572
-3.38389
-3.91864
-6.57009
-7.42067
-11.5131
-12.6594
-17.8171
-18.9667
-23.418
-23.942
-24.5986
-26.3793
-44.483
-42.2491
-4.99654
-0.849522
189.529
104.135
-3.5554
-4.2934
-4.27054
-3.93017
-2.51206
-2.14324
-2.21973
-2.04141
-1.18902
-0.888196
-0.495089
-0.362
-0.174058
-0.082393
0.135274
0.232385
0.438561
0.474841
0.415581
0.399115
0.346823
0.32798
0.282882
0.319071
0.499253
0.554565
0.631383
0.606096
0.42746
0.396947
0.453561
0.452435
0.401849
0.405832
0.415062
0.400842
0.30941
0.269913
0.205934
0.211919
0.304236
0.308137
0.227423
0.198004
0.148062
0.129093
0.0941636
0.0854421
0.0912258
0.0901231
0.0814666
0.0759001
0.0549884
0.041824
0.00629419
-0.0225375
-0.123667
-0.2209
-0.614019
-0.818351
-1.46002
-1.84858
-3.17187
-3.87761
-6.14867
-7.2661
-10.7338
-12.2294
-16.5409
-18.0196
-21.6192
-22.2514
-22.7004
-24.7463
-37.8802
-35.0372
-6.3821
-1.25538
167.039
106.071
-3.72128
-4.63935
-4.83791
-4.43171
-2.8443
-2.37698
-2.43495
-2.22016
-1.36086
-0.995913
-0.584241
-0.424704
-0.247949
-0.138835
0.0873709
0.203043
0.393815
0.438388
0.403884
0.38859
0.347303
0.326665
0.287913
0.333342
0.521759
0.585741
0.633559
0.602809
0.452334
0.41489
0.437591
0.435017
0.408428
0.419184
0.448991
0.434087
0.338175
0.289575
0.223005
0.229699
0.31904
0.324118
0.248224
0.21353
0.164515
0.142074
0.108161
0.096806
0.0945144
0.0929385
0.0898964
0.08378
0.0612448
0.0453843
0.010477
-0.0230523
-0.118977
-0.227966
-0.570609
-0.800018
-1.37765
-1.81411
-2.98462
-3.77406
-5.77352
-7.01765
-10.0336
-11.6869
-15.3781
-16.9878
-19.9393
-20.5682
-20.7385
-22.6699
-31.9167
-28.8579
-6.82659
-1.49769
144.592
108.124
-3.96634
-5.01415
-5.42955
-4.98058
-3.13182
-2.58978
-2.66114
-2.42476
-1.51298
-1.10555
-0.663346
-0.488128
-0.319162
-0.199986
0.0438648
0.170676
0.354898
0.405081
0.391405
0.379096
0.346949
0.32607
0.289572
0.341889
0.549239
0.617561
0.638875
0.60431
0.472686
0.430428
0.422633
0.418561
0.413514
0.431775
0.484711
0.470574
0.365049
0.309958
0.237148
0.244175
0.337217
0.343341
0.26738
0.229631
0.179908
0.155516
0.121259
0.10781
0.0977768
0.0958148
0.0984511
0.092318
0.0672345
0.0497051
0.0146007
-0.021079
-0.113776
-0.225707
-0.53176
-0.7678
-1.30098
-1.75035
-2.81271
-3.62223
-5.42872
-6.69851
-9.38813
-11.0631
-14.2989
-15.9026
-18.3525
-18.9035
-18.7064
-20.301
-26.4455
-23.4375
-6.60304
-1.57597
122.197
110.299
-4.29157
-5.41433
-6.05586
-5.58554
-3.36717
-2.77815
-2.89974
-2.65645
-1.645
-1.21663
-0.731815
-0.551338
-0.388415
-0.266153
0.00501309
0.135986
0.32132
0.374311
0.378859
0.370385
0.346138
0.326094
0.287674
0.344231
0.582277
0.651258
0.646423
0.609691
0.489463
0.444586
0.407527
0.402146
0.41767
0.442982
0.523116
0.510719
0.389909
0.331052
0.248099
0.255214
0.358874
0.365851
0.285011
0.246215
0.194291
0.169357
0.133527
0.11868
0.100719
0.0985097
0.107359
0.101615
0.0729221
0.0547272
0.018743
-0.0168338
-0.107822
-0.215706
-0.495746
-0.723746
-1.22774
-1.66217
-2.65103
-3.43066
-5.10557
-6.32277
-8.78345
-10.3772
-13.2851
-14.7839
-16.8418
-17.269
-16.6027
-17.7503
-21.3405
-18.5702
-5.90728
-1.50445
99.8561
112.609
-4.70534
-5.83386
-6.72673
-6.26052
-3.53745
-2.93817
-3.15301
-2.91895
-1.75375
-1.33001
-0.788152
-0.613881
-0.456072
-0.338304
-0.0282582
0.0990974
0.293013
0.345461
0.366819
0.362294
0.345151
0.326848
0.281973
0.33931
0.622074
0.687904
0.655244
0.618411
0.503225
0.458432
0.391155
0.384896
0.421436
0.451997
0.565224
0.555202
0.412292
0.353113
0.25545
0.262394
0.384402
0.391878
0.300964
0.263328
0.207599
0.183636
0.144959
0.129678
0.103034
0.100765
0.116852
0.111832
0.07819
0.060459
0.0228642
-0.0103812
-0.101207
-0.198844
-0.46185
-0.668703
-1.15734
-1.55189
-2.49783
-3.20342
-4.80089
-5.8975
-8.21368
-9.6389
-12.328
-13.643
-15.3966
-15.6784
-14.4267
-15.1021
-16.4901
-14.0988
-4.88121
-1.30544
77.5671
115.071
-5.2246
-6.26289
-7.45205
-7.02587
-3.62285
-3.06572
-3.42432
-3.21876
-1.83291
-1.44818
-0.829825
-0.675798
-0.522155
-0.418173
-0.0542465
0.0595235
0.270346
0.317838
0.355803
0.3547
0.344204
0.328659
0.27218
0.325368
0.670544
0.728487
0.664229
0.630262
0.51417
0.473178
0.372343
0.365935
0.425443
0.457708
0.612264
0.605003
0.431328
0.376715
0.25862
0.264973
0.414514
0.421843
0.31479
0.281169
0.219638
0.198508
0.155458
0.141133
0.104376
0.102288
0.127192
0.123195
0.0828215
0.0669836
0.0268071
-0.00163375
-0.0943336
-0.175389
-0.430232
-0.602434
-1.09077
-1.41964
-2.35434
-2.94064
-4.5164
-5.42362
-7.67975
-8.85029
-11.4261
-12.4847
-14.0106
-14.1493
-12.1738
-12.4255
-11.791
-9.90051
-3.62954
-1.00537
55.3228
117.708
-5.8774
-6.68594
-8.24205
-7.91036
-3.5945
-3.1567
-3.71825
-3.56583
-1.87207
-1.57572
-0.852954
-0.737724
-0.586274
-0.50846
-0.0702479
0.0160497
0.254197
0.290584
0.34634
0.347474
0.343453
0.332104
0.257997
0.299743
0.730501
0.773955
0.672001
0.645398
0.52211
0.490317
0.349755
0.344339
0.430541
0.458528
0.665778
0.661461
0.445603
0.402858
0.256813
0.261828
0.450317
0.456387
0.325681
0.300128
0.230064
0.214258
0.16481
0.153487
0.104333
0.102733
0.138689
0.136013
0.0864715
0.0744804
0.0302769
0.00967725
-0.0879376
-0.145001
-0.401947
-0.523557
-1.03063
-1.26322
-2.22487
-2.63838
-4.25877
-4.89593
-7.18941
-8.00566
-10.5851
-11.308
-12.6801
-12.705
-9.83186
-9.7844
-7.14216
-5.87748
-2.23206
-0.632476
33.1129
120.555
-6.70699
-7.07913
-9.10761
-8.95427
-3.41106
-3.20775
-4.04078
-3.97459
-1.85536
-1.72034
-0.851801
-0.801114
-0.647461
-0.613176
-0.0721851
-0.0335093
0.246109
0.262548
0.339055
0.34045
0.342993
0.338057
0.239178
0.258556
0.805949
0.825238
0.676758
0.6644
0.52639
0.511807