/*--------------------------------*- C++ -*----------------------------------*\
| =========                 |                                                 |
| \\      /  F ield         | OpenFOAM: The Open Source CFD Toolbox           |
|  \\    /   O peration     | Version:  5.x                                   |
|   \\  /    A nd           | Web:      www.OpenFOAM.org                      |
|    \\/     M anipulation  |                                                 |
\*---------------------------------------------------------------------------*/
FoamFile
{
    version     2.0;
    format      ascii;
    class       volScalarField;
    location    "0.4";
    object      gradTy;
}
// * * * * * * * * * * * * * * * * * * * * * * * * * * * * * * * * * * * * * //

dimensions      [0 -1 0 1 0 0 0];

internalField   nonuniform List<scalar> 
3200
(
74.647
-31.199
-9.22774
-7.84834
1.45067
-2.72967
4.16353
0.610455
5.40692
2.87261
5.92203
4.36312
5.85472
4.8853
6.38748
5.86874
6.36525
6.38976
6.26151
6.59212
6.21487
6.66248
6.18479
6.59655
6.36317
6.8016
6.2285
7.09058
5.38296
6.41342
5.28564
6.11212
5.27188
5.91127
5.52642
6.28518
4.89625
5.77384
4.89185
5.5263
4.80471
5.31966
4.746
5.17292
4.69762
5.01147
4.64715
4.8503
4.65528
4.80247
4.53094
4.63805
4.50519
4.54744
4.47199
4.46611
4.47171
4.4409
4.42725
4.3795
4.41746
4.3179
4.5085
4.39627
4.5157
4.45015
4.54052
4.53798
4.59264
4.69082
4.68983
4.9211
4.92022
5.30379
5.25205
5.84509
6.76578
7.15474
7.27
7.29828
61.2193
-18.8512
-8.2006
-6.5803
0.406589
-1.83044
3.24047
1.24448
4.73312
3.279
5.47739
4.56661
5.62824
5.07264
6.18254
5.911
6.30153
6.3481
6.29104
6.51787
6.28445
6.57893
6.26974
6.54394
6.41464
6.70013
6.31293
6.83643
5.63027
6.24908
5.45802
5.97246
5.4189
5.83462
5.59818
6.07278
5.10379
5.64121
5.03412
5.42156
4.91416
5.22975
4.8394
5.10331
4.77176
4.96078
4.70229
4.82311
4.68476
4.76831
4.56677
4.62346
4.52246
4.54127
4.4802
4.4706
4.46833
4.44352
4.42544
4.3899
4.40927
4.34634
4.48071
4.4132
4.49705
4.4597
4.5286
4.53609
4.59065
4.671
4.70448
4.88571
4.94965
5.24575
5.30181
5.83201
6.78706
7.16568
7.27347
7.29939
50.9952
-10.1314
-6.81141
-5.52613
-0.267811
-1.22289
2.60065
1.65963
4.25748
3.53968
5.15745
4.69151
5.4667
5.19357
6.03304
5.92691
6.25167
6.31066
6.30925
6.46205
6.33291
6.51951
6.33132
6.50745
6.44947
6.62553
6.36089
6.65141
5.80453
6.14107
5.57812
5.87545
5.52708
5.78399
5.64143
5.91807
5.25102
5.55432
5.13657
5.35258
4.99068
5.16805
4.90661
5.05752
4.82507
4.928
4.74228
4.80632
4.70538
4.7456
4.5923
4.61522
4.53499
4.53834
4.48641
4.47486
4.46592
4.44594
4.42439
4.39817
4.40444
4.36696
4.46106
4.42415
4.48332
4.46508
4.51921
4.53239
4.58771
4.65313
4.71329
4.85508
4.96985
5.19736
5.33263
5.80196
6.8314
7.18745
7.28019
7.30153
43.2167
-3.98864
-5.34011
-4.63021
-0.693064
-0.805942
2.15188
1.93364
3.91483
3.70727
4.92116
4.76702
5.34732
5.27019
5.92152
5.9257
6.21253
6.27568
6.32132
6.41751
6.36873
6.47506
6.37831
6.48029
6.47491
6.56851
6.3866
6.51184
5.9314
6.06899
5.66375
5.80422
5.611
5.74929
5.66787
5.80105
5.3594
5.49623
5.21364
5.30668
5.04559
5.12389
4.95733
5.02705
4.86497
4.90678
4.7723
4.79614
4.72039
4.73065
4.61083
4.61115
4.54422
4.53767
4.49104
4.47907
4.46399
4.44847
4.42358
4.4052
4.40142
4.38238
4.44672
4.43132
4.47275
4.46763
4.51153
4.52707
4.58443
4.63553
4.71889
4.82558
4.98559
5.1527
5.35013
5.74951
6.90268
7.21975
7.28976
7.3045
37.327
0.320439
-3.95079
-3.86294
-0.955924
-0.511474
1.83047
2.11995
3.65998
3.81822
4.73978
4.8133
5.25437
5.31779
5.83597
5.91326
6.18238
6.24144
6.33138
6.37878
6.39835
6.43872
6.41733
6.4574
6.49636
6.52249
6.4
6.40047
6.02951
6.01859
5.72752
5.7463
5.68162
5.72334
5.68569
5.70701
5.44461
5.45489
5.27566
5.27494
5.08692
5.08952
4.99858
5.00586
4.89671
4.89261
4.79599
4.78996
4.73197
4.72093
4.62457
4.6098
4.55106
4.53863
4.49433
4.48344
4.46212
4.45142
4.42255
4.41168
4.39906
4.39449
4.43562
4.43626
4.46409
4.46826
4.50502
4.52013
4.58144
4.61668
4.72359
4.79399
5.00108
5.10686
5.35956
5.66693
7.00741
7.26192
7.30154
7.30806
32.9177
3.32027
-2.73567
-3.20828
-1.12015
-0.29279
1.59126
2.25632
3.46047
3.8987
4.59237
4.84495
5.17657
5.34724
5.7681
5.89317
6.16065
6.20597
6.34315
6.34116
6.42713
6.40485
6.45388
6.43455
6.51832
6.48241
6.40847
6.30395
6.11322
5.97938
5.77888
5.6917
5.74797
5.70056
5.70114
5.6243
5.5189
5.42113
5.33053
5.25068
5.12062
5.05889
5.03591
4.98932
4.92426
4.88215
4.81606
4.78587
4.74168
4.71463
4.63506
4.61021
4.55606
4.54088
4.49629
4.48823
4.45984
4.4551
4.42081
4.41824
4.39638
4.4048
4.42614
4.44013
4.45639
4.46759
4.49939
4.51135
4.57951
4.59498
4.72977
4.75695
5.02063
5.05514
5.36681
5.54302
7.15557
7.31268
7.31463
7.31187
29.6923
5.37828
-1.74403
-2.6562
-1.23408
-0.116492
1.4007
2.37104
3.29152
3.96889
4.46255
4.87337
5.10517
5.36663
5.71201
5.86736
6.14778
6.16681
6.36048
6.30001
6.46024
6.36813
6.49318
6.40759
6.54507
6.44385
6.41817
6.21088
6.19465
5.94284
5.82572
5.63138
5.81849
5.67587
5.71969
5.54274
5.5929
5.38708
5.38498
5.22844
5.1516
5.02671
5.07419
4.97352
4.95089
4.87265
4.83469
4.78234
4.7507
4.71043
4.64335
4.61179
4.55949
4.54429
4.49678
4.49383
4.4566
4.45996
4.41779
4.42557
4.39248
4.41458
4.41695
4.44389
4.44887
4.4661
4.49455
4.5003
4.57967
4.56849
4.74025
4.71043
5.04933
4.99233
5.37947
5.36166
7.36195
7.36966
7.32791
7.31558
27.439
6.74815
-1.00123
-2.19792
-1.33621
0.0434837
1.23172
2.48749
3.13207
4.04623
4.33586
4.9088
5.03243
5.38255
5.66344
5.83646
6.14532
6.12063
6.38795
6.25003
6.50345
6.32273
6.54091
6.37171
6.5814
6.40229
6.43516
6.11019
6.28554
5.90095
5.87567
5.55583
5.90222
5.64375
5.74711
5.45212
5.67716
5.34491
5.44563
5.20302
5.18451
4.98764
5.1184
4.95461
4.97974
4.86153
4.8539
4.77796
4.76005
4.70728
4.6502
4.61418
4.56141
4.54897
4.49545
4.50076
4.45171
4.4666
4.41275
4.43449
4.38634
4.42511
4.40673
4.4485
4.44083
4.46411
4.49057
4.48628
4.58341
4.53465
4.75874
4.64913
5.09384
4.91173
5.40831
5.09956
7.64803
7.42861
7.34002
7.31881
26.0129
7.59964
-0.521217
-1.82261
-1.45964
0.210595
1.05957
2.62798
2.96146
4.14822
4.19756
4.96195
4.95043
5.40106
5.61902
5.80002
6.15611
6.06271
6.43161
6.18438
6.56402
6.26139
6.60416
6.32071
6.6333
6.35229
6.4665
5.98954
6.39887
5.84474
5.93747
5.45369
6.0102
5.59721
5.79051
5.34075
5.78376
5.28546
5.52004
5.16867
5.22457
4.93549
5.17439
4.92814
5.01433
4.84598
4.87582
4.77124
4.77077
4.70427
4.65617
4.6172
4.56168
4.55525
4.49173
4.50983
4.44421
4.47594
4.40462
4.44616
4.37666
4.43787
4.39405
4.45502
4.43149
4.46194
4.48777
4.46814
4.59293
4.48983
4.79053
4.5656
5.16338
4.80394
5.46933
4.72315
8.04482
7.48233
7.34945
7.3212
25.3226
8.0386
-0.314784
-1.51463
-1.63605
0.409952
0.858118
2.81739
2.75631
4.29535
4.03032
5.04585
4.8497
5.42867
5.57592
5.75643
6.18478
5.98624
6.49987
6.09365
6.65189
6.17424
6.69248
6.2459
6.70898
6.28652
6.52153
5.83348
6.5508
5.76271
6.02238
5.31
6.15702
5.52647
5.85969
5.19372
5.92805
5.19674
5.61792
5.11806
5.27846
4.86223
5.24981
4.88837
5.05909
4.82249
4.9031
4.76034
4.7841
4.7005
4.66175
4.62085
4.55994
4.56377
4.4847
4.52219
4.43276
4.48934
4.39192
4.4622
4.36169
4.45477
4.37712
4.46486
4.41993
4.45988
4.4867
4.44414
4.6115
4.42879
4.84328
4.4491
5.27115
4.65511
5.58679
4.184
8.59697
7.51888
7.35471
7.32247
73.2892
73.7713
48.543
45.5513
38.3824
29.6965
31.0523
20.7329
24.3209
15.1407
18.1735
11.4003
13.7253
8.60453
9.1813
3.48996
6.29439
1.15784
1.99005
-0.978579
-0.630644
-2.34501
-2.42133
-3.30081
-3.54701
-3.92698
-4.3711
-4.43873
-4.88396
-4.72018
-5.03103
-4.66001
-5.31948
-4.86878
-5.24032
-4.59694
-5.42545
-4.66695
-5.0719
-4.51352
-4.69648
-4.13902
-4.72064
-4.17775
-4.44004
-4.03961
-4.18626
-3.88689
-3.90957
-3.63322
-3.84642
-3.59765
-3.65978
-3.49345
-3.49641
-3.35112
-3.45821
-3.32763
-3.35771
-3.23194
-3.38998
-3.26769
-3.37186
-3.30362
-3.37217
-3.40194
-3.36216
-3.61495
-3.26424
-3.98723
-2.99706
-4.48911
-2.57126
-5.57455
1.32843
-0.77561
-1.13391
-1.21207
-1.23015
-1.23413
73.2713
71.9495
50.5076
45.9505
38.2152
30.9639
29.8548
22.0656
22.9472
16.1794
17.0426
12.1003
12.9628
9.16451
8.64716
4.39673
5.36779
1.56657
1.49629
-0.744046
-0.914207
-2.2371
-2.5619
-3.27071
-3.59664
-3.94005
-4.37027
-4.48338
-4.84847
-4.77099
-4.98855
-4.7621
-5.2207
-4.9385
-5.17849
-4.7545
-5.27271
-4.7582
-4.97287
-4.57641
-4.63378
-4.24821
-4.61108
-4.24133
-4.37095
-4.08484
-4.13716
-3.91437
-3.88132
-3.68042
-3.79825
-3.62126
-3.63298
-3.50738
-3.48173
-3.37525
-3.43356
-3.3405
-3.3447
-3.2588
-3.36302
-3.28444
-3.35298
-3.31075
-3.36116
-3.38527
-3.36994
-3.53931
-3.32113
-3.79429
-3.1593
-4.1264
-2.87354
-4.65165
0.369634
-0.845365
-1.14503
-1.21438
-1.23062
-1.23418
73.3079
70.9346
51.7989
46.4789
38.0308
31.9879
28.9268
23.0537
21.8816
16.9149
16.1459
12.5699
12.3884
9.59478
8.2637
5.09584
4.63313
1.82695
1.09006
-0.591724
-1.15118
-2.16873
-2.6868
-3.25568
-3.64539
-3.94951
-4.38203
-4.5179
-4.83068
-4.81002
-4.96388
-4.83685
-5.15164
-4.98742
-5.14332
-4.87448
-5.16138
-4.82039
-4.8984
-4.62125
-4.58891
-4.32757
-4.53093
-4.28503
-4.31859
-4.11663
-4.09914
-3.93435
-3.85986
-3.71495
-3.76192
-3.63738
-3.61173
-3.51736
-3.47032
-3.39283
-3.415
-3.34951
-3.33532
-3.27808
-3.3434
-3.29533
-3.33855
-3.31418
-3.35121
-3.3702
-3.37036
-3.4792
-3.35038
-3.64571
-3.25748
-3.85252
-3.05458
-4.0007
-0.339653
-0.951659
-1.16526
-1.21871
-1.23149
-1.23429
73.4409
70.5918
52.5392
47.1343
37.7521
32.8945
28.1133
23.8557
20.9696
17.4843
15.3631
12.9052
11.9199
9.96786
7.95489
5.68778
3.99309
2.00529
0.722231
-0.483797
-1.36942
-2.12001
-2.80941
-3.24762
-3.69741
-3.95372
-4.40558
-4.5453
-4.82621
-4.84208
-4.95047
-4.89398
-5.1018
-5.02361
-5.12522
-4.97231
-5.07527
-4.86591
-4.83823
-4.6564
-4.55329
-4.38843
-4.46883
-4.31764
-4.27573
-4.14111
-4.06709
-3.95077
-3.84127
-3.74185
-3.73251
-3.64959
-3.59326
-3.52548
-3.46016
-3.40645
-3.39997
-3.3565
-3.32768
-3.29248
-3.32832
-3.30258
-3.32684
-3.31518
-3.34201
-3.3559
-3.36645
-3.42862
-3.3627
-3.5245
-3.31636
-3.63437
-3.16585
-3.53401
-0.877966
-1.07382
-1.19183
-1.22459
-1.23267
-1.23444
73.6888
70.8583
52.7747
47.9499
37.2936
33.7993
27.28
24.6041
20.0828
18.0003
14.5949
13.1826
11.4909
10.3442
7.65699
6.25748
3.36533
2.15592
0.351709
-0.388372
-1.59282
-2.07354
-2.94191
-3.23897
-3.75706
-3.95005
-4.44158
-4.56703
-4.83234
-4.87046
-4.94368
-4.94057
-5.06345
-5.05267
-5.11735
-5.05997
-5.00171
-4.90423
-4.78429
-4.68846
-4.5202
-4.43954
-4.41605
-4.34593
-4.23662
-4.16321
-4.03677
-3.96697
-3.82232
-3.76519
-3.70607
-3.66076
-3.57528
-3.53353
-3.44956
-3.4182
-3.38643
-3.36291
-3.32031
-3.30404
-3.31573
-3.30783
-3.31658
-3.31464
-3.33333
-3.34174
-3.36049
-3.38317
-3.36592
-3.41811
-3.3542
-3.44768
-3.24364
-3.18827
-1.30217
-1.19905
-1.22176
-1.2314
-1.23404
-1.23462
74.0504
71.7353
52.4802
48.9992
36.5491
34.8256
26.2935
25.4267
19.0989
18.5695
13.7472
13.4715
11.0405
10.7824
7.30783
6.8871
2.67044
2.33048
-0.0612527
-0.27427
-1.84508
-2.0115
-3.09721
-3.22144
-3.8297
-3.9344
-4.4922
-4.58317
-4.84755
-4.89743
-4.93996
-4.98214
-5.03047
-5.07872
-5.11439
-5.14769
-4.92974
-4.94347
-4.72941
-4.72344
-4.48363
-4.48838
-4.36516
-4.37581
-4.1961
-4.18746
-4.00421
-3.98617
-3.79988
-3.78862
-3.6791
-3.67356
-3.55555
-3.54328
-3.43686
-3.42997
-3.37258
-3.37009
-3.31189
-3.31449
-3.30391
-3.31243
-3.30675
-3.31328
-3.32507
-3.32717
-3.35437
-3.33933
-3.36637
-3.31636
-3.38575
-3.2729
-3.31549
-2.91575
-1.65504
-1.31923
-1.25218
-1.23847
-1.23548
-1.23481
74.5045
73.2895
51.5545
50.4069
35.3752
36.1239
25
26.4674
17.8826
19.3101
12.7174
13.8464
10.5029
11.3491
6.83627
7.66832
1.82029
2.58695
-0.561504
-0.105973
-2.15361
-1.91277
-3.29104
-3.18459
-3.92251
-3.90067
-4.56152
-4.59238
-4.87136
-4.9247
-4.93625
-5.02345
-4.99747
-5.10526
-5.11151
-5.24544
-4.84848
-4.9918
-4.66619
-4.76775
-4.43726
-4.54233
-4.3089
-4.41328
-4.14872
-4.21867
-3.96501
-4.01209
-3.77043
-3.81596
-3.64795
-3.69084
-3.53159
-3.55678
-3.42018
-3.44375
-3.35652
-3.37949
-3.30103
-3.32547
-3.29134
-3.31759
-3.29643
-3.31171
-3.3172
-3.3116
-3.34994
-3.2938
-3.36991
-3.20983
-3.42459
-3.0919
-3.40503
-2.67767
-1.97092
-1.42867
-1.28049
-1.24513
-1.23683
-1.235
75.0065
75.6635
49.8043
52.3689
33.5689
37.8959
23.2016
27.909
16.2647
20.3704
11.3777
14.3992
9.79677
12.1293
6.15018
8.71611
0.704998
2.99955
-1.2063
0.162133
-2.55393
-1.74947
-3.54441
-3.1141
-4.04581
-3.8397
-4.65609
-4.59169
-4.9042
-4.95364
-4.92949
-5.06927
-4.95909
-5.13582
-5.10348
-5.36437
-4.74556
-5.05883
-4.58582
-4.82928
-4.37341
-4.60976
-4.23907
-4.46547
-4.08791
-4.26278
-3.91375
-4.04952
-3.72945
-3.85182
-3.60834
-3.71618
-3.50023
-3.57673
-3.39706
-3.46195
-3.33603
-3.39294
-3.28604
-3.33877
-3.27633
-3.32463
-3.28464
-3.31052
-3.30975
-3.29426
-3.34928
-3.24297
-3.38287
-3.0883
-3.48531
-2.88505
-3.53618
-2.43877
-2.28025
-1.52238
-1.30434
-1.25076
-1.23798
-1.23517
75.481
79.0965
46.9156
55.1838
30.8358
40.427
20.6253
30.0029
14.0151
21.953
9.55584
15.2554
8.81192
13.2407
5.12118
10.186
-0.823378
3.67146
-2.07467
0.59313
-3.09548
-1.48252
-3.88705
-2.98933
-4.21478
-3.73794
-4.78597
-4.57597
-4.94758
-4.98551
-4.91615
-5.12503
-4.90916
-5.17468
-5.08363
-5.5184
-4.60526
-5.15723
-4.4767
-4.9187
-4.28179
-4.70138
-4.14527
-4.54173
-4.00493
-4.32778
-3.84303
-4.10513
-3.67071
-3.90225
-3.55462
-3.75442
-3.45712
-3.60689
-3.36413
-3.48776
-3.30821
-3.41292
-3.26465
-3.35667
-3.25688
-3.3352
-3.2702
-3.31038
-3.30289
-3.27408
-3.35506
-3.18227
-3.41319
-2.93907
-3.58589
-2.62813
-3.73728
-2.16234
-2.61359
-1.59456
-1.32167
-1.25483
-1.23882
-1.2353
75.8093
83.9595
42.407
59.3014
26.7431
44.1316
16.8798
33.1093
10.8064
24.3471
7.0083
16.5957
7.39061
14.8526
3.5635
12.2977
-2.9729
4.75217
-3.28028
1.27782
-3.84954
-1.05524
-4.36206
-2.77986
-4.45202
-3.57532
-4.96626
-4.53704
-5.00432
-5.02166
-4.89164
-5.19773
-4.83991
-5.22771
-5.04266
-5.72626
-4.40626
-5.30482
-4.32258
-5.05117
-4.1478
-4.83193
-4.01327
-4.65522
-3.88748
-4.42499
-3.74236
-4.18852
-3.58527
-3.97579
-3.47895
-3.8125
-3.39609
-3.65272
-3.31651
-3.52565
-3.26898
-3.44299
-3.23363
-3.38221
-3.23029
-3.35148
-3.25154
-3.31214
-3.29686
-3.24949
-3.37096
-3.10539
-3.47168
-2.74498
-3.75064
-2.28852
-4.04574
-1.80489
-3.0058
-1.63697
-1.33085
-1.25696
-1.23925
-1.23538
-76.8609
-84.6694
-43.3884
-59.1835
-26.8419
-42.7852
-14.795
-30.875
-7.87755
-22.5027
-4.3774
-14.8678
-5.63726
-13.6525
-2.04234
-11.0986
4.87985
-3.44166
4.76966
-0.591149
4.73776
1.39626
4.77305
2.86696
4.49081
3.42165
4.85615
4.26553
4.8751
4.76585
4.69843
4.91818
4.5991
4.92463
4.73624
5.36381
4.10417
4.96498
4.01325
4.72843
3.85131
4.51698
3.73381
4.35891
3.63179
4.15748
3.52446
3.9477
3.4289
3.73111
3.44438
3.70873
3.20743
3.42524
3.20409
3.31402
3.09137
3.08935
2.90343
2.57444
2.44695
0.728194
3.56615
-0.605878
3.72747
-4.34985
3.72503
-11.1278
2.48383
-21.8023
-1.19856
-32.7322
-13.7563
-40.4077
-39.9819
-50.4453
-52.9284
-53.5375
-53.6842
-53.7168
-76.5472
-79.9138
-47.8206
-55.2555
-30.7596
-39.1615
-18.4085
-27.5709
-11.2347
-19.9389
-7.10181
-13.4568
-7.14299
-11.9819
-3.6675
-8.90845
2.66338
-2.23971
3.45165
0.17398
3.89358
1.87011
4.24299
3.09337
4.23176
3.60451
4.65474
4.33077
4.79098
4.74353
4.70781
4.85598
4.65719
4.87637
4.77246
5.16699
4.29168
4.82019
4.16388
4.59953
3.9822
4.39142
3.86102
4.2494
3.74533
4.06521
3.62092
3.87473
3.50683
3.68839
3.48876
3.64259
3.2756
3.39785
3.23598
3.29218
3.11789
3.09075
2.9153
2.64575
2.43135
1.27797
3.11445
0.344253
2.93317
-2.53145
2.1768
-7.97541
-0.292621
-17.0432
-5.66928
-27.8456
-18.8391
-38.5682
-42.4684
-50.7638
-53.0025
-53.555
-53.6878
-53.7171
-76.0973
-76.5746
-50.6699
-52.6027
-33.3593
-36.7016
-20.8229
-25.2844
-13.5878
-18.2343
-9.05623
-12.5503
-8.20056
-10.8356
-4.7487
-7.38922
1.10731
-1.46032
2.49346
0.660106
3.27987
2.16874
3.85436
3.2287
4.0437
3.72056
4.50853
4.36484
4.72732
4.72086
4.70992
4.80773
4.6986
4.84108
4.78878
5.02099
4.42305
4.72279
4.27083
4.51276
4.07203
4.30345
3.9515
4.17561
3.82595
4.00354
3.68949
3.82667
3.56285
3.66098
3.51907
3.59737
3.32428
3.38193
3.25923
3.27965
3.13862
3.09817
2.93102
2.71493
2.45336
1.70815
2.84695
1.07986
2.46076
-1.12034
1.2225
-5.53702
-2.09248
-13.41
-8.7987
-24.2069
-22.7726
-37.3617
-44.7786
-51.3239
-53.1432
-53.5884
-53.6945
-53.7177
-75.6268
-74.2891
-52.4039
-50.7952
-35.0536
-35.0086
-22.4215
-23.6421
-15.285
-17.0806
-10.5018
-11.9556
-8.97698
-10.0365
-5.47932
-6.31413
-0.00500757
-0.940767
1.76763
0.968856
2.81603
2.35602
3.55862
3.30677
3.90147
3.79243
4.3998
4.37883
4.67854
4.69847
4.70776
4.76781
4.72999
4.8136
4.79373
4.9082
4.51852
4.65547
4.35003
4.45331
4.13499
4.23884
4.01895
4.1248
3.8855
3.96158
3.74006
3.7947
3.60444
3.64323
3.54064
3.56626
3.35981
3.3733
3.27684
3.27366
3.15542
3.11075
2.94878
2.78598
2.49474
2.06295
2.69562
1.68941
2.18659
0.0534759
0.631822
-3.50735
-3.30251
-10.4145
-11.128
-21.2423
-26.0653
-36.4419
-47.1232
-52.0724
-53.3381
-53.6345
-53.7037
-53.7185
-75.2089
-72.8243
-53.3257
-49.5518
-36.1188
-33.8159
-23.4665
-22.3814
-16.5748
-16.2606
-11.6248
-11.5371
-9.59076
-9.46104
-5.9933
-5.52394
-0.826779
-0.566321
1.18265
1.17224
2.44487
2.47714
3.32133
3.35121
3.78758
3.83579
4.31633
4.3801
4.64103
4.67656
4.70361
4.73183
4.75654
4.79028
4.79331
4.81558
4.59292
4.60585
4.41289
4.41072
4.18106
4.18718
4.07338
4.08781
3.93246
3.93154
3.77961
3.77256
3.63691
3.63117
3.55713
3.54449
3.38659
3.36911
3.29078
3.27233
3.16933
3.12807
2.96661
2.86221
2.54176
2.37516
2.60979
2.23871
2.01747
1.1186
0.229545
-1.65183
-4.2203
-7.67544
-13.0816
-18.4895
-29.136
-35.5098
-49.6968
-52.9677
-53.5712
-53.6892
-53.7145
-53.7195
-74.8859
-72.0438
-53.6182
-48.6943
-36.7383
-32.9445
-24.1404
-21.3091
-17.6444
-15.613
-12.5654
-11.1925
-10.1315
-9.01873
-6.38703
-4.90257
-1.47083
-0.251198
0.668227
1.32446
2.12345
2.56588
3.11671
3.37947
3.68928
3.86192
4.24957
4.37351
4.61257
4.65502
4.69942
4.69601
4.78273
4.76819
4.79213
4.73276
4.6579
4.56447
4.46811
4.37723
4.21771
4.14032
4.12269
4.05762
3.97324
3.90755
3.81338
3.75557
3.66419
3.62187
3.57117
3.52854
3.40777
3.36738
3.30234
3.2744
3.18078
3.15021
2.98218
2.94708
2.58263
2.67132
2.54816
2.78198
1.87539
2.18323
-0.133158
0.231034
-5.10277
-4.85848
-15.0352
-15.5273
-32.3775
-34.2651
-52.7068
-53.9696
-53.8236
-53.7474
-53.7258
-53.7206
-74.6768
-71.887
-53.3708
-48.1185
-37.0317
-32.274
-24.5759
-20.2706
-18.649
-15.0064
-13.4394
-10.8358
-10.6746
-8.63753
-6.73518
-4.35939
-2.02666
0.0757045
0.164135
1.47081
1.81616
2.65018
2.92351
3.40576
3.5964
3.87939
4.19332
4.36227
4.59194
4.63337
4.69713
4.65656
4.81297
4.74455
4.79428
4.65056
4.72363
4.5232
4.52312
4.34648
4.25107
4.09107
4.1739
4.0282
4.01328
3.8847
3.84568
3.73992
3.6895
3.61288
3.58487
3.51571
3.42572
3.36663
3.31239
3.27909
3.1897
3.17784
2.99241
3.04512
2.60537
2.97594
2.47225
3.37088
1.68476
3.35289
-0.603013
2.34191
-6.20826
-1.62456
-17.3761
-11.9106
-36.2175
-32.3582
-56.4041
-55.0279
-54.0733
-53.8036
-53.7367
-53.7217
-74.5799
-72.3602
-52.594
-47.777
-37.073
-31.7223
-24.8768
-19.1261
-19.7358
-14.3181
-14.3561
-10.3825
-11.2939
-8.25194
-7.10319
-3.81531
-2.57401
0.482519
-0.389242
1.65513
1.48892
2.75656
2.72167
3.44348
3.49963
3.89546
4.14273
4.34851
4.57876
4.61076
4.69897
4.60921
4.85218
4.71617
4.80415
4.55968
4.80028
4.47392
4.58519
4.31248
4.28701
4.0321
4.23424
3.99353
4.05784
3.85824
3.88063
3.72203
3.71582
3.60192
3.60019
3.50367
3.44239
3.36563
3.32157
3.28597
3.19547
3.21236
2.99307
3.16282
2.59566
3.31553
2.34029
4.06324
1.36009
4.74769
-1.34865
4.91291
-7.83872
2.42319
-20.5653
-7.1028
-41.184
-29.3351
-61.1185
-56.0698
-54.296
-53.8521
-53.7461
-53.7228
-74.573
-73.5369
-51.2207
-47.6727
-36.902
-31.2322
-25.136
-17.7291
-21.0657
-13.4135
-15.4351
-9.73561
-12.073
-7.79216
-7.55819
-3.19066
-3.19511
1.04547
-1.06012
1.92715
1.10372
2.91453
2.48913
3.50748
3.38898
3.91722
4.0936
4.3336
4.57338
4.5858
4.70785
4.54849
4.90651
4.6788
4.82731
4.44938
4.89961
4.40712
4.66261
4.26859
4.33212
3.95484
4.31227
3.94664
4.11294
3.82287
3.92278
3.698
3.7464
3.58642
3.61924
3.49015
3.45961
3.36325
3.33032
3.29496
3.19686
3.25625
2.9781
3.30993
2.53444
3.72292
2.10044
4.93276
0.791984
6.52215
-2.58821
8.24495
-10.3891
7.80158
-25.2119
-0.392767
-47.9874
-24.5669
-67.3065
-56.9812
-54.4663
-53.8879
-53.7529
-53.7236
-74.609
-75.5666
-49.0985
-47.8593
-36.5291
-30.7615
-25.4499
-15.9047
-22.8375
-12.1242
-16.8252
-8.76932
-13.1187
-7.17232
-8.18018
-2.39262
-3.98733
1.86111
-1.9357
2.35076
0.612435
3.16136
2.19836
3.61653
3.25211
3.95277
4.04169
4.31851
4.57695
4.55636
4.72791
4.46701
4.98422
4.62636
4.8715
4.30595
5.03664
4.31041
4.766
4.20639
4.39486
3.84818
4.41921
3.87845
4.18626
3.77187
3.97787
3.66299
3.78527
3.56314
3.64469
3.47262
3.47938
3.35824
3.33909
3.30637
3.19186
3.31355
2.93864
3.50127
2.39462
4.24276
1.68248
6.08136
-0.170709
8.89059
-4.62502
12.7563
-14.4118
15.2289
-32.1712
9.21431
-57.6314
-17.1524
-75.6177
-57.5808
-54.5599
-53.9069
-53.7563
-53.7241
9.8734
6.47074
10.6832
3.76912
5.04451
-0.131361
0.620036
-2.85123
-1.28086
-3.87164
-3.67413
-4.77689
-4.85982
-5.29838
-5.73386
-5.70955
-6.36131
-5.84467
-7.01237
-6.32052
-7.05804
-6.4759
-7.00378
-6.52881
-6.87267
-6.22763
-6.79016
-5.85225
-6.89263
-6.0804
-6.45224
-5.7885
-6.70241
-6.03669
-6.56144
-5.91042
-6.2271
-5.65983
-5.87528
-5.50007
-5.63414
-5.22511
-5.58523
-5.15835
-5.30913
-5.03396
-5.10593
-4.92754
-4.9346
-4.79458
-4.91567
-4.77942
-4.82204
-4.71689
-4.74865
-4.70885
-4.69117
-4.80092
-4.6102
-5.25109
-3.87825
-5.63322
-2.6294
-6.50197
0.213547
-7.5276
5.71012
-8.19419
15.5712
-6.65872
31.0975
0.479877
51.7254
17.2204
70.2417
22.2955
149.52
117.93
113.104
112.152
10.0105
7.59368
9.70331
4.59244
4.15379
0.227067
0.194999
-2.36143
-1.80481
-3.7247
-3.87993
-4.72893
-4.93398
-5.31148
-5.73909
-5.7945
-6.29602
-6.01138
-6.85278
-6.43688
-6.9375
-6.56667
-6.90898
-6.59849
-6.81008
-6.3665
-6.66331
-6.03211
-6.70807
-6.16651
-6.36053
-5.92874
-6.5626
-6.13846
-6.45941
-6.00473
-6.12975
-5.71934
-5.80839
-5.54009
-5.59576
-5.30826
-5.50306
-5.20104
-5.26063
-5.06036
-5.07589
-4.94176
-4.91906
-4.81828
-4.89201
-4.79599
-4.80441
-4.72653
-4.73656
-4.70547
-4.68875
-4.75715
-4.63298
-5.02386
-4.06131
-5.13086
-3.04775
-5.4083
-0.726592
-5.42105
3.84806
-4.52331
12.2301
-1.02503
25.7948
7.78605
44.5688
24.6667
63.3259
37.7323
133.421
116.855
112.944
112.109
10.2454
8.53689
9.01345
5.22996
3.40354
0.430521
-0.12838
-1.99559
-2.22925
-3.64799
-4.05772
-4.70652
-5.00109
-5.32246
-5.75915
-5.86158
-6.2622
-6.13309
-6.74356
-6.51667
-6.85192
-6.62905
-6.84041
-6.64743
-6.77383
-6.47591
-6.57373
-6.15983
-6.57238
-6.22336
-6.29401
-6.0265
-6.46526
-6.21058
-6.38856
-6.07602
-6.05396
-5.75902
-5.75593
-5.5673
-5.57124
-5.37225
-5.4409
-5.22938
-5.22265
-5.07824
-5.05194
-4.95164
-4.90674
-4.8351
-4.87524
-4.80847
-4.79033
-4.73274
-4.72622
-4.70161
-4.68303
-4.72119
-4.6353
-4.85095
-4.16332
-4.75492
-3.28877
-4.59688
-1.2924
-3.87396
2.69045
-1.85888
10.0876
3.00351
22.2826
12.8977
39.6764
29.767
58.9766
48.314
121.808
115.27
112.658
112.03
10.5497
9.39383
8.49503
5.79011
2.69996
0.538095
-0.398852
-1.69462
-2.60591
-3.61135
-4.22572
-4.69811
-5.06701
-5.32875
-5.79253
-5.91672
-6.24957
-6.22526
-6.66789
-6.57406
-6.78877
-6.67416
-6.78814
-6.68371
-6.75469
-6.56962
-6.50475
-6.25464
-6.4673
-6.26357
-6.24116
-6.09617
-6.3958
-6.26553
-6.33748
-6.13582
-5.98923
-5.78716
-5.71103
-5.58693
-5.55497
-5.42565
-5.39006
-5.24963
-5.19028
-5.0915
-5.03105
-4.95938
-4.89558
-4.84754
-4.86282
-4.81908
-4.7779
-4.73699
-4.71667
-4.69759
-4.67513
-4.6903
-4.62568
-4.71433
-4.21438
-4.46158
-3.4192
-3.97045
-1.62342
-2.69356
1.97632
0.144389
8.70475
5.97561
19.9149
16.5603
36.2487
33.2996
56.219
55.526
113.393
113.525
112.288
111.922
10.9009
10.2412
8.04951
6.36627
1.95976
0.597108
-0.654608
-1.40873
-2.97857
-3.59018
-4.39926
-4.69374
-5.13713
-5.32691
-5.83946
-5.9635
-6.25125
-6.29879
-6.61373
-6.61917
-6.73885
-6.7102
-6.74468
-6.71305
-6.74587
-6.65861
-6.44328
-6.33102
-6.37896
-6.29661
-6.19331
-6.14813
-6.34363
-6.31249
-6.29742
-6.1935
-5.9268
-5.81034
-5.66813
-5.60296
-5.54266
-5.47538
-5.34349
-5.26671
-5.15955
-5.10329
-5.01067
-4.96687
-4.88384
-4.8575
-4.85282
-4.82964
-4.7655
-4.74047
-4.70712
-4.69375
-4.66579
-4.66266
-4.61001
-4.60136
-4.2357
-4.22
-3.48614
-3.4603
-1.81819
-1.74331
1.52156
1.73109
7.77239
8.27971
18.2374
19.2996
33.7247
35.7955
54.4038
60.3934
107.285
111.831
111.881
111.798
11.2789
11.1501
7.58387
7.05155
1.09797
0.651826
-0.93015
-1.09012
-3.38948
-3.56105
-4.59334
-4.68338
-5.21738
-5.31215
-5.90193
-6.00374
-6.26254
-6.36163
-6.57196
-6.65973
-6.69489
-6.74374
-6.70389
-6.73985
-6.74188
-6.75275
-6.37771
-6.40103
-6.29586
-6.33053
-6.14317
-6.19051
-6.30056
-6.35883
-6.26095
-6.25773
-5.85838
-5.83459
-5.62217
-5.61881
-5.53066
-5.52772
-5.29473
-5.28504
-5.12681
-5.11655
-4.98836
-4.97595
-4.86986
-4.86661
-4.84357
-4.84186
-4.75157
-4.74429
-4.69679
-4.69052
-4.65547
-4.63703
-4.59262
-4.50272
-4.24307
-4.00723
-3.52486
-3.01492
-1.95044
-0.920881
1.18874
3.08419
7.06098
10.2053
16.9151
21.5037
31.6942
37.6292
53.0926
63.624
102.87
110.317
111.479
111.67
11.6618
12.1962
6.99667
7.95348
0.0157088
0.751823
-1.2627
-0.686041
-3.8856
-3.49755
-4.82517
-4.65531
-5.31522
-5.2776
-5.98393
-6.0377
-6.28022
-6.42002
-6.53509
-6.70238
-6.65037
-6.78081
-6.66004
-6.76798
-6.73751
-6.8623
-6.29618
-6.47616
-6.20714
-6.3733
-6.08361
-6.23034
-6.25953
-6.4114
-6.22066
-6.33777
-5.77492
-5.86635
-5.56783
-5.63804
-5.51522
-5.58924
-5.23702
-5.30928
-5.08813
-5.13451
-4.96139
-4.98876
-4.85174
-4.8765
-4.83345
-4.85761
-4.73429
-4.74971
-4.68479
-4.68843
-4.64447
-4.61243
-4.57703
-4.41084
-4.24946
-3.80428
-3.56463
-2.59165
-2.08119
-0.14152
0.864653
4.35424
6.38314
11.9886
15.6782
23.4842
29.8344
39.0823
51.9792
65.7067
99.727
109.055
111.116
111.551
12.0229
13.471
6.16259
9.21062
-1.41401
0.961413
-1.69927
-0.131215
-4.52546
-3.36562
-5.11704
-4.59415
-5.44105
-5.21336
-6.09206
-6.06414
-6.30201
-6.47937
-6.49609
-6.75376
-6.59849
-6.82786
-6.60698
-6.80158
-6.72686
-6.99941
-6.18472
-6.56916
-6.10094
-6.43422
-6.00651
-6.2748
-6.21351
-6.47758
-6.16798
-6.44493
-5.66521
-5.91363
-5.49866
-5.66491
-5.49185
-5.66774
-5.16227
-5.34519
-5.03868
-5.16119
-4.92635
-5.00809
-4.8271
-4.88904
-4.8206
-4.8792
-4.71142
-4.75829
-4.67001
-4.68819
-4.63295
-4.5879
-4.5666
-4.31868
-4.26709
-3.59295
-3.63352
-2.1496
-2.26875
0.675642
0.44182
5.68346
5.56314
13.8497
14.2778
25.5244
27.8603
40.3913
50.8345
66.9796
97.5742
108.086
110.82
111.451
12.3252
15.095
4.91327
11.0138
-3.36452
1.37178
-2.30554
0.661641
-5.38786
-3.11753
-5.50011
-4.47836
-5.60999
-5.10494
-6.23652
-6.07996
-6.32621
-6.54512
-6.4474
-6.82157
-6.53114
-6.89282
-6.53719
-6.84583
-6.7022
-7.17989
-6.02518
-6.69613
-5.96254
-6.52545
-5.90143
-6.3323
-6.15434
-6.56658
-6.09171
-6.59423
-5.51425
-5.98733
-5.40612
-5.70524
-5.45439
-5.77338
-5.05987
-5.40058
-4.97198
-5.20208
-4.87856
-5.03784
-4.79266
-4.90672
-4.80259
-4.90978
-4.67989
-4.77222
-4.6509
-4.69081
-4.62093
-4.56232
-4.56512
-4.21852
-4.30943
-3.35278
-3.76306
-1.643
-2.57829
1.62067
-0.199093
7.22834
4.4083
16.0268
12.4467
27.9233
25.481
41.7864
49.4647
67.6777
96.2279
107.432
110.612
111.38
12.5156
17.2358
3.01153
13.6351
-6.0805
2.11793
-3.17824
1.81463
-6.58347
-2.68366
-6.0196
-4.27664
-5.84453
-4.93116
-6.43256
-6.07969
-6.35149
-6.62349
-6.37976
-6.91589
-6.43759
-6.98636
-6.44071
-6.90805
-6.65255
-7.42552
-5.79246
-6.87914
-5.77212
-6.664
-5.754
-6.414
-6.07141
-6.69091
-5.9762
-6.80668
-5.30103
-6.10306
-5.27823
-5.76742
-5.39402
-5.92019
-4.91518
-5.48662
-4.87882
-5.26499
-4.81135
-5.08367
-4.74375
-4.93304
-4.77604
-4.95375
-4.63539
-4.7946
-4.62525
-4.69774
-4.60837
-4.53418
-4.57749
-4.10069
-4.39345
-3.05764
-3.99341
-1.01366
-3.0925
2.80733
-1.20877
9.18451
2.67764
18.8138
9.85572
31.0416
22.3548
43.53
47.677
67.9659
95.5794
107.102
110.504
111.343
)
;

boundaryField
{
    F1_1
    {
        type            calculated;
        value           nonuniform List<scalar> 
80
(
82.2709
-38.4337
-9.60691
-8.5449
2.0827
-3.26733
4.70954
0.227159
5.80301
2.62518
6.1816
4.23739
5.98759
4.77176
6.5064
5.83963
6.40108
6.41187
6.24318
6.63487
6.17357
6.71162
6.13522
6.62786
6.33224
6.86042
6.17506
7.23839
5.2373
6.5127
5.18375
6.19507
5.18656
5.9576
5.48169
6.40871
4.77428
5.85409
4.80864
5.58948
4.74007
5.37323
4.69134
5.21493
4.65426
5.04223
4.61503
4.86704
4.63785
4.82295
4.50996
4.64726
4.49515
4.55149
4.46732
4.46378
4.4737
4.4395
4.42842
4.37364
4.42262
4.30134
4.52484
4.38598
4.52652
4.44413
4.54724
4.53843
4.59332
4.70145
4.68069
4.94048
4.90255
5.33605
5.2217
5.84795
6.76057
7.15199
7.26912
7.298
)
;
    }
    F1_2
    {
        type            calculated;
        value           nonuniform List<scalar> 
80
(
75.9189
86.8045
39.6754
61.7534
24.2923
46.3389
14.6567
34.9689
8.91393
25.7897
5.51724
17.4137
6.54749
15.8087
2.62492
13.5463
-4.23352
5.41695
-3.98424
1.69705
-4.29027
-0.793094
-4.63906
-2.64941
-4.59109
-3.4758
-5.07126
-4.51053
-5.03648
-5.04098
-4.87594
-5.2393
-4.79935
-5.25864
-5.01552
-5.84635
-4.28899
-5.39354
-4.23188
-5.13041
-4.06806
-4.9091
-3.93565
-4.72322
-3.81832
-4.48333
-3.68298
-4.23858
-3.53455
-4.01959
-3.43447
-3.84752
-3.36018
-3.68035
-3.2883
-3.54828
-3.24592
-3.46107
-3.21523
-3.39734
-3.21482
-3.36136
-3.24093
-3.3136
-3.29409
-3.23586
-3.38199
-3.06199
-3.50955
-2.63422
-3.85258
-2.0933
-4.23223
-1.59988
-3.22137
-1.6495
-1.33322
-1.2575
-1.23935
-1.2354
)
;
    }
    F1_3
    {
        type            calculated;
        value           nonuniform List<scalar> 
80
(
-76.9662
-87.4561
-40.706
-61.5311
-24.4917
-44.9475
-12.6315
-32.8364
-5.89677
-24.045
-2.78435
-15.728
-4.74774
-14.6451
-1.06508
-12.3949
6.18506
-4.17231
5.53731
-1.05845
5.22934
1.10611
5.08058
2.72597
4.64181
3.31018
4.9733
4.22345
4.92312
4.77681
4.69149
4.95356
4.56494
4.95275
4.71187
5.47747
3.99344
5.05177
3.92468
4.80559
3.77351
4.59124
3.65902
4.42446
3.56505
4.21287
3.46781
3.99172
3.38335
3.75713
3.41788
3.74803
3.16754
3.44241
3.18554
3.32768
3.07637
3.0903
2.89868
2.53768
2.46679
0.41698
3.84792
-1.14743
4.22298
-5.38544
4.68084