/*--------------------------------*- C++ -*----------------------------------*\
| =========                 |                                                 |
| \\      /  F ield         | OpenFOAM: The Open Source CFD Toolbox           |
|  \\    /   O peration     | Version:  5.x                                   |
|   \\  /    A nd           | Web:      www.OpenFOAM.org                      |
|    \\/     M anipulation  |                                                 |
\*---------------------------------------------------------------------------*/
FoamFile
{
    version     2.0;
    format      ascii;
    class       volScalarField;
    location    "0.4";
    object      T;
}
// * * * * * * * * * * * * * * * * * * * * * * * * * * * * * * * * * * * * * //

dimensions      [0 0 0 1 0 0 0];

internalField   nonuniform List<scalar> 
3200
(
0.411355
4.22338
4.41816
4.42347
4.08061
4.05386
3.75837
3.73596
3.52196
3.50608
3.36652
3.3568
3.28425
3.27817
3.21536
3.21202
3.19415
3.1942
3.20532
3.20728
3.23062
3.23331
3.26056
3.26303
3.28114
3.28378
3.31583
3.32115
3.40036
3.40674
3.46275
3.4678
3.51433
3.51818
3.54519
3.54983
3.61622
3.62162
3.66713
3.67104
3.70653
3.70969
3.73964
3.74226
3.76588
3.76782
3.78514
3.7864
3.79604
3.79696
3.80813
3.80882
3.81412
3.8144
3.81671
3.81669
3.81552
3.81535
3.81448
3.81421
3.81101
3.81041
3.80153
3.80084
3.79501
3.7946
3.79118
3.79114
3.79133
3.79187
3.79774
3.79903
3.81003
3.8122
3.8305
3.83363
3.8382
3.84015
3.84074
3.84088
1.08159
3.98374
4.32968
4.35196
4.0888
4.03194
3.79454
3.7459
3.57207
3.53728
3.42315
3.40169
3.34147
3.32816
3.27804
3.271
3.25745
3.25788
3.26812
3.27277
3.29318
3.29944
3.32291
3.32868
3.34508
3.35121
3.37865
3.39057
3.45565
3.46988
3.51662
3.5281
3.5679
3.57683
3.60091
3.61145
3.6664
3.67855
3.71688
3.72567
3.75522
3.76235
3.78765
3.79357
3.81329
3.81763
3.83193
3.83474
3.84277
3.84478
3.85365
3.85511
3.85927
3.85983
3.86148
3.86138
3.86022
3.85977
3.85874
3.85806
3.85514
3.85375
3.84645
3.8449
3.84006
3.83916
3.83652
3.83651
3.83725
3.83868
3.84473
3.84805
3.85941
3.86491
3.88333
3.89206
3.90591
3.91173
3.91345
3.91387
1.63574
3.84635
4.25415
4.29187
4.08874
4.01725
3.82318
3.76085
3.61663
3.57166
3.47607
3.44813
3.39682
3.37963
3.33901
3.33024
3.32018
3.32117
3.33114
3.33764
3.35631
3.36489
3.38596
3.39391
3.40943
3.41779
3.44209
3.45787
3.51297
3.53172
3.57191
3.58725
3.62271
3.63488
3.65716
3.67128
3.7183
3.73444
3.76782
3.77947
3.80481
3.81429
3.83643
3.84433
3.86132
3.86704
3.87919
3.88286
3.88973
3.89233
3.89947
3.90129
3.90457
3.90522
3.90632
3.90611
3.90489
3.90422
3.90299
3.90201
3.8992
3.89733
3.89114
3.8891
3.88495
3.88379
3.88176
3.88186
3.88315
3.88529
3.89183
3.89675
3.90902
3.91711
3.93654
3.95027
3.97394
3.98347
3.98621
3.98687
2.10149
3.78111
4.19345
4.24143
4.08344
4.00748
3.84656
3.77909
3.65722
3.60807
3.5263
3.49552
3.45081
3.43203
3.3987
3.38954
3.38248
3.38409
3.39431
3.40201
3.41984
3.42983
3.44953
3.45883
3.47407
3.48372
3.50587
3.5236
3.57174
3.5927
3.62818
3.6456
3.67844
3.69251
3.71373
3.72981
3.77142
3.78964
3.81962
3.83272
3.85503
3.86572
3.88578
3.89472
3.90979
3.91619
3.92678
3.93086
3.93687
3.9397
3.9455
3.94741
3.94997
3.9506
3.95121
3.95088
3.94953
3.94869
3.94723
3.94603
3.94323
3.94109
3.93567
3.93339
3.92972
3.92846
3.92691
3.92716
3.92901
3.93174
3.93899
3.94515
3.95881
3.96886
3.98998
4.0081
4.04254
4.05548
4.05905
4.0599
2.50008
3.76658
4.14735
4.19926
4.07488
4.00113
3.86622
3.79952
3.69492
3.6458
3.57449
3.54348
3.50376
3.48503
3.45744
3.44876
3.44443
3.44668
3.45757
3.46599
3.48368
3.49439
3.51352
3.52351
3.53893
3.54916
3.56982
3.58811
3.6316
3.6531
3.68518
3.70334
3.73493
3.74986
3.77051
3.78731
3.82548
3.84437
3.87209
3.8856
3.90572
3.91677
3.93558
3.94487
3.95862
3.96517
3.97463
3.97879
3.98414
3.98694
3.99169
3.99351
3.99545
3.99598
3.99614
3.99569
3.99417
3.99319
3.99146
3.99011
3.98723
3.98498
3.98008
3.97773
3.9744
3.97314
3.97199
3.9724
3.97483
3.978
3.9862
3.99326
4.00874
4.02017
4.04354
4.06526
4.11199
4.12786
4.132
4.13296
2.84803
3.78752
4.11443
4.16417
4.06432
3.99725
3.88317
3.82149
3.73042
3.68443
3.62109
3.59179
3.55589
3.53839
3.51542
3.5078
3.50613
3.50892
3.52093
3.52959
3.54781
3.55861
3.57788
3.58798
3.604
3.61417
3.63387
3.65161
3.69233
3.71307
3.74274
3.76053
3.79207
3.80698
3.82745
3.84395
3.88031
3.89874
3.92513
3.93822
3.95677
3.96751
3.98575
3.99484
4.00773
4.01404
4.0227
4.02666
4.03151
4.03412
4.03799
4.03961
4.04099
4.04137
4.04109
4.04054
4.03878
4.03772
4.03568
4.03426
4.03121
4.02898
4.02439
4.02211
4.019
4.01782
4.01701
4.01756
4.02064
4.02407
4.03346
4.04103
4.05883
4.071
4.09717
4.12143
4.18268
4.20072
4.20508
4.20606
3.15843
3.83299
4.09264
4.1351
4.05248
3.99528
3.89804
3.84465
3.76413
3.72377
3.66634
3.64037
3.6073
3.59198
3.5728
3.56662
3.56765
3.5708
3.58443
3.59281
3.61222
3.62249
3.6426
3.6522
3.6693
3.6788
3.69799
3.71419
3.75386
3.77269
3.80076
3.81717
3.84989
3.86387
3.88454
3.89979
3.93586
3.95279
3.9787
3.99062
4.00814
4.01794
4.0363
4.04465
4.0571
4.06282
4.07095
4.0745
4.07898
4.08124
4.08439
4.08572
4.08657
4.08679
4.08606
4.08545
4.08336
4.08229
4.07988
4.07847
4.07515
4.07308
4.0686
4.06653
4.06353
4.06249
4.06197
4.06263
4.06642
4.0699
4.0808
4.0884
4.10915
4.12127
4.15088
4.17612
4.2551
4.27412
4.2783
4.2792
3.44187
3.89508
4.07955
4.11105
4.03964
3.99492
3.91118
3.86891
3.79625
3.76381
3.71034
3.68925
3.658
3.64572
3.62966
3.62515
3.62908
3.63226
3.64814
3.65559
3.67701
3.68597
3.70774
3.71613
3.7349
3.74305
3.76223
3.77583
3.81622
3.83193
3.85925
3.87316
3.90844
3.9205
3.94184
3.9548
3.99217
4.00648
4.03283
4.04279
4.0598
4.06804
4.08724
4.09431
4.10674
4.11149
4.11939
4.12231
4.12653
4.12832
4.13086
4.13184
4.13218
4.13226
4.13103
4.13042
4.12791
4.12692
4.12404
4.12277
4.11906
4.11727
4.11272
4.11099
4.10798
4.10715
4.1069
4.10757
4.11223
4.11544
4.12827
4.13524
4.15981
4.17084
4.20476
4.22867
4.32992
4.34811
4.35164
4.35237
3.70721
3.96795
4.07261
4.09114
4.02575
3.99615
3.92268
3.8944
3.82677
3.8047
3.75306
3.73855
3.70795
3.69963
3.68607
3.68335
3.69055
3.69321
3.71219
3.71781
3.74229
3.74894
3.77342
3.77964
3.80093
3.80685
3.82669
3.83639
3.87957
3.89071
3.91827
3.92829
3.96793
3.97675
3.99948
4.00883
4.0494
4.05969
4.08761
4.09468
4.11183
4.1177
4.13866
4.14375
4.1567
4.16005
4.16803
4.17006
4.17418
4.17538
4.17739
4.178
4.1778
4.17777
4.17597
4.17547
4.1724
4.17162
4.16813
4.16716
4.16288
4.16158
4.15674
4.1555
4.15235
4.15178
4.15179
4.15235
4.15809
4.1606
4.17597
4.18138
4.21102
4.2195
4.25904
4.27812
4.40806
4.42269
4.4251
4.42558
3.96213
4.04707
4.06913
4.0746
4.01045
3.99914
3.93237
3.92147
3.85548
3.84678
3.7943
3.78849
3.75701
3.75374
3.74204
3.74115
3.7522
3.75351
3.77677
3.77928
3.80829
3.8112
3.83983
3.84254
3.86757
3.87009
3.89156
3.89562
3.9442
3.94882
3.978
3.98223
4.02865
4.03244
4.05765
4.06162
4.10785
4.11219
4.14323
4.14616
4.1643
4.16675
4.19073
4.19287
4.20703
4.20841
4.21691
4.21773
4.22194
4.22241
4.22398
4.22419
4.22341
4.22336
4.22086
4.22062
4.21679
4.21644
4.21213
4.21169
4.20659
4.20603
4.20061
4.20009
4.19661
4.19638
4.19665
4.19693
4.20409
4.20524
4.22408
4.22655
4.26308
4.26692
4.31415
4.32313
4.49082
4.49776
4.49863
4.4988
6.51454
6.52254
7.09791
7.08799
6.99589
6.94846
6.54553
6.48663
6.04069
5.98779
5.62796
5.58878
5.3392
5.30978
5.11928
5.08665
4.79456
4.765
4.61015
4.59321
4.50481
4.49512
4.4522
4.44732
4.43252
4.43053
4.4322
4.43201
4.4445
4.44558
4.46119
4.46348
4.4954
4.49816
4.52153
4.52539
4.57443
4.57895
4.61078
4.61404
4.63586
4.63915
4.67427
4.67749
4.69972
4.70205
4.7178
4.71952
4.72931
4.73092
4.74625
4.74771
4.75625
4.7572
4.76226
4.7631
4.77097
4.77173
4.77632
4.77707
4.78567
4.78641
4.79223
4.79265
4.7954
4.79524
4.79064
4.78914
4.76634
4.76199
4.70262
4.69361
4.58041
4.56174
4.27195
4.25877
4.25688
4.25648
4.25639
4.25637
7.24727
7.24891
7.59505
7.54515
7.37883
7.25254
6.84918
6.7017
6.27605
6.14534
5.80328
5.707
5.47205
5.39905
5.20794
5.12674
4.85226
4.77909
4.6273
4.58486
4.49694
4.47234
4.42723
4.41451
4.3968
4.39119
4.38853
4.38737
4.39589
4.39808
4.41115
4.41628
4.44279
4.44906
4.46951
4.47852
4.52107
4.53173
4.56063
4.56854
4.58927
4.59713
4.6277
4.63534
4.65571
4.66139
4.67622
4.68049
4.69038
4.69431
4.70807
4.71159
4.7198
4.72218
4.72738
4.72945
4.73653
4.73838
4.74282
4.74459
4.75193
4.75363
4.75862
4.75957
4.76174
4.76131
4.75696
4.75341
4.73332
4.72321
4.67164
4.6508
4.5528
4.51141
4.2797
4.25079
4.24551
4.24435
4.24409
4.24403
7.97996
7.96153
8.10806
8.007
7.7602
7.56774
7.14263
6.92794
6.49964
6.31138
5.96881
5.83079
5.59845
5.49307
5.29222
5.17458
4.90192
4.79633
4.64008
4.57833
4.48653
4.45038
4.40096
4.38191
4.36059
4.35173
4.3448
4.34234
4.34753
4.35016
4.36142
4.36823
4.39099
4.39939
4.41796
4.4303
4.46898
4.48378
4.51132
4.52251
4.54319
4.55419
4.58205
4.59267
4.6123
4.62035
4.63506
4.64123
4.65169
4.65731
4.67029
4.67528
4.68359
4.68705
4.69263
4.69559
4.7023
4.70492
4.70943
4.71189
4.71841
4.72072
4.72517
4.72644
4.72818
4.72753
4.72324
4.71835
4.69991
4.6861
4.63943
4.61108
4.52294
4.4687
4.27934
4.24187
4.23398
4.23219
4.23178
4.23168
8.71343
8.6676
8.63103
8.47472
8.13945
7.8923
7.42772
7.16278
6.71368
6.48364
6.1262
5.95839
5.71982
5.59095
5.37321
5.22866
4.94492
4.81562
4.6491
4.57303
4.47391
4.42896
4.37349
4.3494
4.32389
4.3122
4.30089
4.29701
4.29927
4.30188
4.31187
4.31955
4.33976
4.34931
4.36665
4.38103
4.41784
4.43532
4.46266
4.47611
4.49749
4.51058
4.53708
4.54964
4.56934
4.57905
4.59424
4.6018
4.61318
4.62001
4.63283
4.63884
4.64757
4.65183
4.65797
4.66159
4.66823
4.67139
4.67612
4.67903
4.68506
4.68773
4.69185
4.69328
4.69471
4.6939
4.68955
4.68383
4.66632
4.6503
4.60649
4.57375
4.49171
4.4314
4.27291
4.23176
4.22221
4.21998
4.21946
4.21934
9.44878
9.37337
9.15885
8.94968
8.51524
8.22563
7.7049
7.40505
6.91903
6.66107
6.27607
6.08889
5.83685
5.69243
5.45132
5.28834
4.98178
4.83644
4.65452
4.56866
4.45914
4.40798
4.34477
4.31696
4.28664
4.27266
4.25669
4.25144
4.251
4.25332
4.26241
4.27035
4.28895
4.29891
4.31545
4.33086
4.36747
4.38646
4.41456
4.42939
4.45212
4.46642
4.49267
4.50631
4.52678
4.53753
4.55372
4.56222
4.57486
4.58247
4.59564
4.60229
4.61172
4.61654
4.62342
4.62747
4.6343
4.63779
4.64288
4.64604
4.65184
4.65467
4.65864
4.66013
4.66134
4.66041
4.65592
4.64978
4.63266
4.61561
4.5731
4.5384
4.45962
4.39802
4.26178
4.22039
4.21015
4.2077
4.20712
4.207
10.1872
10.0848
9.68652
9.43372
8.88532
8.56829
7.97332
7.65486
7.11534
6.84365
6.4181
6.22205
5.94964
5.79783
5.52635
5.35381
5.01222
4.85874
4.65613
4.56526
4.44206
4.38749
4.31465
4.28462
4.24875
4.2332
4.21206
4.20567
4.20263
4.20447
4.213
4.22073
4.23849
4.24825
4.2643
4.27983
4.31781
4.33724
4.36698
4.38234
4.40709
4.42179
4.44876
4.46272
4.48461
4.49579
4.5135
4.52246
4.53674
4.54471
4.55871
4.56563
4.57606
4.58116
4.58898
4.59323
4.6005
4.60413
4.60971
4.61295
4.61874
4.62157
4.62552
4.62699
4.62805
4.62707
4.62234
4.61616
4.599
4.58194
4.53941
4.5048
4.42684
4.36763
4.24686
4.20778
4.19777
4.19535
4.19477
4.19465
10.9298
10.8081
10.2085
9.92966
9.24622
8.92214
8.23077
7.91359
7.30101
7.03246
6.55102
6.35832
6.05766
5.90808
5.59748
5.42608
5.03519
4.88305
4.6533
4.56317
4.42224
4.36775
4.28283
4.25253
4.21005
4.19397
4.16684
4.15977
4.15405
4.15537
4.16361
4.17071
4.18834
4.19734
4.21317
4.2279
4.26888
4.28759
4.31997
4.33492
4.36245
4.37665
4.40537
4.4188
4.44286
4.45378
4.47363
4.48249
4.49886
4.5067
4.52206
4.52882
4.54061
4.54567
4.55469
4.55887
4.56685
4.57039
4.57664
4.57975
4.58576
4.58842
4.5925
4.59387
4.59484
4.59387
4.58883
4.58299
4.56533
4.54928
4.50539
4.47294
4.39331
4.33971
4.22868
4.194
4.1851
4.18293
4.18241
4.1823
11.6773
11.5506
10.7176
10.4419
9.59282
9.29076
8.47332
8.18421
7.47299
7.22985
6.67245
6.49897
6.15969
6.02481
5.66308
5.50717
5.04863
4.91048
4.6449
4.56314
4.39898
4.34924
4.24883
4.22093
4.1703
4.15519
4.12083
4.11382
4.1052
4.10598
4.11427
4.12027
4.13854
4.14615
4.16207
4.17492
4.22084
4.2374
4.27365
4.28699
4.31834
4.33094
4.36258
4.37445
4.40163
4.41142
4.4342
4.44222
4.46133
4.46839
4.48575
4.49181
4.50543
4.51002
4.52058
4.52435
4.53337
4.53654
4.54369
4.54644
4.55292
4.55522
4.55959
4.56076
4.5617
4.56083
4.55534
4.55029
4.5316
4.51774
4.47091
4.44296
4.35874
4.31408
4.20744
4.1792
4.17216
4.17045
4.17004
4.16995
12.4299
12.3213
11.2045
10.977
9.9176
9.68006
8.6948
8.47177
7.6263
7.43987
6.77857
6.6463
6.2536
6.15066
5.72048
5.6004
5.04929
4.94304
4.62917
4.56641
4.37116
4.33276
4.21194
4.19025
4.12913
4.11718
4.07372
4.06794
4.05597
4.05629
4.06502
4.06933
4.08916
4.09462
4.1111
4.12061
4.17397
4.18642
4.22825
4.23833
4.27498
4.28446
4.32059
4.32949
4.3611
4.36853
4.39536
4.4015
4.42428
4.42966
4.44989
4.45449
4.47061
4.47414
4.48674
4.48963
4.50013
4.50253
4.51092
4.51298
4.52024
4.52193
4.52681
4.52766
4.52864
4.52798
4.52184
4.51813
4.49767
4.48752
4.43568
4.41524
4.32259
4.29093
4.18307
4.16356
4.15902
4.15792
4.15765
4.1576
13.1869
13.1325
11.6559
11.5455
10.2095
10.0993
8.88583
8.78427
7.75329
7.66891
6.86356
6.80408
6.33593
6.28963
5.7655
5.71089
5.03216
4.98391
4.60341
4.575
4.33707
4.31959
4.17109
4.16114
4.086
4.08043
4.02511
4.0223
4.00625
4.00627
4.01595
4.01777
4.04036
4.04265
4.0604
4.06455
4.12873
4.13426
4.18412
4.18861
4.23271
4.23691
4.27968
4.28362
4.32154
4.32486
4.35734
4.36012
4.38792
4.39034
4.41465
4.41672
4.43629
4.43789
4.4533
4.4546
4.46721
4.46828
4.4784
4.47931
4.48778
4.48851
4.49419
4.49455
4.49564
4.49535
4.48824
4.48664
4.46334
4.45896
4.3992
4.3904
4.28399
4.27083
4.15517
4.14731
4.14573
4.14535
4.14526
4.14524
13.1582
13.1058
11.6602
11.5561
10.2785
10.1762
8.99307
8.89205
7.8106
7.71986
6.85831
6.79359
6.29908
6.24959
5.70408
5.64743
4.94285
4.89107
4.47412
4.44114
4.17463
4.15401
3.98841
3.97663
3.89442
3.88777
3.82541
3.82166
3.7969
3.79617
3.80094
3.80225
3.82126
3.8232
3.8392
3.84303
3.90369
3.90898
3.95767
3.96208
4.00506
4.00915
4.05037
4.0542
4.09081
4.09405
4.12499
4.12761
4.15224
4.15411
4.169
4.17065
4.19196
4.19334
4.20331
4.20402
4.21157
4.21164
4.2122
4.2104
4.19022
4.17997
4.01411
3.98914
3.69337
3.64533
3.07945
2.99141
2.00399
1.86047
0.351521
0.166431
-1.4369
-1.59029
-2.30657
-2.36501
-2.37779
-2.38091
-2.38166
-2.38182
12.3907
12.287
11.1995
10.9877
9.98653
9.76994
8.82349
8.60291
7.71202
7.51025
6.79861
6.65352
6.23381
6.12299
5.67389
5.54941
4.9786
4.86396
4.51414
4.4399
4.21709
4.17088
4.03306
4.00671
3.93782
3.9231
3.8728
3.86474
3.84517
3.84372
3.84799
3.85107
3.86759
3.87216
3.88681
3.89553
3.94584
3.95776
3.99869
4.00859
4.04435
4.05358
4.08846
4.09713
4.12779
4.13507
4.1608
4.16664
4.18699
4.19116
4.20371
4.20735
4.22443
4.22742
4.23553
4.23702
4.24264
4.24253
4.24128
4.23651
4.21449
4.19036
4.04696
3.98849
3.72569
3.61218
3.10714
2.89812
2.01195
1.66975
0.313056
-0.132528
-1.60346
-1.9831
-2.71955
-2.87038
-2.90726
-2.91633
-2.91851
-2.91899
11.6273
11.5075
10.7038
10.451
9.66326
9.39294
8.6249
8.34063
7.58591
7.32108
6.71627
6.52446
6.15622
6.00995
5.63073
5.46926
4.99612
4.84627
4.54315
4.44462
4.2525
4.19142
4.07327
4.0385
3.97906
3.95986
3.91851
3.90828
3.89272
3.89104
3.89509
3.89937
3.9144
3.92072
3.93465
3.94637
3.98952
4.00539
4.04095
4.05407
4.08471
4.09698
4.12759
4.13919
4.16571
4.17535
4.1974
4.2051
4.22238
4.22788
4.23878
4.2435
4.25747
4.26129
4.26803
4.26986
4.27393
4.27346
4.27051
4.26331
4.23884
4.20553
4.0764
3.99602
3.75203
3.5947
3.12298
2.8319
1.99814
1.51961
0.238136
-0.390481
-1.81368
-2.36165
-3.15594
-3.38029
-3.43784
-3.45201
-3.45541
-3.45617
10.8687
10.7555
10.1861
9.93569
9.31935
9.03591
8.40703
8.09722
7.44026
7.14557
6.61748
6.40251
6.0698
5.90628
5.57891
5.40162
5.00074
4.83475
4.56401
4.4531
4.28269
4.21425
4.11015
4.07129
4.0187
3.99751
3.96297
3.95203
3.93972
3.93814
3.94219
3.94723
3.96156
3.96898
3.98258
3.99595
4.0343
4.05222
4.08411
4.09884
4.12579
4.13965
4.16749
4.18064
4.20431
4.21514
4.23459
4.24318
4.25824
4.26438
4.27409
4.27929
4.29092
4.29505
4.30072
4.30262
4.30541
4.30449
4.2999
4.29081
4.26356
4.22453
4.1039
4.01009
3.7749
3.58978
3.13159
2.78738
1.9701
1.40155
0.137082
-0.616666
-2.05891
-2.73034
-3.61512
-3.89685
-3.97013
-3.98809
-3.9924
-3.99335
10.1148
10.0217
9.65574
9.43509
8.96219
8.69277
8.17647
7.86779
7.2802
6.97947
6.50624
6.28535
5.97668
5.80922
5.52115
5.34298
4.99602
4.82746
4.5785
4.46399
4.30882
4.23854
4.14444
4.10464
4.05709
4.0357
4.0065
3.99585
3.98629
3.98501
3.98925
3.99472
4.009
4.017
4.03053
4.04453
4.07989
4.09849
4.12795
4.14313
4.16741
4.18176
4.20797
4.22168
4.24342
4.25458
4.27221
4.28099
4.29447
4.30074
4.30959
4.31483
4.32467
4.32876
4.33356
4.33534
4.33704
4.33567
4.32948
4.31903
4.28874
4.24679
4.13031
4.02981
3.79576
3.59577
3.13562
2.76175
1.93209
1.31132
0.0155764
-0.815327
-2.33499
-3.09049
-4.0984
-4.42174
-4.5046
-4.5247
-4.52949
-4.53054
9.36456
9.29898
9.11961
8.94465
8.59697
8.35959
7.9377
7.6496
7.10876
6.82036
6.38499
6.17177
5.87798
5.71706
5.45905
5.29115
4.98421
4.82342
4.58766
4.47655
4.33159
4.2638
4.17658
4.13831
4.09445
4.07422
4.0493
4.03964
4.03254
4.03167
4.03626
4.04186
4.05669
4.06479
4.07845
4.09226
4.12616
4.14434
4.17236
4.18706
4.20942
4.22339
4.24895
4.2624
4.28296
4.29377
4.31018
4.31863
4.33098
4.337
4.34523
4.35018
4.35865
4.36244
4.36654
4.36806
4.3688
4.36705
4.35923
4.34805
4.31439
4.27203
4.15609
4.05486
3.81525
3.61215
3.13618
2.75434
1.8857
1.24805
-0.124549
-0.986456
-2.64163
-3.44053
-4.60905
-4.95621
-5.04155
-5.06188
-5.06669
-5.06774
8.61704
8.58085
8.58337
8.4612
8.22742
8.03388
7.69366
7.4416
6.92732
6.66721
6.25493
6.0615
5.77405
5.62885
5.3934
5.24493
4.9666
4.82243
4.59187
4.49048
4.35129
4.28986
4.20677
4.17223
4.13087
4.11294
4.09149
4.08332
4.07854
4.07811
4.08324
4.08864
4.10466
4.11236
4.12637
4.13919
4.17305
4.18978
4.21731
4.23068
4.25176
4.26456
4.29042
4.30284
4.32289
4.33273
4.34847
4.35611
4.36775
4.37318
4.38101
4.3854
4.39282
4.39611
4.39961
4.40082
4.40066
4.39868
4.38913
4.37797
4.34039
4.30021
4.18128
4.08545
3.83327
3.63943
3.13295
2.76637
1.83004
1.21415
-0.285128
-1.12587
-2.98254
-3.77579
-5.15254
-5.50113
-5.58107
-5.59964
-5.604
-5.60495
7.87102
7.86124
8.05219
7.98228
7.85634
7.71411
7.44618
7.24418
6.73578
6.52023
6.1162
5.95505
5.66449
5.54431
5.32434
5.20396
4.94368
4.82494
4.59094
4.50596
4.36791
4.3168
4.23505
4.20643
4.16638
4.15181
4.13316
4.12688
4.12438
4.12433
4.1302
4.135
4.15295
4.15968
4.17434
4.18527
4.22063
4.2348
4.26283
4.27399
4.29444
4.30521
4.33243
4.34296
4.36323
4.37146
4.38709
4.39342
4.40477
4.40926
4.41693
4.4205
4.42717
4.42977
4.43278
4.43364
4.43259
4.43061
4.41908
4.40895
4.3665
4.33155
4.20554
4.12228
3.84895
3.67921
3.12412
2.80118
1.76153
1.21555
-0.472071
-1.22467
-3.36598
-4.0877
-5.73714
-6.05677
-6.12302
-6.13795
-6.14142
-6.14217
7.12544
7.13365
7.53149
7.50566
7.48596
7.39944
7.19613
7.05908
6.5326
6.38085
5.96781
5.85385
5.54817
5.46381
5.25134
5.16862
4.91512
4.83208
4.58408
4.52359
4.38107
4.34499
4.26121
4.2411
4.20087
4.19085
4.17435
4.17029
4.17012
4.17032
4.17721
4.18083
4.2017
4.20668
4.22245
4.23038
4.26906
4.27926
4.30901
4.31693
4.3375
4.3452
4.37511
4.38271
4.40405
4.4099
4.42609
4.43055
4.44207
4.44522
4.45302
4.45547
4.46167
4.46342
4.46604
4.46654
4.46457
4.46293
4.44899
4.44123
4.39231
4.36652
4.22808
4.16671
3.86047
3.73438
3.10598
2.86463
1.67326
1.26261
-0.696434
-1.26793
-3.80622
-4.36249
-6.37491
-6.62252
-6.66699
-6.67669
-6.67892
-6.6794
6.37956
6.3905
7.02778
7.02883
7.1183
7.08947
6.94346
6.8896
6.31447
6.25196
5.8075
5.76034
5.42303
5.38846
5.17318
5.14015
4.87977
4.84585
4.56974
4.54451
4.38999
4.37509
4.28483
4.27658
4.23416
4.23016
4.21504
4.21355
4.21584
4.21605
4.22436
4.22597
4.25108
4.25326
4.27088
4.27426
4.31862
4.32294
4.35608
4.35936
4.38108
4.38431
4.41868
4.4219
4.44548
4.44792
4.46555
4.46738
4.4797
4.48099
4.48932
4.4903
4.49636
4.49703
4.49939
4.49954
4.49653
4.49573
4.47864
4.47515
4.41719
4.40601
4.24755
4.22094
3.86479
3.80965
3.07235
2.96608
1.55375
1.37159
-0.97631
-1.23252
-4.32573
-4.57904
-7.08327
-7.19639
-7.21234
-7.21571
-7.21648
-7.21664
5.04065
5.02074
4.69126
4.65143
4.37519
4.34572
4.20316
4.18316
4.02119
4.00629
3.94379
3.93755
3.91536
3.913
3.91406
3.91442
3.93872
3.942
3.99371
3.99799
4.03697
4.0405
4.07108
4.07394
4.09739
4.1012
4.14438
4.14997
4.20841
4.21327
4.24421
4.24821
4.2936
4.29765
4.33173
4.33556
4.36664
4.36993
4.39115
4.39334
4.40749
4.40989
4.43606
4.43856
4.45396
4.45555
4.46507
4.46609
4.47135
4.47216
4.47993
4.48073
4.48632
4.48693
4.49047
4.49069
4.49014
4.48947
4.47666
4.47271
4.40382
4.39302
4.23755
4.21371
3.87394
3.8262
3.16758
3.08164
1.92656
1.78874
0.00117541
-0.189443
-2.53623
-2.75219
-5.18141
-5.48813
-10.3713
-10.5743
-10.6
-10.6049
5.13979
5.09165
4.7923
4.69385
4.42071
4.34667
4.20692
4.15749
4.00544
3.96852
3.90592
3.8901
3.86637
3.85995
3.85673
3.85685
3.87553
3.88258
3.92454
3.9341
3.96709
3.9752
4.00159
4.00824
4.02905
4.03814
4.07723
4.09039
4.14056
4.15194
4.18022
4.1895
4.22741
4.23668
4.26672
4.27591
4.30492
4.31297
4.33278
4.3381
4.35139
4.35717
4.38068
4.38672
4.40114
4.40505
4.41418
4.41673
4.42209
4.42408
4.43091
4.43284
4.4382
4.4397
4.44305
4.44362
4.44323
4.4417
4.43038
4.4215
4.36388
4.33958
4.20862
4.15501
3.87023
3.76314
3.21322
3.02108
2.06192
1.75514
0.280205
-0.141529
-2.0616
-2.53573
-4.52146
-5.17366
-8.96975
-9.39857
-9.46941
-9.48353
5.24086
5.17262
4.88532
4.74328
4.45827
4.35026
4.20706
4.13593
3.98509
3.93179
3.86619
3.84297
3.81668
3.80677
3.79927
3.79853
3.8128
3.82177
3.85666
3.86926
3.89822
3.90917
3.9329
3.94197
3.96119
3.97387
4.01111
4.02933
4.07425
4.08994
4.117
4.12963
4.16235
4.17488
4.20254
4.21546
4.24404
4.25555
4.27498
4.28254
4.29558
4.30373
4.326
4.33454
4.34874
4.35434
4.36355
4.36725
4.37297
4.3758
4.38209
4.38481
4.39024
4.3924
4.39573
4.39658
4.39636
4.39433
4.384
4.37224
4.3226
4.2904
4.17659
4.10554
3.85941
3.71778
3.24454
2.99117
2.17116
1.76824
0.517071
-0.0337225
-1.64485
-2.25886
-3.9149
-4.73349
-7.70292
-8.23721
-8.34113
-8.36275
5.3447
5.26238
4.97257
4.79845
4.48878
4.35528
4.20435
4.11758
3.96085
3.89556
3.82477
3.79597
3.76634
3.7535
3.74155
3.73962
3.75029
3.75992
3.78967
3.80376
3.83006
3.84262
3.86479
3.87529
3.89358
3.90862
3.94575
3.9672
4.00911
4.02748
4.05434
4.06897
4.0981
4.11247
4.13894
4.15439
4.18384
4.19779
4.21766
4.22675
4.23996
4.24972
4.27187
4.28213
4.29669
4.30349
4.31314
4.31769
4.32396
4.32737
4.33341
4.33667
4.3424
4.34505
4.34852
4.34958
4.34957
4.34728
4.33767
4.32448
4.28061
4.24448
4.14285
4.06307
3.84438
3.68566
3.26703
2.9839
2.26367
1.81521
0.725858
0.116426
-1.26807
-1.94039
-3.34192
-4.20738
-6.53359
-7.09317
-7.21625
-7.24293
5.45186
5.36049
5.05522
4.85908
4.51227
4.36102
4.19909
4.10204
3.93297
3.85957
3.78168
3.74901
3.71534
3.7002
3.68342
3.6802
3.68781
3.69727
3.7233
3.73778
3.76244
3.77569
3.79714
3.80829
3.82609
3.84248
3.88102
3.90424
3.9449
3.96467
3.99217
4.00771
4.03444
4.04957
4.07579
4.09274
4.12426
4.1398
4.16076
4.1708
4.18448
4.19522
4.2182
4.22955
4.24494
4.25251
4.26293
4.26806
4.27506
4.27885
4.28483
4.28843
4.29468
4.29766
4.3014
4.30263
4.30286
4.30052
4.29148
4.27795
4.23831
4.20117
4.10821
4.02614
3.82694
3.66391
3.28407
2.99406
2.34525
1.88775
0.915368
0.297484
-0.919878
-1.59287
-2.79052
-3.62297
-5.43506
-5.96672
-6.09537
-6.12431
5.56272
5.46721
5.13356
4.92577
4.52797
4.36722
4.19126
4.08941
3.90128
3.82376
3.73678
3.7021
3.6636
3.64696
3.62476
3.62035
3.62526
3.63395
3.65739
3.67138
3.69528
3.70842
3.72989
3.74103
3.75866
3.77545
3.81689
3.84058
3.88153
3.90154
3.93048
3.946
3.97123
3.98622
4.013
4.03052
4.06531
4.08159
4.1043
4.11469
4.12911
4.14021
4.165
4.1768
4.1935
4.20142
4.21293
4.21836
4.22628
4.23022
4.23635
4.24008
4.24709
4.25024
4.25438
4.25571
4.25625
4.25403
4.24547
4.23246
4.1959
4.16008
4.07312
3.99386
3.80802
3.6508
3.29746
3.01852
2.41912
1.9808
1.09061
0.502417
-0.593576
-1.22448
-2.25385
-2.99951
-4.3879
-4.85654
-4.97863
-5.00698
5.67744
5.5835
5.2069
5.00011
4.53423
4.37406
4.18048
4.08024
3.86518
3.78835
3.68981
3.65534
3.61099
3.59396
3.56539
3.56013
3.56256
3.57003
3.59186
3.60458
3.62854
3.64081
3.66306
3.6735
3.69126
3.70743
3.75346
3.77622
3.81899
3.83806
3.86931
3.8839
3.90843
3.92239
3.95057
3.96759
4.00709
4.02311
4.04832
4.05842
4.07387
4.08466
4.11231
4.12385
4.1424
4.15018
4.16316
4.16855
4.17766
4.18151
4.18796
4.19159
4.19965
4.20277
4.20747
4.20882
4.20975
4.20778
4.19963
4.1879
4.15345
4.12103
4.03771
3.96584
3.78793
3.64549
3.30784
3.05574
2.48647
2.09185
1.25367
0.727558
-0.285994
-0.840281
-1.72866
-2.35049
-3.37767
-3.76037
-3.86579
-3.89091
5.79595
5.71113
5.27349
5.08484
4.52829
4.38226
4.166
4.07568
3.82357
3.75381
3.64028
3.60899
3.5573
3.54141
3.50508
3.49959
3.49966
3.50555
3.52669
3.53733
3.56227
3.5728
3.59669
3.60567
3.62391
3.6382
3.69096
3.71105
3.75739
3.77408
3.8088
3.8214
3.84604
3.85799
3.88858
3.90376
3.94981
3.96426
3.99294
4.00193
4.0188
4.02843
4.06026
4.07061
4.09173
4.09873
4.1137
4.11858
4.12924
4.13269
4.13968
4.14292
4.1524
4.15524
4.16068
4.16194
4.16336
4.16178
4.15393
4.14424
4.11091
4.084
4.00183
3.94203
3.7664
3.64797
3.31476
3.10561
2.54678
2.22058
1.40417
0.972101
0.00311189
-0.442833
-1.21426
-1.68538
-2.39336
-2.67543
-2.75631
-2.77597
5.91789
5.85292
5.33015
5.18432
4.50595
4.39329
4.1465
4.07762
3.77467
3.72103
3.58747
3.56346
3.50217
3.48969
3.44354
3.43884
3.43652
3.44045
3.46194
3.46951
3.49657
3.50425
3.53092
3.53746
3.55672
3.56744
3.62977
3.64483
3.69697
3.70937
3.74918
3.7584
3.78416
3.79284
3.82721
3.83869
3.89379
3.90484
3.93835
3.94512
3.96403
3.97131
4.00906
4.01695
4.04163
4.04696
4.06463
4.06838
4.08112
4.08373
4.09155
4.09401
4.10542
4.10761
4.11407
4.11505
4.11709
4.11602
4.1083
4.10152
4.0681
4.04917
3.96504
3.92284
3.74255
3.65901
3.31668
3.16941
2.59774
2.36885
1.53923
1.23805
0.271212
-0.0324561
-0.711973
-1.0109
-1.42619
-1.59864
-1.6494
-1.66189
6.04246
6.01303
5.37176
5.30512
4.461
4.40969
4.11989
4.08892
3.71581
3.69146
3.53028
3.51942
3.4451
3.43931
3.38035
3.378
3.37313
3.37464
3.39774
3.4009
3.43165
3.43494
3.46595
3.46875
3.48987
3.49461
3.57046
3.57713
3.63814
3.64357
3.69078
3.69475
3.72295
3.72666
3.76675
3.77188
3.83952
3.84451
3.88482
3.88783
3.90972
3.91296
3.95906
3.9626
3.99229
3.99469
4.01613
4.01782
4.03339
4.03456
4.04363
4.04473
4.0588
4.0598
4.06766
4.06813
4.07094
4.07053
4.06263
4.05987
4.02472
4.01694
3.92657
3.90917
3.71483
3.68038
3.31077
3.25017
2.63495
2.54111
1.6531
1.53057
0.512732
0.392896
-0.224969
-0.331825
-0.468801
-0.526796
-0.544082
-0.548369
)
;

boundaryField
{
    F1_1
    {
        type            fixedValue;
        value           nonuniform List<scalar> 
80
(
0
4.41555
4.4662
4.4662
4.0702
4.0702
3.73482
3.73482
3.49295
3.49295
3.33562
3.33562
3.25432
3.25432
3.18282
3.18282
3.16215
3.16215
3.17411
3.17411
3.19975
3.19975
3.22989
3.22989
3.24948
3.24948
3.28495
3.28495
3.37418
3.37418
3.43683
3.43683
3.4884
3.4884
3.51779
3.51779
3.59235
3.59235
3.64309
3.64309
3.68283
3.68283
3.71619
3.71619
3.74261
3.74261
3.76207
3.76207
3.77285
3.77285
3.78558
3.78558
3.79164
3.79164
3.79438
3.79438
3.79315
3.79315
3.79234
3.79234
3.7889
3.7889
3.77891
3.77891
3.77238
3.77238
3.76845
3.76845
3.76837
3.76837
3.77433
3.77433
3.78552
3.78552
3.80439
3.80439
3.80439
3.80439
3.80439
3.80439
)
;
    }
    F1_2
    {
        type            fixedValue;
        value           nonuniform List<scalar> 
80
(
13.5665
13.5665
11.8543
11.8543
10.331
10.331
8.95911
8.95911
7.79786
7.79786
6.89115
6.89115
6.36867
6.36867
5.77863
5.77863
5.011
5.011
4.58349
4.58349
4.31562
4.31562
4.14789
4.14789
4.06305
4.06305
3.99975
3.99975
3.98107
3.98107
3.99157
3.99157
4.01636
4.01636
4.03532
4.03532
4.10729
4.10729
4.16296
4.16296
4.21237
4.21237
4.26
4.26
4.30244
4.30244
4.33892
4.33892
4.37024
4.37024
4.39748
4.39748
4.41949
4.41949
4.43686
4.43686
4.45098
4.45098
4.46232
4.46232
4.47171
4.47171
4.47798
4.47798
4.47917
4.47917
4.47133
4.47133
4.44579
4.44579
4.37993
4.37993
4.26283
4.26283
4.13907
4.13907
4.13907
4.13907
4.13907
4.13907
)
;
    }
    F1_3
    {
        type            fixedValue;
        value           nonuniform List<scalar> 
80
(
13.5431
13.5431
11.8638
11.8638
10.4009
10.4009
9.05623
9.05623
7.84008
7.84008
6.87223
6.87223
6.32281
6.32281
5.70941
5.70941
4.91193
4.91193
4.44643
4.44643
4.14848
4.14848
3.963
3.963
3.87122
3.87122
3.80054
3.80054
3.77228
3.77228
3.77748
3.77748
3.79843
3.79843
3.81564
3.81564
3.88372
3.88372
3.93805
3.93805
3.98619
3.98619
4.03208
4.03208
4.07298
4.07298
4.10765
4.10765
4.13532
4.13532
4.15191
4.15191
4.17612
4.17612
4.18738
4.18738
4.19619
4.19619
4.19771
4.19771
4.17788
4.17788
3.99487
3.99487
3.67225
3.67225
3.05604
3.05604
1.98313
1.98313
0.344274
0.344274
-1.38262
-1.38262
-2.11324
-2.11324
-2.11324
-2.11324
-2.11324
-2.11324
)
;
    }
    F1_4
    {
        type            fixedValue;
        value           nonuniform List<scalar> 
80
(
6.10533
6.10533
5.38107
5.38107
4.42267
4.42267
4.10141
4.10141
3.67941
3.67941
3.49868
3.49868
3.41519
3.41519
3.34762
3.34762
3.34131
3.34131
3.36604
3.36604
3.39974
3.39974
3.43403
3.43403
3.45677
3.45677
3.54219
3.54219
3.60983
3.60983
3.66244
3.66244
3.69284
3.69284
3.73722
3.73722
3.81365
3.81365
3.8588
3.8588
3.88293
3.88293
3.93491
3.93491
3.96817
3.96817
3.99227
3.99227
4.00982
4.00982
4.01983
4.01983
4.03576
4.03576
4.04461
4.04461
4.04794
4.04794
4.03969
4.03969
4.00248
4.00248
3.90587
3.90587
3.69777
3.69777
3.30164
3.30164
2.64312
2.64312
1.69472
1.69472
0.61552
0.61552
0.00829871
0.00829871
0.00829871
0.00829871
0.00829871
0.00829871
)
;
    }
    F2_1
    {
        type            fixedValue;
        value           nonuniform List<scalar> 
80
(
4.0879
4.0879
4.06772
4.06772
4.00174
4.00174
3.93611
3.93611
3.86869
3.86869
3.81398
3.81398
3.78097
3.78097
3.76981
3.76981
3.78323
3.78323
3.80948
3.80948
3.84181
3.84181
3.87355
3.87355
3.90134
3.90134
3.92434
3.92434
3.97739
3.97739
4.00836
4.00836
4.05986
4.05986
4.08716
4.08716
4.13791
4.13791
4.1716
4.1716
4.19085
4.19085
4.21719
4.21719
4.23245
4.23245
4.2415
4.2415
4.2459
4.2459
4.2473
4.2473
4.24621
4.24621
4.24326
4.24326
4.23892
4.23892
4.23405
4.23405
4.22835
4.22835
4.22244
4.22244
4.21868
4.21868
4.21909
4.21909
4.22721
4.22721
4.24846