/*--------------------------------*- C++ -*----------------------------------*\
| =========                 |                                                 |
| \\      /  F ield         | OpenFOAM: The Open Source CFD Toolbox           |
|  \\    /   O peration     | Version:  5.x                                   |
|   \\  /    A nd           | Web:      www.OpenFOAM.org                      |
|    \\/     M anipulation  |                                                 |
\*---------------------------------------------------------------------------*/
FoamFile
{
    version     2.0;
    format      ascii;
    class       volScalarField;
    location    "9.6";
    object      gradTx;
}
// * * * * * * * * * * * * * * * * * * * * * * * * * * * * * * * * * * * * * //

dimensions      [0 -1 0 1 0 0 0];

internalField   nonuniform List<scalar> 
6300
(
215.49
214.855
213.585
211.678
209.133
205.951
202.134
197.688
192.627
186.972
180.757
174.027
166.847
159.294
151.463
216.115
215.481
214.212
212.306
209.761
206.577
202.753
198.295
193.212
187.524
181.262
174.47
167.211
159.564
151.627
217.364
216.731
215.465
213.563
211.02
207.832
203.998
199.516
194.393
188.642
182.289
175.373
167.956
160.117
151.961
219.235
218.606
217.346
215.45
212.913
209.725
205.88
201.37
196.194
190.355
183.869
176.77
169.113
160.981
152.486
221.725
221.102
219.852
217.97
215.446
212.266
208.417
203.882
198.648
192.705
186.054
178.717
170.738
162.202
153.23
224.827
224.213
222.981
221.122
218.624
215.467
211.63
207.084
201.802
195.753
188.918
181.295
172.914
163.851
154.242
228.534
227.933
226.727
224.905
222.45
219.339
215.541
211.015
205.712
199.579
192.562
184.624
175.762
166.037
155.597
232.83
232.248
231.078
229.309
226.922
223.888
220.17
215.711
210.443
204.279
197.119
188.868
179.466
168.93
157.413
237.698
237.14
236.018
234.321
232.029
229.113
225.528
221.208
216.062
209.964
202.756
194.255
184.295
172.796
159.884
243.114
242.585
241.523
239.917
237.751
234.997
231.61
227.521
222.621
216.751
209.677
201.094
190.653
178.069
163.339
249.047
248.552
247.559
246.062
244.05
241.502
238.384
234.633
230.142
224.73
218.096
209.781
199.145
185.48
168.383
255.465
255.006
254.089
252.712
250.873
248.568
245.779
242.474
238.574
233.919
228.188
220.778
210.658
196.315
176.224
262.33
261.907
261.066
259.811
258.153
256.103
253.68
250.898
247.751
244.175
239.947
234.476
226.386
212.888
189.568
269.604
269.216
268.445
267.303
265.81
264.001
261.929
259.674
257.344
255.07
252.939
250.782
247.51
239.272
215.405
277.255
276.896
276.183
275.133
273.772
272.15
270.349
268.512
266.871
265.812
265.946
268.192
273.587
281.274
275.097
144.139
137.427
130.74
124.144
117.705
111.481
105.525
99.8813
94.5867
89.6695
85.1506
81.0439
77.3575
74.0942
71.2525
68.8272
66.8099
65.1895
63.9521
63.0814
62.5581
62.3604
62.4632
62.838
63.4532
64.2741
65.2629
66.3803
67.5857
68.8392
70.1027
71.3409
72.5227
73.6211
74.6131
75.4784
76.1991
76.7577
77.1372
77.3207
77.2924
77.039
76.5509
75.8238
74.859
73.6637
72.249
70.6286
68.8163
66.8238
64.6589
62.3247
59.8194
57.1373
54.2702
51.2086
47.9434
44.4669
40.7729
36.8565
32.7123
28.3339
23.7116
18.8315
13.6749
8.21785
2.43187
-3.71508
-10.2571
-17.2289
-24.664
-32.5938
-41.0467
-50.0475
-59.6174
-69.7737
-80.5299
-91.8948
-103.871
-116.455
-129.632
-143.377
-157.651
-172.397
-187.543
-202.997
-218.653
-234.387
-250.067
-265.554
144.197
137.386
130.602
123.914
117.389
111.09
105.07
99.3743
94.039
89.092
84.553
80.435
76.7447
73.4838
70.6497
68.2366
66.2355
64.635
63.4213
62.5782
62.0866
61.9251
62.0687
62.4891
63.1545
64.0294
65.0751
66.2506
67.5136
68.8221
70.1361
71.4192
72.6398
73.7714
74.7922
75.6838
76.4294
77.0126
77.4163
77.6225
77.6135
77.3739
76.8921
76.1629
75.1882
73.9766
72.5422
70.9021
69.0732
67.0695
64.9002
62.5685
60.0715
57.4016
54.5482
51.4997
48.2458
44.7783
41.0918
37.1828
33.0483
28.6839
24.0817
19.2289
14.107
8.69115
2.9515
-3.14608
-9.63801
-16.5611
-23.9507
-31.8394
-40.2562
-49.2262
-58.7706
-68.9073
-79.6505
-91.0106
-102.993
-115.596
-128.809
-142.611
-156.964
-171.815
-187.091
-202.7
-218.531
-234.456
-250.335
-266.021
144.315
137.303
130.319
123.441
116.744
110.293
104.144
98.3437
92.9279
87.9227
83.3455
79.2066
75.51
72.2552
69.4374
67.0494
65.0811
63.5207
62.3542
61.5658
61.1372
61.0476
61.2728
61.7847
62.5513
63.5359
64.6976
65.9922
67.3732
68.7942
70.211
71.5845
72.882
74.0783
75.1545
76.0962
76.8904
77.523
77.9766
78.231
78.2638
78.0543
77.5864
76.8526
75.8554
74.6073
73.1289
71.4448
69.579
67.551
65.3729
63.0478
60.5702
57.9279
55.1048
52.0847
48.8537
45.4032
41.7293
37.8323
33.7142
29.3753
24.8117
20.0132
14.9615
9.63039
3.98639
-2.00915
-8.39772
-15.2209
-22.5178
-30.3234
-38.6677
-47.5757
-57.0686
-67.1647
-77.8796
-89.2268
-101.216
-113.853
-127.134
-141.045
-155.554
-170.614
-186.153
-202.076
-218.265
-234.582
-250.871
-266.967
144.501
137.173
129.877
122.704
115.739
109.055
102.711
96.755
91.2214
86.133
81.5032
77.3376
73.636
70.3938
67.6033
65.2547
63.3365
61.8361
60.7399
60.0325
59.6971
59.7143
60.0613
60.7111
61.6316
62.7846
64.1262
65.6066
67.1725
68.7693
70.3455
71.8563
73.2671
74.555
75.7074
76.7178
77.5811
78.2878
78.8209
79.1553
79.26
79.1036
78.6608
77.9187
76.8807
75.5667
74.009
72.2462
70.3154
68.246
66.0547
63.7443
61.3038
58.7122
55.9432
52.971
49.776
46.3479
42.6864
38.7989
34.6966
30.3888
25.8791
21.1613
16.2179
11.0197
5.52729
-0.306222
-6.53134
-13.198
-20.3516
-28.0306
-36.2658
-45.0811
-54.4961
-64.5283
-75.1951
-86.5145
-98.504
-111.179
-124.548
-138.61
-153.347
-168.717
-184.654
-201.06
-217.808
-234.739
-251.674
-268.418
144.768
136.989
129.251
121.663
114.325
107.321
100.714
94.5539
88.8697
83.6792
78.9887
74.7969
71.097
67.8787
65.1298
62.8372
60.9874
59.567
58.5628
57.9609
57.7467
57.9034
58.4111
59.2451
60.3742
61.7592
63.352
65.0951
66.9242
68.7713
70.5713
72.269
73.826
75.2238
76.4614
77.5483
78.4942
79.2994
79.9482
80.4071
80.629
80.5622
80.1629
79.4077
78.3005
76.8739
75.1816
73.2867
71.2488
69.1136
66.9055
64.6255
62.2527
59.7498
57.0718
54.1761
51.032
47.6269
43.9671
40.0734
35.9733
31.692
27.2451
22.6334
17.8405
12.8322
7.55912
1.9606
-4.02897
-10.4734
-17.428
-24.936
-33.0272
-41.7213
-51.0327
-60.9756
-71.5681
-82.8336
-94.8008
-107.5
-120.96
-135.2
-150.22
-165.997
-182.472
-199.546
-217.078
-234.882
-252.741
-270.414
145.132
136.74
128.402
120.256
112.426
105.008
98.0714
91.6621
85.8031
80.5014
75.7525
71.5446
67.8614
64.6848
61.9965
59.7792
58.0171
56.6961
55.8037
55.3285
55.2595
55.5845
56.2886
57.3516
58.7458
60.4321
62.3584
64.4572
66.6473
68.8384
70.9413
72.8812
74.6113
76.1202
77.4294
78.5786
79.6066
80.533
81.3456
81.9969
82.4103
82.4961
82.1747
81.4002
80.1771
78.5606
76.6429
74.53
72.3195
70.0833
67.8571
65.6377
63.3864
61.0372
58.5118
55.7368
52.6618
49.2706
45.5827
41.6436
37.5095
33.2322
28.847
24.3656
19.7725
15.0256
10.0592
4.79039
-0.871548
-7.01356
-13.7071
-21.0007
-28.9193
-37.4711
-46.658
-56.4853
-66.9691
-78.1393
-90.0393
-102.722
-116.245
-130.66
-145.998
-162.265
-179.42
-197.366
-215.946
-234.939
-254.068
-273.02
145.622
136.408
127.268
118.39
109.928
101.995
94.6651
87.9734
81.9295
76.5234
71.7339
67.5335
63.8932
60.7847
58.1822
56.0631
54.409
53.2054
52.4412
52.1088
52.2026
52.7174
53.6466
54.9789
56.6939
58.757
61.1138
63.6852
66.3659
69.0295
71.5431
73.7926
75.7117
77.3012
78.6246
79.78
80.862
81.927
82.972
83.926
84.66
85.0132
84.8354
84.0356
82.6169
80.6781
78.3821
75.9108
73.4245
71.0357
68.7959
66.6934
64.6583
62.5759
60.3087
57.7274
54.7448
51.3397
47.5584
43.4928
39.2504
34.9264
30.5865
26.2575
21.925
17.5342
12.9942
8.18608
2.97714
-2.75934
-9.12176
-16.1646
-23.8984
-32.305
-41.3593
-51.0476
-61.3793
-72.3912
-84.1467
-96.7312
-110.243
-124.783
-140.435
-157.249
-175.22
-194.265
-214.212
-234.79
-255.638
-276.331
146.285
135.962
125.753
115.919
106.662
98.1115
90.3349
83.348
77.1335
71.654
66.8631
62.7126
59.1563
56.1534
53.669
51.6749
50.15
49.0794
48.4548
48.2733
48.537
49.2511
50.422
52.0528
54.1384
56.6565
59.5575
62.7531
66.1065
69.4336
72.5221
75.1767
77.2837
78.8622
80.0584
81.0841
82.1383
83.3469
84.7259
86.1684
87.4546
88.2913
88.3882
87.5588
85.8024
83.3066
80.3708
77.3103
74.3864
71.7707
69.5344
67.6492
65.9957
64.3781
62.5555
60.2936
57.434
53.9487
49.9413
45.595
41.1071
36.6422
32.3089
28.1534
24.1605
20.2569
16.3145
12.1585
7.58528
2.39627
-3.5563
-10.333
-17.9078
-26.2051
-35.146
-44.6814
-54.8075
-65.5694
-77.0575
-89.4007
-102.757
-117.299
-133.191
-150.562
-169.468
-189.86
-211.56
-234.241
-257.422
-280.495
147.191
135.347
123.692
112.613
102.372
93.1096
84.8638
77.6073
71.2758
65.7897
61.0673
57.0329
53.6199
50.7729
48.4472
46.609
45.2344
44.3091
43.828
43.7945
44.2206
45.1251
46.5327
48.4698
50.9577
54.002
57.5747
61.5909
65.8822
70.1786
74.1228
77.3461
79.6137
80.9702
81.7347
82.3436
83.1891
84.518
86.385
88.6326
90.8929
92.6313
93.2714
92.4134
90.0492
86.5656
82.5359
78.51
74.9014
71.9569
69.7645
68.2689
67.2786
66.4731
65.4321
63.7182
61.0221
57.3072
52.8105
47.8993
42.929
38.167
33.7741
29.8139
26.2665
23.0345
19.9418
16.7313
13.0797
8.65125
3.19601
-3.352
-10.876
-19.1773
-28.0755
-37.4629
-47.318
-57.6994
-68.7339
-80.6081
-93.5598
-107.865
-123.814
-141.66
-161.568
-183.562
-207.488
-232.965
-259.348
-285.738
148.46
134.452
120.799
108.093
96.6694
86.639
77.9642
70.5311
64.1978
58.8228
54.2783
50.4557
47.2661
44.6392
42.5213
40.8734
39.6698
38.8973
38.5546
38.6523
39.2131
40.2727
41.8792
44.0913
46.9737
50.5842
54.9507
60.0301
65.6478
71.4276
76.7585
80.8884
83.2524
83.9276
83.6315
83.2592
83.5401
84.9108
87.4924
91.0749
95.0793
98.5492
100.308
99.4332
95.9044
90.6079
84.6922
79.1054
74.4573
71.057
68.9888
68.1585
68.2928
68.9044
69.2754
68.5548
66.0747
61.7894
56.2744
50.2867
44.4493
39.1589
34.6149
30.879
27.9172
25.6107
23.738
21.9383
19.6921
16.3844
11.5217
5.0346
-2.72466
-11.2893
-20.2996
-29.5695
-39.0691
-48.8865
-59.1986
-70.2609
-82.4094
-96.0623
-111.698
-129.783
-150.659
-174.476
-201.173
-230.377
-261.253
-292.422
150.302
133.041
116.535
101.721
88.9561
78.2116
69.272
61.867
55.7364
50.6568
46.447
42.9645
40.0999
37.7707
35.9167
34.496
33.4827
32.865
32.6455
32.8413
33.4858
34.6312
36.3515
38.7459
41.939
46.0755
51.2978
57.6919
65.1769
73.3204
81.1203
86.9705
89.3194
88.28
85.6347
83.2308
82.3185
83.5563
87.155
92.9061
100.031
106.927
111.134
110.27
104.301
95.5383
86.3714
78.3459
72.2133
68.2359
66.4273
66.6564
68.6168
71.6794
74.6879
75.9222
73.7242
68.04
60.4169
52.4557
45.1804
39.074
34.2904
30.8282
28.6228
27.561
27.4281
27.7875
27.8323
26.3561
22.1861
15.2527
6.5865
-2.7593
-12.1491
-21.3442
-30.3615
-39.3593
-48.5807
-58.3471
-69.0898
-81.4002
-96.0509
-113.884
-135.507
-161.235
-191.238
-225.374
-262.727
-301.146
153.109
130.536
109.829
92.3926
78.33
67.1823
58.3682
51.3656
45.7592
41.2363
37.5664
34.5817
32.1607
30.2161
28.6864
27.5306
26.7242
26.2579
26.1369
26.3827
27.0357
28.1601
29.8517
32.2486
35.5442
40.0013
45.9552
53.7803
63.755
75.705
88.2862
98.0909
100.262
94.9411
87.2864
81.0512
77.9973
78.7989
83.7147
92.7548
105.31
119.172
129.257
128.455
116.717
101.046
86.4037
74.8578
66.8631
62.2893
60.9294
62.6586
67.3511
74.5295
82.6523
88.2294
86.3911
77.0797
65.0437
53.6349
44.2265
37.0829
32.0617
28.9667
27.6803
28.1729
30.4079
34.0884
38.1615
40.2058
36.8286
27.9655
16.8758
5.83402
-4.27842
-13.374
-21.6807
-29.5087
-37.1763
-45.0253
-53.51
-63.365
-75.8168
-92.5237
-114.441
-141.831
-175.347
-215.728
-262.658
-312.974
157.693
125.336
98.4099
78.2024
63.5026
52.7889
44.8526
38.8509
34.2199
30.5855
27.6973
25.3855
23.534
22.0625
20.9166
20.0608
19.475
19.1522
19.099
19.3367
19.9056
20.871
22.3352
24.4557
27.4754
31.77
37.9162
46.771
59.4859
77.1773
99.4465
120.2
121.988
104.959
86.8907
74.2872
68.1209
68.1137
74.332
87.5374
108.705
136.851
163.051
162.384
134.793
105.07
81.9734
66.2527
56.5842
51.712
50.9807
54.3913
62.5031
76.0167
94.2794
111.211
109.816
90.04
68.7649
51.9318
40.0092
32.0339
27.058
24.4997
24.175
26.2744
31.305
39.8227
51.4105
61.8606
59.3692
43.8832
27.0956
13.0888
2.12794
-6.53956
-13.6884
-19.8882
-25.509
-30.7866
-35.9549
-41.5882
-49.4524
-63.6574
-85.4871
-113.603
-149.561
-196.646
-257.7
-329.942
165.876
112.313
77.31
56.0763
42.9326
34.3937
28.5494
24.3604
21.2438
18.8587
16.9967
15.5256
14.3589
13.439
12.728
12.2015
11.8461
11.6575
11.6412
11.8132
12.2035
12.8627
13.8725
15.3668
17.5697
20.871
25.9754
34.2012
48.0482
72.0545
112.785
169.615
170.804
116.47
78.6219
58.2507
49.3724
48.4613
54.8851
70.8508
102.047
157.326
235.526
235.078
155.932
99.546
66.9193
48.9297
39.3964
35.1697
35.0656
39.3524
49.8738
70.6624
107.819
160.579
159.704
105.156
66.0867
43.1554
30.1065
22.6645
18.5719
16.8152
17.1782
20.1539
27.1792
41.1344
66.2957
102.149
100.62
61.6736
33.3096
15.9569
5.23172
-1.89177
-7.06218
-11.101
-14.3348
-16.7044
-17.7291
-16.5972
-13.9558
-23.8094
-47.4779
-74.0788
-107.746
-157.44
-236.625
-356.342
181.906
72.5589
36.3786
22.2982
15.7297
12.1166
9.86144
8.32462
7.21355
6.37778
5.73253
5.22659
4.82756
4.51434
4.27317
4.09538
3.97624
3.91437
3.9118
3.97454
4.11386
4.34893
4.7117
5.25667
6.08152
7.37486
9.53849
13.5352
21.9792
42.8457
102.935
299.147
299.565
104.237
45.1833
25.6617
19.1494
18.2446
21.6954
32.2297
60.7062
144.786
421.247
421.089
144.29
59.8055
30.7851
19.4278
14.5657
12.6896
12.8265
15.3338
22.4581
41.7348
98.8868
287.176
286.877
97.9769
40.1678
20.1468
12.1286
8.47091
6.72145
6.07768
6.41835
8.2011
13.0735
26.3074
65.7821
196.262
195.747
64.2229
23.6659
9.2807
3.14879
-0.0563709
-2.06525
-3.4724
-4.40462
-4.5583
-2.60808
6.22048
39.5339
35.9324
-5.24437
-24.3762
-42.8476
-75.7607
-157.174
-401.704
-282.181
-299.681
-316.288
-331.83
-346.171
-359.221
-370.92
-381.246
-390.196
-397.788
-404.049
-409.009
-412.698
-415.142
-416.359
-282.857
-300.563
-317.342
-333.016
-347.451
-360.556
-372.28
-382.606
-391.54
-399.105
-405.334
-410.264
-413.927
-416.352
-417.56
-284.233
-302.36
-319.488
-335.429
-350.047
-363.259
-375.025
-385.344
-394.237
-401.742
-407.904
-412.769
-416.378
-418.765
-419.952
-286.359
-305.143
-322.81
-339.153
-354.037
-367.392
-379.203
-389.492
-398.307
-405.707
-411.756
-416.515
-420.036
-422.36
-423.515
-289.32
-309.032
-327.443
-344.322
-359.541
-373.057
-384.888
-395.1
-403.775
-411.006
-416.883
-421.484
-424.875
-427.108
-428.216
-293.248
-314.212
-333.594
-351.139
-366.736
-380.389
-392.179
-402.227
-410.671
-417.645
-423.269
-427.645
-430.857
-432.965
-434.009
-298.344
-320.961
-341.568
-359.889
-375.86
-389.571
-401.196
-410.944
-419.022
-425.616
-430.885
-434.956
-437.927
-439.869
-440.829
-304.925
-329.707
-351.816
-370.974
-387.23
-400.823
-412.075
-421.314
-428.839
-434.896
-439.682
-443.348
-446.008
-447.74
-448.593
-313.492
-341.115
-365
-384.949
-401.247
-414.4
-424.95
-433.385
-440.108
-445.429
-449.58
-452.73
-455
-456.471
-457.195
-324.885
-356.249
-382.105
-402.559
-418.395
-430.564
-439.923
-447.153
-452.763
-457.115
-460.461
-462.974
-464.773
-465.933
-466.503
-340.591
-376.878
-404.594
-424.772
-439.195
-449.521
-457.006
-462.524
-466.659
-469.789
-472.156
-473.915
-475.166
-475.969
-476.363
-363.505
-406.064
-434.607
-452.722
-464.077
-471.3
-476.037
-479.262
-481.544
-483.208
-484.44
-485.345
-485.986
-486.398
-486.599
-399.93
-449.25
-475.031
-487.416
-493.075
-495.547
-496.558
-496.925
-497.029
-497.04
-497.03
-497.02
-497.017
-497.018
-497.019
-465.838
-515.959
-528.829
-528.814
-525.243
-521.235
-517.703
-514.832
-512.588
-510.876
-509.598
-508.669
-508.024
-507.619
-507.423
-609.456
-619.902
-595.493
-573.744
-557.831
-546.427
-538.164
-532.094
-527.597
-524.26
-521.797
-520.012
-518.773
-517.991
-517.612
284.587
284.248
283.575
282.583
281.298
279.77
278.09
276.422
275.061
274.552
275.922
281.252
295.378
332.473
446.956
291.479
291.154
290.508
289.55
288.299
286.795
285.11
283.39
281.907
281.184
282.233
287.005
299.23
325.265
369.058
298.588
298.275
297.649
296.711
295.468
293.934
292.147
290.185
288.215
286.578
285.947
287.576
293.48
305.716
321.701
305.906
305.604
304.996
304.075
302.828
301.241
299.295
296.976
294.282
291.262
288.083
285.168
283.325
283.551
285.576
313.424
313.136
312.552
311.654
310.415
308.786
306.693
304.018
300.568
296.047
290.027
282.005
271.725
260.127
250.991
321.132
320.864
320.315
319.462
318.262
316.644
314.487
311.588
307.588
301.863
293.353
280.402
261.03
234.986
210.194
329.018
328.776
328.279
327.5
326.389
324.865
322.787
319.912
315.795
309.604
299.752
283.248
254.959
208.968
152.315
337.063
336.856
336.429
335.757
334.792
333.459
331.632
329.09
325.433
319.876
310.761
294.269
261.174
190.346
55.2295
345.241
345.078
344.74
344.206
343.441
342.387
340.962
339.031
336.379
332.611
326.882
316.812
293.584
216.362
-135.548
353.523
353.41
353.175
352.805
352.277
351.563
350.632
349.464
348.088
346.697
346.007
348.48
363.48
433.127
780.109
361.874
361.816
361.694
361.502
361.232
360.879
360.457
360.031
359.796
360.285
362.924
371.439
395.415
457.285
586.21
370.256
370.254
370.25
370.241
370.231
370.23
370.275
370.455
370.987
372.369
375.751
383.648
401.022
434.864
482.005
378.628
378.684
378.797
378.97
379.212
379.539
379.987
380.625
381.575
383.053
385.43
389.265
395.181
403.193
410.702
386.95
387.062
387.29
387.639
388.12
388.751
389.557
390.567
391.783
393.1
394.086
393.422
387.874
371.858
344.78
395.183
395.35
395.687
396.203
396.911
397.828
398.975
400.355
401.908
403.365
403.876
400.957
387.825
348.192
260.223
403.29
403.508
403.948
404.621
405.543
406.734
408.219
410.013
412.085
414.273
416.037
415.57
406.169
358.08
114.749
411.234
411.499
412.034
412.853
413.974
415.423
417.238
419.464
422.166
425.465
429.736
436.375
451.367
503.543
748.71
418.982
419.29
419.912
420.862
422.162
423.845
425.959
428.574
431.818
435.969
441.776
451.364
470.73
514.969
604.868
426.505
426.85
427.548
428.614
430.071
431.956
434.319
437.236
440.825
445.309
451.178
459.548
472.806
494.671
523.643
433.776
434.154
434.916
436.08
437.669
439.72
442.282
445.417
449.196
453.674
458.83
464.324
468.89
469.422
462.728
440.773
441.177
441.993
443.236
444.932
447.116
449.835
453.14
457.066
461.554
466.234
469.73
467.762
449.177
397.354
447.477
447.902
448.759
450.064
451.842
454.127
456.967
460.419
464.53
469.286
474.448
478.913
478.161
452.001
296.185
453.873
454.313
455.2
456.549
458.383
460.738
463.662
467.228
471.53
476.722
483.132
491.705
506.191
544.848
708.461
459.951
460.401
461.307
462.682
464.549
466.938
469.9
473.511
477.896
483.299
490.3
500.374
517.421
550.903
613.104
465.703
466.158
467.073
468.46
470.335
472.726
475.674
479.244
483.537
488.752
495.32
504.184
517.222
536.999
561.146
471.127
471.583
472.499
473.883
475.748
478.112
481.004
484.46
488.523
493.25
498.732
505.079
512.328
520.045
526.162
476.22
476.674
477.584
478.956
480.797
483.118
485.93
489.241
493.03
497.209
501.53
505.332
507.094
504.186
495.632
480.986
481.435
482.335
483.688
485.497
487.767
490.497
493.676
497.249
501.054
504.674
506.985
505.088
492.234
459.368
485.426
485.869
486.756
488.087
489.862
492.081
494.739
497.824
501.288
505.014
508.712
511.544
510.677
494.164
400.489
489.545
489.982
490.854
492.162
493.903
496.074
498.672
501.693
505.129
508.979
513.336
518.657
527.117
549.663
646.542
493.347
493.777
494.635
495.92
497.628
499.754
502.298
505.262
508.663
512.578
517.276
523.571
533.759
553.525
590.313
496.837
497.26
498.105
499.369
501.046
503.13
505.618
508.511
511.824
515.617
520.093
525.766
533.736
545.549
559.846
500.019
500.437
501.27
502.514
504.163
506.209
508.643
511.456
514.634
518.166
522.062
526.35
531.027
535.832
539.525
502.897
503.31
504.133
505.362
506.989
509.003
511.392
514.132
517.181
520.446
523.745
526.646
528.216
526.87
521.985
505.474
505.884
506.7
507.918
509.529
511.522
513.882
516.58
519.559
522.689
525.688
527.85
527.413
520.35
501.271
507.753
508.16
508.972
510.183
511.786
513.77
516.122
518.819
521.813
525.007
528.197
530.841
531.198
522.158
467.525
509.736
510.142
510.951
512.16
513.762
515.748
518.109
520.836
523.911
527.313
531.071
535.403
541.494
555.612
612.88
511.422
511.828
512.637
513.847
515.453
517.448
519.829
522.598
525.761
529.356
533.531
538.727
546.199
559.083
581.407
512.812
513.219
514.03
515.244
516.856
518.863
521.266
524.071
527.294
530.981
535.266
540.453
547.13
555.983
565.659
513.906
514.314
515.128
516.347
517.967
519.987
522.409
525.239
528.487
532.174
536.358
541.127
546.534
552.293
556.856
514.702
515.111
515.929
517.154
518.783
520.816
523.255
526.102
529.356
533.006
537.03
541.341
545.678
549.416
551.446
515.2
515.611
516.432
517.663
519.301
521.348
523.803
526.668
529.932
533.562
537.487
541.519
545.223
547.708
547.671
515.397
515.81
516.635
517.871
519.519
521.579
524.052
526.942
530.236
533.898
537.853
541.907
545.6
547.735
544.095
515.294
515.708
516.536
517.777
519.433
521.505
523.999
526.919
530.264
534.015
538.135
542.529
547.042
551.755
559.24
514.889
515.304
516.133
517.378
519.04
521.123
523.635
526.587
529.992
533.859
538.21
543.051
548.329
553.834
558.787
514.182
514.597
515.426
516.673
518.338
520.426
522.95
525.926
529.379
533.351
537.929
543.251
549.442
556.278
562.001
513.172
513.586
514.414
515.659
517.323
519.412
521.937
524.919
528.388
532.405
537.117
542.829
550.092
559.477
569.419
511.86
512.272
513.098
514.338
515.996
518.077
520.592
523.558
526.998
530.96
535.596
541.312
549.252
562.271
583.97
510.248
510.657
511.477
512.709
514.357
516.425
518.921
521.853
525.225
529.032
533.307
538.234
544.868
559.02
613.817
508.336
508.742
509.554
510.775
512.408
514.459
516.932
519.829
523.13
526.764
530.549
533.952
535.247
527.527
476.209
506.129
506.53
507.332
508.538
510.153
512.182
514.634
517.509
520.785
524.376
528.041
531.116
531.869
526.293
508.927
503.63
504.023
504.812
506
507.592
509.597
512.027
514.896
518.204
521.919
525.927
529.876
532.872
533.228
529.811
500.842
501.228
502
503.165
504.727
506.7
509.102
511.962
515.322
519.242
523.839
529.278
535.691
542.768
548.548
497.773
498.148
498.901
500.036
501.56
503.488
505.844
508.668
512.031
516.079
521.151
527.987
538.032
553.192
571.523
494.429
494.792
495.521
496.619
498.096
499.964
502.247
504.984
508.246
512.188
517.224
524.451
536.803
561.397
607.452
490.819
491.168
491.868
492.924
494.342
496.135
498.32
500.922
503.97
507.522
511.76
517.337
527.058
554.682
675.587
486.953
487.285
487.953
488.959
490.311
492.018
494.091
496.535
499.326
502.364
505.35
507.328
504.866
483.17
365.47
482.841
483.156
483.787
484.738
486.017
487.632
489.591
491.892
494.492
497.225
499.627
500.384
496.015
478.311
436.271
478.498
478.792
479.383
480.274
481.473
482.99
484.839
487.029
489.547
492.303
495.03
496.982
496.411
490.336
478.093
473.936
474.208
474.755
475.58
476.691
478.102
479.836
481.925
484.417
487.385
490.957
495.315
500.615
506.628
511.628
469.172
469.42
469.918
470.67
471.684
472.976
474.572
476.526
478.94
482.032
486.325
492.975
504.31
523.607
548.849
464.223
464.445
464.89
465.563
466.469
467.622
469.047
470.795
472.973
475.832
480.041
487.366
502.459
536.443
603.811
459.106
459.3
459.69
460.277
461.066
462.063
463.284
464.753
466.515
468.679
471.578
476.344
487.476
526.076
705.769
453.841
454.006
454.338
454.836
455.502
456.335
457.336
458.494
459.762
460.999
461.806
460.886
453.404
417.712
239.459
448.447
448.584
448.856
449.264
449.805
450.475
451.266
452.144
453.013
453.605
453.219
449.97
438.907
408.335
342.827
442.946
443.053
443.266
443.583
444.002
444.518
445.122
445.788
446.44
446.875
446.607
444.463
437.944
423.205
400.903
437.359
437.436
437.589
437.817
438.116
438.485
438.923
439.429
439.999
440.619
441.284
441.98
442.677
443.314
443.688
431.704
431.752
431.847
431.986
432.167
432.39
432.664
433.014
433.507
434.319
435.927
439.479
447.44
463.589
486.931
426.005
426.024
426.06
426.111
426.172
426.245
426.339
426.487
426.777
427.454
429.205
433.901
446.502
478.855
546.578
420.279
420.27
420.25
420.213
420.156
420.072
419.965
419.849
419.763
419.828
420.427
422.819
431.833
469.543
653.449
414.548
414.512
414.437
414.316
414.141
413.902
413.586
413.176
412.628
411.818
410.391
407.122
397.225
358.689
174.062
408.83
408.769
408.643
408.443
408.158
407.771
407.261
406.589
405.66
404.224
401.62
396.015
382.493
349.275
280.806
403.142
403.059
402.886
402.615
402.23
401.711
401.036
400.167
399.027
397.43
394.922
390.392
381.426
364.328
340.182
397.501
397.398
397.186
396.853
396.38
395.748
394.935
393.923
392.698
391.254
389.617
387.835
385.996
384.264
382.969
391.919
391.801
391.558
391.174
390.628
389.897
388.96
387.815
386.505
385.201
384.399
385.304
390.479
403.883
425.033
386.408
386.28
386.014
385.593
384.991
384.176
383.119
381.809
380.294
378.788
377.985
379.795
389.235
418.11
481.959
380.974
380.842
380.566
380.125
379.488
378.61
377.443
375.935
374.06
371.877
369.745
368.972
374.484
408.036
583.398
375.622
375.492
375.22
374.782
374.138
373.234
371.992
370.307
368.027
364.917
360.549
353.772
340.25
299.468
119.446
370.35
370.23
369.977
369.567
368.957
368.079
366.838
365.08
362.555
358.82
353.016
343.244
324.936
287.584
217.982
365.15
365.048
364.833
364.48
363.947
363.166
362.032
360.376
357.911
354.147
348.229
338.632
322.838
298.086
268.341
360.01
359.934
359.772
359.505
359.096
358.486
357.58
356.222
354.155
350.959
345.986
338.312
326.952
312.044
298.202
354.912
354.868
354.774
354.616
354.372
354
353.43
352.551
351.171
348.993
345.609
340.54
333.52
325.253
318.606
349.835
349.826
349.808
349.776
349.725
349.638
349.487
349.216
348.726
347.856
346.392
344.111
340.944
337.327
334.548
344.754
344.781
344.839
344.938
345.09
345.31
345.617
346.024
346.534
347.119
347.732
348.285
348.669
348.809
348.715
339.644
339.703
339.832
340.051
340.395
340.91
341.666
342.752
344.275
346.353
349.103
352.564
356.554
360.441
362.972
334.483
334.567
334.751
335.067
335.568
336.332
337.478
339.167
341.617
345.109
349.969
356.464
364.5
373.004
379.139
329.253
329.352
329.568
329.943
330.545
331.479
332.902
335.043
338.225
342.903
349.69
359.283
372.109
387.201
399.72
323.946
324.045
324.264
324.65
325.28
326.276
327.82
330.185
333.781
339.222
347.451
359.844
378.133
403.172
429.147
318.56
318.644
318.833
319.176
319.751
320.682
322.157
324.464
328.043
333.595
342.31
356.297
379.459
418.48
476.763
313.108
313.16
313.287
313.53
313.963
314.699
315.908
317.851
320.922
325.761
333.497
346.368
369.761
420.399
565.003
-1007.88
-747.113
-654.14
-609.56
-583.555
-566.619
-554.886
-546.456
-540.277
-535.708
-532.337
-529.89
-528.187
-527.111
-526.589
-852.152
-746.218
-673.831
-629.203
-600.627
-581.348
-567.777
-557.936
-550.672
-545.269
-541.261
-538.339
-536.297
-535.002
-534.374
-770.209
-722.006
-674.226
-637.68
-611.23
-592.096
-578.06
-567.613
-559.763
-553.847
-549.416
-546.161
-543.874
-542.417
-541.709
-721.96
-697.482
-666.801
-639.129
-616.736
-599.288
-585.834
-575.472
-567.496
-561.379
-556.737
-553.294
-550.858
-549.3
-548.539
-690.933
-677.246
-657.269
-636.894
-618.795
-603.688
-591.443
-581.66
-573.925
-567.872
-563.21
-559.713
-557.218
-555.613
-554.828
-669.634
-661.361
-647.993
-633.062
-618.759
-606.085
-595.323
-586.412
-579.17
-573.385
-568.856
-565.419
-562.945
-561.344
-560.558
-654.304
-648.997
-639.785
-628.776
-617.577
-607.138
-597.898
-589.99
-583.391
-578.01
-573.729
-570.439
-568.05
-566.494
-565.728
-642.883
-639.328
-632.807
-624.605
-615.852
-607.341
-599.532
-592.643
-586.753
-581.854
-577.896
-574.817
-572.561
-571.083
-570.351
-634.156
-631.701
-626.98
-620.798
-613.943
-607.04
-600.507
-594.588
-589.413
-585.03
-581.435
-578.607
-576.516
-575.138
-574.454
-627.358
-625.629
-622.151
-617.442
-612.053
-606.467
-601.037
-596.001
-591.51
-587.642
-584.426
-581.867
-579.961
-578.696
-578.066
-621.986
-620.757
-618.16
-614.539
-610.286
-605.767
-601.274
-597.021
-593.16
-589.784
-586.942
-584.659
-582.943
-581.8
-581.228
-617.691
-616.818
-614.862
-612.059
-608.69
-605.033
-601.326
-597.754
-594.459
-591.54
-589.054
-587.038
-585.513
-584.491
-583.978
-614.229
-613.615
-612.135
-609.954
-607.277
-604.318
-601.266
-598.278
-595.484
-592.978
-590.823
-589.06
-587.717
-586.813
-586.359
-611.417
-610.998
-609.878
-608.177
-606.046
-603.651
-601.142
-598.652
-596.294
-594.157
-592.302
-590.773
-589.601
-588.809
-588.409
-609.123
-608.851
-608.008
-606.681
-604.984
-603.046
-600.988
-598.918
-596.938
-595.125
-593.538
-592.22
-591.205
-590.516
-590.167
-607.242
-607.084
-606.456
-605.424
-604.074
-602.508
-600.823
-599.108
-597.45
-595.919
-594.569
-593.441
-592.567
-591.971
-591.67
-605.697
-605.628
-605.169
-604.371
-603.3
-602.037
-600.66
-599.242
-597.859
-596.572
-595.428
-594.467
-593.719
-593.208
-592.948
-604.424
-604.426
-604.102
-603.491
-602.645
-601.629
-600.506
-599.338
-598.187
-597.108
-596.144
-595.329
-594.691
-594.254
-594.031
-603.377
-603.434
-603.217
-602.756
-602.093
-601.279
-600.366
-599.405
-598.451
-597.55
-596.739
-596.05
-595.508
-595.136
-594.946
-602.514
-602.616
-602.486
-602.146
-601.63
-600.981
-600.242
-599.453
-598.663
-597.912
-597.232
-596.651
-596.192
-595.876
-595.714
-601.807
-601.945
-601.883
-601.64
-601.244
-600.73
-600.133
-599.487
-598.834
-598.208
-597.639
-597.149
-596.761
-596.493
-596.355
-601.229
-601.396
-601.389
-601.225
-600.925
-600.52
-600.039
-599.511
-598.97
-598.45
-597.972
-597.56
-597.231
-597.003
-596.886
-600.762
-600.951
-600.988
-600.886
-600.664
-600.348
-599.961
-599.527
-599.079
-598.645
-598.243
-597.895
-597.616
-597.421
-597.321
-600.388
-600.595
-600.667
-600.615
-600.454
-600.207
-599.895
-599.538
-599.165
-598.8
-598.46
-598.164
-597.925
-597.759
-597.673
-600.097
-600.317
-600.416
-600.402
-600.289
-600.096
-599.843
-599.546
-599.231
-598.921
-598.63
-598.375
-598.169
-598.024
-597.949
-599.878
-600.108
-600.227
-600.241
-600.163
-600.012
-599.802
-599.55
-599.28
-599.011
-598.759
-598.535
-598.354
-598.226
-598.16
-599.724
-599.962
-600.094
-600.127
-600.074
-599.951
-599.772
-599.552
-599.314
-599.075
-598.849
-598.648
-598.485
-598.37
-598.31
-599.631
-599.872
-600.012
-600.057
-600.018
-599.912
-599.752
-599.552
-599.333
-599.113
-598.904
-598.718
-598.567
-598.459
-598.404
-599.595
-599.838
-599.98
-600.029
-599.995
-599.895
-599.742
-599.549
-599.339
-599.127
-598.926