/*--------------------------------*- C++ -*----------------------------------*\
| =========                 |                                                 |
| \\      /  F ield         | OpenFOAM: The Open Source CFD Toolbox           |
|  \\    /   O peration     | Version:  5.x                                   |
|   \\  /    A nd           | Web:      www.OpenFOAM.org                      |
|    \\/     M anipulation  |                                                 |
\*---------------------------------------------------------------------------*/
FoamFile
{
    version     2.0;
    format      ascii;
    class       volScalarField;
    location    "5.5";
    object      gradTy;
}
// * * * * * * * * * * * * * * * * * * * * * * * * * * * * * * * * * * * * * //

dimensions      [0 -1 0 1 0 0 0];

internalField   nonuniform List<scalar> 
6300
(
1652.53
2955.73
4253.31
5541.52
6816.57
8074.63
9311.85
10524.4
11708.4
12860
13975.7
15051.9
16085.5
17073.6
18014.1
2.74118
8.23302
13.752
19.3111
24.916
30.5609
36.2245
41.8656
47.419
52.7925
57.866
62.4949
66.5181
69.7715
72.1062
4.55795
13.6912
22.8745
32.1334
41.4813
50.913
60.3979
69.872
79.2299
88.3185
96.9345
104.827
111.714
117.3
121.317
6.35702
19.0987
31.9202
44.8649
57.9602
71.2087
84.5784
97.9901
111.305
124.311
136.719
148.159
158.202
166.39
172.295
8.12812
24.425
40.8407
57.4431
74.2822
91.3789
108.712
126.199
143.68
160.894
177.461
192.878
206.533
217.75
225.878
9.85812
29.6312
49.5719
69.7813
90.3423
111.308
132.683
154.406
176.314
198.113
219.341
239.346
257.285
272.183
283.055
11.5306
34.668
58.0315
81.7638
105.993
130.819
156.299
182.416
209.044
235.888
262.43
287.863
311.061
330.625
345.052
13.1263
39.4764
66.1187
93.2447
121.039
149.668
179.267
209.906
241.542
273.95
306.611
338.595
368.45
394.182
413.46
14.6236
43.9905
73.7182
104.052
135.241
167.538
201.183
236.382
273.255
311.74
351.448
391.435
429.938
464.171
490.447
16.0002
48.1411
80.7073
113.997
148.329
184.049
221.532
261.17
303.336
348.288
395.983
445.734
495.67
542.086
579.115
17.2355
51.8632
86.9679
122.892
160.018
198.784
239.71
283.414
330.611
382.07
438.438
499.821
564.892
629.351
684.106
18.3131
55.1049
92.4034
130.579
170.055
211.346
255.095
302.145
353.604
410.918
475.85
550.19
634.686
726.28
812.527
19.2237
57.8367
96.9563
136.955
178.269
221.435
267.165
316.448
370.721
432.121
503.826
590.366
697.34
828.505
974.367
19.9677
60.0583
100.623
142.009
184.617
228.946
275.663
325.741
380.689
442.994
516.933
610.068
735.757
915.98
1175.04
20.555
61.8019
103.463
145.833
189.234
234.052
280.784
330.144
383.276
442.203
510.811
597.177
719.594
924.56
1349.89
18831
19538.9
20211.7
20849.7
21453.4
22023.6
22561.5
23068.4
23545.9
23995.9
24420
24820.3
25198.8
25557.4
25898.2
26223.2
26534.2
26833
27121.7
27401.7
27674.8
27942.4
28206.1
28467
28726.3
28985.1
29244
29503.9
29765.1
30028.1
30292.9
30559.5
30827.8
31097.5
31368.2
31639.7
31911.2
32182.4
32452.7
32721.3
32987.7
33251.1
33510.8
33765.9
34015.8
34259.6
34496.6
34726.2
34947.7
35160.6
35364.3
35558.3
35742
35915
36076.6
36226.3
36363.4
36487.2
36597
36692
36771.5
36834.7
36880.7
36908.5
36917.3
36906
36873.5
36818.4
36739.5
36635.1
36503.7
36343.4
36152.5
35928.9
35670.6
35375.5
35041.3
34665.8
34246.7
33781.8
33268.9
32705.9
32090.6
31421.3
30696.3
29914.3
29074.4
28176.1
27219.4
26204.6
73.3001
73.6294
73.1964
72.0242
70.1629
67.6839
64.6731
61.2241
57.4311
53.3847
49.1673
44.8519
40.5008
36.1665
31.8922
27.7135
23.6603
19.7585
16.0317
12.5029
9.19532
6.13365
3.34385
0.852766
-1.31326
-3.1305
-4.58068
-5.65409
-6.35248
-6.69095
-6.69801
-6.41335
-5.88312
-5.1538
-4.26591
-3.2493
-2.12153
-0.889682
0.444993
1.8807
3.40903
5.01081
6.65539
8.30357
9.91374
11.4494
12.886
14.2155
15.4472
16.6056
17.7255
18.8456
20.002
21.2229
22.5254
23.915
25.388
26.9357
28.5498
30.2275
31.975
33.809
35.7554
37.847
40.1197
42.6079
45.341
48.3396
51.6137
55.1623
58.9746
63.0315
67.309
71.7793
76.4125
81.1758
86.0319
90.9359
95.8327
100.653
105.314
109.712
113.731
117.241
120.103
122.181
123.348
123.502
122.571
120.53
123.37
123.929
123.171
121.138
117.923
113.654
108.487
102.588
96.1217
89.2455
82.1001
74.8079
67.4727
60.1798
52.999
45.9869
39.1904
32.6499
26.4022
20.4836
14.9319
9.78783
5.09555
0.901932
-2.74568
-5.8033
-8.23547
-10.0214
-11.1612
-11.6798
-11.6284
-11.0805
-10.1229
-8.84289
-7.31542
-5.59288
-3.70172
-1.64623
0.581426
2.98792
5.56571
8.28409
11.0872
13.9001
16.6416
19.2399
21.6471
23.848
25.8618
27.7373
29.5423
31.3517
33.234
35.2413
37.403
39.7248
42.1933
44.7855
47.4797
50.2658
53.1519
56.1669
59.3585
62.7874
66.52
70.6203
75.1424
80.1237
85.5818
91.5135
97.897
104.697
111.87
119.368
127.143
135.141
143.306
151.568
159.839
168.008
175.937
183.455
190.361
196.43
201.419
205.083
207.193
207.56
206.052
202.617
175.308
176.113
174.967
171.94
167.183
160.901
153.339
144.75
135.386
125.477
115.227
104.809
94.3661
84.0148
73.8464
63.9339
54.3365
45.1045
36.2842
27.9219
20.0677
12.7779
6.1159
0.151828
-5.04055
-9.38942
-12.8334
-15.3319
-16.8769
-17.502
-17.2865
-16.3505
-14.8397
-12.9014
-10.659
-8.1927
-5.53216
-2.6646
0.446208
3.83408
7.50523
11.4203
15.4895
19.5838
23.5596
27.2893
30.6888
33.7332
36.4589
38.9532
41.3357
43.7352
46.268
49.0193
52.0319
55.3047
58.8017
62.4695
66.2583
70.1406
74.1234
78.2509
82.6
87.2701
92.3701
98.0046
104.261
111.2
118.846
127.192
136.197
145.803
155.939
166.536
177.525
188.842
200.416
212.16
223.965
235.683
247.125
258.05
268.169
277.146
284.614
290.192
293.52
294.288
292.281
287.405
230.02
231.096
229.458
225.223
218.624
209.981
199.656
188.02
175.426
162.19
148.585
134.835
121.119
107.578
94.3172
81.4198
68.9497
56.9603
45.5011
34.6236
24.3866
14.8601
6.12792
-1.71245
-8.55263
-14.281
-18.7947
-22.0174
-23.9192
-24.5364
-23.9837
-22.45
-20.1739
-17.3998
-14.3274
-11.0745
-7.66324
-4.03589
-0.0908439
4.26932
9.0903
14.3309
19.8517
25.434
30.8275
35.8095
40.2369
44.0722
47.3839
50.325
53.0989
55.9211
58.9817
62.415
66.2796
70.5549
75.1573
79.9722
84.8947
89.8631
94.8787
100.008
105.371
111.125
117.441
124.484
132.388
141.246
151.093
161.908
173.62
186.131
199.332
213.123
227.422
242.158
257.262
272.649
288.197
303.738
319.037
333.787
347.6
360.014
370.508
378.522
383.51
384.991
382.616
376.227
288.584
289.967
287.672
281.89
272.993
261.468
247.847
232.656
216.377
199.425
182.144
164.804
147.614
130.728
114.259
98.2848
82.8657
68.0484
53.8769
40.4003
27.6803
15.7971
4.85463
-5.01753
-13.6659
-20.9213
-26.6148
-30.6044
-32.8104
-33.2549
-32.093
-29.6181
-26.225
-22.3273
-18.2559
-14.1842
-10.1058
-5.86514
-1.22634
4.04017
10.0701
16.837
24.1237
31.5544
38.6855
45.1261
50.6349
55.1622
58.8395
61.9343
64.7895
67.7603
71.1554
75.1862
79.932
85.3302
91.2023
97.3153
103.46
109.512
115.465
121.422
127.573
134.164
141.461
149.715
159.135
169.859
181.937
195.321
209.885
225.456
241.862
258.966
276.675
294.93
313.688
332.887
352.424
372.123
391.723
410.852
429.023
445.629
459.95
471.189
478.53
481.226
478.712
470.712
352.379
354.116
350.889
343.028
331.134
315.958
298.284
278.847
258.287
237.128
215.78
194.553
173.669
153.279
133.486
114.352
95.9169
78.2092
61.2554
45.0919
29.774
15.3854
2.04679
-10.0775
-20.7774
-29.8025
-36.8798
-41.7508
-44.2293
-44.2777
-42.0837
-38.0994
-32.9941
-27.4962
-22.1762
-17.2953
-12.7737
-8.25983
-3.2581
2.71907
9.99621
18.6015
28.1954
38.1129
47.5441
55.7907
62.4521
67.4818
71.1394
73.894
76.3188
78.9939
82.4188
86.933
92.65
99.4278
106.905
114.617
122.161
129.309
136.049
142.558
149.143
156.189
164.103
173.268
184.004
196.524
210.899
227.035
244.696
263.574
283.384
303.934
325.133
346.971
369.469
392.631
416.404
440.641
465.073
489.283
512.687
534.516
553.812
569.452
580.221
584.947
582.69
572.953
423.243
425.39
420.759
409.951
393.98
374.026
351.241
326.638
301.042
275.084
249.228
223.796
198.998
174.961
151.754
129.404
107.915
87.2788
67.4917
48.5626
30.5272
13.4602
-2.51022
-17.1885
-30.3
-41.487
-50.3201
-56.3404
-59.1452
-58.5272
-54.6503
-48.1929
-40.3267
-32.4073
-25.4631
-19.8882
-15.4297
-11.3565
-6.6944
-0.474434
8.00882
18.9412
31.7996
45.3696
58.1064
68.7351
76.6159
81.774
84.736
86.3246
87.4833
89.1432
92.1092
96.9428
103.835
112.514
122.263
132.156
141.425
149.686
156.96
163.575
170.042
176.957
184.934
194.548
206.292
220.508
237.314
256.539
277.74
300.333
323.826
347.949
372.653
398.042
424.271
451.472
479.692
508.852
538.714
568.846
598.59
627.021
652.907
674.696
690.581
698.688
697.405
685.788
503.799
506.397
499.497
484.283
462.535
436.143
406.791
375.836
344.291
312.87
282.043
252.103
223.209
195.429
168.77
143.201
118.668
95.1119
72.4794
50.7348
29.8752
9.94632
-8.9365
-26.5632
-42.601
-56.5671
-67.8164
-75.5656
-78.9949
-77.4743
-70.9378
-60.3205
-47.7417
-35.9203
-26.7851
-20.8809
-17.5383
-15.3092
-12.382
-6.93557
2.48546
16.4976
34.3686
53.8145
71.692
85.6235
94.6871
99.2146
100.297
99.3604
97.9119
97.3968
99.0954
103.972
112.434
124.041
137.397
150.577
162.122
171.466
178.802
184.785
190.274
196.177
203.385
212.74
224.998
240.739
260.219
283.174
308.752
335.769
363.332
391.092
419.156
447.869
477.639
508.807
541.586
576.012
611.923
648.922
686.335
723.141
757.853
788.392
812.087
825.9
826.947
813.326
598.059
601.046
590.175
567.985
537.746
502.491
464.623
425.86
387.344
349.781
313.567
278.891
245.805
214.274
184.21
155.499
128.01
101.613
76.1872
51.633
27.8845
4.92881
-17.1676
-38.2212
-57.8791
-75.5527
-90.3452
-101.003
-105.964
-103.636
-93.0937
-75.2654
-54.0597
-35.5595
-23.4495
-18.1804
-18.0388
-20.2628
-21.6929
-19.1154
-9.64468
8.50095
34.6722
64.5197
90.9606
109.521
119.289
121.615
118.762
113.133
106.996
102.463
101.505
105.84
116.501
133.047
152.782
171.347
185.988
196.131
202.585
206.703
209.906
213.513
218.738
226.745
238.679
255.581
278.108
306.022
337.68
370.405
402.537
433.783
464.702
496.154
528.969
563.8
601.08
641.006
683.534
728.367
774.921
822.241
868.77
911.901
947.78
971.45
977.566
961.994
712.778
715.607
697.112
663.244
620.145
572.572
523.713
475.5
429.001
384.728
342.859
303.375
266.148
230.993
197.694
166.029
135.773
106.711
78.6374
51.3698
24.7524
-1.32436
-26.8974
-51.8845
-76.0089
-98.6803
-118.82
-134.636
-143.421
-141.618
-125.734
-95.0671
-56.4767
-25.9924
-10.259
-8.0926
-15.1292
-26.3557
-36.7708
-41.2178
-34.2634
-11.0503
29.6831
80.1296
121.574
146.079
154.605
151.472
141.222
127.633
113.77
102.377
96.2908
98.5936
112.094
137.459
169.847
197.762
216.323
226.104
229.726
229.93
228.947
228.51
230.075
235.088
245.197
262.309
288.231
323.463
365.056
405.879
442.996
476.923
509.459
542.452
577.366
615.237
656.732
702.218
751.791
805.296
862.362
922.435
984.532
1045.8
1101
1142.22
1159.36
1142.7
860.906
860.83
826.144
771.755
708.946
644.468
581.837
522.641
467.421
416.185
368.688
324.584
283.488
245.018
208.81
174.515
141.805
110.372
79.9182
50.1621
20.8356
-8.30758
-37.474
-66.7918
-96.2312
-125.452
-153.518
-178.39
-196.123
-199.872
-179.657
-126.278
-47.222
4.81338
22.4643
15.2438
-6.18961
-33.6199
-60.4446
-79.7405
-82.2973
-55.8346
10.7007
108.693
176.572
205.632
206.697
191.564
168.477
142.519
116.974
94.6396
78.987
75.2131
90.5888
131.746
193.337
237.631
259.285
264.926
261.773
254.848
247.184
240.605
236.431
236.075
241.61
256.332
284.925
331.72
393.512
446.661
488.02
522.03
553.522
585.946
621.468
661.412
706.593
757.496
814.334
877.046
945.415
1019.66
1101.42
1188.38
1274.28
1347.61
1389.76
1376.45
1072.42
1055.84
983.49
892.342
800.104
713.661
634.977
564.025
500.076
442.23
389.613
341.441
297.028
255.776
217.158
180.707
145.994
112.617
80.1918
48.3348
16.6555
-15.2547
-47.8285
-81.5176
-116.76
-153.878
-192.804
-232.412
-268.947
-292.621
-281.322
-194.455
0.947892
85.1352
91.0035
59.0482
11.3882
-41.7519
-94.9543
-142.36
-172.112
-158.317
-53.5767
180.617
287.462
305.489
282.107
243.103
199.862
156.803
115.555
77.2786
44.5771
24.2568
31.9579
96.6036
241.731
310.092
325.296
316.402
299.24
280.82
263.85
249.226
237.28
228.569
224.784
230.369
255.396
318.365
434.397
504.398
543.603
570.736
596.216
624.947
659.17
700.012
748.175
804.188
868.375
940.601
1019.96
1105.99
1210.76
1332.43
1465.58
1597.82
1699.93
1712.01
1436.11
1331.09
1167.84
1014.44
882.863
771.634
676.943
595.287
523.91
460.716
404.111
352.863
305.996
262.72
222.373
184.385
148.246
113.484
79.6401
46.247
12.8054
-21.2471
-56.5757
-94.0031
-134.583
-179.692
-231.098
-290.846
-360.275
-435.717
-491.789
-418.912
209.267
278.23
214.002
125.463
36.8555
-49.7931
-137.807
-230.396
-324.624
-391.755
-304.265
435.912
526.235
464.958
379.996
300.728
230.975
168.47
109.849
51.885
-7.66489
-67.0524
-108.676
-54.4377
400.652
459.084
425.989
379.765
338.503
304.688
277.122
253.976
233.456
213.957
194.453
176.393
171.216
228.58
541.539
606.452
616.536
621.789
634.194
656
687.301
728.026
778.409
839.059
910.785
993.829
1084.84
1165.27
1295.68
1459.86
1658.13
1891.31
2139.63
2293.23
2292.7
1690.09
1337.93
1105.05
936.263
805.741
700.091
611.708
535.924
469.682
410.868
357.951
309.774
265.429
224.175
185.385
148.505
113.021
78.4325
44.2245
9.83245
-25.4021
-62.2987
-101.945
-145.879
-196.428
-257.37
-335.322
-442.924
-606.681
-887.916
-1442.98
1222.84
663.104
371.994
191.967
59.4984
-55.867
-174.067
-316.058
-516.143
-847.825
-1494.81
1626.97
983.283
658.505
469.666
344.635
251.637
174.533
103.189
28.7722
-60.1412
-183.939
-387.346
-782.703
1130.74
739.848
545.565
435.96
367.023
319.539
284.015
254.927
228.15
199.339
162.029
103.856
-3.03502
-229.274
1005.83
787.425
696.388
662.505
658.598
673.339
701.821
742.086
793.812
857.928
936.839
1035.53
1164.87
1152.52
1331.91
1538.12
1800.31
2162.87
2715.62
3669.97
25025.6
23659.8
22217.8
20704.1
19123.8
17482.6
15786.4
14041.3
12253.5
10429.1
8573.96
6694.03
4794.98
2882.38
961.689
117.085
111.861
105.369
97.8604
89.6074
80.8746
71.8943
62.8533
53.888
45.0856
36.4899
28.1087
19.9218
11.8879
3.95141
196.758
187.834
176.736
163.919
149.872
135.061
119.887
104.668
89.6294
74.9108
60.5767
46.6317
33.0334
19.7056
6.54891
278.944
265.962
249.804
231.192
210.888
189.597
167.913
146.292
125.042
104.344
84.2699
64.8055
45.8737
27.3521
9.08803
364.86
347.246
325.307
300.142
272.874
244.511
215.866
187.532
159.892
133.145
107.346
82.4421
58.3016
34.7403
11.5393
455.973
432.837
404.021
371.181
335.941
299.693
263.496
228.069
193.838
160.987
129.519
99.3084
70.1462
41.7663
13.8679
554.124
524.089
486.742
444.601
400.003
354.811
310.342
267.402
226.398
187.438
150.424
115.119
81.2034
48.3075
16.033
661.735
622.62
574.226
520.452
464.632
409.187
355.639
304.784
256.903
211.936
169.612
129.532
91.2349
54.2238
17.9883
782.169
730.384
667.045
598.309
528.853
461.637
398.216
339.17
284.478
233.781
186.545
142.155
99.9741
59.3607
19.6833
920.359
849.662
765.228
676.855
590.804
510.267
436.395
369.18
308.041
252.152
200.62
152.562
107.139
63.5577
21.0659
1083.78
982.635
867.312
753.046
647.212
552.205
467.892
393.095
326.336
266.151
211.208
160.323
112.454
66.6617
22.0869
1284
1129.72
968.28
820.749
692.755
583.416
489.842
408.949
338.039
274.895
217.724
165.06
115.683
68.5442
22.7058
1537.56
1283.89
1055.29
868.862
719.603
598.828
499.081
414.795
341.955
277.651
219.719
166.5
116.668
69.1219
22.8965
1854.4
1412.94
1100.06
879.758
717.924
593.18
492.829
409.169
337.317
274.019
216.99
164.541
115.36
68.3745
22.6536
2133.86
1413.3
1052.2
832.131
679.112
563.103
469.858
391.711
324.106
264.102
209.666
159.302
111.851
66.3584
21.9961
20.9768
63.0459
105.461
148.453
192.251
237.09
283.218
330.932
380.66
433.162
490.025
554.843
636.086
754.341
960.813
21.2703
63.9072
106.828
150.204
194.177
238.833
284.167
330.03
376.025
421.363
464.55
502.594
528.06
516.504
368.525
21.496
64.5686
107.874
151.535
195.62
240.094
284.74
329.021
371.831
411.037
442.63
459.059
445.716
373.384
185.296
21.6651
65.0656
108.667
152.565
196.785
241.225
285.553
329.021
370.124
405.978
431.222
436.181
404.316
310.635
128.8
21.7842
65.4204
109.25
153.364
197.788
242.424
286.953
330.651
372.044
408.269
433.884
438.855
405.83
309.09
124.911
21.8554
65.6383
109.63
153.941
198.636
243.688
288.92
333.867
377.539
417.912
450.864
467.895
451.574
368.254
166.603
21.8756
65.7086
109.783
154.246
199.226
244.819
291.071
337.954
385.308
432.692
478.882
520.078
543.825
509.577
299.646
21.8383
65.6086
109.661
154.186
199.384
245.482
292.773
341.7
393.041
448.288
510.345
584.36
676.33
772.881
703.067
21.7349
65.3102
109.206
153.651
198.907
245.307
293.328
343.756
398.043
459.138
533.481
636.149
805.627
1151.68
2034.46
21.5574
64.7867
108.365
152.546
197.629
243.997
292.2
343.117
398.301
460.772
536.925
641.52
812.267
1157.72
2037.08
21.2999
64.0186
107.1
150.809
195.45
241.404
289.178
339.502
393.482
452.889
520.595
600.926
697.549
792.954
712.17
20.9592
62.9964
105.396
148.417
192.351
237.537
284.376
333.333
384.879
439.225
495.478
548.994
583.65
550.507
320.262
20.5353
61.7209
103.255
145.385
188.375
232.512
278.091
325.356
374.314
424.221
472.242
510.139
516.811
444.915
213.256
20.0309
60.2009
100.698
141.75
183.595
226.476
270.624
316.19
363.075
410.509
456.019
492.949
504.513
450.254
241.555
19.4507
58.4515
97.7527
137.56
178.087
219.551
262.162
306.096
351.442
398.117
445.738
493.354
537.905
562.826
460.409
18.8007
56.4915
94.4517
132.865
171.923
211.822
252.771
295.01
338.873
385.053
435.444
495.87
584.908
763.807
1247.58
18.0881
54.3424
90.8324
127.719
165.167
203.354
242.476
282.783
324.682
369.05
418.163
478.497
569.487
753.04
1243.8
17.3204
52.0276
86.9345
122.177
157.893
194.231
231.349
269.44
308.765
349.738
393.076
439.817
489.764
528.911
448.648
16.506
49.5722
82.8006
116.3
150.182
184.557
219.539
255.232
291.69
328.771
365.61
398.894
417.524
387.685
220.868
15.6536
47.0022
78.4752
110.155
142.122
174.456
207.228
240.482
274.172
307.96
340.6
368.132
378.926
341.568
183.998
14.7718
44.3444
74.0034
103.805
133.802
164.044
194.574
225.42
256.576
287.935
319.124
348.98
373.754
378.92
293.248
13.8693
41.6249
69.4302
97.3155
125.307
153.427
181.694
210.137
238.828
268.019
298.562
333.344
382.185
479.341
750.281
12.9548
38.8696
64.7991
90.7489
116.719
142.702
168.686
194.672
220.725
247.154
275.046
307.933
357.05
459.061
741.809
12.0361
36.1028
60.1517
84.1653
108.118
131.97
155.671
179.154
202.355
225.264
248.053
271.239
295.169
313.253
264.268
11.1208
33.3473
55.527
77.6215
99.5818
121.341
142.802
163.825
184.179
203.45
220.774
234.02
237.338
214.008
119.738
10.2155
30.6234
50.9595
71.1686
91.1828
110.913
130.235
148.956
166.748
182.983
196.318
203.686
198.004
164.02
76.042
9.32611
27.9484
46.4788
64.8489
82.9782
100.766
118.08
134.726
150.394
164.524
176.001
182.409
178.316
151.522
76.8614
8.45726
25.3365
42.1082
58.6945
75.008
90.9465
106.386
121.173
135.103
147.904
159.198
168.418
174.388
172.259
132.583
7.61272
22.7988
37.8654
52.7282
67.2963
81.4704
95.1439
108.21
120.592
132.326
143.829
156.68
176.08
219.065
344.888
6.79538
20.3436
33.7634
46.9655
59.8567
72.3403
84.3209
95.7214
106.527
116.906
127.522
140.39
161.387
208.337
340.819
6.00746
17.9775
29.812
41.4179
52.6994
63.5583
73.8995
83.6436
92.7574
101.32
109.646
118.451
128.668
138.204
119.346
5.2507
15.7053
26.019
36.0954
45.835
55.1354
63.8922
72.0026
79.3692
85.8962
91.4363
95.531
96.4186
87.7863
50.5324
4.52641
13.5311
22.3909
31.0066
39.2756
47.0899
54.3339
60.8782
66.5639
71.1577
74.23
74.8369
70.7792
57.2433
26.0305
3.83557
11.4578
18.9326
26.1591
33.0324
39.4412
45.2622
50.3508
54.5175
57.4767
58.7368
57.3828
51.7227
38.9764
16.0068
3.17883
9.48724
15.6472
21.5575
27.1129
32.2017
36.7006
40.4654
43.3115
44.9776
45.0611
42.9214
37.5897
27.8117
12.2652
2.55647
7.62027
12.5361
17.2034
21.5188
25.3735
28.6509
31.2203
32.9275
33.5807
32.9328
30.6807
26.5487
20.6581
14.7672
1.96846
5.85672
9.59861
13.0954
16.2465
18.9488
21.0958
22.5771
23.2793
23.0915
21.9231
19.7506
16.7353
13.5132
12.0607
1.41452
4.19563
6.83272
9.2293
11.2884
12.9127
14.0065
14.479
14.2538
13.2886
11.6163
9.41238
7.07273
5.14872
3.46918
0.894207
2.63551
4.23547
5.59989
6.63503
7.24871
7.35304
6.87054
5.74762
3.98309
1.68553
-0.824351
-2.8707
-3.37795
-1.46459
0.406983
1.17468
1.80366
2.20179
2.27781
1.94266
1.11211
-0.287395
-2.30638
-4.94485
-8.08984
-11.3745
-13.8746
-13.5785
-7.10023
-0.0476831
-0.188523
-0.465677
-0.969617
-1.78996
-3.01457
-4.72798
-7.00848
-9.92263
-13.5125
-17.759
-22.4596
-26.8105
-28.0639
-18.0947
-0.47029
-1.45562
-2.57511
-3.9179
-5.57259
-7.62695
-10.1678
-13.282
-17.0611
-21.6146
-27.102
-33.7757
-41.8854
-50.3314
-47.2912
-0.861292
-2.62796
-4.52681
-6.64583
-9.07282
-11.8955
-15.2023
-19.0855
-23.652
-29.0573
-35.6087
-44.0809
-56.7112
-80.5584
-140.044
-1.22111
-3.70676
-6.3227
-9.15579
-12.293
-15.8213
-19.8288
-24.4054
-29.65
-35.6919
-42.7678
-51.4825
-63.7284
-86.0112
-142.255
-1.55015
-4.69323
-7.96465
-11.4501
-15.2357
-19.4075
-24.0515
-29.2515
-35.0826
-41.5956
-48.7736
-56.4149
-63.7552
-67.8537
-54.7431
-1.84884
-5.58858
-9.45458
-13.5314
-17.904
-22.6582
-27.8793
-33.6487
-40.0294
-47.0234
-54.4421
-61.5385
-66.0134
-61.6264
-34.1426
-2.11763
-6.39416
-10.7946
-15.4021
-20.3009
-25.5765
-31.3168
-37.6101
-44.5373
-52.1412
-60.3176
-68.464
-74.4062
-71.4206
-41.8668
-2.35705
-7.11148
-11.9871
-17.0653
-22.4291
-28.1639
-34.3604
-41.1194
-48.5617
-56.8458
-66.1962
-76.9003
-88.978
-99.6452
-87.2043
-2.56771
-7.74238
-13.035
-18.5248
-24.2925
-30.4217
-37.0028
-44.1422
-51.987
-60.7935
-71.1161
-84.3611
-104.505
-143.89
-244.996
-2.75031
-8.289
-13.9419
-19.7856
-25.8975
-32.3567
-39.2467
-46.6621
-54.7299
-63.6713
-73.9865
-87.0079
-106.643
-145.235
-245.419
-2.90569
-8.75383
-14.7122
-20.8544
-27.2538
-33.9833
-41.1146
-48.7159
-56.8506
-65.5777
-74.9575
-85.0388
-95.5877
-103.77
-88.4194
-3.03471
-9.13957
-15.3506
-21.7385
-28.3731
-35.3216
-42.6448
-50.3858
-58.5444
-67.0135
-75.4215
-82.7228
-86.1506
-78.6212
-43.5409
-3.13829
-9.44898
-15.8619
-22.4453
-29.2664
-36.3901
-43.8735
-51.7523
-60.0066
-68.4743
-76.6343
-83.0753
-84.3005
-72.5842
-34.7636
-3.21735
-9.68478
-16.2506
-22.9807
-29.9415
-37.199
-44.8161
-52.8447
-61.3049
-70.1309
-79.0216
-87.0285
-91.4166
-84.6573
-47.9962
-3.27282
-9.84971
-16.5206
-23.3495
-30.4024
-37.7483
-45.4613
-53.6236
-62.3335
-71.7248
-82.003
-93.473
-106.251
-117.475
-102.42
-3.30576
-9.94673
-16.6766
-23.5566
-30.6516
-38.0327
-45.7826
-54.0082
-62.873
-72.6847
-84.1359
-98.9862
-122.14
-168.514
-288.613
-3.31739
-9.97942
-16.7238
-23.6081
-30.6941
-38.0511
-45.7617
-53.935
-62.7388
-72.4882
-83.887
-98.709
-121.875
-168.316
-288.538
-3.30926
-9.95228
-16.6695
-23.5133
-30.5404
-37.8142
-45.4081
-53.41
-61.9316
-71.1286
-81.2398
-92.6136
-105.418
-116.84
-102.173
-3.28328
-9.87099
-16.523
-23.285
-30.2072
-37.3452
-44.7596
-52.5106
-60.6395
-69.1167
-77.6958
-85.5024
-89.8956
-83.4552
-47.5039
-3.24179
-9.7425
-16.2956
-22.9392
-29.7162
-36.6747
-43.8662
-51.3355
-59.0898
-67.0165
-74.6692
-80.7404
-81.8747
-70.5439
-33.8356
-3.18757
-9.57514
-16.001
-22.4947
-29.0911
-35.8327
-42.7686
-49.9492
-57.4053
-65.0895
-72.7224
-79.3864
-82.4902
-75.239
-41.6612
-3.12394
-9.37867
-15.6553
-21.9728
-28.3575
-34.8461
-41.4899
-48.3589
-55.5473
-63.1817
-71.4302
-80.485
-90.2762
-98.1983
-84.0217
-3.05475
-9.1646
-15.2769
-21.3984
-27.5441
-33.7425
-40.0438
-46.5338
-53.3651
-60.831
-69.5593
-81.0519
-99.3377
-136.48
-233.214
-2.98453
-8.94641
-14.8881
-20.8014
-26.6866
-32.5585
-38.4559
-44.4591
-50.7275
-57.5876
-65.7497
-76.8805
-95.2796
-133.344
-231.983
-2.91853
-8.73983
-14.5151
-20.2183
-25.8311
-31.3481
-36.7842
-42.1878
-47.6648
-53.4245
-59.8604
-67.6414
-77.5403
-88.1101
-79.9416
-2.86273
-8.56289
-14.1882
-19.6924
-25.0351
-30.1854
-35.1251
-39.8538
-44.392
-48.7769
-53.0201
-56.9126
-59.3138
-55.8659
-33.2379
-2.82377
-8.4357
-13.9415
-19.273
-24.3658
-29.1605
-33.6028
-37.6406
-41.2123
-44.213
-46.4072
-47.2019
-45.1314
-36.9246
-16.9748
-2.80883
-8.38003
-13.8122
-19.0142
-23.8967
-28.372
-32.3519
-35.7403
-38.4162
-40.1952
-40.7509
-39.4643
-35.1944
-26.1248
-10.4273
-2.82549
-8.41879
-13.8392
-18.9721
-23.7036
-27.9195
-31.5023
-34.324
-36.2306
-37.0132
-36.3594
-33.7826
-28.5744
-19.9134
-7.45368
-2.88156
-8.57558
-14.0623
-19.2039
-23.8623
-27.8988
-31.172
-33.5325
-34.8135
-34.8157
-33.2881
-29.9124
-24.3349
-16.3222
-6.16499
-2.98494
-8.87428
-14.5219
-19.7665
-24.4466
-28.4008
-31.4668
-33.4804
-34.2726
-33.6677
-31.4855
-27.5549
-21.7676
-14.1954
-5.29846
-3.14363
-9.33891
-15.258
-20.7163
-25.5292
-29.5124
-32.4841
-34.2666
-34.6905
-33.6027
-30.8828
-26.4712
-20.4214
-12.9644
-4.52582
-3.36559
-9.99344
-16.3109
-22.1099
-27.182
-31.3196
-34.3191
-35.9867
-36.1471
-34.6592
-31.4415
-26.5105
-20.0361
-12.3981
-4.16443
-3.65872
-10.8617
-17.7206
-24.0038
-29.4782
-33.9103
-37.0712
-38.7443
-38.7377
-36.9053
-33.1775
-27.6078
-20.4449
-12.2329
-3.86225
-4.03077
-11.9672
-19.527
-26.4552
-32.4927
-37.3772
-40.849
-42.6594
-42.5862
-40.4566
-36.1804
-29.7983
-21.5696
-12.1671
-3.10619
-4.48915
-13.3326
-21.7692
-29.5212
-36.3023
-41.8188
-45.7732
-47.8741
-47.853
-45.4879
-40.6339
-33.2582
-23.4962
-11.8521
-0.365432
-5.04066
-14.9788
-24.4841
-33.2573
-40.9852
-47.3391
-51.9771
-54.554
-54.7381
-52.2369
-46.8266
-38.3624
-26.7153
-11.4121
9.85816
-5.69107
-16.924
-27.7046
-37.7155
-46.6175
-54.045
-59.6055
-62.8876
-63.4788
-60.9962
-55.128
-45.6638
-32.4572
-15.0938
8.58849
-6.44455
-19.1819
-31.4571
-42.9401
-53.2693
-62.0418
-68.8095
-73.0822
-74.3452
-72.0971
-65.9156
-55.5515
-41.0702
-23.1422
-4.26297
-7.30296
-21.7591
-35.7571
-48.9625
-60.9974
-71.4255
-79.74
-85.3596
-87.6414
-85.9206
-79.5975
-68.2872
-52.0637
-31.8369
-9.9117
-8.2649
-24.653
-40.6051
-55.7941
-69.837
-82.2719
-92.5358
-99.9481
-103.709
-102.932
-96.7335
-84.425
-65.8273
-41.7018
-14.0954
-9.32478
-27.8483
-45.9807
-63.4182
-79.7889
-94.6208
-107.306
-117.066
-122.921
-123.699
-118.104
-104.922
-83.4218
-53.9777
-18.6821
-10.4718
-31.3137
-51.8367
-71.78
-90.8053
-108.455
-124.103
-136.888
-145.651
-148.885
-144.737
-131.187
-106.526
-70.3125
-24.7033
-11.6889
-34.9993
-58.093
-80.776
-102.772
-123.676
-142.881
-159.496
-172.216
-179.189
-177.892
-165.162
-137.648
-93.1678
-33.3601
-12.9524
-38.8339
-64.6322
-90.2457
-115.495
-140.07
-163.453
-184.801
-202.764
-215.228
-218.98
-209.398
-180.545
-126.664
-46.8158
-14.2318
-42.7251
-71.2974
-99.9653
-128.681
-157.287
-185.433
-212.451
-237.124
-257.31
-269.32
-267.009
-240.817
-178.188
-69.8418
-15.49
-46.56
-77.894
-109.648
-141.941
-174.818
-208.191
-241.722
-274.592
-305.061
-329.599
-341.195
-326.387
-261.455
-114.628
-16.6855
-50.2102
-84.1967
-118.954
-154.79
-191.998
-230.834
-271.445
-313.719
-356.924
-398.856
-433.71
-446.757
-401.588
-216.652
-17.7738
-53.5385
-89.9617
-127.508
-166.681
-208.043
-252.238
-300.007
-352.19
-409.663
-473.02
-541.357
-607.542
-638.774
-491.149
-18.711
-56.4083
-94.9449
-134.928
-177.046
-222.115
-271.154
-325.496
-386.981
-458.306
-543.712
-650.487
-792.587
-1000.15
-1345.27
1508.53
1123.2
891.092
731.926
612.136
516.186
435.964
366.748
305.538
250.282
199.492
152.027
106.971
63.5509
21.0798
551.013
717.429
682.941
608.948
532.334
461.181
396.554
337.824
284.033
234.254
187.665
143.547
101.27
60.2644
20.006
243.2
451.144
502.194
487.765
448.719
401.624
353.033
305.454
259.73
216.002
174.114
133.784
94.6807
56.4569
18.7604
128.746
293.794
366.899
383.656
370.675
343.09
308.796
271.785
234.03
196.463
159.474
123.163
87.4775
52.2811
17.3921
78.4839
200.281
270.72
300.181
302.759
289.2
266.432
238.621
208.19
176.515
144.356
112.102
79.9315
47.8897
15.9505
52.6421
142.427
202.988
235.364
246.035
241.694
227.56
207.267
183.205
156.897
129.296
100.981
72.2926
43.4251
14.4818
37.5619
104.86
154.819
185.61
199.726
200.978
192.957
178.522
159.771
138.172
114.728
90.1135
64.7754
39.0116
13.0266
27.9149
79.3295
119.954
147.429
162.343
166.693
162.799
152.768
138.307
120.721
100.969
79.7453
57.5512
34.7503
11.6184
21.3329
61.2886
94.2176
117.964
132.29
138.126
136.897
130.083
119.009
104.769
88.2264
70.0482
50.7461
30.7176
10.2827
16.6319
48.1247
74.8536
95.0373
108.126
114.46
114.867
110.352
101.906
90.4122
76.6165
61.1287
44.4435
26.9658
9.03731
13.1602
38.2673
60.0318
77.0336
88.649
94.9049
96.2501
93.3454
86.9139
77.6504
66.1787
53.0385
38.6896
23.526
7.89305
10.5305
30.7297
48.515
62.7673
72.8902
78.7564
80.5807
78.7847
73.8853
66.419
56.8971
45.7855
33.5
20.4112
6.85486
8.49905
24.867
39.4498
51.3661
60.0846
65.4115
67.4222
66.3758
62.6364
56.6124
48.7171
39.346
28.867
17.6203
5.92293
6.90481
20.2432
32.2348
42.1833
49.6318
54.3668
56.3839
55.8345
52.9714
48.1031
41.5602
33.6743
24.766
15.1417
5.0939
5.63756
16.5537
26.4371
34.7351
41.0613
45.2072
47.1256
46.8977
44.697
40.7549
35.3345
28.7111
21.1613
12.9565
4.36194
4.61939
13.5806
21.7395
28.6546
34.0031
37.5929
39.3559
39.3291
37.63
34.4317
29.9426
24.3903
18.0107
11.0415
3.7196
3.79376
11.1642
17.9046
23.661
28.165
31.2456
32.8275
32.9204
31.6026
29.0036
25.2881
20.6432
15.2687
9.37094
3.15861
3.11871
9.18487
14.7523
19.5362
23.3144
25.9378
27.3318
27.49
26.4637
24.3496
21.2779
17.4019
12.8897
7.91848
2.67034
2.56249
7.5515
12.1436
16.1091
19.2647
21.4828
22.6934
22.8813
22.0793
20.3599
17.8256
14.6017
10.8289
6.65805
2.24624
2.10058
6.19347
9.96966
13.2438
15.8655
17.7267
18.7643
18.9591
18.3314
16.9352
14.8515
12.1822
9.04413
5.56472
1.87807
1.71379
5.05517
8.144
10.8312
12.9939
14.5419
15.4199
15.6074
15.1165
13.9873
12.2837
10.0878
7.49611
4.61514
1.55808
1.3868
4.0921
6.59703
8.7824
10.5489
11.822
12.5544
12.7264
12.3444
11.4381
10.0573
8.26795
6.14877
3.78771
1.2791
1.10719
3.26809
5.27181
7.02427
8.44628
9.47734
10.0779
10.2299
9.93602
9.21806
8.11432
6.67697
4.96924
3.06265
1.03451
0.864724
2.55317
4.12098
5.49552
6.61499
7.43146
7.91267
8.04276
7.82201
7.26578
6.40289
5.27365
3.92772
2.42196
0.818308
0.650729
1.922
3.10436
4.14386
4.99409
5.61837
5.99126
6.09925
5.94094
5.52644
4.87641
4.02078
2.99717
1.84924
0.62499
0.457706
1.35262
2.18701
2.92371
3.53017
3.97996
4.25388
4.34078
4.23788
3.95073
3.49279
2.88464
2.15301
1.32956
0.44955
0.278946
0.825344
1.33761
1.79416
2.17526
2.4639
2.64662
2.71434
2.66299
2.49385
2.21366
1.8344
1.37272
0.849216
0.287397
0.108208
0.321897
0.527098
0.717257
0.88487
1.02173
1.11958
1.17098
1.17026
1.11441