/*--------------------------------*- C++ -*----------------------------------*\
| =========                 |                                                 |
| \\      /  F ield         | OpenFOAM: The Open Source CFD Toolbox           |
|  \\    /   O peration     | Version:  5.x                                   |
|   \\  /    A nd           | Web:      www.OpenFOAM.org                      |
|    \\/     M anipulation  |                                                 |
\*---------------------------------------------------------------------------*/
FoamFile
{
    version     2.0;
    format      ascii;
    class       volScalarField;
    location    "16.6";
    object      gradTy;
}
// * * * * * * * * * * * * * * * * * * * * * * * * * * * * * * * * * * * * * //

dimensions      [0 -1 0 1 0 0 0];

internalField   nonuniform List<scalar> 
6300
(
1004.97
1014.89
1024.77
1034.58
1044.28
1053.84
1063.24
1072.45
1081.44
1090.17
1098.63
1106.79
1114.62
1122.12
1129.26
0.0222252
0.0666679
0.111078
0.155404
0.199556
0.243373
0.286607
0.328889
0.369705
0.408379
0.444062
0.475756
0.502368
0.522797
0.536059
0.0370501
0.111145
0.185214
0.259195
0.332956
0.406262
0.478726
0.549765
0.618545
0.683942
0.744519
0.798554
0.84412
0.879252
0.902166
0.0518789
0.155647
0.259433
0.363194
0.466799
0.569976
0.672253
0.772881
0.870747
0.9643
1.05149
1.1298
1.19629
1.24791
1.28181
0.0666938
0.200125
0.333668
0.467338
0.601054
0.734572
0.86741
0.998734
1.12724
1.25099
1.36733
1.47282
1.5633
1.63425
1.68133
0.0814637
0.244483
0.407761
0.571418
0.735483
0.899822
1.06405
1.22738
1.38844
1.54505
1.69399
1.83079
1.94978
2.04441
2.10807
0.0961403
0.288575
0.481462
0.675073
0.869613
1.06516
1.26155
1.45825
1.65404
1.84674
2.03272
2.20652
2.36056
2.48545
2.57108
0.110658
0.3322
0.554421
0.777775
1.00271
1.2296
1.45871
1.68997
1.92268
2.15508
2.38357
2.60191
2.8004
2.96564
3.08189
0.124946
0.375135
0.626226
0.878874
1.1338
1.39179
1.65368
1.92017
2.19158
2.46723
2.74446
3.01705
3.27336
3.4947
3.65609
0.138935
0.417155
0.696455
0.977666
1.26179
1.55005
1.84399
2.14539
2.45615
2.77772
3.10986
3.44835
3.78112
4.08356
4.31577
0.15257
0.45808
0.764751
1.07352
1.38559
1.70258
2.02676
2.36117
2.70982
3.07751
3.46879
3.88521
4.31908
4.74248
5.09366
0.165828
0.497829
0.830924
1.16603
1.50441
1.84789
2.19922
2.5626
2.94435
3.35357
3.80243
4.30445
4.86734
5.47345
6.03937
0.178733
0.536469
0.895057
1.25524
1.61808
1.98526
2.35954
2.74558
3.15127
3.58984
4.08276
4.66265
5.37221
6.24442
7.2213
0.191364
0.574237
0.957564
1.34174
1.72736
2.11547
2.50801
2.90878
3.32517
3.77163
4.27596
4.89101
5.71426
6.91046
8.67046
0.203845
0.611532
1.01919
1.42675
1.8341
2.24117
2.64817
3.05623
3.46888
3.89539
4.35828
4.91102
5.68316
7.01239
9.90136
1135.47
1140.87
1146.01
1150.9
1155.54
1159.94
1164.12
1168.08
1171.84
1175.42
1178.82
1182.07
1185.18
1188.18
1191.06
1193.87
1196.6
1199.28
1201.92
1204.55
1207.16
1209.79
1212.43
1215.11
1217.83
1220.6
1223.44
1226.34
1229.32
1232.37
1235.5
1238.7
1241.98
1245.33
1248.74
1252.22
1255.74
1259.31
1262.91
1266.53
1270.16
1273.79
1277.4
1280.97
1284.5
1287.95
1291.32
1294.59
1297.74
1300.76
1303.63
1306.33
1308.84
1311.16
1313.24
1315.09
1316.66
1317.93
1318.89
1319.49
1319.72
1319.53
1318.9
1317.8
1316.17
1314
1311.22
1307.8
1303.68
1298.8
1293.11
1286.53
1279
1270.44
1260.78
1249.93
1237.81
1224.34
1209.42
1192.96
1174.89
1155.1
1133.52
1110.06
1084.66
1057.27
1027.82
996.31
962.715
927.049
0.540973
0.539724
0.53275
0.520249
0.502601
0.480333
0.454067
0.424476
0.392234
0.357984
0.322311
0.285732
0.248689
0.211556
0.174647
0.138231
0.102544
0.0678075
0.0342405
0.00207564
-0.0284326
-0.0570011
-0.083318
-0.107049
-0.127852
-0.145399
-0.159408
-0.169673
-0.176092
-0.178692
-0.17762
-0.173123
-0.165496
-0.155016
-0.141885
-0.126187
-0.107885
-0.0868659
-0.0630074
-0.036272
-0.00678346
0.0251286
0.0589371
0.093985
0.129598
0.165217
0.200514
0.235459
0.270337
0.30569
0.342226
0.380695
0.42177
0.465949
0.513498
0.564458
0.618703
0.676043
0.736348
0.799659
0.866265
0.936722
1.01183
1.09256
1.17997
1.27506
1.3787
1.49156
1.61401
1.74615
1.88783
2.03869
2.19823
2.36586
2.54086
2.72241
2.90939
3.10034
3.29327
3.48555
3.6738
3.85388
4.0209
4.16944
4.29378
4.38827
4.44781
4.46826
4.44689
4.3827
0.910738
0.908679
0.896752
0.875316
0.845068
0.806963
0.762118
0.711726
0.656967
0.59895
0.538673
0.477
0.414664
0.352274
0.290331
0.22926
0.169429
0.111182
0.0548667
0.000852283
-0.0504463
-0.0985577
-0.142952
-0.183048
-0.218239
-0.247935
-0.27161
-0.288876
-0.299535
-0.303632
-0.301454
-0.293491
-0.280337
-0.262552
-0.240533
-0.214423
-0.184099
-0.149253
-0.109544
-0.0647838
-0.0151088
0.0389168
0.0963082
0.155791
0.216033
0.275919
0.334791
0.392585
0.449853
0.507652
0.567353
0.630399
0.698067
0.77127
0.850449
0.935579
1.02628
1.12205
1.22248
1.32754
1.43766
1.55381
1.67745
1.81033
1.9544
2.11148
2.28319
2.47067
2.67459
2.89507
3.13177
3.38399
3.65085
3.93135
4.2244
4.52873
4.84272
5.16416
5.48993
5.8158
6.1362
6.4441
6.73114
6.98784
7.20406
7.3697
7.47551
7.51393
7.47992
7.37158
1.29465
1.2918
1.2744
1.24303
1.19881
1.14326
1.07813
1.00524
0.926375
0.843161
0.757037
0.669221
0.580721
0.492351
0.404767
0.318509
0.23404
0.151788
0.0721918
-0.00426792
-0.0770337
-0.145451
-0.208756
-0.266089
-0.316521
-0.359117
-0.393021
-0.417569
-0.432406
-0.437584
-0.433595
-0.421313
-0.401824
-0.376164
-0.345053
-0.308708
-0.266805
-0.218626
-0.163337
-0.100356
-0.0296829
0.0478741
0.130683
0.216517
0.302992
0.388093
0.470627
0.550476
0.62861
0.706881
0.78767
0.873457
0.966403
1.06799
1.17884
1.29868
1.42658
1.56133
1.70197
1.84814
2.00037
2.16013
2.32973
2.51201
2.71007
2.92686
3.16494
3.42611
3.71133
4.02064
4.35333
4.7082
5.08381
5.47875
5.89166
6.32111
6.76532
7.2217
7.68642
8.15391
8.61654
9.06433
9.48505
9.86447
10.1871
10.4372
10.6002
10.6638
10.6199
10.4653
1.69947
1.69588
1.67217
1.62925
1.56888
1.49337
1.40532
1.30739
1.20207
1.0916
0.977882
0.862482
0.74665
0.63136
0.517364
0.405258
0.295535
0.188652
0.0850856
-0.0146181
-0.109791
-0.199608
-0.283061
-0.358965
-0.425982
-0.482707
-0.527793
-0.560131
-0.579072
-0.58462
-0.57756
-0.559397
-0.532078
-0.497505
-0.456992
-0.410876
-0.358431
-0.298115
-0.22809
-0.146886
-0.0540497
0.0493891
0.160822
0.276439
0.392048
0.504083
0.610448
0.710954
0.807285
0.9026
1.0009
1.10632
1.22241
1.35151
1.49441
1.6503
1.81711
1.99227
2.17361
2.36012
2.55233
2.75241
2.96387
3.19109
3.43885
3.71171
4.01354
4.34703
4.71347
5.11263
5.54307
6.00263
6.48903
7.00035
7.53517
8.09233
8.67046
9.26731
9.87895
10.4991
11.1183
11.7236
12.2985
12.8229
13.2746
13.6303
13.8679
13.9686
13.9194
13.715
2.13313
2.12887
2.09751
2.04053
1.96067
1.86143
1.74665
1.62007
1.48509
1.34463
1.20107
1.05629
0.911736
0.768446
0.627189
0.488526
0.352897
0.220704
0.0923818
-0.0315233
-0.150288
-0.262951
-0.36826
-0.464653
-0.550278
-0.62307
-0.68093
-0.721997
-0.74503
-0.749821
-0.73752
-0.710673
-0.672787
-0.627411
-0.577013
-0.522175
-0.461409
-0.391605
-0.308966
-0.210195
-0.0937175
0.0393572
0.184896
0.33633
0.486205
0.628186
0.758653
0.877386
0.987361
1.09395
1.20381
1.32376
1.45959
1.61507
1.79121
1.98612
2.19553
2.41422
2.63773
2.86378
3.09286
3.32821
3.57519
3.8405
4.13137
4.45473
4.81641
5.2204
5.66837
6.15946
6.69075
7.25826
7.85821
8.48797
9.14634
9.83317
10.5485
11.2914
12.0591
12.8454
13.6398
14.4265
15.1842
15.8858
16.5
16.9932
17.3325
17.489
17.4421
17.183
2.60563
2.60079
2.55964
2.48466
2.38024
2.25177
2.10486
1.94473
1.77588
1.60198
1.42587
1.24968
1.07488
0.902499
0.73318
0.567332
0.405227
0.2471
0.0932432
-0.0558995
-0.199638
-0.336942
-0.46635
-0.5859
-0.693099
-0.784979
-0.858287
-0.909867
-0.937292
-0.93967
-0.918463
-0.877881
-0.824322
-0.76459
-0.70347
-0.642057
-0.577447
-0.503631
-0.41313
-0.299064
-0.157357
0.0112999
0.200397
0.398375
0.591635
0.768771
0.923649
1.05632
1.1722
1.28045
1.39208
1.51821
1.66834
1.84871
2.06084
2.30089
2.56044
2.82907
3.09805
3.36289
3.6242
3.8871
4.15992
4.4529
4.77691
5.14238
5.55813
6.03023
6.56095
7.14818
7.78605
8.46693
9.18419
9.93412
10.7163
11.5327
12.3864
13.2796
14.2121
15.1796
16.1719
17.171
18.1503
19.0742
19.8993
20.5775
21.0597
21.3018
21.2701
20.9491
3.1302
3.12487
3.07033
2.97103
2.83429
2.66854
2.48199
2.28181
2.0738
1.86235
1.65066
1.44089
1.23442
1.03201
0.834051
0.640634
0.451722
0.267247
0.0872221
-0.0881453
-0.258335
-0.422379
-0.578706
-0.724996
-0.85804
-0.973691
-1.06698
-1.13258
-1.16567
-1.16353
-1.12736
-1.06383
-0.984806
-0.903826
-0.830413
-0.766606
-0.706812
-0.639748
-0.551298
-0.427819
-0.259893
-0.0462926
0.202999
0.467095
0.720156
0.941271
1.12049
1.25928
1.36791
1.46193
1.5593
1.67792
1.83339
2.03644
2.29009
2.58742
2.91205
3.24323
3.56411
3.86686
4.15305
4.43147
4.71541
5.02038
5.36253
5.75738
6.21844
6.7554
7.37188
8.06369
8.81911
9.62291
10.4628
11.3335
12.2366
13.1783
14.167
15.2107
16.3144
17.4779
18.6937
19.9435
21.1959
22.4045
23.5098
24.4433
25.1325
25.5081
25.5143
25.1217
3.72554
3.71965
3.64534
3.5112
3.32999
3.11518
2.87871
2.63016
2.37664
2.12308
1.87269
1.62738
1.38809
1.15514
0.928401
0.707481
0.491866
0.28103
0.0745486
-0.127785
-0.325816
-0.51885
-0.705435
-0.883078
-1.04793
-1.1945
-1.31547
-1.40197
-1.44469
-1.4363
-1.37554
-1.272
-1.148
-1.03207
-0.943426
-0.885283
-0.846553
-0.806565
-0.739804
-0.620475
-0.428109
-0.155197
0.184354
0.551769
0.894733
1.17416
1.37556
1.50575
1.58469
1.63867
1.696
1.78464
1.92998
2.15137
2.45648
2.83466
3.25427
3.67222
4.05631
4.3947
4.69309
4.96792
5.24065
5.53435
5.87228
6.27705
6.76949
7.36605
8.07432
8.88757
9.7825
10.7268
11.6971
12.6863
13.701
14.756
15.8686
17.0555
18.3302
19.7008
21.1664
22.7123
24.3042
25.8832
27.3676
28.6607
29.6565
30.2463
30.3326
29.8559
4.42012
4.41285
4.30641
4.11903
3.87401
3.59292
3.29278
2.98568
2.67958
2.37932
2.08751
1.80528
1.53276
1.26945
1.0145
0.766827
0.525276
0.288702
0.0560677
-0.173447
-0.400308
-0.62442
-0.844843
-1.05937
-1.26395
-1.45195
-1.61335
-1.7342
-1.79709
-1.78424
-1.6851
-1.5094
-1.29937
-1.1208
-1.01229
-0.975786
-0.987887
-1.01172
-1.00379
-0.918079
-0.712084
-0.359839
0.125796
0.671856
1.161
1.5196
1.7334
1.82618
1.83762
1.81077
1.78783
1.80995
1.9173
2.14597
2.51786
3.02244
3.5991
4.15019
4.61452
4.98033
5.26724
5.50761
5.73586
5.98485
6.28601
6.6707
7.1708
7.81605
8.62578
9.594
10.6749
11.7935
12.9044
14.0024
15.1078
16.2508
17.4632
18.7738
20.2081
21.7871
23.5235
25.415
27.4309
29.4983
31.5008
33.3059
34.7654
35.7095
35.9616
35.3892
5.26162
5.24872
5.08396
4.80976
4.46984
4.09796
3.71667
3.33952
2.97389
2.62316
2.28835
1.96902
1.66397
1.37157
1.08996
0.817217
0.551387
0.290577
0.0329821
-0.223036
-0.478851
-0.735387
-0.992817
-1.25005
-1.5039
-1.74776
-1.96969
-2.14992
-2.25859
-2.25645
-2.10498
-1.79625
-1.40551
-1.10868
-0.97753
-0.996348
-1.11239
-1.26268
-1.37985
-1.38899
-1.20676
-0.756668
-0.0198923
0.873766
1.61512
2.0734
2.26533
2.26359
2.14548
1.97703
1.81459
1.71229
1.72972
1.93412
2.38794
3.10623
3.98049
4.75282
5.31437
5.6793
5.90815
6.06445
6.20091
6.35993
6.57912
6.89785
7.36278
8.02887
8.9487
10.1378
11.5128
12.8709
14.1298
15.3075
16.4597
17.6455
18.9157
20.3134
21.8774
23.646
25.6567
27.9378
30.4829
33.2063
35.9176
38.4482
40.6156
42.1686
42.7772
42.1186
6.34139
6.30305
6.01886
5.59493
5.11148
4.6164
4.13446
3.67668
3.24662
2.844
2.46677
2.1121
1.7769
1.45808
1.15261
0.857602
0.570238
0.287797
0.00761539
-0.27292
-0.556348
-0.845049
-1.14104
-1.44556
-1.75817
-2.07509
-2.38602
-2.66861
-2.87955
-2.94365
-2.7512
-2.20115
-1.37635
-0.857928
-0.726796
-0.876879
-1.18754
-1.56129
-1.9114
-2.13541
-2.08709
-1.56629
-0.391473
1.29497
2.47679
3.01069
3.07603
2.8685
2.52577
2.13461
1.75468
1.44222
1.27284
1.36307
1.87714
2.96535
4.50859
5.65886
6.2972
6.57409
6.65339
6.64973
6.63337
6.64826
6.72875
6.91437
7.26498
7.87618
8.88379
10.4136
12.375
14.0907
15.4721
16.6489
17.7631
18.9183
20.1845
21.6132
23.2517
25.1558
27.4002
30.0801
33.2779
36.9311
40.5943
44.1129
47.3501
49.9869
51.417
50.8023
7.8715
7.71107
7.15466
6.46555
5.76966
5.11572
4.51731
3.97384
3.47975
3.02824
2.61269
2.22713
1.86626
1.52537
1.20024
0.887019
0.582056
0.281833
-0.0171638
-0.31855
-0.62615
-0.944093
-1.27687
-1.62929
-2.0061
-2.41087
-2.84299
-3.29029
-3.71176
-4.00007
-3.91217
-3.00152
-0.905888
-0.0493664
-0.0710006
-0.526061
-1.17171
-1.8938
-2.62438
-3.2738
-3.64759
-3.31751
-1.49967
2.44292
4.27146
4.62272
4.27968
3.66809
2.97582
2.27609
1.5977
0.966211
0.442264
0.181831
0.539683
2.1693
5.60261
7.30203
7.8005
7.75338
7.51808
7.25327
7.02084
6.84216
6.72704
6.69336
6.79196
7.15273
8.067
10.0678
13.5909
15.7917
17.1087
18.0806
19.0073
20.0311
21.2191
22.6106
24.2435
26.1757
28.5162
31.4763
35.4167
40.6413
45.4787
50.1824
54.9486
59.5423
63.0006
63.1903
10.4835
9.68907
8.48127
7.3457
6.36724
5.53484
4.82081
4.19969
3.65138
3.1605
2.71527
2.30647
1.92669
1.56983
1.23063
0.904442
0.586961
0.274028
-0.0385642
-0.355282
-0.681095
-1.0218
-1.38443
-1.7779
-2.21376
-2.70724
-3.27805
-3.94907
-4.73565
-5.59813
-6.25781
-5.50819
1.34887
2.02369
1.20888
0.0991844
-1.04583
-2.21406
-3.45417
-4.80902
-6.22158
-7.21103
-5.66754
6.63493
8.19322
7.23429
5.86985
4.58369
3.43645
2.3867
1.37307
0.335247
-0.767838
-1.88979
-2.62918
-1.22417
9.19317
10.6743
10.0891
9.20338
8.42498
7.80994
7.33065
6.9443
6.60784
6.28165
5.94126
5.63206
5.68541
7.52964
16.7107
18.765
19.242
19.5767
20.1114
20.907
21.9602
23.2602
24.8038
26.6069
28.7397
31.4604
35.7058
44.9084
50.5549
56.1609
62.7948
70.7318
79.2902
84.4678
16.6124
12.262
9.7036
7.99931
6.75425
5.78333
4.99038
4.32059
3.74021
3.22696
2.76534
2.34396
1.95413
1.58884
1.24229
0.909347
0.585351
0.26578
-0.0539657
-0.378845
-0.714515
-1.06781
-1.44748
-1.86533
-2.33828
-2.89208
-3.56861
-4.44124
-5.64998
-7.48796
-10.6325
-16.8093
12.5061
6.24181
2.9134
0.775355
-0.886398
-2.43066
-4.11852
-6.26088
-9.40455
-14.7516
-25.328
26.2984
15.7396
10.4296
7.34715
5.29917
3.7567
2.44531
1.18335
-0.201614
-1.9506
-4.5121
-8.88574
-17.5952
25.6516
17.022
12.8104
10.4986
9.09656
8.17106
7.50659
6.97457
6.47388
5.89046
5.04571
3.58942
0.725054
-5.5735
30.0928
24.0096
21.5797
20.7846
20.8396
21.4117
22.3457
23.5587
24.9904
26.563
28.1165
29.2486
28.8561
54.2959
55.6889
60.6587
68.7638
81.0255
100.447
134.573
885.572
837.462
786.617
733.191
677.367
619.347
559.345
497.581
434.277
369.652
303.922
237.299
169.986
102.186
34.0942
4.26592
4.08225
3.84996
3.57871
3.27894
2.96067
2.63269
2.30206
1.97394
1.65165
1.33684
1.02985
0.729934
0.435593
0.144793
7.17231
6.8577
6.45983
5.99622
5.48549
4.94528
4.39081
3.83404
3.28349
2.74445
2.21941
1.70856
1.21037
0.722054
0.239975
10.1759
9.71636
9.13543
8.46083
7.72149
6.94415
6.15123
5.35979
4.58153
3.82326
3.08777
2.37459
1.68092
1.00227
0.333021
13.3232
12.6963
11.9046
10.9901
9.99542
8.95857
7.91014
6.87236
5.85956
4.87931
3.93379
3.0211
2.13645
1.27305
0.422857
16.6699
15.8409
14.7964
13.5994
12.3114
10.9844
9.65831
8.3599
7.10503
5.90063
4.74696
3.63956
2.5707
1.53061
0.508212
20.2853
19.2008
17.8404
16.2995
14.6659
13.0093
11.3786
9.80376
8.29995
6.87118
5.51387
4.21945
2.97618
1.77045
0.587592
24.2607
22.8362
21.0644
19.092
17.0433
15.008
13.0426
11.1764
9.41968
7.77018
6.21786
4.74818
3.34412
1.98743
0.659295
28.721
26.8189
24.489
21.9607
19.407
16.9368
14.6072
12.4393
10.432
8.57187
6.83915
5.21125
3.66467
2.17583
0.721458
33.8453
31.2292
28.1119
24.8547
21.687
18.725
16.0101
13.5415
11.297
9.24602
7.35552
5.59296
3.92744
2.32975
0.772164
39.9007
36.1402
31.8741
27.6586
23.7609
20.2659
17.1667
14.4193
11.9683
9.75958
7.74385
5.8776
4.12233
2.44357
0.809605
47.2964
41.556
35.5853
30.1443
25.4318
21.4104
17.9715
15.0004
12.3972
10.08
7.98264
6.05117
4.24069
2.51256
0.832286
56.6074
47.2022
38.7663
31.9013
26.4113
21.9723
18.3081
15.2134
12.5399
10.1805
8.05542
6.10371
4.27666
2.53367
0.839258
68.1415
51.8782
40.3761
32.2828
26.3394
21.7591
18.0752
15.0049
12.3685
10.0464
7.95477
6.03155
4.22852
2.50618
0.830327
78.1274
51.7921
38.5768
30.5141
24.9039
20.6491
17.2287
14.3621
11.8825
9.6818
7.68563
5.83913
4.09966
2.43217
0.806195
0.215278
0.64571
1.0757
1.50475
1.93202
2.35619
2.77533
3.18686
3.58793
3.9767
4.35605
4.74282
5.19053
5.84477
7.07845
0.225761
0.677091
1.12775
1.57694
2.02327
2.46438
2.89635
3.31296
3.70445
4.05585
4.3444
4.53403
4.55653
4.22721
2.83766
0.23637
0.708925
1.1808
1.65108
2.1181
2.57883
3.02797
3.45642
3.84871
4.17857
4.40138
4.44115
4.1667
3.34582
1.57299
0.247104
0.741218
1.23492
1.72745
2.21726
2.70127
3.17386
3.62489
4.03622
4.37551
4.58535
4.56633
4.15627
3.12535
1.26186
0.257899
0.773784
1.28981
1.80569
2.32038
2.83158
3.33465
3.82082
4.27366
4.66222
4.92811
4.96296
4.5769
3.48299
1.40918
0.268629
0.806232
1.3448
1.8847
2.42588
2.96744
3.50706
4.0398
4.55564
5.034
5.43115
5.65179
5.48893
4.52103
2.07351
0.279114
0.837994
1.39881
1.9628
2.53106
3.10457
3.68415
4.27041
4.86356
5.46205
6.05656
6.60684
6.95985
6.58647
3.91798
0.289138
0.868392
1.45061
2.03788
2.63252
3.2374
3.85648
4.49612
5.16766
5.89274
6.71248
7.69874
8.93502
10.2456
9.35086
0.298477
0.896713
1.49886
2.10779
2.72683
3.36029
4.01443
4.69951
5.43446
6.25756
7.25255
8.61683
10.8584
15.4358
27.1495
0.306917
0.922293
1.54238
2.17063
2.81105
3.46874
4.15078
4.86814
5.63988
6.50287
7.53597
8.92546
11.1593
15.6698
27.242
0.31428
0.944581
1.58019
2.22496
2.88323
3.56021
4.26248
4.99885
5.78179
6.62989
7.57169
8.64747
9.87898
10.9996
9.65872
0.320425
0.963156
1.61161
2.26985
2.94234
3.63403
4.3504
5.09709
5.87827
6.69169
7.51416
8.26108
8.6754
8.03831
4.55891
0.325254
0.977733
1.63619
2.30481
2.98805
3.69061
4.41716
5.17124
5.95222
6.74702
7.5089
8.10545
8.20174
7.05067
3.37456
0.328706
0.988135
1.65367
2.32956
3.02026
3.73045
4.46468
5.22658
6.01641
6.82502
7.61826
8.29702
8.59407
7.81635
4.32415
0.33075
0.994273
1.66392
2.34395
3.03887
3.75349
4.49288
5.26239
6.06741
6.91352
7.8069
8.75347
9.73252
10.4669
8.85426
0.33138
0.996133
1.66692
2.34796
3.04374
3.75921
4.50006
5.27339
6.08974
6.96902
7.9584
9.18715
11.0407
14.747
24.5618
0.330618
0.993779
1.66277
2.34167
3.03485
3.74722
4.48455
5.25436
6.06821
6.9479
7.94343
9.18675
11.0618
14.7846
24.5863
0.328511
0.987352
1.6517
2.3254
3.01258
3.71781
4.44636
5.20462
6.0008
6.84617
7.75619
8.74736
9.79964
10.6003
8.95229
0.325134
0.977078
1.6341
2.29972
2.97769
3.6721
4.38742
5.12838
5.89909
6.69937
7.5124
8.2653
8.71189
8.11636
4.60735
0.320584
0.963258
1.61048
2.2654
2.93133
3.61179
4.31056
5.03136
5.77668
6.54354
7.31016
7.99576
8.34764
7.65541
4.22456
0.31498
0.946253
1.58149
2.2234
2.8748
3.53869
4.2183
4.91718
5.63914
6.38773
7.164
7.95776
8.70822
9.0961
7.32657
0.308456
0.926475
1.54782
2.17474
2.80953
3.45457
4.11255
4.78686
5.48299
6.21252
7.00549
7.94965
9.32037
12.0348
19.3753
0.301155
0.904363
1.51025
2.12058
2.73707
3.36139
3.99535
4.64127
5.30351
5.99311
6.7418
7.64514
8.99919
11.7605
19.2555
0.293225
0.880368
1.46957
2.0621
2.65909
3.26144
3.86974
4.48421
5.10491
5.73253
6.37054
7.02746
7.70054
8.19856
6.90771
0.284806
0.854927
1.42653
2.00047
2.57733
3.15729
3.73975
4.32271
4.90137
5.46462
5.98598
6.39836
6.52327
5.87872
3.25741
0.276028
0.828434
1.38184
1.93676
2.49336
3.05132
3.6093
4.16408
4.70839
5.22567
5.67696
5.96874
5.8802
4.9315
2.31083
0.266999
0.801225
1.33609
1.87183
2.4084
2.94526
3.481
4.01263
4.53407
5.03241
5.47855
5.8031
5.83431
5.14524
2.75377
0.257806
0.773558
1.28968
1.80627
2.32319
2.83992
3.35545
3.86814
4.37568
4.87528
5.36445
5.84103
6.28846
6.54107
5.36059
0.248511
0.745614
1.24292
1.74046
2.23806
2.73534
3.2318
3.72715
4.22269
4.72528
5.25894
5.89908
6.87775
8.93196
14.5928
0.239153
0.717508
1.19598
1.67456
2.15308
2.63128
3.10883
3.58593
4.06472
4.5536
5.07935
5.7219
6.71997
8.81806
14.5499
0.229755
0.689303
1.14894
1.60865
2.0683
2.52759
2.98611
3.44345
3.89964
4.35623
4.81851
5.2977
5.79814
6.18051
5.22179
0.220324
0.661019
1.10183
1.54276
1.98371
2.42437
2.86412
3.30167
3.73418
4.15482
4.54581
4.8586
4.95816
4.47412
2.48025
0.210857
0.632638
1.0546
1.47682
1.89927
2.32174
2.7436
3.16331
3.57686
3.9739
4.32732
4.56746
4.52334
3.81613
1.79883
0.201339
0.604114
1.00718
1.4107
1.81479
2.21946
2.62452
3.02914
3.43093
3.82317
4.18738
4.47363
4.54887
4.06782
2.21483
0.191747
0.575376
0.959415
1.34414
1.72985
2.11688
2.50567
2.89686
3.29156
3.69181
4.10146
4.52624
4.96062
5.27215
4.42015
0.182056
0.546341
0.911152
1.27687
1.64395
2.01302
2.38508
2.76208
3.14827
3.55385
4.00493
4.5721
5.45755
7.28437
12.1728
0.172241
0.516928
0.862237
1.20863
1.55664
1.90704
2.26101
2.62085
2.99143
3.38421
3.8277
4.39682
5.30061
7.17031
12.1296
0.162281
0.487071
0.812554
1.13923
1.46765
1.79852
2.13281
2.47208
2.8191
3.17927
3.56312
3.98902
4.47278
4.91051
4.2799
0.152159
0.456722
0.762026
1.06858
1.37692
1.68759
2.00111
2.31786
2.63758
2.95783
3.26925
3.54094
3.6768
3.39249
1.93646
0.141862
0.425847
0.710613
0.996679
1.28454
1.57463
1.86711
2.16153
2.45561
2.74244
3.00289
3.1871
3.17253
2.68809
1.27138
0.131381
0.394419
0.65828
0.923504
1.1906
1.45996
1.73173
2.00536
2.27863
2.54532
2.7894
2.97123
2.99447
2.63105
1.38824
0.120707
0.36241
0.604986
0.849011
1.09505
1.3436
1.59503
1.84939
2.10618
2.36382
2.61906
2.86544
3.08484
3.18462
2.57012
0.109827
0.329788
0.55067
0.773101
0.997724
1.2252
1.45624
1.6917
1.93307
2.18393
2.4548
2.77833
3.2582
4.23415
6.89482
0.0987331
0.296518
0.495267
0.695653
0.898395
1.1043
1.31433
1.52987
1.75334
1.99011
2.2539
2.58258
3.08699
4.11362
6.85089
0.0874153
0.262571
0.438716
0.616552
0.796851
0.9805
1.16857
1.36249
1.56432
1.77748
2.00788
2.26472
2.55305
2.80505
2.43049
0.0758695
0.227932
0.380981
0.535726
0.692962
0.853605
1.01873
1.18956
1.36739
1.55285
1.74343
1.92493
2.04428
1.93152
1.12561
0.0640971
0.192602
0.322058
0.453158
0.586693
0.723579
0.864882
1.01175
1.16512
1.32461
1.48526
1.62826
1.69665
1.5393
0.824379
0.0521073
0.156607
0.261984
0.368889
0.478081
0.590469
0.707149
0.829405
0.958574
1.09554
1.2393
1.38335
1.50574
1.53423
1.17163
0.0399179
0.12
0.200842
0.283023
0.367239
0.454361
0.545524
0.642235
0.746586
0.861706
0.993113
1.15345
1.37998
1.80072
2.8943
0.0275563
0.0828613
0.138764
0.195737
0.254367
0.315436
0.380028
0.44974
0.527102
0.616543
0.726802
0.877548
1.11932
1.59991
2.81384
0.0150602
0.0453048
0.0759405
0.107293
0.139794
0.174052
0.210963
0.251916
0.299214
0.356908
0.43235
0.538407
0.692786
0.889786
0.902099
0.00247736
0.00747499
0.0126162
0.0180472
0.0239961
0.03082
0.0390791
0.0496716
0.0640952
0.0849378
0.116621
0.165689
0.236631
0.307889
0.251792
-0.0101357
-0.0304555
-0.050911
-0.0715599
-0.0924119
-0.113413
-0.134431
-0.155241
-0.17549
-0.194567
-0.211192
-0.222229
-0.219757
-0.185581
-0.0877688
-0.0227151
-0.0682921
-0.114304
-0.161026
-0.208717
-0.257635
-0.308086
-0.360546
-0.415892
-0.475776
-0.542888
-0.619532
-0.698165
-0.723243
-0.481307
-0.0351924
-0.105826
-0.177204
-0.249818
-0.324167
-0.400788
-0.480345
-0.563845
-0.653137
-0.751963
-0.867962
-1.01544
-1.21376
-1.44632
-1.37531
-0.0474967
-0.142842
-0.239242
-0.337402
-0.438036
-0.541899
-0.649858
-0.763113
-0.88375
-1.01621
-1.17116
-1.37604
-1.70555
-2.38019
-4.13012
-0.0595561
-0.179123
-0.300055
-0.423262
-0.549657
-0.680156
-0.815685
-0.957243
-1.10614
-1.26482
-1.43968
-1.65005
-1.95765
-2.5673
-4.20186
-0.071299
-0.214454
-0.359282
-0.506901
-0.65842
-0.814909
-0.977312
-1.14626
-1.32171
-1.50218
-1.68352
-1.8565
-1.99996
-2.04262
-1.61003
-0.0826537
-0.24862
-0.416566
-0.587823
-0.763721
-0.945541
-1.13437
-1.33075
-1.53377
-1.73892
-1.93313
-2.08343
-2.11222
-1.84795
-0.953931
-0.0935498
-0.281406
-0.471544
-0.665513
-0.864896
-1.07129
-1.28617
-1.51061
-1.74432
-1.98321
-2.21319
-2.39469
-2.42796
-2.09058
-1.00187
-0.103919
-0.312604
-0.523853
-0.73943
-0.961191
-1.19111
-1.43131
-1.68401
-1.95123
-2.23366
-2.52688
-2.80884
-3.00107
-2.85491
-1.68521
-0.113696
-0.342017
-0.573147
-0.809041
-1.0518
-1.30378
-1.56775
-1.8473
-2.14753
-2.47659
-2.84832
-3.28527
-3.8091
-4.32997
-3.89682
-0.122828
-0.369474
-0.619121
-0.87387
-1.13599
-1.40809
-1.69334
-1.99618
-2.32378
-2.68983
-3.12441
-3.70131
-4.61909
-6.46747
-11.2198
-0.131268
-0.39484
-0.661543
-0.933562
-1.21324
-1.50323
-1.80668
-2.12783
-2.47329
-2.85543
-3.30161
-3.88056
-4.78275
-6.58822
-11.2659
-0.138988
-0.418024
-0.700262
-0.987915
-1.28332
-1.58899
-1.90769
-2.24255
-2.59727
-2.97649
-3.38655
-3.83524
-4.31902
-4.71425
-4.04745
-0.14597
-0.438977
-0.735208
-1.03687
-1.34624
-1.66567
-1.99744
-2.34345
-2.70418
-3.07609
-3.44459
-3.76549
-3.9167
-3.57771
-1.9873
-0.152207
-0.457684
-0.766369
-1.08045
-1.40216
-1.73375
-2.07727
-2.43406
-2.80326
-3.17801
-3.53562
-3.8135
-3.85472
-3.31014
-1.5828
-0.157703
-0.474157
-0.793769
-1.1187
-1.45119
-1.79351
-2.14785
-2.51601
-2.89844
-3.29176
-3.68196
-4.02577
-4.19946
-3.86388
-2.17707
-0.162469
-0.488426
-0.81746
-1.1517
-1.49337
-1.84488
-2.20879
-2.588
-2.98601
-3.40761
-3.86042
-4.35611
-4.89779
-5.35588
-4.6236
-0.166526
-0.50055
-0.837522
-1.1795
-1.52871
-1.88759
-2.25905
-2.64689
-3.05714
-3.50173
-4.00902
-4.65444
-5.65405
-7.67443
-12.9832
-0.169903
-0.510618
-0.85409
-1.20227
-1.55728
-1.92153
-2.2979
-2.69017
-3.10436
-3.55223
-4.06162
-4.70671
-5.70135
-7.70923
-12.9965
-0.172647
-0.518761
-0.867374
-1.22027
-1.57942
-1.94703
-2.32564
-2.71817
-3.12813
-3.55995
-4.0199
-4.51615
-5.04488
-5.46654
-4.66706
-0.174817
-0.525159
-0.877665
-1.23391
-1.59565
-1.96485
-2.34366
-2.73402
-3.13664
-3.54808
-3.9529
-4.30293
-4.46267
-4.07176
-2.26438
-0.176491
-0.530043
-0.885345
-1.24371
-1.60666
-1.97597
-2.35362
-2.74129
-3.13896
-3.54073
-3.92388
-4.22176
-4.26277
-3.66057
-1.75151
-0.177767
-0.533702
-0.890881
-1.2503
-1.61322
-1.98127
-2.35656
-2.74156
-3.13837
-3.54624
-3.95398
-4.31891
-4.50945
-4.15684
-2.34551
-0.178763
-0.536485
-0.894844
-1.25444
-1.61618
-1.9815
-2.35271
-2.73356
-3.13005
-3.55176
-4.01372
-4.53708
-5.13322
-5.66605
-4.93923
-0.179618
-0.538814
-0.897931
-1.25707
-1.61662
-1.97759
-2.34212
-2.71465
-3.10415
-3.52927
-4.03074
-4.70462
-5.80086
-8.04989
-13.8882
-0.180497
-0.541187
-0.900986
-1.25938
-1.61605
-1.97116
-2.32593
-2.68389
-3.05345
-3.45369
-3.92795
-4.57876
-5.66785
-7.94104
-13.844
-0.181582
-0.544168
-0.904999
-1.26286
-1.61652
-1.96491
-2.30747
-2.64502
-2.98139
-3.32665
-3.70247
-4.14846
-4.71241
-5.31137
-4.79019
-0.183066
-0.548356
-0.911056
-1.26923
-1.62063
-1.96267
-2.29245
-2.60689
-2.90308
-3.17831
-3.42818
-3.63615
-3.73257
-3.45947
-2.02741
-0.185129
-0.554329
-0.920238
-1.28026
-1.6312
-1.96891
-2.28802
-2.58139
-2.83927
-3.04752
-3.1829
-3.20124
-3.00926
-2.41235
-1.08593
-0.187923
-0.562576
-0.933486
-1.29759
-1.65091
-1.98803
-2.30143
-2.58046
-2.80987
-2.96726
-3.01885
-2.9123
-2.56708
-1.87178
-0.731555
-0.19154
-0.573408
-0.951438
-1.32238
-1.68183
-2.02358
-2.33864
-2.61394
-2.83041
-2.96041
-2.96453
-2.78905
-2.36795
-1.64015
-0.601386
-0.195995
-0.586892
-0.974292
-1.35511
-1.72501
-2.07761
-2.40341
-2.68821
-2.91095
-3.0409
-3.03487
-2.8363
-2.38175
-1.62443
-0.5851
-0.201204
-0.602789
-1.00169
-1.3954
-1.78016
-2.15021
-2.4966
-2.80552
-3.05585
-3.21577
-3.23884
-3.06124
-2.60574
-1.8045
-0.659684
-0.206981
-0.620534
-1.03268
-1.44187
-1.84549
-2.23918
-2.61574
-2.96345
-3.26346
-3.48559
-3.58206
-3.4791
-3.06977
-2.22312
-0.855469
-0.213038
-0.639239
-1.0657
-1.49218
-1.91769
-2.34001
-2.75484
-3.15443
-3.52506
-3.84257
-4.06367
-4.10962
-3.83742
-3.00348
-1.28962
-0.219001
-0.657748
-1.09869
-1.54312
-1.99205
-2.44598
-2.90448
-3.36543
-3.82346
-4.26639
-4.66681
-4.96097
-4.99506
-4.39483
-2.32466
-0.224441
-0.67472
-1.12922
-1.5909
-2.06291
-2.54873
-3.05234
-3.57838
-4.13224
-4.71961
-5.3436
-5.9928
-6.59306
-6.80689
-5.15064
-0.228906
-0.68874
-1.15475
-1.63148
-2.12413
-2.63907
-3.18456
-3.7719
-4.41761
-5.14724
-6.00277
-7.05851
-8.45912
-10.5175
-13.98
55.1165
41.1098
32.6439
26.8249
22.4391
18.9233
15.9825
13.4447
11.2003
9.17425
7.31212
5.57212
3.92062
2.32917
0.772579
20.1416
26.2561
25.0118
22.3114
19.5089
16.9033
14.5353
12.3827
10.4109
8.58605
6.87821
5.26109
3.71152
2.20865
0.733204
8.89463
16.5126
18.3907
17.8685
16.4418
14.7181
12.9384
11.195
9.51926
7.91655
6.38125
4.9031
3.46996
2.06908
0.687545
4.71095
10.7551
13.4361
14.0536
13.5808
12.5717
11.3161
9.96027
8.57686
7.20018
5.84457
4.51381
3.20598
1.91606
0.637406
2.87286
7.33305
9.91449
10.9957
11.092
10.5966
9.76319
8.74462
7.62973
6.46911
5.29058
4.10857
2.92952
1.75519
0.584599
1.92745
5.2156
7.43457
8.62179
9.01396
8.85595
8.33886
7.59577
6.71431
5.75041
4.73897
3.70123
2.64978
1.59171
0.530821
1.37562
3.84059
5.67109
6.79989
7.31795
7.36464
7.0714
6.54294
5.85608
5.0647
4.20557
3.3034
2.37462
1.43017
0.477562
1.02257
2.90616
4.39484
5.40205
5.94922
6.10931
5.96721
5.60006
5.07039
4.42598
3.70203
2.92403
2.11031
1.27428
0.426048
0.781709
2.24593
3.45291
4.32364
4.84925
5.06377
5.01928
4.76997
4.36435
3.84247
3.236
2.56942
1.8615
1.12684
0.377217
0.609726
1.76433
2.74447
3.48485
3.96526
4.19806
4.21353
4.04841
3.739
3.31766
2.8117
2.2435
1.63124
0.989783
0.331723
0.482772
1.40387
2.20249
2.82657
3.25319
3.48325
3.53314
3.42702
3.19135
2.85158
2.43059
1.94817
1.42123
0.86425
0.289967
0.386681
1.12844
1.7817
2.30538
2.67758
2.89353
2.96107
2.89557
2.71596
2.44189
2.09211
1.68374
1.23206
0.750729
0.252132
0.312531
0.914467
1.45087
1.88938
2.21044
2.40686
2.48135
2.44334
2.30615
2.08475
1.79431
1.44937
1.06348
0.649191
0.218229
0.254438
0.745988
1.18803
1.55493
1.82984
2.00485
2.07972
2.05996
1.95479
1.77554
1.53434
1.24341
0.914601
0.559228
0.188142
0.208373
0.611888
0.977343
1.28434
1.51859
1.67236
1.74381
1.73587
1.65488
1.50932
1.30889
1.06376
0.784162
0.480173
0.161664
0.171493
0.504214
0.80725
1.06425
1.26323
1.39701
1.463
1.4625
1.39978
1.28121
1.11448
0.908037
0.670651
0.411196
0.138531
0.141741
0.417149
0.669118
0.884458
1.05314
1.16873
1.22837
1.23232
1.18345
1.08652
0.947637
0.773791
0.572459
0.35139
0.11845
0.117594
0.34636
0.556416
0.737056
0.879903
0.979304
1.03238
1.03883
1.00048
0.920943
0.805068
0.658625
0.48797
0.299825
0.101118
0.0979073
0.28856
0.464137
0.615893
0.736829
0.822035
0.868781
0.876416
0.846122
0.780595
0.683721
0.560266
0.415621
0.255591
0.0862376
0.0818043
0.241226
0.388396
0.516126
0.618562
0.691465
0.73233
0.74034
0.716218
0.662008
0.580825
0.476618