/*--------------------------------*- C++ -*----------------------------------*\
| =========                 |                                                 |
| \\      /  F ield         | OpenFOAM: The Open Source CFD Toolbox           |
|  \\    /   O peration     | Version:  5.x                                   |
|   \\  /    A nd           | Web:      www.OpenFOAM.org                      |
|    \\/     M anipulation  |                                                 |
\*---------------------------------------------------------------------------*/
FoamFile
{
    version     2.0;
    format      ascii;
    class       volScalarField;
    location    "16";
    object      gradTx;
}
// * * * * * * * * * * * * * * * * * * * * * * * * * * * * * * * * * * * * * //

dimensions      [0 -1 0 1 0 0 0];

internalField   nonuniform List<scalar> 
6300
(
12.5914
12.5533
12.4772
12.3632
12.2112
12.0217
11.7949
11.5317
11.233
10.9004
10.5362
10.1433
9.72561
9.28791
8.8358
12.6289
12.5908
12.5147
12.4005
12.2484
12.0584
11.831
11.5667
11.2664
10.9316
10.5644
10.1677
9.74525
9.30194
8.84352
12.704
12.6659
12.5897
12.4753
12.3228
12.1321
11.9034
11.6371
11.3339
10.9948
10.6217
10.2173
9.78537
9.33072
8.85948
12.8168
12.7787
12.7024
12.5878
12.4349
12.2433
12.013
11.7441
11.4367
11.0915
10.71
10.2942
9.84778
9.37571
8.88455
12.9671
12.929
12.8528
12.7382
12.585
12.3927
12.1609
11.889
11.5769
11.2243
10.8319
10.4013
9.93545
9.43942
8.92041
13.1549
13.117
13.0411
12.9268
12.7737
12.5811
12.3482
12.0738
11.7569
11.3964
10.9917
10.5431
10.0529
9.52575
8.9696
13.3801
13.3425
13.2672
13.1537
13.0014
12.8094
12.5764
12.3007
11.9801
11.6123
11.1949
10.7263
10.2069
9.64066
9.03617
13.6424
13.6053
13.5309
13.4188
13.2683
13.0782
12.8469
12.572
12.2502
11.8773
11.4487
10.9597
10.4075
9.79341
9.1265
13.9411
13.9047
13.8318
13.7219
13.5742
13.3878
13.1605
12.8896
12.5707
12.1977
11.7626
11.256
10.6693
9.9986
9.25114
14.2758
14.2402
14.1691
14.062
13.9185
13.7375
13.5172
13.2547
12.9448
12.5796
12.1474
11.632
11.0147
10.2801
9.42826
14.6453
14.6108
14.5418
14.4381
14.2997
14.126
13.9157
13.6665
13.3736
13.0281
12.6148
12.1093
11.477
10.6785
9.69143
15.0488
15.0153
14.9484
14.8485
14.7157
14.5504
14.3526
14.1216
13.8545
13.5439
13.174
12.713
12.1048
11.2652
10.1081
15.4852
15.4526
15.3877
15.291
15.1636
15.0067
14.8222
14.6122
14.3781
14.1185
13.8236
13.4634
12.9636
12.169
10.8302
15.9536
15.9216
15.858
15.7638
15.6403
15.49
15.3168
15.1264
14.9267
14.7277
14.5381
14.353
14.1166
13.6166
12.252
16.4533
16.4215
16.3585
16.2651
16.1431
15.9956
15.8279
15.6491
15.4739
15.327
15.2474
15.2933
15.5325
15.9282
15.5812
8.4143
8.02943
7.64719
7.27152
6.90613
6.55444
6.21949
5.90385
5.60966
5.33857
5.09184
4.87031
4.6745
4.50464
4.36071
4.24249
4.14955
4.08132
4.03707
4.01588
4.01669
4.03822
4.07901
4.13736
4.21135
4.29881
4.39741
4.50462
4.61783
4.73441
4.85179
4.96753
5.07937
5.18523
5.28321
5.3715
5.44831
5.51186
5.56028
5.59169
5.60428
5.59639
5.56667
5.51416
5.43835
5.33913
5.21669
5.07134
4.90334
4.71269
4.49901
4.26146
3.99877
3.7093
3.39116
3.04237
2.661
2.24518
1.79318
1.30328
0.773676
0.202308
-0.413304
-1.07618
-1.78998
-2.55899
-3.38806
-4.28255
-5.24809
-6.29048
-7.41547
-8.62864
-9.93529
-11.3403
-12.8483
-14.4633
-16.1885
-18.0267
-19.9794
-22.0468
-24.2271
-26.5164
-28.9082
-31.3929
-33.9575
-36.5859
-39.2585
-41.9536
-44.6469
-47.3136
8.41587
8.02528
7.63743
7.25641
6.88611
6.53008
6.19142
5.87273
5.57615
5.30328
5.05533
4.83306
4.63693
4.46711
4.32352
4.20589
4.1138
4.04664
4.00368
3.98404
3.98667
4.01033
4.05356
4.11468
4.19176
4.28261
4.38482
4.49579
4.61279
4.73307
4.85396
4.97295
5.08776
5.19637
5.29694
5.38779
5.4672
5.53341
5.58453
5.61856
5.63353
5.62758
5.59924
5.54747
5.47182
5.37233
5.24943
5.10373
4.93572
4.74563
4.53315
4.29745
4.03713
3.75037
3.43508
3.08911
2.71041
2.29711
1.84758
1.3603
0.833674
0.265885
-0.34536
-1.00297
-1.71059
-2.47257
-3.29394
-4.18028
-5.13747
-6.17156
-7.28849
-8.49401
-9.79353
-11.1921
-12.6942
-14.3043
-16.0257
-17.8617
-19.8141
-21.8838
-24.0697
-26.3685
-28.7742
-31.2774
-33.8654
-36.5215
-39.2259
-41.9554
-44.6848
-47.3875
8.41922
8.01691
7.61752
7.22557
6.84528
6.48044
6.13431
5.80955
5.50824
5.23191
4.98161
4.75797
4.5613
4.39162
4.24876
4.13237
4.04196
3.97693
3.93656
3.91999
3.92622
3.95408
4.00218
4.06885
4.15216
4.24988
4.35945
4.47809
4.60283
4.73066
4.85866
4.98417
5.10488
5.21886
5.32449
5.42031
5.50487
5.57647
5.63315
5.67267
5.69264
5.6908
5.6653
5.61495
5.53939
5.439
5.3148
5.16799
4.9997
4.81057
4.60052
4.36867
4.11335
3.83232
3.523
3.18281
2.80945
2.40105
1.9562
1.4738
0.952809
0.391908
-0.210765
-0.857871
-1.553
-2.3007
-3.10635
-3.97602
-4.91617
-5.93334
-7.03394
-8.22401
-9.50913
-10.8945
-12.3848
-13.9846
-15.698
-17.5287
-19.4798
-21.5533
-23.7495
-26.0665
-28.4993
-31.0395
-33.6745
-36.3873
-39.1565
-41.9569
-44.7605
-47.5376
8.42465
8.004
7.58659
7.17763
6.78191
6.40361
6.04619
5.71237
5.40414
5.12284
4.86928
4.64385
4.44659
4.27733
4.13571
4.02126
3.93342
3.87156
3.83499
3.82293
3.83446
3.86854
3.92387
3.99889
4.09166
4.19989
4.32085
4.45143
4.58824
4.7278
4.86675
5.00211
5.13149
5.25316
5.36592
5.46885
5.56095
5.64078
5.70626
5.75469
5.78292
5.78785
5.76689
5.7185
5.64244
5.53975
5.41246
5.26296
5.09347
4.9054
4.69906
4.47346
4.2264
3.9548
3.65516
3.32407
2.95875
2.5573
2.11872
1.64274
1.12926
0.577948
-0.0123092
-0.643725
-1.31982
-2.04545
-2.82664
-3.67034
-4.58398
-5.57502
-6.65057
-7.8171
-9.08039
-10.4456
-11.9176
-13.5012
-15.2011
-17.0222
-18.9691
-21.0459
-23.2551
-25.5972
-28.0694
-30.6648
-33.3713
-36.1713
-39.0415
-41.9532
-44.8738
-47.7682
8.43274
7.9861
7.54321
7.11036
6.69318
6.29644
5.92386
5.57813
5.26104
4.97361
4.71625
4.48895
4.29139
4.12306
3.98337
3.87167
3.7873
3.72962
3.69798
3.69172
3.7101
3.75224
3.81707
3.90318
4.00874
4.13141
4.26821
4.4156
4.56951
4.72564
4.87981
5.02845
5.169
5.30007
5.42128
5.53278
5.63449
5.72552
5.80371
5.86554
5.90652
5.92193
5.90776
5.86167
5.78359
5.6757
5.54185
5.38651
5.21375
5.02633
4.82514
4.60894
4.37457
4.11746
3.83239
3.51445
3.15991
2.76681
2.33496
1.86549
1.36005
0.819933
0.245294
-0.36535
-1.01541
-1.71026
-2.457
-3.26402
-4.14037
-5.09503
-6.13619
-7.27086
-8.50482
-9.84293
-11.2898
-12.8502
-14.5296
-16.3343
-18.2713
-20.3475
-22.569
-24.9402
-27.4618
-30.1296
-32.933
-35.8539
-38.8662
-41.9362
-45.0244
-48.0869
8.44442
7.96247
7.48509
7.02022
6.57477
6.15424
5.76261
5.40242
5.07503
4.78088
4.51976
4.29106
4.09391
3.92739
3.79056
3.68255
3.60259
3.55002
3.52428
3.52488
3.55135
3.60312
3.67946
3.7793
3.90104
4.04239
4.20017
4.3702
4.5474
4.72609
4.90062
5.06624
5.21995
5.36095
5.49043
5.61055
5.72317
5.82854
5.92447
6.00617
6.06672
6.09838
6.09434
6.05065
5.9674
5.84881
5.70194
5.53489
5.3549
5.16689
4.9726
4.77035
4.55529
4.32019
4.05676
3.75732
3.41642
3.03195
2.60519
2.13988
1.64064
1.11149
0.554618
-0.030323
-0.646612
-1.30044
-2.00062
-2.75791
-3.58406
-4.4905
-5.48717
-6.58165
-7.77922
-9.08363
-10.4983
-12.0276
-13.6774
-15.4559
-17.3728
-19.4394
-21.6673
-24.0664
-26.6434
-29.3989
-32.3252
-35.4043
-38.6071
-41.8928
-45.2111
-48.5054
8.46113
7.93193
7.40864
6.90181
6.42018
5.97017
5.55585
5.17927
4.84097
4.54041
4.27643
4.04754
3.85218
3.68881
3.5561
3.45289
3.37828
3.33163
3.3125
3.32067
3.35601
3.41847
3.50787
3.62371
3.76494
3.92957
4.11431
4.3143
4.52297
4.73235
4.93408
5.12099
5.28897
5.4382
5.57281
5.69892
5.82207
5.94489
6.06549
6.177
6.26829
6.32597
6.33778
6.29633
6.20188
6.06237
5.89083
5.70167
5.50737
5.31624
5.1313
4.95001
4.76466
4.5635
4.3328
4.05969
3.73546
3.35778
2.93078
2.46296
1.96414
1.44279
0.904233
0.349725
-0.223856
-0.823977
-1.46208
-2.15273
-2.91217
-3.7561
-4.69732
-5.744
-6.89976
-8.16549
-9.54183
-11.0314
-12.6401
-14.3778
-16.2584
-18.299
-20.5186
-22.9362
-25.5676
-28.4218
-31.4967
-34.7764
-38.2281
-41.8019
-45.4319
-49.0412
8.48515
7.89254
7.30819
6.74682
6.21979
5.73444
5.29447
4.90077
4.55233
4.24706
3.98238
3.75561
3.56421
3.40595
3.279
3.18189
3.11359
3.07347
3.0613
3.07717
3.12149
3.19489
3.29804
3.43144
3.595
3.7876
4.00633
4.24574
4.49731
4.74943
4.98868
5.20278
5.38478
5.53631
5.6672
5.7913
5.92123
6.06418
6.21933
6.37671
6.51798
6.61937
6.65763
6.61808
6.50099
6.3218
6.10484
5.87561
5.65502
5.45642
5.2845
5.13529
4.99657
4.84916
4.66967
4.43547
4.13128
3.75442
3.31496
2.8305
2.31993
1.79873
1.27666
0.757104
0.237002
-0.292925
-0.847943
-1.44857
-2.11866
-2.88166
-3.75565
-4.74928
-5.86195
-7.08805
-8.42229
-9.8635
-11.4167
-13.0939
-14.9136
-16.9006
-19.0847
-21.4979
-24.1708
-27.1264
-30.3732
-33.9003
-37.6728
-41.6294
-45.6819
-49.7213
8.52026
7.84092
7.17433
6.54211
5.95911
5.43311
4.96623
4.55685
4.20131
3.89509
3.63359
3.41257
3.22836
3.07789
2.95879
2.86927
2.80819
2.77496
2.76958
2.79257
2.84498
2.92835
3.04454
3.19556
3.38311
3.60788
3.86838
4.1595
4.47068
4.78485
5.07928
5.3306
5.52424
5.66389
5.77114
5.87505
6.00139
6.16569
6.36967
6.59936
6.82483
7.00337
7.08928
7.05119
6.88926
6.63535
6.33627
6.03685
5.77077
5.55792
5.40477
5.30522
5.24076
5.18078
5.0851
4.91184
4.63152
4.24103
3.76372
3.23548
2.69087
2.15574
1.64534
1.16512
0.711873
0.274144
-0.16823
-0.644498
-1.19144
-1.84748
-2.64175
-3.5832
-4.6608
-5.85491
-7.14866
-8.53425
-10.0149
-11.6046
-13.3277
-15.2184
-17.3205
-19.6854
-22.3668
-25.4111
-28.8457
-32.6704
-36.852
-41.3181
-45.9504
-50.5875
8.57285
7.77063
6.99067
6.26625
5.61616
5.04648
4.55501
4.13524
3.77909
3.47853
3.22633
3.0164
2.84377
2.70456
2.59585
2.5156
2.46256
2.43624
2.43688
2.46548
2.52379
2.61442
2.74076
2.90696
3.11751
3.37652
3.68621
4.04419
4.43958
4.84848
5.23176
5.54127
5.74122
5.83793
5.87965
5.92626
6.02664
6.20983
6.48275
6.8278
7.19895
7.52048
7.6992
7.66235
7.40968
7.01368
6.56792
6.14984
5.80966
5.57321
5.44761
5.42436
5.47827
5.56358
5.61201
5.54215
5.29016
4.85245
4.28564
3.66383
3.048
2.47701
1.97043
1.53415
1.16427
0.847777
0.560173
0.261239
-0.107215
-0.614326
-1.31599
-2.22111
-3.2919
-4.47829
-5.74276
-7.06809
-8.45589
-9.92312
-11.5002
-13.2316
-15.1778
-17.4169
-20.0398
-23.1336
-26.7563
-30.9259
-35.6209
-40.7671
-46.2111
-51.7066
8.65436
7.66803
6.72674
5.88313
5.15719
4.54706
4.04043
3.6219
3.27671
2.99219
2.7581
2.5664
2.41095
2.28719
2.19182
2.12263
2.07836
2.0586
2.06385
2.09548
2.15596
2.24894
2.3795
2.55437
2.78197
3.07207
3.43434
3.87484
4.38884
4.94882
5.49026
5.90947
6.10663
6.09091
5.98088
5.89982
5.93239
6.12453
6.49171
7.01838
7.64426
8.24294
8.61925
8.58398
8.1362
7.46341
6.75942
6.1504
5.69898
5.42868
5.34286
5.43216
5.67032
5.99923
6.30903
6.43449
6.21601
5.64957
4.88654
4.08338
3.3404
2.70538
2.19415
1.80746
1.53965
1.37969
1.30477
1.26697
1.17656
0.898877
0.302654
-0.620526
-1.75661
-2.98928
-4.24921
-5.51194
-6.78245
-8.0834
-9.45053
-10.9352
-12.613
-14.5956
-17.0345
-20.0941
-23.8791
-28.4245
-33.7398
-39.7866
-46.3971
-53.1894
8.78669
7.50034
6.32187
5.33028
4.53115
3.89831
3.39873
3.00274
2.68678
2.43311
2.2287
2.06408
1.93241
1.82884
1.75
1.69371
1.65876
1.64489
1.65271
1.68388
1.74125
1.82925
1.95433
2.12573
2.35634
2.66358
3.06968
3.59949
4.27172
5.07567
5.92455
6.59721
6.77835
6.47947
6.04017
5.70952
5.60808
5.78691
6.27071
7.06581
8.12843
9.2853
10.1316
10.0993
9.18646
7.95776
6.8139
5.92372
5.32719
5.01824
4.98568
5.22538
5.73144
6.46217
7.27121
7.82185
7.64268
6.72952
5.54503
4.41606
3.47714
2.75532
2.23839
1.90941
1.75961
1.789
1.99579
2.34831
2.72988
2.87064
2.392
1.28654
-0.0822981
-1.46107
-2.75171
-3.9446
-5.06519
-6.14835
-7.23152
-8.36059
-9.60938
-11.1171
-13.1353
-16.0099
-19.9067
-24.8138
-30.8049
-37.9938
-46.3208
-55.2301
9.0154
7.17695
5.64761
4.50009
3.66554
3.05761
2.60777
2.26824
2.00705
1.80301
1.64192
1.51421
1.41333
1.33482
1.27566
1.23397
1.20876
1.19985
1.20789
1.23447
1.28239
1.35607
1.46238
1.61175
1.82025
2.11261
2.52675
3.11893
3.96473
5.13761
6.61235
7.9925
8.14101
7.06997
5.94274
5.18894
4.87999
5.00994
5.6012
6.72773
8.47655
10.7745
12.909
12.882
10.6912
8.32961
6.50282
5.27399
4.54113
4.20962
4.23623
4.63484
5.4688
6.81211
8.6052
10.2598
10.126
8.19989
6.12334
4.47485
3.30113
2.5101
2.01186
1.75321
1.72143
1.94274
2.47684
3.38766
4.62978
5.73417
5.38376
3.57272
1.6062
-0.0598318
-1.39497
-2.48136
-3.40179
-4.21326
-4.94638
-5.61352
-6.23277
-6.90347
-8.00285
-10.4533
-14.4792
-19.642
-26.1449
-34.5615
-45.4054
-58.1972
9.44427
6.40812
4.42342
3.21905
2.47341
1.98908
1.65785
1.42082
1.24496
1.11096
1.00701
0.925648
0.862001
0.812853
0.776102
0.75045
0.735235
0.730365
0.736328
0.754296
0.786349
0.835881
0.908341
1.01257
1.16333
1.3862
1.72734
2.27301
3.18662
4.76468
7.43612
11.161
11.2595
7.74112
5.30733
4.02756
3.51966
3.56847
4.16069
5.4933
8.03366
12.4985
18.7983
18.7801
12.4416
7.93102
5.3304
3.90984
3.1769
2.88514
2.95094
3.41721
4.47248
6.51408
10.1383
15.2727
15.1898
9.88661
6.08502
3.84977
2.57388
1.84312
1.44021
1.27022
1.3187
1.64594
2.41526
3.9498
6.7278
10.6924
10.4785
6.0826
2.86187
0.864819
-0.396519
-1.25712
-1.89531
-2.39097
-2.75626
-2.93537
-2.78204
-2.07248
-0.924769
-2.62825
-7.41414
-12.5405
-18.7285
-27.6337
-41.6839
-62.856
10.3179
4.12493
2.07529
1.27731
0.904899
0.700029
0.572226
0.485258
0.422547
0.375573
0.339534
0.311537
0.289754
0.273006
0.260533
0.251871
0.246785
0.24525
0.247445
0.253807
0.265109
0.282639
0.308518
0.346342
0.402529
0.489435
0.633344
0.89716
1.45156
2.81708
6.74262
19.5511
19.5857
6.85019
3.00991
1.75454
1.35751
1.34437
1.65386
2.51949
4.81918
11.5798
33.785
33.7785
11.5593
4.78178
2.45849
1.55534
1.17728
1.04565
1.08887
1.35126
2.0557
3.93688
9.49612
27.7982
27.7701
9.41068
3.79092
1.84309
1.06151
0.703971
0.53307
0.472571
0.514482
0.712451
1.25166
2.72119
7.11686
21.6671
21.5952
6.89992
2.35527
0.72997
0.0248384
-0.3532
-0.594073
-0.756413
-0.834219
-0.735916
-0.132326
2.12754
10.2589
9.63544
0.1412
-3.91021
-7.39915
-13.297
-27.7065
-70.8906
-50.1828
-53.208
-56.0834
-58.7775
-61.2661
-63.532
-65.5647
-67.3593
-68.9154
-70.2356
-71.3243
-72.1869
-72.8286
-73.2536
-73.4653
-50.2946
-53.3571
-56.2638
-58.9823
-61.488
-63.7643
-65.8018
-67.5969
-69.1503
-70.466
-71.5495
-72.4069
-73.0441
-73.4659
-73.676
-50.5225
-53.6615
-56.6317
-59.3989
-61.9384
-64.2347
-66.2806
-68.0752
-69.6221
-70.9277
-71.9998
-72.8461
-73.474
-73.8891
-74.0956
-50.8756
-54.1338
-57.202
-60.0426
-62.6311
-64.9546
-67.0098
-68.8003
-70.3342
-71.622
-72.6747
-73.5029
-74.1155
-74.5198
-74.7207
-51.369
-54.7956
-57.9989
-60.9375
-63.588
-65.9419
-68.0027
-69.781
-71.2915
-72.5504
-73.5733
-74.3741
-74.9644
-75.3529
-75.5457
-52.0267
-55.68
-59.0597
-62.1199
-64.8405
-67.2216
-69.2771
-71.0284
-72.4995
-73.7139
-74.6931
-75.4549
-76.0139
-76.3807
-76.5624
-52.8852
-56.8373
-60.4391
-63.641
-66.4315
-68.8258
-70.8548
-72.5551
-73.9631
-75.1118
-76.0291
-76.7376
-77.2546
-77.5926
-77.7596
-54.0013
-58.344
-62.2176
-65.5728
-68.4176
-70.7945
-72.7603
-74.373
-75.685
-76.74
-77.5729
-78.2107
-78.6733
-78.9744
-79.1228
-55.4653
-60.3191
-64.5135
-68.014
-70.8708
-73.1733
-75.0177
-76.4906
-77.6627
-78.5891
-79.3108
-79.8581
-80.2523
-80.5078
-80.6334
-57.4281
-62.9527
-67.5026
-71.0978
-73.8773
-76.0092
-77.6457
-78.9078
-79.885
-80.6415
-81.2221
-81.6576
-81.969
-82.17
-82.2685
-60.1566
-66.5601
-71.4454
-74.9966
-77.5304
-79.3396
-80.6473
-81.6087
-82.327
-82.8687
-83.2771
-83.5801
-83.7952
-83.9334
-84.0011
-64.1659
-71.6847
-76.7212
-79.9119
-81.9066
-83.1701
-83.994
-84.552
-84.9441
-85.2279
-85.4365
-85.5893
-85.6971
-85.7663
-85.8002
-70.5744
-79.2906
-83.8416
-86.0224
-87.013
-87.4387
-87.6059
-87.6599
-87.6683
-87.6609
-87.6506
-87.6421
-87.6365
-87.6334
-87.6321
-82.2051
-91.0609
-93.3312
-93.3219
-92.6829
-91.9646
-91.3297
-90.8126
-90.4068
-90.0955
-89.8616
-89.691
-89.5723
-89.4976
-89.4615
-107.572
-109.415
-105.099
-101.25
-98.4305
-96.4055
-94.9349
-93.8528
-93.0494
-92.4511
-92.0081
-91.6865
-91.463
-91.3219
-91.2536
16.9398
16.908
16.8445
16.7503
16.6269
16.477
16.3062
16.1242
15.9491
15.8142
15.782
15.9777
16.6864
18.7271
25.2061
17.4038
17.3716
17.3073
17.2113
17.0845
16.9287
16.7482
16.5508
16.3527
16.1852
16.1094
16.243
16.8099
18.189
20.6239
17.8898
17.8571
17.7916
17.6932
17.5617
17.3973
17.2013
16.9775
16.7346
16.4923
16.2908
16.207
16.3689
16.9173
17.739
18.3979
18.3649
18.2984
18.1976
18.0612
17.8872
17.6733
17.4168
17.1157
16.7706
16.3899
15.9999
15.659
15.4554
15.4314
18.9285
18.8954
18.8285
18.7263
18.5863
18.4043
18.1743
17.8867
17.527
17.0732
16.4949
15.7583
14.8534
13.8683
13.1139
19.4816
19.4489
19.3826
19.2808
19.1399
18.9543
18.7147
18.4062
18.0031
17.4619
16.7093
15.633
14.103
12.1207
10.2792
20.0568
20.0252
19.961
19.8619
19.7241
19.5411
19.3025
18.9907
18.5747
17.9969
17.1481
15.8224
13.6662
10.2751
6.17254
20.6535
20.6237
20.563
20.4694
20.339
20.1659
19.9406
19.6472
19.2581
18.7196
17.9175
16.5882
14.0865
8.92329
-0.776191
21.2704
21.243
21.1875
21.1018
20.983
20.8264
20.6252
20.3697
20.0449
19.6247
19.0526
18.1675
16.3548
10.7214
-14.4535
21.9057
21.8814
21.8322
21.7567
21.6526
21.5171
21.3469
21.1398
20.8974
20.6345
20.4046
20.3907
21.2757
26.0898
50.7545
22.5573
22.5366
22.4948
22.4308
22.3435
22.2312
22.0937
21.9338
21.7638
21.6208
21.606
21.9891
23.4674
27.6723
36.7387
23.2226
23.2059
23.1721
23.1207
23.0509
22.9622
22.8553
22.7341
22.6109
22.5175
22.5305
22.8263
23.765
25.8782
29.0277
23.899
23.8864
23.861
23.8226
23.7707
23.7052
23.6262
23.5353
23.4369
23.3394
23.2578
23.2165
23.2462
23.3638
23.5127
24.5835
24.5752
24.5585
24.5333
24.4994
24.4567
24.4045
24.3412
24.2617
24.1497
23.9565
23.5567
22.6657
20.8269
18.1102
25.2732
25.2692
25.2612
25.2493
25.2336
25.214
25.1896
25.1576
25.1087
25.0154
24.7982
24.2373
22.7428
18.8991
10.8305
25.9651
25.9653
25.966
25.9673
25.9699
25.9739
25.9793
25.985
25.986
25.9663
25.8777
25.5658
24.4505
19.9048
-2.04316
26.6561
26.6605
26.6696
26.6839
26.7043
26.7319
26.7681
26.8151
26.877
26.9643
27.1116
27.4516
28.5396
32.995
54.8363
27.3434
27.3518
27.3688
27.3955
27.433
27.4831
27.5485
27.6341
27.7497
27.9198
28.2109
28.8173
30.2892
34.0108
41.9089
28.0243
28.0363
28.0608
28.0989
28.1521
28.2227
28.3141
28.4315
28.5842
28.7904
29.0905
29.5811
30.4758
32.1253
34.477
28.696
28.7114
28.7426
28.791
28.8583
28.9471
29.0608
29.2037
29.3808
29.5948
29.8369
30.0637
30.1371
29.7515
28.6892
29.3565
29.3747
29.4119
29.4692
29.5488
29.6533
29.7862
29.9514
30.1512
30.3786
30.5932
30.652
30.1164
27.8468
22.1748
30.0035
30.0242
30.0663
30.1313
30.2211
30.3388
30.4882
30.6743
30.9018
31.1705
31.4567
31.6522
31.2991
28.3041
11.7328
30.6353
30.6581
30.7043
30.7753
30.8732
31.0013
31.1638
31.3676
31.6233
31.949
32.3824
33.0327
34.3154
38.1886
55.3269
31.2505
31.2749
31.3242
31.3998
31.5036
31.6388
31.8098
32.0241
32.2956
32.6518
33.1565
33.9734
35.5316
38.8602
45.3023
31.8481
31.8736
31.9251
32.0038
32.1114
32.2504
32.4246
32.6402
32.9083
33.2505
33.7127
34.3984
35.5174
37.3688
39.7638
32.4272
32.4534
32.5064
32.587
32.6964
32.8366
33.0097
33.219
33.4688
33.7647
34.113
34.5216
34.9935
35.4989
35.901
32.9872
33.0139
33.0677
33.1492
33.2593
33.3988
33.5686
33.7688
33.9967
34.2415
34.4703
34.6001
34.4454
33.6998
32.3299
33.5278
33.5548
33.609
33.6908
33.8007
33.939
34.1054
34.2985
34.5121
34.7283
34.8953
34.8754
34.3064
32.3336
27.82
34.0489
34.076
34.1303
34.212
34.3214
34.4584
34.6228
34.8129
35.0251
35.2481
35.4493
35.5311
35.1412
32.7311
20.1885
34.5503
34.5774
34.6316
34.7131
34.8219
34.9579
35.121
35.3113
35.53
35.782
36.0852
36.5135
37.378
40.1641
52.9061
35.0321
35.0591
35.1132
35.1944
35.3026
35.4375
35.5993
35.789
36.011
36.279
36.6334
37.192
38.2793
40.6822
45.4393
35.4942
35.5212
35.5752
35.6561
35.7636
35.8974
36.0571
36.2433
36.4592
36.7151
37.0386
37.5027
38.2657
39.5645
41.2895
35.9367
35.9637
36.0176
36.0984
36.2054
36.3382
36.4955
36.6762
36.8791
37.1029
37.3451
37.6048
37.879
38.1499
38.3511
36.3595
36.3866
36.4406
36.5214
36.6284
36.7607
36.9164
37.0927
37.2839
37.4766
37.6385
37.6961
37.4933
36.7829
35.566
36.7626
36.7898
36.8442
36.9254
37.0329
37.1657
37.3218
37.4979
37.6868
37.8706
38.0033
37.9672
37.4591
35.7668
31.9494
37.1459
37.1733
37.2282
37.3102
37.4189
37.5533
37.7123
37.8934
38.0924
38.2989
38.4842
38.5654
38.246
36.2256
25.6957
37.5091
37.5369
37.5924
37.6755
37.7858
37.9228
38.0861
38.2755
38.4922
38.7407
39.0363
39.4408
40.213
42.5927
53.3123
37.8522
37.8803
37.9366
38.021
38.1331
38.273
38.4406
38.6377
38.8691
39.1485
39.5118
40.0599
41.0625
43.1673
47.2185
38.1747
38.2033
38.2605
38.3462
38.4602
38.6026
38.7736
38.975
39.2119
39.4968
39.858
40.3626
41.1452
42.3893
43.9524
38.4765
38.5055
38.5636
38.6507
38.7665
38.9111
39.0842
39.2867
39.5208
39.7907
40.1034
40.4713
40.9062
41.3888
41.7862
38.7571
38.7867
38.8457
38.9342
39.0519
39.1985
39.3733
39.5756
39.804
40.0537
40.3094
40.5327
40.6327
40.4465
39.9104
39.0163
39.0463
39.1064
39.1965
39.3162
39.465
39.6419
39.8454
40.0717
40.3111
40.5367
40.6788
40.5568
39.7462
37.6769
39.2536
39.2842
39.3454
39.4372
39.5592
39.7108
39.891
40.0983
40.3295
40.577
40.8208
41.0074
40.9578
39.9191
34.0208
39.4686
39.4999
39.5623
39.656
39.7805
39.9355
40.1201
40.3336
40.5751
40.8442
41.1436
41.4992
42.0445
43.4658
49.5593
39.661
39.6929
39.7566
39.8523
39.9796
40.1383
40.3279
40.5484
40.8008
41.089
41.4262
41.8582
42.5217
43.7669
46.0683
39.8303
39.8628
39.9279
40.0255
40.1558
40.3183
40.5131
40.7402
41.0009
41.2985
41.6418
42.0554
42.5937
43.3334
44.1905
39.976
40.0092
40.0755
40.1752
40.3084
40.4748
40.6745
40.9076
41.1745
41.4751
41.8074
42.165
42.5246
42.8175
42.9227
40.0977
40.1315
40.1991
40.3008
40.4367
40.6069
40.8116
41.0506
41.3238
41.6284
41.9542
42.2723
42.5006
42.4309
41.743
40.195
40.2293
40.298
40.4015
40.54
40.7139
40.9234
41.169
41.4505
41.7658
42.1051
42.441
42.6822
42.4727
40.1005
40.2675
40.3022
40.3719
40.4769
40.6177
40.7948
41.009
41.2613
41.553
41.8851
42.2573
42.6745
43.1757
44.0152
46.7528
40.3149
40.3499
40.4203
40.5264
40.669
40.8488
41.0669
41.3252
41.6266
41.9752
42.3772
42.8488
43.4328
44.2387
45.3943
40.3369
40.3721
40.4429
40.5497
40.6933
40.8748
41.0957
41.3582
41.6666
42.0269
42.4476
42.9439
43.5347
44.2182
44.8534
40.3335
40.3687
40.4395
40.5464
40.6903
40.8723
41.0941
41.3584
41.6699
42.0353
42.4644
42.9723
43.571
44.23
44.769
40.3046
40.3396
40.41
40.5164
40.6596
40.8408
41.0618
41.325
41.6348
41.9981
42.4253
42.9369
43.564
44.3243
45.074
40.2504
40.285
40.3546
40.4598
40.6014
40.7806
40.9988
41.2581
41.5619
41.9151
42.3264
42.8202
43.4632
44.4249
45.9148
40.1711
40.2051
40.2735
40.3768
40.516
40.692
40.9059
41.1593
41.4538
41.7905
42.1692
42.5988
43.1399
44.1577
47.8053
40.0672
40.1004
40.1672
40.2681
40.4039
40.5757
40.7844
41.031
41.3158
41.6352
41.9756
42.299
42.4843
42.0632
38.7477
39.9393
39.9715
40.0362
40.134
40.2657
40.4325
40.6353
40.8753
41.1528
41.464
41.7928
42.0941
42.2484
41.9777
40.8991
39.7881
39.819
39.8812
39.9753
40.1022
40.263
40.4591
40.6925
40.9656
41.2794
41.6278
41.9902
42.3066
42.4522
42.3165
39.6143
39.6438
39.7032
39.7929
39.914
40.0676
40.2556
40.4812
40.7496
41.0692
41.4521
41.9174
42.482
43.121
43.6547
39.4191
39.447
39.503
39.5878
39.7021
39.8471
40.0249
40.2391
40.4972
40.8137
41.2181
41.7745
42.6045
43.862
45.3784
39.2036
39.2296
39.282
39.3612
39.4678
39.6027
39.7676
39.9656
40.2034
40.4959
40.8775
41.4408
42.4288
44.4221
48.1702
38.9689
38.9931
39.0415
39.1145
39.2126
39.3362
39.486
39.6634
39.8711
40.1148
40.4095
40.8112
41.5536
43.7627
53.5796
38.7166
38.7387
38.7829
38.8495
38.9387
39.0503
39.184
39.3391
39.5129
39.6971
39.8661
39.944
39.6587
37.819
28.1996
38.4479
38.4679
38.5079
38.5679
38.648
38.7477
38.866
39.0009
39.1469
39.2887
39.3848
39.3282
38.8421
37.2768
33.7754
38.1645
38.1823
38.218
38.2715
38.3426
38.4309
38.5354
38.6541
38.7829
38.9107
39.0084
39.0098
38.7738
38.0783
36.9341
37.8677
37.8834
37.9148
37.9618
38.0243
38.1017
38.1935
38.2993
38.419
38.5523
38.6977
38.8553
39.0235
39.1904
39.3126
37.559
37.5726
37.5999
37.6406
37.6944
37.7612
37.8407
37.934
38.045
38.1841
38.3776
38.6927
39.2728
40.3325
41.7901
37.2399
37.2515
37.2747
37.3092
37.3546
37.4107
37.4772
37.5555
37.6507
37.7767
37.972
38.3452
39.1877
41.1975
45.2941
36.9118
36.9215
36.9407
36.9692
37.0064
37.0516
37.1043
37.1645
37.2342
37.3201
37.4418
37.671
38.2909
40.6122
51.657
36.576
36.5839
36.5995
36.6223
36.6515
36.6862
36.7249
36.7658
36.8059
36.8374
36.8358
36.7246
36.2114
33.968
22.9504
36.2338
36.2401
36.2523
36.2699
36.2919
36.3169
36.3428
36.3668
36.383
36.3763
36.3048
36.0566
35.3324
33.4161
29.36
35.8864
35.8912
35.9005
35.9135
35.9291
35.9457
35.961
35.9724
35.9753
35.959
35.8955
35.7182
35.2801
34.3494
32.9664
35.5347
35.5384
35.5453
35.5545
35.5647
35.5741
35.5807
35.5829
35.5801
35.5732
35.5644
35.56
35.5689
35.5958
35.6259
35.1796
35.1824
35.1875
35.1939
35.1999
35.2034
35.2023
35.196
35.1872
35.1877
35.2291
35.3917
35.844
36.8392
38.3198
34.8216
34.8239
34.8281
34.8327
34.8357
34.8346
34.8265
34.8099
34.7872
34.7724
34.8088
35.0215
35.7408
37.7446
42.0553
34.461
34.4634
34.4674
34.4716
34.4735
34.4696
34.4556
34.4271
34.3811
34.3203
34.265
34.2987
34.7446
37.0472
48.7977
34.0979
34.1008
34.1058
34.1113
34.1142
34.1104
34.0936
34.0555
33.9846
33.8633
33.6585
33.2886
32.4581
29.7877
17.7878
33.732
33.7359
33.7431
33.7517
33.7587
33.7591
33.7453
33.7059
33.6224
33.4631
33.1656
32.5978
31.4481
29.0062
24.3832
33.3624
33.368
33.3786
33.3925
33.4068
33.4166
33.4138
33.3859
33.3122
33.1576
32.8595
32.3102
31.3344
29.7386
27.7809
32.988
32.9958
33.0109
33.0321
33.0571
33.0816
33.0987
33.0969
33.0577
32.9506
32.7269
32.3181
31.6502
30.7217
29.8318
32.6073
32.6177
32.6382
32.6683
32.7067
32.7507
32.7955
32.833
32.8496
32.8235
32.7218
32.5053
32.1459
31.6771
31.2774
32.2186
32.2317
32.258
32.2979
32.3515
32.4182
32.4964
32.5828
32.6705
32.7478
32.7955
32.7908
32.7167
32.5837
32.458
31.82
31.8357
31.8677
31.9172
31.9861
32.0765
32.1906
32.3307
32.4981
32.6916
32.9045
33.1237
33.3272
33.4845
33.5639
31.4097
31.4275
31.4643
31.5222
31.605
31.7173
31.8658
32.0588
32.3069
32.6209
33.0081
33.4666
33.9689
34.4384
34.7376
30.9862
31.0054
31.0454
31.1093
31.2023
31.332
31.5089
31.7479
32.0693
32.4982
33.0614
33.7784
34.6322
35.5097
36.1316
30.5486
30.5681
30.609
30.6753
30.7733
30.9127
31.1078
31.3791
31.7564
32.2811
33.0068
33.9944
35.2778
36.7575
37.9701
30.0967
30.1152
30.1543
30.2184
30.3146
30.4539
30.6527
30.9357
31.3405
31.9234
32.7694
34.0041
35.7861
38.1899
40.6631
29.6311
29.6472
29.6815
29.7384
29.8251
29.9527
30.1381
30.4071
30.8002
31.382
32.261
33.6328
35.8616
39.5731
45.086
29.1536
29.1659
29.1923
29.2369
29.3063
29.4104
29.5645
29.7917
30.1282
30.6332
31.4095
32.6654
34.9062
39.7044
53.3495
-177.934
-131.884
-115.457
-107.573
-102.969
-99.9665
-97.8825
-96.3833
-95.2825
-94.4666
-93.8633
-93.4248
-93.1194
-92.9263
-92.8327
-150.464
-131.737
-118.938
-111.043
-105.983
-102.565
-100.155
-98.4064
-97.1137
-96.1502
-95.4343
-94.9117
-94.5465
-94.3149
-94.2025
-136.012
-127.473
-119.014
-112.542
-107.855
-104.461
-101.968
-100.112
-98.7151
-97.6609
-96.87
-96.2885
-95.8799
-95.6199
-95.4934
-127.505
-123.152
-117.708
-112.801
-108.828
-105.73
-103.339
-101.497
-100.078
-98.9875
-98.1592
-97.5444
-97.1094
-96.8312
-96.6955
-122.035
-119.586
-116.03
-112.409
-109.193
-106.507
-104.328
-102.588
-101.21
-100.131
-99.299
-98.6745
-98.2291
-97.9427
-97.8026
-118.281
-116.786
-114.396
-111.735
-109.188
-106.93
-105.013
-103.425
-102.135
-101.102
-100.294
-99.6794
-99.2375
-98.9517
-98.8114
-115.579
-114.607
-112.95
-110.98
-108.98
-107.116
-105.467
-104.056
-102.879
-101.917
-101.152
-100.564
-100.137
-99.8589
-99.722
-113.566
-112.903
-111.721
-110.245
-108.676
-107.153
-105.755
-104.524
-103.471
-102.595
-101.886
-101.335
-100.931
-100.667
-100.537
-112.027
-111.559
-110.694
-109.574
-108.34
-107.1
-105.927
-104.867
-103.94
-103.154
-102.51
-102.003
-101.629
-101.382
-101.26
-110.829
-110.488
-109.842
-108.983
-108.007
-106.999
-106.021
-105.116
-104.31
-103.615
-103.037
-102.578
-102.236
-102.009
-101.897
-109.881
-109.629
-109.138
-108.471
-107.695
-106.875
-106.062
-105.296
-104.601
-103.993
-103.481
-103.07
-102.762
-102.557
-102.455
-109.123
-108.933
-108.556
-108.033
-107.413
-106.745
-106.071
-105.425
-104.83
-104.303
-103.854
-103.491
-103.216
-103.032
-102.941
-108.511
-108.367
-108.074
-107.66
-107.163
-106.619
-106.06
-105.517
-105.011
-104.557
-104.167
-103.848
-103.606
-103.443
-103.362
-108.014
-107.904
-107.674
-107.346
-106.945
-106.5
-106.038
-105.583
-105.154
-104.765
-104.429
-104.151
-103.94
-103.797
-103.725
-107.606
-107.523
-107.342
-107.08
-106.756
-106.392
-106.01
-105.63
-105.268
-104.937
-104.648
-104.409
-104.225
-104.1
-104.038
-107.272
-107.209
-107.066
-106.856
-106.594
-106.296
-105.981
-105.663
-105.359
-105.078
-104.832
-104.626
-104.468
-104.36
-104.306
-106.995
-106.948
-106.836
-106.667
-106.455
-106.212
-105.951
-105.687
-105.432
-105.195
-104.985
-104.81
-104.674
-104.582
-104.535
-106.766
-106.731
-106.643
-106.509
-106.337
-106.138
-105.923
-105.704
-105.491
-105.292
-105.115
-104.966
-104.85
-104.771
-104.731
-106.575
-106.551
-106.482
-106.375
-106.236
-106.074
-105.897
-105.716
-105.538
-105.372
-105.223
-105.097
-104.999
-104.932
-104.898
-106.416
-106.4
-106.347
-106.262
-106.15
-106.018
-105.874
-105.725
-105.577
-105.439
-105.314
-105.208
-105.126
-105.069
-105.04
-106.283
-106.273
-106.233
-106.166
-106.077
-105.971
-105.853
-105.731
-105.609
-105.495
-105.391
-105.303
-105.234
-105.186
-105.162
-106.17
-106.166
-106.137
-106.085
-106.015
-105.929
-105.834
-105.735
-105.636
-105.541
-105.456
-105.383
-105.325
-105.286
-105.266
-106.075
-106.076
-106.055
-106.016
-105.961
-105.894
-105.818
-105.738
-105.658
-105.581
-105.511
-105.451
-105.404
-105.371
-105.355
-105.994
-105.999
-105.986
-105.957
-105.916
-105.864
-105.804
-105.74
-105.676
-105.615
-105.558
-105.51
-105.471
-105.445
-105.431
-105.925
-105.932
-105.926
-105.906
-105.876
-105.837
-105.791
-105.742
-105.692
-105.644
-105.599
-105.56
-105.529
-105.508
-105.497
-105.865
-105.875
-105.874
-105.862
-105.842
-105.814
-105.78
-105.743
-105.706
-105.668
-105.634
-105.604
-105.58
-105.563
-105.555
-105.812
-105.824
-105.828
-105.823
-105.812
-105.793
-105.77
-105.745
-105.718
-105.69
-105.665
-105.642
-105.625
-105.612
-105.606
-105.764
-105.779