/*--------------------------------*- C++ -*----------------------------------*\
| =========                 |                                                 |
| \\      /  F ield         | OpenFOAM: The Open Source CFD Toolbox           |
|  \\    /   O peration     | Version:  5.x                                   |
|   \\  /    A nd           | Web:      www.OpenFOAM.org                      |
|    \\/     M anipulation  |                                                 |
\*---------------------------------------------------------------------------*/
FoamFile
{
    version     2.0;
    format      ascii;
    class       volScalarField;
    location    "16";
    object      gradTy;
}
// * * * * * * * * * * * * * * * * * * * * * * * * * * * * * * * * * * * * * //

dimensions      [0 -1 0 1 0 0 0];

internalField   nonuniform List<scalar> 
6300
(
1006.31
1018.91
1031.45
1043.9
1056.22
1068.36
1080.3
1091.99
1103.4
1114.49
1125.23
1135.59
1145.54
1155.06
1164.13
0.0281707
0.0845042
0.1408
0.196998
0.252983
0.308556
0.363401
0.417051
0.468855
0.51795
0.563259
0.603512
0.637318
0.663276
0.680133
0.0469599
0.140876
0.234766
0.328557
0.422087
0.515058
0.606984
0.697124
0.784419
0.86744
0.944362
1.01299
1.07088
1.11552
1.14465
0.0657513
0.197271
0.328824
0.460365
0.591732
0.722585
0.85233
0.980015
1.10423
1.223
1.33373
1.43318
1.51766
1.58326
1.62636
0.0845212
0.253624
0.422884
0.592331
0.76187
0.931199
1.09971
1.26635
1.42945
1.58657
1.73432
1.86832
1.98328
2.07346
2.13332
0.103229
0.309809
0.516739
0.724183
0.932188
1.1406
1.34892
1.55617
1.76061
1.95946
2.14862
2.32241
2.47362
2.5939
2.67486
0.121811
0.365636
0.610063
0.85545
1.10207
1.35004
1.59917
1.84876
2.09729
2.34198
2.57821
2.79902
2.9948
3.15356
3.26246
0.140183
0.420846
0.702403
0.985451
1.27057
1.55828
1.84889
2.14234
2.43775
2.73286
3.02312
3.30057
3.55285
3.76294
3.91079
0.158253
0.475146
0.793225
1.11334
1.43644
1.76355
2.09572
2.43388
2.77842
3.1285
3.4807
3.82713
4.15294
4.43439
4.63967
0.175929
0.528245
0.881982
1.23822
1.59826
1.9637
2.33649
2.71894
3.11346
3.52189
3.94392
4.37415
4.79722
5.1818
5.47716
0.193139
0.579908
0.968206
1.35926
1.75463
2.15643
2.56752
2.99183
3.43447
3.90152
4.39876
4.92812
5.47979
6.01821
6.46487
0.209853
0.630021
1.05164
1.47593
1.90452
2.33977
2.78524
3.24628
3.73092
4.25078
4.82128
5.45957
6.17539
6.94619
7.66587
0.226098
0.678659
1.13238
1.58825
2.04767
2.51283
2.98728
3.47698
3.99201
4.5492
5.17582
5.91329
6.81579
7.92505
9.16716
0.241969
0.726117
1.21093
1.69696
2.18502
2.67651
3.17394
3.6822
4.21077
4.77801
5.4193
6.20177
7.2492
8.77071
11.0083
0.257621
0.772889
1.28821
1.80357
2.31888
2.83413
3.34966
3.86697
4.39066
4.93257
5.5214
6.2251
7.20828
8.89983
12.5733
1172.02
1178.87
1185.4
1191.61
1197.51
1203.1
1208.41
1213.44
1218.22
1222.77
1227.09
1231.22
1235.18
1238.98
1242.65
1246.22
1249.69
1253.1
1256.47
1259.81
1263.13
1266.47
1269.84
1273.25
1276.72
1280.25
1283.87
1287.57
1291.37
1295.27
1299.26
1303.35
1307.54
1311.83
1316.19
1320.64
1325.16
1329.74
1334.37
1339.03
1343.71
1348.39
1353.06
1357.7
1362.28
1366.79
1371.2
1375.51
1379.68
1383.71
1387.57
1391.24
1394.7
1397.93
1400.91
1403.62
1406.02
1408.1
1409.81
1411.13
1412.03
1412.47
1412.42
1411.84
1410.69
1408.92
1406.49
1403.35
1399.44
1394.7
1389.06
1382.44
1374.79
1366
1356.01
1344.72
1332.04
1317.87
1302.13
1284.71
1265.52
1244.46
1221.45
1196.4
1169.23
1139.88
1108.3
1074.47
1038.38
1000.03
0.686385
0.684806
0.675954
0.660077
0.637659
0.609365
0.57599
0.538385
0.497406
0.453871
0.408521
0.362012
0.314907
0.267678
0.220725
0.174387
0.128963
0.0847323
0.0419718
0.000974219
-0.0379397
-0.0744137
-0.108055
-0.138444
-0.16515
-0.187763
-0.205929
-0.219393
-0.228034
-0.231892
-0.231163
-0.22617
-0.217296
-0.204908
-0.189273
-0.17051
-0.148591
-0.123383
-0.094748
-0.0626524
-0.0272655
0.0109825
0.0514116
0.0931757
0.135405
0.177372
0.218634
0.259129
0.299179
0.339433
0.380746
0.424028
0.470087
0.519513
0.572606
0.62938
0.689635
0.753088
0.819525
0.888941
0.96163
1.03822
1.11963
1.207
1.30156
1.40449
1.5168
1.63925
1.77224
1.91585
2.06985
2.23379
2.40705
2.58892
2.77861
2.9752
3.17751
3.38399
3.59253
3.80031
4.00372
4.19827
4.37868
4.53905
4.67317
4.77489
4.83865
4.85997
4.83588
4.76531
1.15556
1.15296
1.13782
1.1106
1.07217
1.02376
0.966777
0.902738
0.833142
0.759398
0.68277
0.604358
0.525092
0.445741
0.366944
0.289235
0.213083
0.138921
0.0671868
-0.00165415
-0.0670791
-0.128495
-0.185234
-0.236565
-0.281727
-0.319977
-0.350659
-0.373289
-0.387628
-0.393745
-0.392018
-0.383086
-0.367717
-0.346645
-0.320393
-0.289167
-0.252836
-0.211037
-0.16336
-0.109591
-0.0499253
0.0149041
0.08363
0.154617
0.226154
0.296798
0.365672
0.43265
0.498369
0.564103
0.631517
0.702366
0.778195
0.860092
0.948554
1.04349
1.14435
1.25044
1.36117
1.47639
1.59654
1.72271
1.85659
2.00026
2.15596
2.32589
2.5119
2.71531
2.93684
3.17656
3.43396
3.70816
3.99805
4.30244
4.62009
4.94961
5.2893
5.63681
5.98888
6.34099
6.68717
7.01984
7.32995
7.60716
7.84047
8.01887
8.1323
8.17253
8.13411
8.01499
1.6427
1.63911
1.61703
1.57719
1.52102
1.45044
1.36769
1.27506
1.17483
1.06906
0.95958
0.847934
0.7354
0.623012
0.511602
0.401852
0.294347
0.18963
0.0882508
-0.00918362
-0.101972
-0.189289
-0.270175
-0.343545
-0.408233
-0.463062
-0.506958
-0.539094
-0.559035
-0.566862
-0.563221
-0.549242
-0.526324
-0.495813
-0.458652
-0.41515
-0.364934
-0.307131
-0.240723
-0.165002
-0.0799996
0.0132349
0.112611
0.215284
0.318206
0.418784
0.515453
0.607993
0.697547
0.786364
0.877352
0.973546
1.07758
1.19123
1.3152
1.44906
1.59156
1.74111
1.89636
2.05675
2.22277
2.39612
2.57946
2.77617
2.98989
3.22416
3.48192
3.76528
4.07526
4.41178
4.77385
5.15991
5.56814
5.99684
6.44443
6.90936
7.38978
7.88303
8.38512
8.89017
9.39001
9.87389
10.3285
10.7384
11.0868
11.3564
11.5313
11.5983
11.5485
11.3784
2.15641
2.15189
2.1218
2.06731
1.99062
1.89469
1.78282
1.65837
1.52453
1.38412
1.23957
1.09286
0.945575
0.798957
0.653959
0.511331
0.371698
0.235636
0.103744
-0.0232897
-0.144624
-0.259221
-0.365811
-0.462898
-0.548801
-0.62175
-0.68005
-0.722315
-0.747738
-0.756347
-0.749161
-0.728117
-0.695716
-0.654404
-0.60589
-0.550648
-0.487807
-0.415465
-0.331345
-0.233627
-0.121776
0.00287463
0.136997
0.275746
0.413784
0.54655
0.671328
0.787783
0.897933
1.00564
1.11584
1.23359
1.36325
1.50767
1.66774
1.84234
2.02878
2.22373
2.42432
2.62912
2.83861
3.05527
3.28322
3.52771
3.79439
4.08871
4.41523
4.77706
5.17559
5.61033
6.07935
6.57983
7.1089
7.66414
8.24388
8.8469
9.47187
10.1166
10.7772
11.4469
12.1159
12.7701
13.3915
13.9584
14.4464
14.8302
15.0856
15.1922
15.136
14.9112
2.70676
2.70141
2.66162
2.58927
2.48783
2.36177
2.21594
2.05509
1.88356
1.70503
1.52255
1.33851
1.15471
0.972497
0.792835
0.616434
0.443851
0.275589
0.112196
-0.0456424
-0.197016
-0.340713
-0.475157
-0.59838
-0.708044
-0.801548
-0.876246
-0.929802
-0.960662
-0.968589
-0.955068
-0.92336
-0.877951
-0.823382
-0.762835
-0.69711
-0.624384
-0.54079
-0.441581
-0.322642
-0.182027
-0.0211726
0.15467
0.337176
0.516891
0.685757
0.839116
0.976576
1.10175
1.22126
1.34334
1.4764
1.62757
1.80147
1.99927
2.21847
2.45364
2.6981
2.94611
3.19461
3.444
3.69802
3.96305
4.24714
4.55895
4.90677
5.29752
5.73587
6.22359
6.75937
7.33937
7.95843
8.61175
9.29598
10.0096
10.7526
11.5253
12.3272
13.1557
14.0046
14.8627
15.7132
16.5327
17.2917
17.956
18.4886
18.8539
19.0204
18.9658
18.6808
3.30646
3.3004
3.24819
3.15299
3.02036
2.85717
2.67052
2.46705
2.25248
2.03147
1.80763
1.58365
1.36142
1.14222
0.926887
0.715922
0.50967
0.308425
0.112552
-0.077394
-0.260545
-0.435605
-0.600732
-0.753451
-0.890616
-1.00848
-1.10294
-1.17002
-1.20666
-1.21176
-1.18721
-1.13838
-1.07343
-1.00102
-0.927296
-0.853712
-0.776677
-0.688667
-0.580303
-0.442954
-0.271517
-0.0669052
0.16264
0.402507
0.635499
0.847162
1.02966
1.18292
1.31359
1.43302
1.55487
1.69293
1.85898
2.06067
2.29979
2.57142
2.86492
3.16714
3.46698
3.75861
4.0425
4.32469
4.6152
4.92639
5.27139
5.66274
6.11099
6.6233
7.20211
7.84447
8.54281
9.2874
10.0698
10.8851
11.7328
12.6152
13.5362
14.4991
15.5045
16.5484
17.6202
18.7006
19.7606
20.7611
21.6544
22.3877
22.9077
23.1663
23.1272
22.7739
3.97232
3.96567
3.89648
3.7704
3.59672
3.38617
3.14917
2.89482
2.63049
2.36178
2.09273
1.82608
1.56358
1.30623
1.05449
0.808475
0.568142
0.333397
0.10425
-0.119043
-0.335833
-0.5449
-0.744268
-0.931005
-1.10106
-1.24919
-1.36914
-1.45413
-1.49814
-1.4977
-1.45439
-1.3767
-1.27971
-1.18064
-1.09164
-1.01537
-0.944862
-0.865943
-0.760859
-0.612456
-0.408898
-0.148674
0.155604
0.477582
0.784653
1.05039
1.26214
1.42159
1.54145
1.64109
1.74285
1.86898
2.03885
2.26573
2.55325
2.89265
3.26338
3.63936
3.99942
4.33348
4.64318
4.93909
5.23731
5.55668
5.9168
6.33645
6.8319
7.41466
8.08876
8.8486
9.67928
10.5616
11.4799
12.4274
13.4054
14.4217
15.4864
16.6093
17.7974
19.0517
20.3646
21.7168
23.0736
24.3842
25.5825
26.5933
27.3376
27.7401
27.7407
27.308
4.72811
4.72079
4.62651
4.45619
4.22604
3.95316
3.65274
3.33695
3.0148
2.69258
2.37436
2.06254
1.75835
1.46218
1.17386
0.892888
0.618615
0.350364
0.0875884
-0.16998
-0.422155
-0.668068
-0.905887
-1.13247
-1.34295
-1.53038
-1.68552
-1.79715
-1.85348
-1.84526
-1.77093
-1.64269
-1.48886
-1.34566
-1.23751
-1.16861
-1.12504
-1.08077
-1.00367
-0.861253
-0.627763
-0.293774
0.123169
0.574201
0.993393
1.33144
1.56996
1.71734
1.79849
1.84621
1.89582
1.98213
2.13671
2.38354
2.73206
3.16883
3.65429
4.13456
4.56931
4.94346
5.26375
5.55019
5.82898
6.12833
6.47652
6.90105
7.42711
8.07448
8.85195
9.75068
10.7414
11.7837
12.8482
13.9254
15.023
16.1584
17.3525
18.6257
19.9948
21.4702
23.0524
24.726
26.4532
28.1685
29.7805
31.1826
32.2592
32.8925
32.9777
32.4515
5.61001
5.60098
5.46593
5.22799
4.91678
4.55972
4.17841
3.78823
3.39928
3.01772
2.64687
2.28815
1.94173
1.60698
1.28281
0.96784
0.660606
0.359648
0.0636413
-0.228462
-0.51726
-0.802645
-1.08344
-1.35685
-1.61777
-1.8578
-2.06427
-2.2195
-2.30148
-2.2877
-2.16484
-1.94522
-1.68244
-1.45989
-1.3266
-1.28511
-1.30595
-1.3426
-1.34025
-1.24091
-0.991061
-0.558045
0.0419148
0.716928
1.31924
1.75605
2.00929
2.10868
2.10391
2.04886
1.99622
1.99727
2.10201
2.35523
2.78405
3.37517
4.05292
4.69558
5.2267
5.63126
5.93329
6.17254
6.39132
6.62989
6.9266
7.3197
7.84789
8.5472
9.44078
10.5205
11.7294
12.9742
14.1983
15.3944
16.5863
17.8106
19.1049
20.5043
22.0392
23.7352
25.6085
27.6581
29.85
32.1016
34.2808
36.2405
37.8191
38.8339
39.0954
38.4617
6.67863
6.6625
6.45338
6.10517
5.67341
5.201
4.71659
4.23742
3.77284
3.32717
2.90166
2.49581
2.10806
1.73634
1.3783
1.03147
0.693391
0.361641
0.0339272
-0.291837
-0.617402
-0.94395
-1.27171
-1.59931
-1.92273
-2.23362
-2.51685
-2.7474
-2.88744
-2.88728
-2.69812
-2.30996
-1.81816
-1.44568
-1.28354
-1.31192
-1.46416
-1.66071
-1.81659
-1.83741
-1.61825
-1.06285
-0.14757
0.964177
1.8832
2.44483
2.66993
2.64982
2.4815
2.24776
2.01903
1.86282
1.85321
2.0738
2.60205
3.45646
4.50179
5.4169
6.06602
6.46639
6.69287
6.82401
6.9248
7.0473
7.23751
7.54343
8.02187
8.73978
9.76109
11.104
12.6652
14.194
15.5883
16.8687
18.1026
19.3612
20.7055
22.1868
23.8512
25.744
27.9103
30.3844
33.1601
36.1381
39.0966
41.8461
44.19
45.8595
46.5011
45.7681
8.05006
8.00166
7.64083
7.10239
6.48829
5.85935
5.24708
4.66547
4.11903
3.60742
3.12804
2.67727
2.25121
1.84592
1.45757
1.08245
0.717016
0.357789
0.00138969
-0.355504
-0.71612
-1.08349
-1.46017
-1.84775
-2.24568
-2.64919
-3.04524
-3.40551
-3.67517
-3.75894
-3.51784
-2.82386
-1.78199
-1.12855
-0.966108
-1.16034
-1.55851
-2.03734
-2.48734
-2.77943
-2.72954
-2.08585
-0.619944
1.48892
2.96174
3.6181
3.68357
3.40426
2.95323
2.43939
1.93735
1.5172
1.27292
1.34927
1.95031
3.26274
5.13808
6.52106
7.26335
7.55173
7.58958
7.519
7.42684
7.36709
7.38164
7.51857
7.85084
8.49529
9.61809
11.373
13.6475
15.6072
17.1419
18.4096
19.5831
20.7881
22.1086
23.6053
25.3337
27.3588
29.7684
32.6757
36.1786
40.2021
44.2126
48.0354
51.5312
54.3645
55.8854
55.1909
9.9938
9.7903
9.08361
8.20826
7.32425
6.49348
5.73323
5.04275
4.41496
3.84123
3.31316
2.82315
2.36447
1.93114
1.51781
1.11956
0.731764
0.349954
-0.0303363
-0.413698
-0.80499
-1.20945
-1.63279
-2.08111
-2.56043
-3.07528
-3.62491
-4.19389
-4.73031
-5.09814
-4.98947
-3.8385
-1.18631
-0.10423
-0.134932
-0.714929
-1.53657
-2.45529
-3.38527
-4.21363
-4.69569
-4.2926
-2.01801
2.92963
5.21598
5.64224
5.19369
4.40599
3.51546
2.61408
1.73787
0.91847
0.231057
-0.130661
0.274313
2.25855
6.48339
8.5478
9.1143
8.99779
8.6424
8.24507
7.88224
7.57992
7.34958
7.21249
7.23036
7.56205
8.56494
10.8936
15.083
17.6324
19.0798
20.0859
21.018
22.0486
23.2576
24.6901
26.3887
28.4195
30.9097
34.109
38.4469
44.2844
49.5983
54.6949
59.826
64.7585
68.4594
68.6226
13.3123
12.3032
10.7689
9.3263
8.08326
7.02576
6.11861
5.32947
4.6328
4.00905
3.44327
2.92373
2.44104
1.98741
1.5562
1.14148
0.737783
0.339832
-0.0577191
-0.46054
-0.87494
-1.30827
-1.76947
-2.26982
-2.82398
-3.45126
-4.17663
-5.02909
-6.0281
-7.12341
-7.96188
-7.01485
1.67031
2.52242
1.48716
0.0784019
-1.37484
-2.857
-4.42948
-6.14645
-7.93635
-9.19426
-7.26527
8.20243
10.1485
8.92584
7.19194
5.55557
4.09306
2.75236
1.45642
0.129557
-1.27989
-2.7147
-3.67591
-1.97226
10.9394
12.7312
11.9484
10.7875
9.75529
8.92112
8.25019
7.6888
7.18299
6.68301
6.15775
5.66203
5.60235
7.7346
18.8798
21.2441
21.6524
21.8684
22.3106
23.0515
24.0841
25.3913
26.9648
28.8181
31.0295
33.9018
38.5553
49.1199
55.2959
61.3036
68.4058
76.925
86.1263
91.674
21.0993
15.5722
12.3218
10.1566
8.57481
7.34131
6.33388
5.48291
4.74548
4.09332
3.50671
2.9712
2.47572
2.01141
1.57084
1.14754
0.735573
0.329193
-0.0774394
-0.490618
-0.917525
-1.36683
-1.84962
-2.38088
-2.98205
-3.68577
-4.54509
-5.653
-7.18689
-9.51815
-13.505
-21.3338
15.8065
7.86689
3.64711
0.935855
-1.17131
-3.12845
-5.26535
-7.97391
-11.9427
-18.6846
-32.0079
32.9462
19.6436
12.9454
9.04958
6.4547
4.49526
2.82622
1.2196
-0.54029
-2.75412
-5.98044
-11.4633
-22.3424
31.408
20.6215
15.327
12.3915
10.5829
9.36203
8.46034
7.71763
7.00802
6.18998
5.04269
3.13422
-0.516462
-8.403
35.3206
27.6722
24.5019
23.3246
23.1729
23.6343
24.5148
25.7088
27.1376
28.7009
30.197
31.1295
30.1511
60.2745
61.2353
66.3353
74.9442
88.1083
109.053
145.934
955.404
903.61
848.839
791.262
731.079
668.508
603.783
537.142
468.827
399.076
328.125
256.202
183.531
110.33
36.8116
4.63758
4.4372
4.18411
3.88882
3.56267
3.21654
2.85997
2.50062
2.14407
1.79391
1.45193
1.11847
0.792733
0.473061
0.157247
7.79704
7.45381
7.02034
6.51567
5.96002
5.37255
4.76977
4.16465
3.56642
2.98079
2.41043
1.85556
1.31448
0.784151
0.260611
11.0619
10.5606
9.92776
9.19346
8.38915
7.54387
6.68192
5.82179
4.97615
4.15238
3.35344
2.57883
1.82546
1.08843
0.361649
14.4827
13.7989
12.9365
11.9412
10.8592
9.73182
8.5922
7.46444
6.36403
5.29914
4.27211
3.28083
2.32008
1.38245
0.459194
18.1196
17.2156
16.0779
14.7753
13.3744
11.9318
10.4905
9.07967
7.71635
6.40805
5.155
3.9523
2.79155
1.66208
0.551862
22.0479
20.8654
19.384
17.7075
15.9311
14.1303
12.3582
10.6472
9.01356
7.46166
5.98753
4.58181
3.23172
1.92245
0.638033
26.3664
24.8135
22.8847
20.7391
18.5118
16.2998
14.1643
12.137
10.2289
8.43741
6.75162
5.15567
3.63106
2.15794
0.715857
31.2105
29.1374
26.6018
23.8525
21.0768
18.3927
15.862
13.5073
11.3273
9.30731
7.42577
5.65815
3.97889
2.36238
0.783311
36.7737
33.9238
30.5327
26.9919
23.55
20.3324
17.3837
14.7028
12.2655
10.0386
7.9859
6.07222
4.26395
2.52936
0.838318
43.3445
39.2507
34.6125
30.032
25.7984
22.0027
18.6375
15.6544
12.9933
10.5953
8.40692
6.38083
4.47527
2.65277
0.878916
51.3644
45.1211
38.6338
32.7249
27.6081
23.2422
19.509
16.2837
13.4578
10.9423
8.66554
6.56884
4.60348
2.7275
0.903486
61.4527
51.2352
42.0766
34.6252
28.6667
23.8489
19.8721
16.5132
13.6115
11.0505
8.74394
6.62545
4.64224
2.75026
0.911003
73.9359
56.2893
43.8117
35.0319
28.5839
23.6144
19.6172
16.2854
13.4243
10.9042
8.63411
6.54671
4.58972
2.72026
0.901259
84.7139
56.1734
41.8483
33.1063
27.0223
22.4072
18.6966
15.5865
12.8959
10.5078
8.34147
6.3375
4.44961
2.63979
0.87502
0.271933
0.815673
1.35895
1.90121
2.44144
2.97805
3.50868
4.03015
4.53894
5.03286
5.51566
6.0089
6.58064
7.41587
8.98833
0.285032
0.854888
1.42399
1.99141
2.55545
3.11318
3.65976
4.18736
4.68373
5.13001
5.49748
5.74053
5.77271
5.35953
3.60096
0.298269
0.894605
1.49018
2.08392
2.67377
3.25598
3.82391
4.36614
4.86316
5.28179
5.56561
5.6184
5.27388
4.23736
1.99356
0.31164
0.934833
1.5576
2.17908
2.79734
3.4086
4.0058
4.57619
5.09689
5.52704
5.79403
5.772
5.25554
3.95337
1.59676
0.325064
0.975336
1.62589
2.27643
2.92572
3.5709
4.2062
4.82061
5.39339
5.88545
6.22297
6.2688
5.7827
4.40156
1.78109
0.338382
1.01562
1.69417
2.37459
3.05687
3.73995
4.42099
5.09381
5.74581
6.35104
6.85424
7.13488
6.93122
5.71028
2.61935
0.351367
1.05496
1.76111
2.47142
3.18739
3.91032
4.64134
5.38132
6.1306
6.88733
7.63981
8.33717
8.78598
8.31745
4.94904
0.363747
1.09251
1.82511
2.56427
3.31299
4.07498
4.85534
5.66221
6.51009
7.42643
8.46338
9.71189
11.2775
12.9382
11.8131
0.375238
1.12737
1.88453
2.65041
3.42932
4.22677
5.05078
5.91444
6.84185
7.88161
9.13978
10.8661
13.7028
19.4931
34.3026
0.385573
1.1587
1.93785
2.72746
3.53268
4.36002
5.21853
6.12223
7.09541
8.18492
9.49081
11.249
14.0766
19.7841
34.4178
0.394527
1.18581
1.98386
2.79361
3.62061
4.47152
5.35476
6.28159
7.26799
8.33778
9.52749
10.8888
12.4502
13.8759
12.1963
0.401927
1.20818
2.02171
2.84771
3.69185
4.56047
5.46058
6.39942
7.38246
8.40716
9.44477
10.3893
10.9176
10.1239
5.74733
0.407652
1.22546
2.05085
2.88915
3.74601
4.62743
5.53936
6.48637
7.46779
8.46735
9.42643
10.1787
10.3029
8.85955
4.24135
0.41163
1.23744
2.07098
2.91762
3.78303
4.6731
5.59364
6.54926
7.54034
8.55541
9.55148
10.4038
10.7765
9.79974
5.41896
0.413825
1.24403
2.08196
2.93299
3.80281
4.69748
5.62343
6.58735
7.59605
8.65644
9.77606
10.9618
12.187
13.1035
11.0805
0.414237
1.24522
2.08379
2.93525
3.80525
4.70002
5.62669
6.59418
7.61569
8.71612
9.95443
11.4922
13.8115
18.4484
30.7266
0.412898
1.24111
2.07663
2.92456
3.79041
4.68029
5.60145
6.56331
7.58033
8.67985
9.92452
11.4797
13.8263
18.4862
30.7534
0.409874
1.23189
2.06079
2.90137
3.75877
4.63872
5.54779
6.49395
7.4875
8.54256
9.67873
10.9172
12.2342
13.2407
11.1906
0.405262
1.21787
2.0368
2.86642
3.7114
4.57682
5.46823
6.39151
7.35175
8.34875
9.36166
10.2999
10.8574
10.1174
5.7462
0.399192
1.19944
2.00533
2.82074
3.64976
4.49677
5.3664
6.26323
7.19026
8.1437
9.09618
9.94691
10.3812
9.51572
5.24692
0.391818
1.17707
1.9672
2.76553
3.57554
4.40089
5.24554
6.11381
7.01027
7.93908
8.90112
9.88284
10.8074
11.2772
9.07047
0.383311
1.15129
1.92332
2.70216
3.49059
4.29151
5.10816
5.94466
6.80764
7.71121
8.69214
9.85828
11.5491
14.897
23.9592
0.373856
1.12265
1.87468
2.63207
3.39687
4.1711
4.95687
5.75697
6.57667
7.42944
8.3543
9.46914
11.1397
14.5482
23.8071
0.36364
1.09174
1.82229
2.55677
3.29653
4.04256
4.79551
5.55553
6.32258
7.09744
7.88432
8.69387
9.52309
10.1363
8.53937
0.352844
1.05912
1.76711
2.47776
3.19174
3.90914
4.6291
5.34905
6.06292
6.75693
7.39839
7.90474
8.05628
7.25901
4.02266
0.341631
1.02528
1.71003
2.3964
3.08451
3.77383
4.46259
5.14665
5.8169
6.45276
7.00611
7.36179
7.24817
6.07533
2.84542
0.330141
0.990654
1.65179
2.31376
2.97638
3.63883
4.29923
4.95373
5.59461
6.20572
6.75094
7.14458
7.17544
6.32002
3.37711
0.318484
0.955569
1.59295
2.23062
2.86829
3.50518
4.13987
4.77013
5.39286
6.00429
6.60084
7.17914
7.71802
8.0142
6.55547
0.306738
0.920258
1.53386
2.14745
2.76068
3.37296
3.98347
4.59166
5.19885
5.81307
6.46324
7.24093
8.42896
10.9269
17.8255
0.294955
0.884868
1.47475
2.06446
2.65367
3.2419
3.82859
4.41378
4.99983
5.59676
6.23692
7.01761
8.23006
10.7833
17.7714
0.283163
0.849479
1.41573
1.98177
2.5473
3.11182
3.67467
4.23517
4.79315
5.35031
5.91285
6.4943
7.09987
7.55955
6.38042
0.271372
0.814115
1.35683
1.8994
2.44157
2.98283
3.52229
4.0582
4.58693
5.09999
5.57551
5.95409
6.07085
5.47373
3.03214
0.259576
0.778755
1.29799
1.81726
2.3364
2.85504
3.37229
3.88611
4.39149
4.87563
5.30536
5.59555
5.53744
4.66867
2.19953
0.247756
0.743335
1.23911
1.73517
2.23155
2.72815
3.2246
3.71979
4.21068
4.68896
5.13197
5.47875
5.56686
4.97486
2.70709
0.235883
0.707765
1.18
1.65282
2.12648
2.6013
3.0777
3.55637
4.03855
4.52665
5.0253
5.54147
6.06845
6.44466
5.39961
0.223924
0.671936
1.12045
1.56984
2.02057
2.47329
2.92915
3.39043
3.86222
4.35692
4.90632
5.59658
6.67461
8.9013
14.8657
0.211846
0.635744
1.06027
1.4859
1.91322
2.34305
2.77678
3.2171
3.66991
4.1491
4.68942
5.38229
6.48292
8.76208
14.8131
0.19962
0.5991
0.999306
1.40077
1.80409
2.21005
2.61975
3.03502
3.45918
3.89874
4.36646
4.8847
5.47264
6.00334
5.22855
0.187224
0.561937
0.937448
1.31431
1.69309
2.07439
2.4588
2.84669
3.23768
3.62874
4.00833
4.3386
4.50201
4.15104
2.36776
0.174641
0.524209
0.874632
1.22648
1.5803
1.93654
2.29537
2.65614
3.01606
3.36661
3.68435
3.90828
3.88847
3.2933
1.55709
0.161856
0.485874
0.810809
1.13726
1.4658
1.79685
2.13053
2.46612
2.80089
3.12718
3.42542
3.64713
3.67439
3.22789
1.70329
0.148854
0.446891
0.745913
1.04657
1.34951
1.65529
1.96431
2.27661
2.59153
2.90717
3.21956
3.52093
3.78924
3.91108
3.1564
0.135622
0.407215
0.679863
0.954285
1.23122
1.51144
1.79577
2.08524
2.38163
2.68934
3.02128
3.41761
4.0057
5.20289
8.46922
0.122143
0.366798
0.612566
0.860229
1.11063
1.3647
1.62361
1.889
2.16382
2.45463
2.77822
3.18104
3.79907
5.05768
8.41639
0.108407
0.325598
0.543941
0.764256
0.98745
1.21457
1.44691
1.68616
1.93485
2.1971
2.48007
2.79493
3.14752
3.45395
2.98867
0.0944048
0.283593
0.473935
0.666266
0.861526
1.0608
1.26538
1.47673
1.6964
1.92512
2.15973
2.38256
2.52795
2.38605
1.38869
0.0801382
0.240779
0.402537
0.56623
0.732795
0.903325
1.0791
1.2615
1.45163
1.64902
1.84751
2.02391
2.10783
1.91217
1.02481
0.0656164
0.197185
0.329785
0.464187
0.601293
0.742189
0.888192
1.04085
1.20179
1.37209
1.5506
1.72942
1.88183
1.91858
1.46802
0.0508599
0.152869
0.255773
0.360257
0.467147
0.577488
0.692642
0.814436
0.94542
1.08945
1.25341
1.45325
1.73608
2.26334
3.63723
0.0359012
0.107929
0.180659
0.254647
0.330593
0.40943
0.492462
0.581618
0.67997
0.792933
0.931273
1.11942
1.42055
2.02012
3.53972
0.0207849
0.0624986
0.104667
0.147671
0.192023
0.238447
0.288014
0.342395
0.404359
0.478779
0.57452
0.707098
0.897732
1.13793
1.14125
0.00556818
0.016751
0.0280911
0.0397551
0.0520086
0.0652729
0.080213
0.0978939
0.120083
0.149809
0.192167
0.254441
0.34047
0.420213
0.330127
-0.00968113
-0.0291068
-0.0487106
-0.0685713
-0.0887093
-0.109068
-0.129497
-0.149747
-0.169433
-0.187937
-0.204027
-0.214723
-0.212439
-0.179581
-0.0850563
-0.0248864
-0.0748409
-0.125334
-0.176704
-0.229273
-0.283358
-0.339333
-0.397779
-0.459771
-0.527361
-0.603967
-0.6929
-0.78658
-0.8222
-0.552731
-0.0399653
-0.1202
-0.201345
-0.284003
-0.368781
-0.45633
-0.547449
-0.643343
-0.746213
-0.860514
-0.995343
-1.16777
-1.40103
-1.67667
-1.60095
-0.0548322
-0.164925
-0.276303
-0.389825
-0.506359
-0.626816
-0.752239
-0.884051
-1.0247
-1.1794
-1.36059
-1.60036
-1.98603
-2.77511
-4.82008
-0.0694007
-0.208755
-0.349768
-0.493548
-0.641203
-0.793841
-0.95258
-1.1186
-1.29343
-1.47985
-1.68515
-1.93161
-2.29083
-3.00137
-4.90683
-0.0835842
-0.251429
-0.421305
-0.59457
-0.772574
-0.956616
-1.14784
-1.34702
-1.55407
-1.76715
-1.98109
-2.18451
-2.35161
-2.39775
-1.88482
-0.0972965
-0.292688
-0.490481
-0.692292
-0.899738
-1.11438
-1.33756
-1.56996
-1.8105
-2.05382
-2.28431
-2.4626
-2.49635
-2.18233
-1.12436
-0.110452
-0.332274
-0.556858
-0.786086
-1.02189
-1.2662
-1.52086
-1.7872
-2.06495
-2.34936
-2.62372
-2.84101
-2.88254
-2.48352
-1.19077
-0.12297
-0.369936
-0.62
-0.875304
-1.1381
-1.4108
-1.69602
-1.99648
-2.31475
-2.65184
-3.00271
-3.34142
-3.5746
-3.40529
-2.01328
-0.134773
-0.405438
-0.679492
-0.959301
-1.24741
-1.54669
-1.86055
-2.19336
-2.55142
-2.94469
-3.39008
-3.91506
-4.5461
-5.17609
-4.66529
-0.145796
-0.43858
-0.734975
-1.03751
-1.34895
-1.67243
-2.01187
-2.37267
-2.76359
-3.20128
-3.72212
-4.41496
-5.51823
-7.739
-13.442
-0.155989
-0.469207
-0.786178
-1.10953
-1.44209
-1.78707
-2.14831
-2.53101
-2.94323
-3.40006
-3.93463
-4.62974
-5.71419
-7.88352
-13.4972
-0.165318
-0.497218
-0.832937
-1.17513
-1.52659
-1.89036
-2.26981
-2.66878
-3.09184
-3.54479
-4.03557
-4.57405
-5.15665
-5.63594
-4.84547
-0.173767
-0.522566
-0.875189
-1.23426
-1.6025
-1.98273
-2.37771
-2.78977
-3.21961
-3.66319
-4.10331
-4.48762
-4.67075
-4.27003
-2.37452
-0.181333
-0.545251
-0.912945
-1.287
-1.67007
-2.06482
-2.47371
-2.89836
-3.33779
-3.7839
-4.20973
-4.5408
-4.59022
-3.94206
-1.88512
-0.188026
-0.565301
-0.946268
-1.33346
-1.72949
-2.13704
-2.55871
-2.99661
-3.45126
-3.9186
-4.38188
-4.78947
-4.99401
-4.59235
-2.58547
-0.193867
-0.582778
-0.975251
-1.37375
-1.78088
-2.19942
-2.63238
-3.08317
-3.55586
-4.05605
-4.5926
-5.17906
-5.81866
-6.35728
-5.48303
-0.198886
-0.597771
-1.00003
-1.40803
-1.82431
-2.25172
-2.69363
-3.15446
-3.64129
-4.16816
-4.76856
-5.53166
-6.71331
-9.10323
-15.3887
-0.203129
-0.61041
-1.0208
-1.43652
-1.85998
-2.29392
-2.74167
-3.20764
-3.69884
-4.22913
-4.83142
-5.5935
-6.76876
-9.14374
-15.4041
-0.206656
-0.620876
-1.03787
-1.45961
-1.88832
-2.32649
-2.777
-3.24321
-3.72916
-4.24004
-4.7832
-5.3683
-5.99093
-6.48589
-5.5333
-0.209548
-0.629406
-1.0516
-1.47784
-1.91006
-2.35044
-2.80137
-3.26501
-3.74209
-4.22845
-4.70575
-5.11693
-5.30164
-4.83316
-2.68597
-0.211905
-0.636302
-1.06251
-1.4919
-1.92609
-2.36702
-2.81684
-3.2774
-3.7485
-4.22306
-4.67411
-5.02274
-5.06583
-4.34611
-2.07801
-0.213852
-0.641929
-1.07118
-1.50258
-1.93741
-2.37739
-2.82481
-3.28239
-3.75244
-4.23391
-4.71349
-5.14063
-5.35965
-4.93425
-2.78105
-0.215535
-0.646728
-1.07834
-1.51085
-1.9451
-2.38254
-2.82566
-3.27865
-3.74837
-4.246
-4.78919
-5.40295
-6.10087
-6.72214
-5.85132
-0.21713
-0.651222
-1.08485
-1.51789
-1.95054
-2.38369
-2.8196
-3.26321
-3.72485
-4.22636
-4.81576
-5.60672
-6.89521
-9.54607
-16.4436
-0.218836
-0.65602
-1.09176
-1.52517
-1.95558
-2.38287
-2.80813
-3.23517
-3.67357
-4.14559
-4.70227
-5.46488
-6.74331
-9.42075
-16.3925
-0.220875
-0.661807
-1.10026
-1.5345
-1.96276
-2.3834
-2.79537
-3.19916
-3.59887
-4.00595
-4.44567
-4.96472
-5.61975
-6.3131
-5.67858
-0.223476
-0.669302
-1.11166
-1.54795
-1.97519
-2.38991
-2.78821
-3.16591
-3.51897
-3.84356
-4.13389
-4.37001
-4.46945
-4.12745
-2.41087
-0.226856
-0.679191
-1.12724
-1.56765
-1.99626
-2.40777
-2.79529
-3.14971
-3.45877
-3.70487
-3.85966
-3.87013
-3.62563
-2.89629
-1.29947
-0.231188
-0.692039
-1.14811
-1.5955
-2.02916
-2.44225
-2.82528
-3.16494
-3.44222
-3.62951
-3.68556
-3.54723
-3.11841
-2.26747
-0.883971
-0.236572
-0.70819
-1.17498
-1.63286
-2.0763
-2.49754
-2.88533
-3.22341
-3.48809
-3.64521
-3.64636
-3.42598
-2.90427
-2.00843
-0.735427
-0.24301
-0.727677
-1.20801
-1.6802
-2.13883
-2.57599
-2.97985
-3.33277
-3.60858
-3.76914
-3.7609
-3.51391
-2.94986
-2.01127
-0.724261
-0.250382
-0.750153
-1.24668
-1.7369
-2.21622
-2.6775
-3.10968
-3.49561
-3.80901
-4.0102
-4.04115
-3.82194
-3.25548
-2.25602
-0.825238
-0.258439
-0.774862
-1.28971
-1.80115
-2.30607
-2.79915
-3.27154
-3.70874
-4.08727
-4.36938
-4.49501
-4.371
-3.86171
-2.80024
-1.07876
-0.266804
-0.800649
-1.33506
-1.86989
-2.40411
-2.93512
-3.45776
-3.96252
-4.43239
-4.83711
-5.1221
-5.18751
-4.85131
-3.80272
-1.63504
-0.274998
-0.826024
-1.38009
-1.93902
-2.50432
-3.07684
-3.65632
-4.24041
-4.82262
-5.38784
-5.90154
-6.28277
-6.3355
-5.58228
-2.95679
-0.28247
-0.84927
-1.4217
-2.00369
-2.59945
-3.21365
-3.85161
-4.5195
-5.22452
-5.9742
-6.77281
-7.60599
-8.3792
-8.66194
-6.56177
-0.288644
-0.868587
-1.45664
-2.05875
-2.68174
-3.33392
-4.02602
-4.77269
-5.59522
-6.52638
-7.61993
-8.97071
-10.7632
-13.3962
-17.8217
59.7425
44.5776
35.4067
29.1003
24.3454
20.5327
17.343
14.5899
12.1548
9.95639
7.93569
6.04741
4.25509
2.52789
0.838498
21.8347
28.4714
27.1277
24.2026
21.1651
18.3399
15.7718
13.4368
11.2976
9.31765
7.46448
5.70963
4.028
2.39701
0.795735
9.64374
17.9069
19.9466
19.3828
17.8371
15.9685
14.0385
12.1475
10.3297
8.59081
6.92493
5.32094
3.76573
2.24546
0.746159
5.10845
11.6641
14.5734
15.2447
14.7331
13.6395
12.2779
10.8075
9.30678
7.81319
6.34234
4.89834
3.47914
2.07933
0.691727
3.11564
7.95336
10.7541
11.9278
12.0331
11.4964
10.5929
9.48823
8.27888
7.01973
5.74104
4.45848
3.17907
1.90472
0.634405
2.09054
5.65716
8.06447
9.35287
9.7789
9.60803
9.04748
8.2416
7.28547
6.23977
5.14238
4.01639
2.87545
1.72728
0.576035
1.49212
4.16597
6.15182
7.37668
7.93909
7.99012
7.67231
7.09923
6.35419
5.49565
4.56353
3.58464
2.57682
1.55196
0.518234
1.10924
3.15253
4.76758
5.86044
6.45431
6.62826
6.47435
6.0762
5.50167
4.80258
4.01712
3.17295
2.29
1.38279
0.46233
0.848009
2.43645
3.74591
4.69067
5.26108
5.49402
5.44593
5.1756
4.73561
4.16944
3.51144
2.78817
2.02
1.2228
0.409341
0.661473
1.91409
2.97748
3.78082
4.30215
4.55487
4.57179
4.39276
4.05713
3.60002
3.05106
2.43453
1.77015
1.07408
0.359977
0.523772
1.52311
2.3896
3.06676
3.52972
3.77944
3.83367
3.71862
3.46298
3.09436
2.63757
2.1141
1.5423
0.93788
0.314672
0.419546
1.22436
1.93317
2.50142
2.90532
3.13972
3.21308
3.14208
2.94725
2.64989
2.27036
1.82722
1.33707
0.814719
0.273624
0.339119
0.992269
1.57433
2.05019
2.39861
2.61181
2.6927
2.65151
2.50269
2.26247
1.9473
1.57297
1.15418
0.704567
0.236845
0.276109
0.809533
1.28924
1.68742
1.98579
2.17576
2.25707
2.23567
2.12158
1.92706
1.66531
1.34957
0.992694
0.606983
0.204209
0.22615
0.664094
1.06074
1.39395
1.64823
1.81515
1.89274
1.88417
1.79629
1.63833
1.42079
1.15472
0.851221
0.52124
0.175491
0.186156
0.547328
0.876285
1.15528
1.3713
1.51656
1.58823
1.58772
1.51965
1.39095
1.20997
0.98585
0.72813
0.446442
0.150406
0.153897
0.452928
0.726515
0.96034
1.14351
1.26905
1.33383
1.33816
1.28511
1.17987
1.02908
0.840306
0.621675
0.381603
0.128635
0.127723
0.376195
0.60435
0.800563
0.955735
1.06372
1.1214
1.12843
1.0868
1.00042
0.874559
0.715486
0.530104
0.325716
0.109851
0.106391
0.313565
0.504362
0.66928
0.800713
0.893324
0.944145
0.952464
0.919561
0.848365
0.743094
0.608928
0.451726
0.277796
0.0937302
0.0889524
0.262306
0.42234
0.561242
0.672643
0.751936
0.796391
0.80512
0.778905
0.719965
0.631686
0.518362
0.384959
0.236912
0.0799656
0.0746734
0.220294
0.35499
0.472296
0.566865
0.634732
0.673439
0.682033
0.660967
0.611932
0.537664
0.441735
0.328356
0.202206
0.0682729
0.0629814