/*--------------------------------*- C++ -*----------------------------------*\
| =========                 |                                                 |
| \\      /  F ield         | OpenFOAM: The Open Source CFD Toolbox           |
|  \\    /   O peration     | Version:  5.x                                   |
|   \\  /    A nd           | Web:      www.OpenFOAM.org                      |
|    \\/     M anipulation  |                                                 |
\*---------------------------------------------------------------------------*/
FoamFile
{
    version     2.0;
    format      ascii;
    class       volScalarField;
    location    "16";
    object      T;
}
// * * * * * * * * * * * * * * * * * * * * * * * * * * * * * * * * * * * * * //

dimensions      [0 0 0 1 0 0 0];

internalField   nonuniform List<scalar> 
6300
(
10.063
10.1888
10.3141
10.4384
10.5613
10.6826
10.8018
10.9185
11.0324
11.1432
11.2504
11.3539
11.4533
11.5484
11.639
10.0632
10.1894
10.315
10.4397
10.563
10.6846
10.8042
10.9213
11.0355
11.1466
11.2542
11.3579
11.4575
11.5528
11.6435
10.0636
10.1905
10.3169
10.4423
10.5664
10.6888
10.809
10.9268
11.0418
11.1535
11.2617
11.3659
11.466
11.5617
11.6526
10.0641
10.1922
10.3197
10.4463
10.5715
10.6949
10.8163
10.9352
11.0512
11.1639
11.273
11.3781
11.4789
11.5751
11.6664
10.0649
10.1945
10.3235
10.4515
10.5782
10.7032
10.8261
10.9464
11.0639
11.178
11.2883
11.3946
11.4964
11.5933
11.6852
10.0658
10.1973
10.3282
10.4581
10.5867
10.7136
10.8383
10.9605
11.0798
11.1957
11.3077
11.4155
11.5186
11.6166
11.7091
10.0669
10.2007
10.3338
10.466
10.5969
10.726
10.8531
10.9776
11.0991
11.2172
11.3313
11.4411
11.5458
11.6452
11.7387
10.0683
10.2046
10.3404
10.4752
10.6087
10.7406
10.8703
10.9975
11.1217
11.2425
11.3593
11.4715
11.5785
11.6796
11.7744
10.0698
10.2091
10.3478
10.4857
10.6223
10.7572
10.89
11.0204
11.1478
11.2718
11.3918
11.5071
11.6169
11.7205
11.8169
10.0714
10.2141
10.3562
10.4975
10.6375
10.7758
10.9122
11.0462
11.1773
11.3051
11.4289
11.548
11.6615
11.7683
11.8671
10.0733
10.2196
10.3655
10.5105
10.6542
10.7965
10.9368
11.0748
11.2101
11.3423
11.4707
11.5945
11.7128
11.8241
11.9264
10.0753
10.2257
10.3756
10.5247
10.6726
10.819
10.9636
11.106
11.246
11.3831
11.5169
11.6466
11.7711
11.8887
11.9964
10.0775
10.2322
10.3865
10.54
10.6923
10.8433
10.9925
11.1397
11.2847
11.4273
11.5671
11.7037
11.8364
11.963
12.0797
10.0798
10.2393
10.3982
10.5564
10.7135
10.8692
11.0233
11.1756
11.3258
11.4741
11.6204
11.7649
11.9075
12.0472
12.1798
10.0823
10.2468
10.4107
10.5739
10.736
10.8968
11.056
11.2134
11.3689
11.5228
11.6755
11.8278
11.9813
12.1384
12.2999
11.7179
11.7864
11.8518
11.9139
11.9729
12.029
12.0822
12.1327
12.1806
12.2262
12.2696
12.311
12.3507
12.3889
12.4258
12.4616
12.4965
12.5308
12.5645
12.598
12.6315
12.665
12.6988
12.733
12.7677
12.8032
12.8394
12.8765
12.9145
12.9534
12.9934
13.0343
13.0762
13.1189
13.1626
13.207
13.2521
13.2978
13.344
13.3905
13.4372
13.4839
13.5304
13.5766
13.6223
13.6673
13.7113
13.7542
13.7958
13.836
13.8744
13.9109
13.9454
13.9776
14.0072
14.0341
14.0579
14.0785
14.0954
14.1083
14.1171
14.1212
14.1205
14.1143
14.1025
14.0845
14.0599
14.028
13.9885
13.9406
13.8836
13.817
13.7398
13.6514
13.5508
13.4373
13.3098
13.1675
13.0093
12.8345
12.6419
12.4307
12.1999
11.9489
11.6767
11.3829
11.067
10.7286
10.3677
9.98449
11.7225
11.791
11.8562
11.9183
11.9772
12.033
12.086
12.1362
12.1839
12.2292
12.2723
12.3134
12.3528
12.3907
12.4273
12.4628
12.4974
12.5313
12.5648
12.5981
12.6312
12.6645
12.6981
12.7321
12.7666
12.8019
12.838
12.875
12.9129
12.9519
12.9918
13.0328
13.0747
13.1176
13.1613
13.2059
13.2511
13.297
13.3433
13.3901
13.437
13.4839
13.5308
13.5773
13.6232
13.6685
13.7128
13.756
13.7978
13.8382
13.8769
13.9138
13.9486
13.9811
14.0111
14.0383
14.0625
14.0835
14.1008
14.1143
14.1235
14.1282
14.1279
14.1224
14.1112
14.0939
14.07
14.039
14.0003
13.9534
13.8975
13.8319
13.7559
13.6687
13.5694
13.4571
13.331
13.19
13.0333
12.8598
12.6685
12.4586
12.2291
11.979
11.7078
11.4146
11.0991
10.7609
10.3998
10.0161
11.7317
11.8001
11.8653
11.9271
11.9857
12.0412
12.0937
12.1434
12.1905
12.2352
12.2777
12.3183
12.357
12.3943
12.4302
12.4651
12.4991
12.5325
12.5654
12.5981
12.6307
12.6635
12.6966
12.7302
12.7644
12.7994
12.8353
12.8721
12.9099
12.9488
12.9887
13.0298
13.0718
13.1148
13.1588
13.2036
13.2491
13.2953
13.3421
13.3892
13.4366
13.4841
13.5315
13.5785
13.625
13.6708
13.7157
13.7594
13.8018
13.8427
13.882
13.9194
13.9548
13.988
14.0187
14.0467
14.0717
14.0935
14.1117
14.1261
14.1363
14.142
14.1428
14.1385
14.1285
14.1126
14.0902
14.0608
14.0239
13.9789
13.925
13.8617
13.788
13.7032
13.6064
13.4968
13.3733
13.2351
13.0812
12.9105
12.722
12.5146
12.2875
12.0397
11.7702
11.4784
11.1637
10.8258
10.4645
10.0798
11.7456
11.814
11.879
11.9405
11.9986
12.0535
12.1053
12.1543
12.2006
12.2444
12.2859
12.3255
12.3633
12.3996
12.4346
12.4686
12.5016
12.5341
12.5662
12.598
12.6299
12.6619
12.6944
12.7273
12.761
12.7955
12.831
12.8675
12.9052
12.944
12.984
13.0251
13.0674
13.1106
13.1549
13.2001
13.2461
13.2928
13.3401
13.3879
13.436
13.4842
13.5324
13.5804
13.6278
13.6744
13.7201
13.7646
13.8078
13.8495
13.8896
13.9278
13.9641
13.9983
14.03
14.0592
14.0854
14.1085
14.1281
14.1438
14.1554
14.1626
14.1651
14.1624
14.1543
14.1404
14.1202
14.0933
14.0591
14.0169
13.9662
13.9061
13.8359
13.7547
13.6618
13.5561
13.4368
13.3028
13.1531
12.9866
12.8023
12.599
12.3757
12.1312
11.8646
11.575
11.2617
10.9243
10.5625
10.1764
11.7645
11.8329
11.8976
11.9586
12.0161
12.0702
12.1211
12.1689
12.214
12.2566
12.2969
12.3352
12.3717
12.4067
12.4405
12.4731
12.505
12.5362
12.5671
12.5979
12.6287
12.6597
12.6912
12.7233
12.7563
12.7901
12.8251
12.8613
12.8987
12.9374
12.9775
13.0188
13.0613
13.1049
13.1496
13.1953
13.2418
13.2892
13.3373
13.3859
13.435
13.4844
13.5337
13.5828
13.6314
13.6792
13.726
13.7716
13.8158
13.8585
13.8995
13.9389
13.9764
14.0118
14.045
14.0757
14.1036
14.1283
14.1497
14.1673
14.1808
14.1899
14.1944
14.194
14.1883
14.1771
14.1598
14.1361
14.1054
14.0671
14.0205
13.9649
13.8993
13.8231
13.7353
13.635
13.5211
13.3928
13.2489
13.0883
12.9098
12.7121
12.4941
12.2544
11.9919
11.7055
11.3944
11.0578
10.6954
10.3074
11.7887
11.8571
11.9214
11.9818
12.0384
12.0914
12.141
12.1875
12.231
12.272
12.3107
12.3474
12.3822
12.4156
12.4477
12.4788
12.5091
12.5388
12.5682
12.5976
12.627
12.6567
12.687
12.7181
12.75
12.7831
12.8174
12.8531
12.8902
12.9289
12.969
13.0106
13.0534
13.0976
13.1428
13.1891
13.2363
13.2845
13.3334
13.3832
13.4335
13.4843
13.5352
13.5859
13.636
13.6853
13.7335
13.7804
13.8258
13.8696
13.9119
13.9525
13.9914
14.0284
14.0634
14.096
14.126
14.153
14.1765
14.1964
14.2122
14.2237
14.2307
14.233
14.2302
14.2222
14.2085
14.1889
14.1626
14.1291
14.0877
14.0377
13.978
13.908
13.8267
13.733
13.6262
13.5051
13.3686
13.2155
13.0446
12.8544
12.6435
12.4104
12.1535
11.8716
11.5634
11.2282
10.8652
10.4746
11.8186
11.8869
11.9508
12.0104
12.0659
12.1174
12.1654
12.21
12.2517
12.2907
12.3274
12.362
12.3948
12.4262
12.4563
12.4855
12.5139
12.5418
12.5694
12.597
12.6247
12.6529
12.6817
12.7114
12.7421
12.7741
12.8076
12.8427
12.8795
12.9181
12.9584
13.0003
13.0437
13.0885
13.1344
13.1813
13.2293
13.2784
13.3284
13.3795
13.4314
13.4839
13.5368
13.5896
13.6417
13.6929
13.7428
13.7911
13.8378
13.8829
13.9264
13.9684
14.0089
14.0478
14.085
14.12
14.1526
14.1823
14.2086
14.2311
14.2496
14.2639
14.2737
14.279
14.2795
14.2752
14.2658
14.2509
14.2299
14.2023
14.1673
14.124
14.0716
14.009
13.9355
13.85
13.7516
13.6393
13.512
13.3684
13.207
13.0264
12.8247
12.6003
12.351
12.0753
11.7714
11.4382
11.0747
10.681
11.8549
11.9231
11.9864
12.0449
12.0988
12.1486
12.1944
12.2368
12.2761
12.3127
12.3469
12.379
12.4095
12.4384
12.4662
12.4931
12.5193
12.545
12.5705
12.596
12.6218
12.648
12.675
12.703
12.7322
12.7629
12.7953
12.8297
12.8661
12.9046
12.9453
12.9878
13.032
13.0775
13.1242
13.172
13.2208
13.2707
13.3218
13.3743
13.4281
13.483
13.5384
13.5939
13.6487
13.7023
13.7541
13.804
13.852
13.8983
13.943
13.9864
14.0286
14.0696
14.1094
14.1475
14.1833
14.2163
14.2459
14.2716
14.2931
14.3102
14.323
14.3315
14.3357
14.3355
14.3308
14.3213
14.3066
14.286
14.2586
14.2234
14.1794
14.1257
14.0613
13.9853
13.8969
13.7951
13.6787
13.5465
13.397
13.2284
13.0387
12.8256
12.5866
12.3194
12.0216
11.6915
11.3278
10.9301
11.8981
11.9663
12.0288
12.0858
12.1378
12.1852
12.2284
12.2679
12.3043
12.3379
12.3692
12.3985
12.4261
12.4523
12.4774
12.5016
12.5252
12.5484
12.5715
12.5946
12.618
12.642
12.6668
12.6927
12.7201
12.7491
12.7802
12.8136
12.8495
12.8881
12.9293
12.9728
13.0181
13.0648
13.1125
13.161
13.2104
13.2611
13.3132
13.3672
13.4232
13.481
13.5399
13.5991
13.6574
13.7139
13.768
13.8195
13.8686
13.9157
13.9613
14.0058
14.0497
14.0931
14.136
14.1779
14.2179
14.2551
14.2886
14.3178
14.3425
14.3627
14.3784
14.3901
14.3979
14.402
14.4024
14.3991
14.3917
14.3793
14.3609
14.3353
14.3012
14.2576
14.2036
14.1384
14.0614
13.9715
13.8679
13.7494
13.6143
13.4607
13.2862
13.0879
12.8627
12.6072
12.3182
11.993
11.6296
11.2271
11.9494
12.0175
12.0789
12.134
12.1834
12.2276
12.2675
12.3035
12.3364
12.3665
12.3944
12.4203
12.4446
12.4677
12.4897
12.511
12.5316
12.552
12.5722
12.5926
12.6133
12.6347
12.6569
12.6804
12.7054
12.7323
12.7616
12.7937
12.829
12.8677
12.9098
12.9549
13.0022
13.0506
13.0995
13.1486
13.1983
13.2491
13.3018
13.3571
13.4156
13.4771
13.5409
13.6054
13.6686
13.7289
13.7855
13.8384
13.888
13.9352
13.9809
14.026
14.0713
14.1173
14.164
14.2108
14.2564
14.299
14.3373
14.3704
14.3983
14.4212
14.4396
14.4541
14.4652
14.4735
14.4793
14.4828
14.4837
14.481
14.4734
14.4591
14.4364
14.4042
14.3618
14.3085
14.244
14.1676
14.0786
13.9759
13.8581
13.7229
13.5678
13.389
13.1822
12.943
12.6668
12.3493
11.9873
11.5791
12.0103
12.0783
12.1381
12.1904
12.2361
12.2763
12.3119
12.3437
12.3723
12.3983
12.4222
12.4443
12.4649
12.4845
12.5031
12.521
12.5384
12.5556
12.5727
12.59
12.6077
12.626
12.6452
12.6656
12.6877
12.712
12.7389
12.7692
12.8035
12.8424
12.886
12.9339
12.9845
13.0356
13.086
13.1353
13.1843
13.2342
13.2864
13.3424
13.4034
13.4698
13.5408
13.6135
13.6838
13.7491
13.8082
13.8617
13.9107
13.9567
14.0012
14.0457
14.0917
14.1402
14.1917
14.2454
14.299
14.349
14.3931
14.4304
14.4612
14.4861
14.5063
14.5227
14.5364
14.5483
14.5594
14.5701
14.5805
14.5897
14.5955
14.5947
14.5851
14.5655
14.5353
14.4946
14.4435
14.3816
14.3087
14.2241
14.1265
14.0139
13.8832
13.73
13.5483
13.332
13.0746
12.7697
12.4115
11.9964
12.083
12.1508
12.208
12.2561
12.2968
12.3316
12.3618
12.3883
12.4118
12.4331
12.4524
12.4702
12.4868
12.5024
12.5173
12.5316
12.5455
12.5592
12.5729
12.5868
12.601
12.6158
12.6315
12.6484
12.6669
12.6876
12.7113
12.7388
12.7713
12.81
12.8559
12.9087
12.9658
13.0217
13.0738
13.1224
13.169
13.2158
13.2654
13.3204
13.3832
13.4558
13.538
13.6247
13.7063
13.7778
13.8389
13.8914
13.9376
13.9802
14.0213
14.0632
14.1084
14.1588
14.2161
14.28
14.3464
14.4073
14.4586
14.4998
14.5322
14.5577
14.5781
14.595
14.6099
14.6243
14.6397
14.6576
14.6789
14.7031
14.7267
14.743
14.7482
14.7416
14.7238
14.6957
14.6581
14.6113
14.5556
14.4908
14.4163
14.3306
14.231
14.1117
13.9641
13.7799
13.5506
13.2665
12.9174
12.4945
12.1713
12.2383
12.2909
12.3324
12.3659
12.3935
12.4169
12.437
12.4547
12.4704
12.4847
12.4978
12.51
12.5214
12.5322
12.5426
12.5528
12.5628
12.5728
12.5829
12.5933
12.6043
12.6159
12.6287
12.6428
12.659
12.678
12.7011
12.73
12.7672
12.8156
12.8774
12.9488
13.0131
13.0667
13.1121
13.1532
13.1935
13.2367
13.2868
13.3488
13.4281
13.5284
13.6432
13.7431
13.8214
13.8819
13.9298
13.9698
14.0055
14.0399
14.0761
14.1172
14.1672
14.2307
14.3107
14.4017
14.4794
14.5384
14.5815
14.613
14.6365
14.6548
14.67
14.684
14.6987
14.7164
14.74
14.7729
14.8172
14.8684
14.9069
14.928
14.9337
14.927
14.9104
14.8856
14.8537
14.8154
14.7713
14.7218
14.6674
14.6068
14.534
14.4326
14.2927
14.1052
13.8569
13.5292
13.1002
12.2829
12.3466
12.3897
12.4203
12.4433
12.4615
12.4765
12.4891
12.5001
12.5099
12.5187
12.5267
12.5341
12.541
12.5476
12.554
12.5601
12.5662
12.5723
12.5785
12.5849
12.5916
12.5988
12.6067
12.6157
12.6261
12.6388
12.6549
12.6767
12.708
12.7561
12.832
12.9421
13.0196
13.0711
13.1081
13.1383
13.1667
13.1977
13.2361
13.2893
13.37
13.4976
13.6833
13.8106
13.8906
13.9428
13.9795
14.0079
14.0324
14.056
14.0816
14.113
14.1562
14.2215
14.3251
14.4761
14.5783
14.6409
14.6797
14.705
14.7226
14.7358
14.7466
14.7569
14.7686
14.7844
14.8088
14.8502
14.921
15.0284
15.0956
15.1298
15.1433
15.1442
15.1367
15.1232
15.1051
15.0834
15.0592
15.0345
15.0128
14.9999
14.9974
14.9561
14.8738
14.7471
14.5617
14.2865
13.867
12.4375
12.4844
12.5063
12.519
12.5276
12.5341
12.5392
12.5436
12.5473
12.5506
12.5536
12.5563
12.5588
12.5611
12.5633
12.5655
12.5675
12.5696
12.5716
12.5737
12.5758
12.5781
12.5806
12.5833
12.5863
12.59
12.5945
12.6005
12.6094
12.6247
12.6564
12.7371
12.9822
13.0635
13.0964
13.1137
13.1257
13.1363
13.1481
13.1639
13.1901
13.2442
13.3831
13.8073
13.946
13.9999
14.0257
14.0409
14.0516
14.0605
14.0691
14.0787
14.0916
14.1129
14.1572
14.2712
14.6205
14.734
14.7774
14.7972
14.8081
14.8149
14.8198
14.8238
14.8277
14.8324
14.8396
14.8532
14.8849
14.9719
15.246
15.3318
15.361
15.371
15.3732
15.3714
15.3673
15.3615
15.3547
15.3476
15.3424
15.3454
15.3779
15.5164
15.5385
15.5188
15.4733
15.3954
15.2517
14.9337
9.53865
9.02136
8.47449
7.8997
7.29894
6.67437
6.0283
5.36308
4.68111
3.98477
3.2764
2.55829
1.83266
1.10172
0.367591
9.56943
9.05083
8.50229
7.92555
7.32264
6.69579
6.04736
5.37976
4.69542
3.99675
3.2861
2.56576
1.83796
1.10488
0.368642
9.6314
9.11011
8.55817
7.97747
7.37019
6.73871
6.0855
5.41309
4.72399
4.02065
3.30544
2.58066
1.84852
1.11118
0.370735
9.72537
9.19991
8.6427
8.05587
7.44185
6.80324
6.14275
5.46305
4.76675
4.05637
3.33431
2.60287
1.86425
1.12056
0.373854
9.85264
9.32132
8.75673
8.16134
7.53798
6.88958
6.21914
5.52953
4.82352
4.1037
3.37251
2.63223
1.88503
1.13295
0.377968
10.015
9.47588
8.90143
8.29469
7.65903
6.99788
6.3146
5.61234
4.89403
4.16235
3.41975
2.66849
1.91065
1.14821
0.383038
10.215
9.66563
9.07829
8.45685
7.80546
7.12822
6.42895
5.71112
4.97784
4.23186
3.47561
2.71128
1.94086
1.16619
0.389006
10.456
9.89319
9.28911
8.64884
7.97765
7.28049
6.56176
5.82528
5.0743
4.31158
3.5395
2.76012
1.97529
1.18666
0.395798
10.7424
10.1619
9.53598
8.87163
8.1757
7.45422
6.71223
5.95386
5.18242
4.40061
3.61064
2.81439
2.01348
1.20935
0.403323
11.0802
10.4759
9.82114
9.12589
8.39919
7.64834
6.879
6.09543
5.30085
4.49773
3.68802
2.87329
2.05486
1.23391
0.411465
11.4778
10.8404
10.1466
9.41147
8.6467
7.86086
7.05991
6.24792
5.42773
4.60138
3.77036
2.93584
2.09876
1.25993
0.420089
11.9471
11.261
10.5134
9.72653
8.91515
8.0884
7.25175
6.40852
5.56071
4.70963
3.85615
3.0009
2.14437
1.28696
0.429043
12.5051
11.7428
10.9193
10.066
9.19886
8.32571
7.45009
6.57359
5.69689
4.82023
3.94367
3.06721
2.19083
1.31448
0.438159
13.1761
12.2857
11.3549
10.419
9.48849
8.56538
7.64919
6.73878
5.83294
4.93065
4.03103
3.13341
2.23721
1.34197
0.447263
13.9838
12.8686
11.7955
10.7666
9.77054
8.798
7.84243
6.8993
5.96537
5.03831
4.11635
3.19815
2.28262
1.36889
0.456184
10.0847
10.2541
10.4229
10.5909
10.7579
10.9235
11.0874
11.2496
11.4099
11.5686
11.7262
11.8842
12.0458
12.218
12.4203
10.0871
10.261
10.4345
10.6072
10.7787
10.9489
11.1173
11.2838
11.4483
11.6109
11.772
11.9331
12.0969
12.2693
12.4607
10.0895
10.2683
10.4466
10.6241
10.8005
10.9754
11.1484
11.3194
11.488
11.6541
11.8178
11.9799
12.142
12.3073
12.4803
10.092
10.2759
10.4593
10.6419
10.8233
11.0031
11.181
11.3566
11.5294
11.6989
11.8648
12.0267
12.1848
12.3399
12.4939
10.0947
10.2839
10.4726
10.6605
10.8471
11.0322
11.2152
11.3957
11.5729
11.7462
11.9144
12.0761
12.2296
12.3732
12.5069
10.0974
10.2922
10.4864
10.6798
10.872
11.0626
11.2511
11.4369
11.6193
11.797
11.9685
12.1312
12.2812
12.4132
12.5236
10.1003
10.3008
10.5008
10.7
10.8981
11.0945
11.2889
11.4806
11.6687
11.8521
12.0286
12.195
12.3451
12.4683
12.5506
10.1033
10.3098
10.5158
10.721
10.9252
11.1278
11.3285
11.5266
11.7214
11.9118
12.0958
12.2701
12.4276
12.5519
12.606
10.1064
10.319
10.5312
10.7428
10.9533
11.1624
11.3698
11.5749
11.7772
11.9758
12.1697
12.3569
12.533
12.684
12.7475
10.1096
10.3286
10.5472
10.7652
10.9823
11.1983
11.4127
11.6252
11.8355
12.0431
12.2481
12.4512
12.656
12.8767
13.1778
10.1128
10.3383
10.5635
10.7882
11.0122
11.2351
11.4568
11.677
11.8955
12.1122
12.3279
12.5444
12.7677
13.0137
13.3211
10.1161
10.3483
10.5803
10.8118
11.0427
11.2728
11.5019
11.7299
11.9566
12.1821
12.4069
12.6327
12.8635
13.108
13.381
10.1195
10.3585
10.5972
10.8357
11.0737
11.3111
11.5478
11.7836
12.0185
12.2524
12.4853
12.7175
12.9496
13.1824
13.4169
10.1229
10.3687
10.6144
10.8599
11.1051
11.3499
11.5942
11.838
12.0811
12.3232
12.564
12.8024
13.0352
13.2557
13.4517
10.1264
10.3791
10.6318
10.8843
11.1367
11.389
11.641
11.8928
12.1442
12.395
12.6445
12.8909
13.1292
13.3458
13.5072
10.1298
10.3895
10.6491
10.9088
11.1685
11.4282
11.688
11.9478
12.2077
12.4675
12.727
12.9851
13.2383
13.4741
13.6364
10.1333
10.3998
10.6665
10.9332
11.2002
11.4673
11.7348
12.0027
12.2711
12.5402
12.8104
13.0825
13.3594
13.6532
14.0193
10.1367
10.4102
10.6837
10.9575
11.2317
11.5062
11.7813
12.0572
12.334
12.6122
12.8924
13.1764
13.4687
13.7822
14.149
10.1401
10.4204
10.7008
10.9816
11.2628
11.5446
11.8273
12.1109
12.3959
12.6826
12.9717
13.2644
13.5633
13.8739
14.2058
10.1435
10.4305
10.7177
11.0053
11.2935
11.5825
11.8725
12.1637
12.4565
12.7513
13.0484
13.348
13.6497
13.9508
14.2447
10.1468
10.4404
10.7343
11.0286
11.3236
11.6196
11.9167
12.2153
12.5157
12.8183
13.1233
13.4302
13.7363
14.0325
14.2933
10.15
10.4501
10.7505
11.0514
11.3531
11.6558
11.9599
12.2656
12.5734
12.8836
13.1968
13.5128
13.8298
14.1387
14.3959
10.1531
10.4596
10.7663
11.0736
11.3818
11.6911
12.0018
12.3144
12.6292
12.9469
13.2682
13.5945
13.9288
14.2808
14.6926
10.1562
10.4688
10.7817
11.0953
11.4097
11.7253
12.0425
12.3615
12.683
13.0075
13.336
13.6706
14.0155
14.3812
14.7927
10.1592
10.4778
10.7967
11.1163
11.4368
11.7585
12.0818
12.407
12.7346
13.0651
13.3996
13.7394
14.0875
14.4497
14.8349
10.1621
10.4864
10.8112
11.1366
11.4629
11.7905
12.1196
12.4507
12.784
13.1201
13.4593
13.8023
14.1497
14.5022
14.8597
10.1649
10.4948
10.8252
11.1562
11.4882
11.8214
12.1561
12.4928
12.8315
13.1727
13.5163
13.8621
14.2083
14.551
14.8823
10.1676
10.503
10.8387
11.1751
11.5125
11.8511
12.1913
12.5333
12.8773
13.2235
13.5718
13.9214
14.2693
14.6075
14.916
10.1702
10.5108
10.8517
11.1934
11.536
11.8798
12.2251
12.5723
12.9214
13.2728
13.6264
13.9817
14.337
14.6846
14.9916
10.1727
10.5183
10.8643
11.2109
11.5585
11.9074
12.2577
12.6098
12.9639
13.3204
13.6796
14.0421
14.4098
14.7896
15.2131
10.1751
10.5255
10.8763
11.2278
11.5802
11.9338
12.2889
12.6458
13.0047
13.366
13.7303
14.0987
14.4742
14.8643
15.2878
10.1774
10.5324
10.8879
11.244
11.601
11.9592
12.3189
12.6804
13.0438
13.4096
13.7781
14.1503
14.5282
14.9156
15.3194
10.1796
10.5391
10.8989
11.2594
11.6209
11.9835
12.3477
12.7135
13.0812
13.451
13.8232
14.1979
14.5753
14.9555
15.3383
10.1818
10.5454
10.9095
11.2742
11.6399
12.0068
12.3751
12.7451
13.117
13.4908
13.8665
14.2436
14.6204
14.9934
15.3561
10.1838
10.5515
10.9196
11.2884
11.6581
12.029
12.4014
12.7755
13.1514
13.5292
13.9088
14.2893
14.6681
15.0384
15.3834
10.1857
10.5572
10.9292
11.3018
11.6754
12.0502
12.4264
12.8044
13.1843
13.5663
13.9503
14.3359
14.7216
15.1009
15.4461
10.1875
10.5627
10.9382
11.3145
11.6918
12.0702
12.4502
12.832
13.2157
13.6018
13.9905
14.3825
14.7794
15.1868
15.6312
10.1892
10.5678
10.9468
11.3266
11.7073
12.0892
12.4727
12.858
13.2455
13.6354
14.0284
14.4256
14.8296
15.2469
15.693
10.1908
10.5727
10.9549
11.3379
11.7218
12.1071
12.4939
12.8825
13.2734
13.6668
14.0633
14.4639
14.8706
15.2868
15.7184
10.1923
10.5772
10.9625
11.3485
11.7355
12.1238
12.5137
12.9055
13.2994
13.6959
14.0952
14.498
14.9047
15.3161
15.7324
10.1937
10.5814
10.9695
11.3583
11.7482
12.1393
12.5321
12.9268
13.3236
13.7229
14.1247
14.5291
14.9354
15.3417
15.7443
10.195
10.5853
10.976
11.3674
11.7599
12.1537
12.5492
12.9466
13.3461
13.748
14.1523
14.5587
14.9659
15.3699
15.7608
10.1962
10.5888
10.9819
11.3758
11.7707
12.1669
12.5649
12.9648
13.3668
13.7713
14.1784
14.5878
14.9985
15.4069
15.7969
10.1973
10.5921
10.9873
11.3833
11.7804
12.1789
12.5791
12.9813
13.3858
13.7928
14.2027
14.6157
15.0327
15.4566
15.902
10.1983
10.595
10.9921
11.3901
11.7892
12.1897
12.5919
12.9962
13.4029
13.8123
14.2247
14.6408
15.0618
15.4912
15.9372
10.1991
10.5975
10.9964
11.3961
11.7969
12.1992
12.6032
13.0094
13.418
13.8294
14.244
14.6623
15.0851
15.5142
15.9518
10.1998
10.5997
11
11.4012
11.8035
12.2074
12.613
13.0209
13.4312
13.8443
14.2607
14.6805
15.104
15.531
15.9603
10.2004
10.6015
11.0031
11.4055
11.8091
12.2142
12.6212
13.0305
13.4422
13.8569
14.2748
14.696
15.1203
15.546
15.9689
10.2009
10.603
11.0055
11.4089
11.8135
12.2197
12.6278
13.0382
13.4512
13.8672
14.2865
14.7093
15.1353
15.563
15.9848
10.2013
10.6041
11.0073
11.4115
11.8169
12.2238
12.6328
13.044
13.458
13.8751
14.2957
14.7202
15.1492
15.5837
16.0295
10.2015
10.6048
11.0085
11.4132
11.8191
12.2266
12.636
13.0479
13.4625
13.8804
14.302
14.728
15.159
15.5966
16.0438
10.2016
10.6051
11.0091
11.414
11.8201
12.2278
12.6376
13.0497
13.4647
13.8831
14.3053
14.732
15.1642
15.6027
16.0485
10.2016
10.605
11.009
11.4138
11.8199
12.2276
12.6374
13.0495
13.4645
13.8829
14.3052
14.7322
15.1647
15.6036
16.0493
10.2015
10.6046
11.0083
11.4128
11.8186
12.226
12.6354
13.0472
13.4619
13.8799
14.3019
14.7284
15.1606
15.5997
16.0471
10.2012
10.6038
11.0069
11.4109
11.8161
12.2229
12.6317
13.0429
13.4569
13.8741
14.2952
14.7207
15.1516
15.5899
16.0401
10.2008
10.6026
11.0049
11.4081
11.8125
12.2184
12.6263
13.0365
13.4495
13.8656
14.2853
14.709
15.1373
15.5718
16.0204
10.2003
10.601
11.0023
11.4044
11.8077
12.2125
12.6192
13.0282
13.4398
13.8545
14.2725
14.694
15.1185
15.5437
15.9597
10.1997
10.5991
10.9991
11.3999
11.8018
12.2052
12.6104
13.0179
13.4279
13.8409
14.2572
14.6768
15.0991
15.5218
15.9386
10.1989
10.5969
10.9953
11.3945
11.7948
12.1965
12.6
13.0057
13.4139
13.825
14.2395
14.6576
15.0793
15.5037
15.9283
10.198
10.5943
10.9909
11.3883
11.7868
12.1866
12.5881
12.9917
13.3977
13.8067
14.2191
14.6357
15.0575
15.4854
15.9199
10.1971
10.5913
10.986
11.3814
11.7778
12.1754
12.5747
12.9759
13.3795
13.7859
14.1958
14.6102
15.0312
15.4623
15.9085
10.196
10.5881
10.9806
11.3737
11.7678
12.1631
12.5599
12.9584
13.3592
13.7625
14.1691
14.5801
14.9979
15.4286
15.8863
10.1948
10.5846
10.9747
11.3654
11.757
12.1496
12.5437
12.9394
13.337
13.7368
14.1393
14.545
14.9555
15.376
15.8307
10.1936
10.5808
10.9683
11.3564
11.7453
12.1352
12.5263
12.9189
13.3131
13.7091
14.107
14.5065
14.9059
15.2996
15.6623
10.1922
10.5767
10.9616
11.3469
11.7329
12.1199
12.5079
12.8972
13.2879
13.6801
14.0737
14.4678
14.8602
15.2447
15.6058
10.1908
10.5725
10.9544
11.3368
11.7199
12.1037
12.4885
12.8744
13.2616
13.6501
14.0398
14.4302
14.82
15.2057
15.5816
10.1893
10.568
10.947
11.3263
11.7062
12.0868
12.4683
12.8507
13.2342
13.6191
14.0053
14.393
14.7824
15.1735
15.5662
10.1878
10.5634
10.9392
11.3154
11.692
12.0693
12.4473
12.8261
13.2059
13.587
13.9696
14.3546
14.7435
15.14
15.5501
10.1862
10.5586
10.9312
11.3041
11.6774
12.0512
12.4256
12.8007
13.1767
13.5538
13.9323
14.3132
14.6992
15.097
15.5231
10.1845
10.5537
10.923
11.2925
11.6624
12.0326
12.4034
12.7747
13.1467
13.5194
13.8931
14.2682
14.6465
15.0341
15.4587
10.1829
10.5487
10.9145
11.2806
11.647
12.0137
12.3807
12.7482
13.116
13.4843
13.8528
14.221
14.5873
14.9452
15.2666
10.1812
10.5435
10.906
11.2686
11.6314
11.9944
12.3577
12.7213
13.085
13.4489
13.8126
14.175
14.5337
14.8817
15.202
10.1794
10.5383
10.8973
11.2563
11.6155
11.9749
12.3344
12.6941
13.0539
13.4136
13.7731
14.1315
14.4874
14.8371
15.1744
10.1777
10.533
10.8884
11.2439
11.5995
11.9552
12.311
12.6668
13.0227
13.3784
13.7341
14.0897
14.4453
14.8011
15.1572
10.1759
10.5277
10.8795
11.2314
11.5834
11.9354
12.2875
12.6395
12.9914
13.3432
13.6952
14.0478
14.403
14.7647
15.1398
10.1741
10.5223
10.8706
11.2189
11.5672
11.9156
12.2639
12.6121
12.9601
13.3079
13.6556
14.0041
14.356
14.7189
15.1109
10.1723
10.5169
10.8616
11.2063
11.551
11.8957
12.2404
12.5848
12.9289
13.2725
13.6153
13.9578
14.3013
14.6527
15.0423
10.1705
10.5115
10.8525
11.1936
11.5347
11.8759
12.2169
12.5577
12.898
13.2374
13.5753
13.9106
14.2411
14.5598
14.8368
10.1687
10.506
10.8434
11.1808
11.5184
11.856
12.1936
12.5309
12.8677
13.2034
13.537
13.8667
14.1889
14.4956
14.769
10.1668
10.5004
10.8342
11.168
11.502
11.8362
12.1703
12.5044
12.8381
13.1707
13.5012
13.8279
14.1474
14.4546
14.7422
10.1649
10.4948
10.8248
11.155
11.4855
11.8162
12.1471
12.4782
12.8091
13.1393
13.4681
13.7939
14.1144
14.4269
14.7289
10.163
10.4891
10.8154
11.1419
11.4687
11.796
12.1238
12.4519
12.7804
13.1089
13.4369
13.7634
14.087
14.4063
14.7205
10.1611
10.4833
10.8057
11.1285
11.4517
11.7755
12.1
12.4254
12.7517
13.0788
13.4066
13.7347
14.0625
14.3891
14.7141
10.1591
10.4773
10.7958
11.1147
11.4341
11.7544
12.0757
12.3982
12.7223
13.0482
13.3761
13.7063
14.0386
14.3728
14.7083
10.157
10.4712
10.7856
11.1005
11.416
11.7326
12.0504
12.3699
12.6915
13.016
13.344
13.6762
14.0133
14.3555
14.7021
10.1549
10.4648
10.775
11.0857
11.3972
11.7098
12.0238
12.3399
12.6588
12.9813
13.3088
13.6426
13.9843
14.3352
14.6945
10.1527
10.4583
10.7641
11.0704
11.3776
11.6859
11.9958
12.3081
12.6234
12.9432
13.269
13.6033
13.9489
14.3089
14.6841
10.1505
10.4515
10.7528
11.0546
11.3571
11.6609
11.9662
12.2739
12.5849
12.9007
13.2234
13.5561
13.9035
14.2718
14.6673
10.1481
10.4445
10.7411
11.0381
11.3358
11.6346
11.9349
12.2374
12.543
12.8534
13.1707
13.4986
13.8433
14.2158
14.6348
10.1458
10.4373
10.7291
11.0212
11.3138
11.6073
11.902
12.1986
12.4979
12.8011
13.1105
13.4293
13.7638
14.1275
14.5579
14.7965
13.3641
12.1589
11.0549
10.0074
8.99556
8.00807
7.03791
6.0804
5.13226
4.19107
3.25499
2.32257
1.39261
0.464049
15.0534
13.6566
12.4187
11.2778
10.1978
9.15817
8.14654
7.15507
6.17841
5.21279
4.25541
3.30411
2.35717
1.41318
0.470874
15.1605
13.8386
12.611
11.4583
10.3602
9.30122
8.27093
7.26186
6.2687
5.28755
4.31548
3.35015
2.38971
1.43256
0.477311
15.2142
13.955
12.7511
11.6009
10.4951
9.42431
8.38051
7.35752
6.35057
5.35597
4.37082
3.39279
2.41993
1.4506
0.48331
15.2456
14.033
12.8539
11.7124
10.6057
9.52855
8.47556
7.44198
6.42381
5.41777
4.42118
3.43179
2.44769
1.46721
0.48884
15.2661
14.0876
12.9304
11.7997
10.6957
9.61592
8.55706
7.51566
6.48855
5.47297
4.46651
3.4671
2.47292
1.48235
0.493883
15.2804
14.1273
12.9883
11.8683
10.7687
9.68868
8.62636
7.57934
6.54523
5.52177
4.50689
3.49873
2.49562
1.496
0.49844
15.291
14.157
13.0329
11.9226
10.828
9.74909
8.68493
7.63398
6.59446
5.56456
4.54256
3.52684
2.51587
1.50821
0.502521
15.2989
14.1798
13.0677
11.966
10.8763
9.79915
8.73426
7.68061
6.63693
5.60181
4.57384
3.55162
2.53378
1.51905
0.506146
15.3051
14.1976
13.0953
12.0008
10.9157
9.84065
8.7757
7.72024
6.67338
5.63405
4.60109
3.57331
2.54953
1.52859
0.509343
15.3099
14.2117
13.1174
12.029
10.948
9.87507
8.81046
7.75382
6.70455
5.66181
4.62469
3.59219
2.56329
1.53695
0.512145
15.3138
14.223
13.1352
12.0519
10.9745
9.90364
8.83959
7.78222
6.7311
5.68562
4.64505
3.60854
2.57524
1.54422
0.514588
15.3169
14.2321
13.1496
12.0707
10.9964
9.9274
8.86401
7.80619
6.75367
5.70598
4.66253
3.62265
2.58557
1.55053
0.516706
15.3195
14.2396
13.1614
12.0861
11.0145
9.94717
8.88447
7.82641
6.77281
5.72333
4.6775
3.63476
2.59447
1.55597
0.518535
15.3215
14.2456
13.1711
12.0988
11.0295
9.96366
8.90163
7.84345
6.78903
5.7381
4.69029
3.64514
2.60212
1.56064
0.520109
15.3232
14.2506
13.1791
12.1093
11.0419
9.97743
8.91602
7.85781
6.80275
5.75064
4.70118
3.65401
2.60866
1.56465
0.52146
15.3246
14.2548
13.1857
12.118
11.0523
9.98894
8.9281
7.86991
6.81435
5.76128
4.71045
3.66157
2.61425
1.56808
0.522616
15.3258
14.2582
13.1912
12.1253
11.061
9.99858
8.93825
7.88012
6.82417
5.7703
4.71833
3.66801
2.61902
1.57101
0.523604
15.3268
14.261
13.1958
12.1314
11.0683
10.0067
8.94679
7.88872
6.83247
5.77795
4.72503
3.67349
2.62309
1.57351
0.524447
15.3276
14.2634
13.1996
12.1365
11.0743
10.0135
8.95398
7.89599
6.83949
5.78444
4.73072
3.67816
2.62655
1.57564
0.525166
15.3283
14.2654
13.2028
12.1407
11.0795
10.0192
8.96006
7.90214
6.84545
5.78995
4.73556
3.68213
2.6295
1.57746
0.52578
15.3288
14.2671
13.2055
12.1443
11.0838
10.024
8.96521
7.90736
6.85051
5.79464
4.73968
3.68552
2.63202
1.57901
0.526304
15.3293
14.2685
13.2078
12.1474
11.0875
10.0282
8.96958
7.9118
6.85482
5.79864
4.7432
3.68842
2.63418
1.58034
0.526753
15.3297
14.2697
13.2097
12.15
11.0906
10.0317
8.97333
7.9156
6.85852
5.80207
4.74623
3.69091
2.63603
1.58148
0.527139
15.3301
14.2707
13.2114
12.1522
11.0933
10.0347
8.97655
7.91888
6.86171
5.80503
4.74884
3.69306
2.63763
1.58247
0.527473
15.3304
14.2716
13.2129
12.1542
11.0956
10.0373
8.97935
7.92172
6.86448
5.80761
4.75111
3.69493
2.63903
1.58333
0.527763
15.3306
14.2724
13.2141
12.1559
11.0977
10.0396
8.98181
7.92423
6.86692
5.80988
4.75311
3.69658
2.64026
1.58409
0.52802
15.3309
14.2731
13.2153
12.1574
11.0995
10.0417
8.98402
7.92648
6.8691
5.81191
4.7549
3.69806
2.64136
1.58477
0.528249
15.3311
14.2738
13.2163
12.1588
11.1012
10.0436
8.98603
7.92852
6.87109
5.81376
4.75653
3.6994
2.64236
1.58539
0.528457
15.3313
14.2744
13.2173
12.1601
11.1028
10.0454
8.98792
7.93043
6.87295
5.81548
4.75804
3.70064
2.64328
1.58596
0.52865
15.3315
14.275
13.2183
12.1614
11.1043
10.0471
8.98973
7.93227
6.87473
5.81712
4.75949
3.70183
2.64416
1.5865
0.528833
15.3317
14.2756
13.2193
12.1627
11.1059
10.0488
8.99153
7.93408
6.87648
5.81874
4.7609
3.70299
2.64502
1.58703
0.529011
15.3319
14.2762
13.2203
12.164
11.1074
10.0505
8.99337
7.93593
6.87825
5.82037
4.76232
3.70415
2.64588
1.58755
0.529189
15.3322
14.2769
13.2214
12.1654
11.1091
10.0524
8.99531
7.93786
6.8801
5.82205
4.76378
3.70534
2.64676
1.58809
0.52937
15.3324
14.2777
13.2226
12.167
11.111
10.0544
8.99741
7.93994
6.88206
5.82384
4.76532
3.70659
2.64768
1.58865
0.529559
15.3327
14.2785
13.2239
12.1688
11.1131
10.0567
8.99974
7.94222
6.88421
5.82577
4.76698
3.70792
2.64865
1.58925