/*--------------------------------*- C++ -*----------------------------------*\
| =========                 |                                                 |
| \\      /  F ield         | OpenFOAM: The Open Source CFD Toolbox           |
|  \\    /   O peration     | Version:  5.x                                   |
|   \\  /    A nd           | Web:      www.OpenFOAM.org                      |
|    \\/     M anipulation  |                                                 |
\*---------------------------------------------------------------------------*/
FoamFile
{
    version     2.0;
    format      ascii;
    class       volScalarField;
    location    "8.1";
    object      gradTx;
}
// * * * * * * * * * * * * * * * * * * * * * * * * * * * * * * * * * * * * * //

dimensions      [0 -1 0 1 0 0 0];

internalField   nonuniform List<scalar> 
6300
(
398.79
397.625
395.293
391.79
387.113
381.258
374.229
366.033
356.692
346.242
334.74
322.272
308.95
294.92
280.354
399.941
398.778
396.449
392.951
388.276
382.42
375.382
367.166
357.788
347.28
335.696
323.114
309.648
295.444
280.681
402.241
401.082
398.762
395.273
390.606
384.751
377.699
369.448
360.002
349.384
337.635
324.829
311.074
296.517
281.35
405.685
404.535
402.23
398.76
394.11
388.264
381.203
372.91
363.376
352.605
340.621
327.483
313.289
298.192
282.395
410.264
409.128
406.848
403.412
398.798
392.979
385.925
377.601
367.975
357.025
344.749
331.179
316.397
300.555
283.876
415.965
414.849
412.609
409.227
404.675
398.916
391.903
383.579
373.885
362.76
350.16
336.075
320.556
303.742
285.884
422.767
421.681
419.498
416.198
411.745
406.093
399.177
390.916
381.212
369.956
357.043
342.393
325.997
307.961
288.562
430.639
429.593
427.49
424.305
420.001
414.52
407.782
399.681
390.077
378.797
365.649
350.446
333.065
313.534
292.134
439.543
438.549
436.548
433.518
429.418
424.188
417.737
409.936
400.603
389.493
376.298
360.665
342.271
320.963
296.968
449.426
448.494
446.621
443.785
439.951
435.062
429.027
421.707
412.89
402.26
389.37
373.632
354.38
331.068
303.687
460.226
459.366
457.64
455.034
451.524
447.066
441.587
434.961
426.976
417.273
405.276
390.1
370.534
345.232
313.436
471.869
471.087
469.523
467.172
464.028
460.075
455.278
449.559
442.763
434.566
424.345
410.947
392.41
365.878
328.488
484.278
483.575
482.175
480.087
477.325
473.913
469.872
465.22
459.933
453.867
446.577
436.916
422.267
397.369
353.933
497.372
496.744
495.499
493.657
491.257
488.36
485.061
481.5
477.866
474.378
471.164
467.858
462.359
447.384
402.902
511.077
510.514
509.402
507.769
505.669
503.192
500.495
497.834
495.636
494.597
495.825
500.977
511.908
526.888
515.475
266.712
254.197
241.711
229.381
217.327
205.658
194.472
183.852
173.865
164.563
155.985
148.157
141.093
134.796
129.264
124.487
120.446
117.123
114.489
112.514
111.163
110.395
110.163
110.417
111.099
112.146
113.491
115.064
116.792
118.606
120.437
122.225
123.916
125.463
126.827
127.975
128.879
129.511
129.844
129.852
129.511
128.801
127.707
126.223
124.353
122.11
119.512
116.582
113.345
109.82
106.02
101.952
97.6125
92.993
88.0797
82.8572
77.31
71.4246
65.1896
58.5953
51.6316
44.2858
36.5401
28.3699
19.7426
10.6173
0.945376
-9.3271
-20.2576
-31.9045
-44.3244
-57.5701
-71.6897
-86.7252
-102.713
-119.682
-137.656
-156.649
-176.668
-197.704
-219.734
-242.716
-266.584
-291.243
-316.572
-342.417
-368.6
-394.914
-421.139
-447.041
266.843
254.145
241.479
228.977
216.765
204.956
193.651
182.934
172.871
163.515
154.901
147.053
139.982
133.691
128.174
123.42
119.411
116.125
113.536
111.612
110.32
109.618
109.461
109.798
110.57
111.714
113.16
114.836
116.666
118.577
120.496
122.362
124.119
125.722
127.134
128.324
129.267
129.937
130.308
130.351
130.04
129.35
128.265
126.776
124.889
122.617
119.986
117.023
113.757
110.213
106.405
102.34
98.0135
93.4137
88.5232
83.3229
77.7954
71.9264
65.7058
59.1263
52.1811
44.8609
37.1509
29.028
20.46
11.4046
1.81086
-8.37854
-19.2249
-30.7899
-43.1332
-56.3095
-70.368
-85.3512
-101.295
-118.231
-136.183
-155.168
-175.196
-196.265
-218.357
-241.434
-265.435
-290.27
-315.817
-341.922
-368.398
-395.033
-421.59
-447.826
267.111
254.038
241.001
228.147
215.613
203.521
191.977
181.066
170.855
161.392
152.708
144.823
137.743
131.465
125.981
121.276
117.33
114.12
111.62
109.799
108.623
108.053
108.045
108.547
109.501
110.842
112.495
114.383
116.421
118.53
120.63
122.652
124.541
126.252
127.755
129.026
130.045
130.792
131.239
131.357
131.11
130.465
129.4
127.9
125.973
123.639
120.933
117.896
114.568
110.981
107.157
103.102
98.806
94.2509
89.4105
84.2581
78.7707
72.933
66.7374
60.1827
53.2696
45.9968
38.3557
30.3271
21.8793
12.9673
3.53483
-6.48308
-17.1558
-28.553
-40.7402
-53.7763
-67.7119
-82.5899
-98.4466
-115.313
-133.217
-152.18
-172.221
-193.347
-215.553
-238.813
-263.077
-288.263
-314.25
-340.881
-367.958
-395.248
-422.493
-449.416
267.531
253.869
240.252
226.849
213.816
201.291
189.385
178.185
167.756
158.14
149.361
141.429
134.343
128.092
122.663
118.035
114.185
111.09
108.722
107.053
106.05
105.676
105.89
106.642
107.873
109.516
111.49
113.707
116.073
118.491
120.87
123.132
125.215
127.08
128.707
130.086
131.212
132.073
132.643
132.884
132.748
132.185
131.155
129.638
127.64
125.194
122.355
119.185
115.747
112.09
108.241
104.206
99.9697
95.4967
90.7453
85.6736
80.2489
74.4535
68.2851
61.7538
54.8753
47.6623
40.1179
32.2298
23.967
15.2799
6.10237
-3.64374
-14.0425
-25.177
-37.1231
-49.9455
-63.6961
-78.4163
-94.14
-110.898
-128.72
-147.636
-167.677
-188.868
-211.224
-234.74
-259.385
-285.092
-311.747
-339.188
-367.2
-395.519
-423.845
-451.853
268.124
253.625
239.185
225.009
211.283
198.161
185.767
174.188
163.481
153.677
144.789
136.813
129.734
123.534
118.187
113.668
109.95
107.008
104.815
103.344
102.566
102.45
102.957
104.043
105.65
107.708
110.13
112.815
115.647
118.506
121.277
123.864
126.198
128.247
130.011
131.508
132.759
133.768
134.516
134.95
134.997
134.573
133.608
132.064
129.948
127.313
124.249
120.858
117.24
113.47
109.589
105.6
101.471
97.1415
92.5393
87.5954
82.2593
76.5094
70.3539
63.824
56.9615
49.8042
42.3747
34.6717
26.6656
18.2989
9.48925
0.136237
-9.86859
-20.6308
-32.2424
-44.7757
-58.2816
-72.7947
-88.3409
-104.946
-122.641
-141.467
-161.472
-182.706
-205.216
-229.032
-254.156
-280.545
-308.103
-336.662
-365.987
-395.769
-425.643
-455.206
268.928
253.288
237.73
222.514
207.869
193.978
180.969
168.929
157.898
147.892
138.899
130.898
123.857
117.741
112.514
108.143
104.596
101.845
99.8647
98.6327
98.1263
98.3211
99.1884
100.69
102.775
105.373
108.39
111.706
115.177
118.643
121.947
124.956
127.588
129.822
131.695
133.28
134.648
135.838
136.836
137.571
137.919
137.736
136.892
135.31
132.999
130.048
126.609
122.856
118.949
115.007
111.09
107.194
103.258
99.1765
94.8234
90.08
84.864
79.1477
72.9602
66.3721
59.471
52.3373
45.0249
37.5495
29.8834
21.9561
13.6589
4.85554
-4.60312
-14.8599
-26.033
-38.2034
-51.4144
-65.6826
-81.0139
-97.4204
-114.931
-133.597
-153.491
-174.701
-197.322
-221.435
-247.096
-274.309
-303.005
-333.025
-364.105
-395.876
-427.876
-459.581
269.998
252.825
235.772
219.188
203.365
188.514
174.772
162.207
150.836
140.639
131.577
123.597
116.644
110.664
105.606
101.427
98.0907
95.5673
93.834
92.8738
92.6736
93.2213
94.5025
96.4943
99.1583
102.431
106.216
110.371
114.71
119.011
123.037
126.588
129.546
131.911
133.792
135.362
136.789
138.178
139.533
140.744
141.604
141.849
141.232
139.604
136.967
133.483
129.419
125.072
120.706
116.505
112.557
108.843
105.252
101.601
97.6671
93.2432
88.1871
82.4629
76.142
69.3694
62.3144
55.1269
47.9091
40.7013
33.4772
26.1458
18.5578
10.519
1.81257
-7.76854
-18.386
-30.1307
-43.0228
-57.0368
-72.1356
-88.3012
-105.553
-123.953
-143.609
-164.661
-187.27
-211.602
-237.794
-265.928
-295.992
-327.851
-361.217
-395.64
-430.519
-465.141
271.421
252.18
233.13
214.761
197.452
181.448
166.874
153.761
142.076
131.748
122.691
114.813
108.026
102.254
97.4283
93.495
90.4119
88.1489
86.6869
86.0175
86.1407
87.0624
88.7904
91.3274
94.6611
98.7501
103.505
108.768
114.297
119.768
124.808
129.071
132.356
134.692
136.333
137.646
138.981
140.563
142.432
144.42
146.169
147.198
147.026
145.345
142.151
137.75
132.632
127.313
122.221
117.638
113.683
110.311
107.331
104.428
101.215
97.3146
92.4706
86.6355
79.9726
72.7722
65.3475
57.9592
50.7783
43.8761
37.2252
30.7048
24.106
17.1441
9.48848
0.816101
-9.11439
-20.4039
-33.0139
-46.8264
-61.7184
-77.6152
-94.5158
-112.498
-131.712
-152.371
-174.734
-199.083
-225.688
-254.758
-286.387
-320.497
-356.795
-394.736
-433.518
-472.127
273.335
251.251
229.498
208.799
189.652
172.317
156.868
143.255
131.356
121.023
112.103
104.452
97.945
92.4769
87.9623
84.3355
81.5493
79.5739
78.3957
78.0172
78.4552
79.7397
81.9104
85.0102
89.0736
94.1069
100.058
106.777
113.964
121.145
127.692
132.958
136.527
138.471
139.341
139.895
140.814
142.532
145.157
148.437
151.769
154.27
154.989
153.262
149.071
143.047
136.131
129.222
122.999
117.866
113.966
111.212
109.296
107.7
105.75
102.743
98.1791
91.9982
84.5757
76.4966
68.3269
60.4916
53.2457
46.6884
40.7851
35.3766
30.1767
24.7687
18.6289
11.2131
2.11524
-8.77449
-21.2714
-35.0592
-49.8518
-65.4809
-81.918
-99.2638
-117.73
-137.623
-159.332
-183.309
-210.024
-239.896
-273.2
-309.982
-349.994
-392.611
-436.753
-480.919
275.971
249.837
224.341
200.597
179.235
160.463
144.214
130.274
118.378
108.261
99.6828
92.4399
86.3646
81.3237
77.2148
73.9627
71.5166
69.8482
68.9506
68.8384
69.5481
71.1383
73.6899
77.3028
82.0864
88.1387
95.5052
104.107
113.635
123.43
132.419
139.285
143.034
143.792
142.802
141.613
141.491
143.191
146.933
152.375
158.559
163.906
166.47
164.723
158.624
149.627
139.614
130.141
122.206
116.313
112.598
110.906
110.795
111.48
111.806
110.409
106.215
99.1467
90.1226
80.3501
70.8232
62.1742
54.7204
48.5585
43.6318
39.7475
36.5471
33.4469
29.607
24.0329
15.9258
5.17041
-7.66879
-21.8434
-36.7785
-52.1805
-68.0088
-84.4133
-101.688
-120.254
-140.66
-163.585
-189.806
-220.086
-254.995
-294.804
-339.434
-388.277
-439.94
-492.114
279.725
247.497
216.654
188.957
165.08
144.97
128.227
114.343
102.833
93.2772
85.3365
78.7433
73.2915
68.8256
65.2309
62.4267
60.3616
59.0101
58.3721
58.474
59.3706
61.1502
63.939
67.9071
73.2695
80.2753
89.1701
100.1
112.92
126.872
140.2
150.096
153.843
151.628
146.543
141.793
139.538
140.908
146.258
155.238
166.552
177.545
184.154
182.445
172.349
157.664
142.316
128.842
118.469
111.621
108.312
108.32
111.146
115.773
120.343
122.1
118.386
109.11
96.7453
83.8481
72.0541
62.1343
54.3336
48.6492
44.9765
43.1334
42.7728
43.1902
43.0822
40.5005
33.5504
22.1166
7.85788
-7.53108
-23.0309
-38.2641
-53.2671
-68.3059
-83.7845
-100.233
-118.355
-139.109
-163.738
-193.604
-229.725
-272.676
-322.795
-379.871
-442.381
-506.713
285.342
243.151
204.428
171.809
145.495
124.627
108.119
94.9922
84.4697
75.9653
69.047
63.4002
58.7962
55.0704
52.1063
49.8246
48.177
47.1424
46.7265
46.9631
47.92
49.7066
52.4877
56.5017
62.0837
69.6895
79.9012
93.3685
110.573
131.207
152.918
169.755
173.235
163.59
149.797
138.376
132.362
132.888
140.352
154.735
175.004
197.492
213.811
212.238
192.677
166.651
142.318
123.073
109.654
101.83
99.2455
101.676
108.901
120.144
132.929
141.666
138.562
123.52
104.132
85.7557
70.5848
59.0418
50.8987
45.8424
43.6859
44.3837
47.8779
53.6895
60.119
63.2584
57.6312
43.1308
25.0127
6.94183
-9.66581
-24.6774
-38.4714
-51.5626
-64.4809
-77.7967
-92.2574
-109.049
-130.121
-158.108
-194.611
-240.219
-296.129
-363.627
-442.185
-526.485
294.351
233.802
183.403
145.578
118.061
98.0016
83.1367
71.8874
63.1976
56.3664
50.9243
46.5531
43.0342
40.2166
37.9971
36.3076
35.1079
34.3825
34.1395
34.4137
35.2729
36.8294
39.2595
42.8364
47.9818
55.3489
65.9416
81.252
103.286
133.985
172.65
208.645
211.52
181.52
149.632
127.166
115.768
114.872
124.477
145.754
180.254
226.317
269.227
267.928
222.312
173.195
134.988
108.913
92.7772
84.4935
82.9551
88.1242
100.869
122.292
151.34
178.279
175.925
144.187
110.061
83.0455
63.8895
51.052
43.0179
38.8588
38.2847
41.6066
49.6451
63.2982
81.893
98.6392
94.4889
69.3542
42.0996
19.3083
1.40177
-12.8425
-24.6863
-35.066
-44.6023
-53.709
-62.7999
-72.819
-86.5429
-110.345
-146.378
-192.92
-252.766
-331.447
-433.704
-554.83
310.171
209.832
144.266
104.497
79.8835
63.8926
52.9454
45.0942
39.2471
34.7651
31.2578
28.4771
26.2607
24.5002
23.1235
22.084
21.3549
20.9267
20.8065
21.0208
21.6207
22.6929
24.3789
26.9109
30.6791
36.3618
45.1867
59.4517
83.5152
125.29
196.223
295.221
297.137
202.166
135.893
100.017
84.0456
81.7315
91.7908
117.73
168.847
259.679
388.295
387.427
256.983
164.023
110.185
80.4374
64.5914
57.4412
57.0042
63.6617
80.3358
113.46
172.782
257.073
255.597
168.291
105.747
69.0161
48.0945
36.1443
29.5563
26.7123
27.2725
32.0369
43.3265
65.7899
106.328
164.109
161.563
98.6294
52.759
24.6407
7.1963
-4.46328
-13.0085
-19.782
-25.3406
-29.6417
-32.0032
-31.2513
-28.4484
-44.9625
-83.0083
-126.458
-182.273
-265.308
-398.039
-598.938
340.748
135.781
67.9735
41.5906
29.286
22.5184
18.2939
15.4136
13.3293
11.759
10.5438
9.58765
8.82977
8.23042
7.76353
7.4125
7.16792
7.02654
6.99124
7.07188
7.28769
7.67165
8.2791
9.20472
10.6185
12.8489
16.5964
23.5398
38.2382
74.6018
179.377
521.586
522.261
181.479
78.3803
44.2021
32.6544
30.771
36.2354
53.4458
100.244
238.626
693.81
693.503
237.669
98.5134
50.6874
31.9418
23.8819
20.7203
20.8361
24.7737
36.1132
66.8992
158.266
459.363
458.86
156.732
64.2584
32.2203
19.3797
13.5142
10.7027
9.66337
10.2057
13.0704
20.9172
42.2532
105.929
316.45
315.591
103.332
37.8547
14.6026
4.66085
-0.568185
-3.88133
-6.24671
-7.88831
-8.36599
-5.68795
7.36512
57.4652
51.4285
-11.8533
-42.1837
-72.5781
-127.597
-264.2
-674.797
-474.85
-504.118
-531.893
-557.885
-581.87
-603.692
-623.256
-640.521
-655.486
-668.18
-678.647
-686.938
-693.105
-697.19
-699.224
-475.985
-505.598
-533.661
-559.875
-584.016
-605.931
-625.537
-642.802
-657.74
-670.388
-680.802
-689.043
-695.166
-699.22
-701.238
-478.294
-508.613
-537.261
-563.923
-588.37
-610.464
-630.14
-647.394
-662.263
-674.81
-685.112
-693.245
-699.277
-703.266
-705.25
-481.863
-513.283
-542.833
-570.168
-595.061
-617.397
-637.147
-654.351
-669.088
-681.459
-691.572
-699.527
-705.412
-709.295
-711.225
-486.832
-519.807
-550.604
-578.838
-604.293
-626.896
-646.682
-663.755
-678.259
-690.347
-700.169
-707.859
-713.527
-717.258
-719.11
-493.422
-528.495
-560.92
-590.27
-616.36
-639.194
-658.909
-675.709
-689.825
-701.481
-710.879
-718.193
-723.559
-727.081
-728.825
-501.973
-539.816
-574.295
-604.946
-631.662
-654.593
-674.032
-690.329
-703.83
-714.85
-723.653
-730.453
-735.416
-738.66
-740.264
-513.01
-554.484
-591.481
-623.538
-650.732
-673.466
-692.279
-707.723
-720.296
-730.414
-738.407
-744.529
-748.969
-751.86
-753.285
-527.374
-573.613
-613.59
-646.975
-674.242
-696.239
-713.875
-727.97
-739.198
-748.081
-755.008
-760.264
-764.051
-766.505
-767.711
-546.468
-598.987
-642.274
-676.51
-703.004
-723.351
-738.99
-751.064
-760.425
-767.682
-773.259
-777.446
-780.442
-782.375
-783.323
-572.787
-633.573
-679.991
-713.767
-737.894
-755.149
-767.646
-776.848
-783.735
-788.942
-792.876
-795.797
-797.873
-799.208
-799.861
-611.179
-682.51
-730.328
-760.653
-779.635
-791.686
-799.571
-804.926
-808.704
-811.451
-813.48
-814.97
-816.023
-816.699
-817.03
-672.223
-754.938
-798.14
-818.857
-828.286
-832.367
-834.001
-834.559
-834.681
-834.656
-834.6
-834.554
-834.526
-834.513
-834.508
-782.739
-866.856
-888.412
-888.324
-882.265
-875.47
-869.478
-864.603
-860.785
-857.867
-855.684
-854.094
-852.99
-852.295
-851.959
-1023.72
-1041.31
-1000.3
-963.734
-936.956
-917.744
-903.811
-893.566
-885.968
-880.32
-876.148
-873.122
-871.02
-869.693
-869.051
524.139
523.624
522.607
521.117
519.207
516.975
514.592
512.367
510.848
511.036
514.818
526.022
553.599
623.945
838.847
536.358
535.879
534.929
533.53
531.726
529.595
527.286
525.075
523.479
523.472
526.917
537.405
561.787
611.775
694.53
548.898
548.447
547.549
546.212
544.457
542.325
539.898
537.344
534.994
533.498
534.112
539.127
552.178
576.836
607.867
561.738
561.314
560.46
559.172
557.438
555.246
552.586
549.459
545.902
542.045
538.236
535.255
534.495
537.454
542.942
574.861
574.464
573.661
572.427
570.722
568.478
565.585
561.861
557.006
550.544
541.77
529.829
514.216
496.303
482.019
588.246
587.884
587.146
585.995
584.365
582.146
579.147
575.033
569.212
560.633
547.49
526.938
495.521
452.617
411.369
601.868
601.553
600.904
599.88
598.403
596.342
593.469
589.378
583.32
573.878
558.341
531.581
484.79
407.77
312.267
615.695
615.439
614.909
614.064
612.831
611.087
608.624
605.076
599.762
591.341
576.971
550.121
495.038
375.745
147.039
629.685
629.502
629.118
628.503
627.599
626.317
624.519
621.985
618.345
612.922
604.254
588.251
549.865
419.692
-176.814
643.79
643.688
643.474
643.126
642.612
641.889
640.911
639.647
638.15
636.741
636.617
641.91
668.419
787.47
1376.67
657.951
657.938
657.907
657.849
657.755
657.624
657.486
657.458
657.876
659.654
665.203
680.818
722.694
828.737
1048.16
672.106
672.185
672.343
672.581
672.907
673.347
673.971
674.943
676.641
679.931
686.782
701.473
732.39
791.244
872.269
686.193
686.363
686.707
687.234
687.962
688.927
690.199
691.908
694.282
697.719
702.901
710.842
722.669
738.336
752.871
700.146
700.405
700.928
701.73
702.834
704.276
706.11
708.397
711.165
714.28
717.088
717.494
710.265
686.196
643.798
713.905
714.247
714.94
716
717.454
719.337
721.691
724.536
727.789
731.038
732.925
729.43
709.539
646.766
505.518
727.41
727.83
728.68
729.979
731.756
734.053
736.916
740.376
744.396
748.724
752.484
752.733
738.575
661.815
269.386
740.608
741.099
742.091
743.607
745.68
748.36
751.71
755.811
760.77
766.788
774.463
786.021
811.069
896.062
1292.5
753.45
754.003
755.121
756.829
759.164
762.183
765.966
770.632
776.388
783.685
793.727
809.923
841.917
914.008
1059.64
765.892
766.499
767.725
769.597
772.155
775.458
779.592
784.68
790.916
798.658
808.699
822.833
844.901
880.865
928.165
777.896
778.548
779.863
781.87
784.608
788.138
792.54
797.915
804.377
812.018
820.81
830.214
838.215
839.829
829.794
789.432
790.119
791.504
793.615
796.493
800.194
804.795
810.378
816.997
824.56
832.477
838.549
835.948
806.862
724.712
800.475
801.187
802.623
804.809
807.785
811.607
816.351
822.105
828.942
836.838
845.408
852.885
852.054
810.726
562.841
811.006
811.735
813.203
815.436
818.47
822.362
827.189
833.061
840.128
848.63
859.08
872.971
896.264
958.015
1218.7
821.015
821.751
823.234
825.486
828.54
832.447
837.284
843.17
850.297
859.051
870.343
886.507
913.748
967.133
1066.24
830.495
831.232
832.714
834.96
837.996
841.867
846.635
852.398
859.315
867.691
878.202
892.331
913.057
944.477
982.879
839.446
840.177
841.645
843.864
846.854
850.645
855.278
860.808
867.297
874.83
883.531
893.551
904.921
916.95
926.453
847.873
848.592
850.036
852.212
855.134
858.818
863.282
868.532
874.534
881.137
887.927
893.812
896.308
891.157
876.896
855.783
856.487
857.899
860.022
862.864
866.43
870.722
875.718
881.329
887.295
892.931
896.404
892.987
871.671
817.705
863.186
863.873
865.249
867.314
870.071
873.519
877.655
882.458
887.856
893.665
899.418
903.761
902.078
874.836
721.31
870.095
870.763
872.1
874.105
876.776
880.111
884.109
888.766
894.075
900.054
906.865
915.281
928.898
965.681
1124.37
876.522
877.171
878.469
880.413
882.998
886.223
890.087
894.602
899.808
905.845
913.179
923.169
939.61
971.848
1032.1
882.48
883.111
884.37
886.254
888.756
891.871
895.596
899.94
904.941
910.717
917.629
926.554
939.334
958.539
981.956
887.982
888.595
889.818
891.645
894.068
897.075
900.657
904.805
909.512
914.781
920.662
927.242
934.576
942.283
948.347
893.041
893.638
894.827
896.602
898.952
901.86
905.307
909.263
913.669
918.4
923.189
927.386
929.54
927.148
919.224
897.668
898.25
899.41
901.14
903.426
906.25
909.586
913.391
917.579
921.961
926.108
928.926
927.642
915.834
884.876
901.872
902.442
903.578
905.271
907.506
910.265
913.52
917.234
921.331
925.666
929.93
933.294
933.035
917.796
829.305
905.663
906.223
907.34
909.004
911.202
913.914
917.12
920.792
924.896
929.4
934.357
940.158
948.81
970.608
1062.49
909.046
909.599
910.702
912.346
914.518
917.201
920.377
924.032
928.16
932.8
938.179
945.021
955.438
974.729
1009.83
912.026
912.575
913.67
915.301
917.458
920.124
923.284
926.926
931.044
935.669
940.966
947.379
955.886
967.851
981.82
914.607
915.154
916.244
917.871
920.022
922.683
925.84
929.472
933.553
938.053
942.958
948.262
953.912
959.56
963.788
916.789
917.336
918.427
920.054
922.21
924.879
928.046
931.687
935.749
940.135
944.655
948.884
951.922
952.235
948.97
918.574
919.122
920.216
921.851
924.019
926.709
929.907
933.589
937.698
942.105
946.535
950.312
951.805
947.376
932.16
919.96
920.511
921.611
923.256
925.443
928.165
931.414
935.178
939.416
944.04
948.848
953.306
955.781
949.988
905.062
920.945
921.499
922.606
924.265
926.474
929.234
932.547
936.417
940.845
945.827
951.385
957.657
965.479
979.756
1029.39
921.527
922.084
923.198
924.87
927.102
929.899
933.274
937.25
941.867
947.194
953.408
960.91
970.675
984.951
1006.12
921.704
922.263
923.383
925.066
927.315
930.141
933.565
937.621
942.371
947.925
954.518
962.57
972.719
985.342
997.822
921.474
922.035
923.157
924.846
927.106
929.949
933.398
937.492
942.294
947.916
954.595
962.751
973.028
985.811
998.473
920.836
921.396
922.519
924.208
926.469
929.315
932.766
936.853
941.624
947.155
953.626
961.439
971.578
986.343
1008.2
919.79
920.348
921.467
923.151
925.405
928.24
931.673
935.721
940.402
945.721
951.707
958.49
966.896
981.932
1033.38
918.337
918.892
920.003
921.676
923.915
926.73
930.133
934.132
938.713
943.804
949.217
954.391
957.591
952.211
906.182
916.481
917.03
918.13
919.785
922.003
924.791
928.162
932.121
936.646
941.645
946.872
951.643
954.226
950.698
935.696
914.224
914.765
915.85
917.483
919.672
922.428
925.764
929.697
934.226
939.309
944.823
950.392
955.086
957.134
955.073
911.573
912.104
913.169
914.773
916.926
919.639
922.934
926.842
931.397
936.655
942.718
949.727
957.766
966.402
973.302
908.534
909.053
910.093
911.662
913.767
916.425
919.661
923.516
928.058
933.422
939.937
948.325
960.013
976.857
996.605
905.115
905.619
906.63
908.155
910.202
912.789
915.94
919.695
924.123
929.37
935.837
944.611
958.661
985.276
1033.91
901.328
901.814
902.79
904.263
906.241
908.739
911.78
915.389
919.596
924.45
930.114
937.21
948.564
978.389
1105.26
897.183
897.649
898.585
899.997
901.895
904.292
907.206
910.647
914.597
918.949
923.378
926.832
925.621
904.087
781.724
892.695
893.138
894.029
895.372
897.18
899.465
902.246
905.534
909.295
913.375
917.297
919.672
916.773
899.785
856.787
887.879
888.297
889.136
890.403
892.109
894.272
896.917
900.071
903.747
907.891
912.271
916.153
917.688
913.522
902.285
882.754
883.144
883.926
885.107
886.699
888.723
891.213
894.228
897.851
902.221
907.572
914.241
922.542
932.15
940.273
877.339
877.697
878.417
879.503
880.966
882.828
885.127
887.941
891.413
895.848
901.939
911.174
926.469
951.787
984.196
871.655
871.98
872.631
873.614
874.933
876.606
878.665
881.177
884.282
888.306
894.101
903.877
923.416
966.48
1050.92
865.725
866.015
866.596
867.467
868.632
870.094
871.869
873.982
876.487
879.513
883.478
889.779
904.006
952.417
1176.58
859.573
859.828
860.336
861.095
862.099
863.344
864.818
866.496
868.304
870.049
871.211
870.154
860.836
816.282
593.97
853.224
853.444
853.88
854.528
855.377
856.412
857.605
858.898
860.141
860.968
860.465
856.242
842.117
803.566
721.526
846.703
846.888
847.256
847.798
848.501
849.347
850.304
851.313
852.243
852.79
852.282
849.184
840.338
821.028
792.418
840.032
840.186
840.489
840.933
841.503
842.182
842.946
843.764
844.584
845.323
845.876
846.095
845.805
844.926
843.752
833.233
833.358
833.602
833.956
834.405
834.934
835.53
836.193
836.956
837.963
839.681
843.335
851.661
869.006
894.581
826.328
826.426
826.616
826.888
827.227
827.617
828.048
828.532
829.134
830.086
832.121
837.306
851.233
887.35
963.482
819.333
819.408
819.551
819.75
819.989
820.247
820.509
820.767
821.042
821.436
822.352
825.183
835.374
877.885
1085.57
812.265
812.321
812.424
812.561
812.712
812.851
812.95
812.97
812.841
812.401
811.23
807.925
797.05
753.697
545.071
805.138
805.178
805.251
805.339
805.419
805.46
805.425
805.256
804.829
803.852
801.568
795.898
781.258
744.256
667.145
797.961
797.992
798.043
798.097
798.127
798.098
797.973
797.697
797.173
796.186
794.235
790.075
780.971
762.643
736
790.742
790.769
790.81
790.847
790.849
790.78
790.604
790.289
789.811
789.168
788.413
787.659
787.067
786.78
786.685
783.483
783.512
783.558
783.597
783.595
783.511
783.309
782.971
782.537
782.202
782.568
785.106
792.926
810.758
837.639
776.183
776.222
776.287
776.35
776.372
776.3
776.087
775.698
775.166
774.726
775.191
778.857
791.811
828.427
907.596
768.833
768.891
768.993
769.108
769.186
769.164
768.964
768.5
767.703
766.599
765.567
766.132
774.24
816.522
1032.87
761.421
761.508
761.667
761.864
762.044
762.127
762.002
761.511
760.426
758.396
754.81
748.142
732.914
683.713
462.52
753.926
754.053
754.291
754.607
754.943
755.21
755.271
754.912
753.777
751.248
746.17
736.068
715.154
670.313
585.121
746.321
746.498
746.837
747.31
747.864
748.411
748.81
748.829
748.068
745.844
740.993
731.474
713.985
684.906
648.916
738.572
738.806
739.267
739.932
740.763
741.689
742.592
743.263
743.345
742.241
739.031
732.386
720.839
704.268
688.073
730.637
730.936
731.53
732.413
733.569
734.959
736.511
738.083
739.416
740.075
739.43
736.672
731.154
723.339
716.342
722.474
722.837
723.568
724.68
726.185
728.092
730.394
733.045
735.925
738.791
741.269
742.847
743.039
741.813
740.108
714.037
714.459
715.318
716.648
718.496
720.925
724.011
727.826
732.414
737.75
743.708
749.955
755.88
760.591
763.048
705.286
705.754
706.718
708.23
710.377
713.278
717.099
722.046
728.353
736.254
745.92
757.256
769.538
780.904
788.052
696.187
696.684
697.713
699.347
701.706
704.968
709.384
715.298
723.156
733.505
746.947
763.871
783.807
804.115
818.378
686.723
687.222
688.263
689.935
692.383
695.831
700.606
707.176
716.201
728.584
745.53
768.365
797.788
831.495
858.963
676.89
677.362
678.352
679.958
682.34
685.749
690.559
697.328
706.884
720.471
739.996
768.255
808.768
863.175
918.98
666.708
667.121
667.991
669.417
671.559
674.669
679.13
685.523
694.739
708.208
728.372
759.605
810.071
893.853
1018.1
656.219
656.539
657.221
658.353
660.08
662.627
666.339
671.734
679.612
691.271
709.036
737.569
788.212
896.395
1203.86
-1692.81
-1254.93
-1098.77
-1023.86
-980.132
-951.633
-931.873
-917.666
-907.242
-899.527
-893.831
-889.694
-886.814
-884.992
-884.109
-1431.42
-1253.46
-1131.84
-1056.84
-1008.79
-976.354
-953.507
-936.93
-924.685
-915.569
-908.803
-903.867
-900.418
-898.231
-897.169
-1293.89
-1212.84
-1132.52
-1071.08
-1026.59
-994.394
-970.765
-953.168
-939.938
-929.961
-922.484
-916.99
-913.129
-910.671
-909.475
-1212.91
-1171.69
-1120.07
-1073.51
-1035.84
-1006.47
-983.811
-966.357
-952.914
-942.599
-934.768
-928.958
-924.846
-922.217
-920.933
-1160.84
-1137.73
-1104.07
-1069.77
-1039.29
-1013.85
-993.224
-976.741
-963.701
-953.494
-945.628
-939.726
-935.517
-932.809
-931.484
-1125.1
-1111.07
-1088.51
-1063.34
-1039.24
-1017.88
-999.736
-984.715
-972.504
-962.744
-955.102
-949.3
-945.126
-942.424
-941.098
-1099.37
-1090.32
-1074.74
-1056.15
-1037.25
-1019.64
-1004.06
-990.719
-979.587
-970.504
-963.278
-957.724
-953.692
-951.067
-949.773
-1080.2
-1074.1
-1063.03
-1049.15
-1034.36
-1019.99
-1006.8
-995.172
-985.228
-976.956
-970.27
-965.071
-961.262
-958.767
-957.532
-1065.56
-1061.3
-1053.25
-1042.76
-1031.16
-1019.48
-1008.44
-998.436
-989.692
-982.285
-976.211
-971.431
-967.9
-965.573
-964.417
-1054.15
-1051.11
-1045.14
-1037.13
-1027.98
-1018.52
-1009.32
-1000.81
-993.211
-986.669
-981.23
-976.905
-973.682
-971.547
-970.483
-1045.13
-1042.93
-1038.44
-1032.25
-1025.02
-1017.34
-1009.72
-1002.52
-995.981
-990.266
-985.455
-981.591
-978.69
-976.757
-975.791
-1037.92
-1036.31
-1032.9
-1028.09
-1022.33
-1016.11
-1009.81
-1003.75
-998.162
-993.214
-989.002
-985.588
-983.007
-981.278
-980.412
-1032.1
-1030.93
-1028.32
-1024.55
-1019.96
-1014.91
-1009.71
-1004.63
-999.883
-995.63
-991.974
-988.986
-986.711
-985.181
-984.412
-1027.37
-1026.53
-1024.53
-1021.56
-1017.89
-1013.78
-1009.5
-1005.25
-1001.24
-997.612
-994.461
-991.866
-989.88
-988.537
-987.861
-1023.51
-1022.92
-1021.38
-1019.05
-1016.1
-1012.76
-1009.24
-1005.7
-1002.33
-999.239
-996.54
-994.303
-992.58
-991.412
-990.822
-1020.34
-1019.94
-1018.77
-1016.93
-1014.57
-1011.86
-1008.96
-1006.02
-1003.19
-1000.58
-998.278
-996.36
-994.876
-993.867
-993.355
-1017.73
-1017.48
-1016.59
-1015.15
-1013.26
-1011.06
-1008.68
-1006.25
-1003.88
-1001.68
-999.73
-998.094
-996.824
-995.956
-995.516
-1015.58
-1015.45
-1014.79
-1013.66
-1012.15
-1010.37
-1008.42
-1006.41
-1004.43
-1002.59
-1000.94
-999.554
-998.471
-997.729
-997.352
-1013.8
-1013.76
-1013.28
-1012.41
-1011.21
-1009.77
-1008.18
-1006.52
-1004.88
-1003.34
-1001.95
-1000.78
-999.861
-999.23
-998.909
-1012.33
-1012.37
-1012.03
-1011.36
-1010.42
-1009.26
-1007.97
-1006.6
-1005.24
-1003.96
-1002.8
-1001.81
-1001.03
-1000.5
-1000.22
-1011.11
-1011.21
-1010.99
-1010.49
-1009.75
-1008.83
-1007.78
-1006.66
-1005.54
-1004.47
-1003.5
-1002.67
-1002.01
-1001.56
-1001.33
-1010.1
-1010.25
-1010.13
-1009.76
-1009.19
-1008.46
-1007.61
-1006.7
-1005.77
-1004.89
-1004.08
-1003.39
-1002.84
-1002.46
-1002.26
-1009.27
-1009.46
-1009.42
-1009.16
-1008.73
-1008.15
-1007.47
-1006.73
-1005.97
-1005.23
-1004.56
-1003.98
-1003.52
-1003.2
-1003.04
-1008.58
-1008.81
-1008.83
-1008.67
-1008.34
-1007.89
-1007.35
-1006.75
-1006.12
-1005.52
-1004.96
-1004.48
-1004.09
-1003.82
-1003.68
-1008.03
-1008.28
-1008.35
-1008.26
-1008.03
-1007.68
-1007.25
-1006.76
-1006.25
-1005.75
-1005.28
-1004.88
-1004.55
-1004.33
-1004.21
-1007.58
-1007.85
-1007.96
-1007.93
-1007.77
-1007.51
-1007.17
-1006.77
-1006.35
-1005.93
-1005.55
-1005.21
-1004.93
-1004.74
-1004.64
-1007.22
-1007.51
-1007.66
-1007.67
-1007.57
-1007.37
-1007.1
-1006.78
-1006.43
-1006.08
-1005.75
-1005.47
-1005.23
-1005.07
-1004.98
-1006.95
-1007.25
-1007.42
-1007.47
-1007.41
-1007.26
-1007.05
-1006.78
-1006.49
-1006.19
-1005.91
-1005.67
-1005.46
-1005.32
-1005.25
-1006.75
-1007.06
-1007.25
-1007.32