/*--------------------------------*- C++ -*----------------------------------*\
| =========                 |                                                 |
| \\      /  F ield         | OpenFOAM: The Open Source CFD Toolbox           |
|  \\    /   O peration     | Version:  5.x                                   |
|   \\  /    A nd           | Web:      www.OpenFOAM.org                      |
|    \\/     M anipulation  |                                                 |
\*---------------------------------------------------------------------------*/
FoamFile
{
    version     2.0;
    format      ascii;
    class       volScalarField;
    location    "7.1";
    object      gradTx;
}
// * * * * * * * * * * * * * * * * * * * * * * * * * * * * * * * * * * * * * //

dimensions      [0 -1 0 1 0 0 0];

internalField   nonuniform List<scalar> 
6300
(
563.361
561.724
558.445
553.52
546.94
538.699
528.798
517.246
504.068
489.313
473.061
455.426
436.567
416.687
396.03
564.976
563.342
560.07
555.152
548.578
540.338
530.428
518.85
505.624
490.791
474.424
456.631
437.571
417.447
396.511
568.201
566.575
563.318
558.417
551.859
543.626
533.703
522.082
508.767
493.785
477.192
459.087
439.621
419.001
397.496
573.029
571.417
568.186
563.318
556.793
548.581
538.655
526.986
513.557
498.368
481.452
462.885
442.806
421.426
399.034
579.446
577.856
574.666
569.854
563.389
555.23
545.327
533.629
520.086
504.66
487.343
468.177
447.274
424.846
401.21
587.429
585.872
582.745
578.021
571.658
563.599
553.773
542.096
528.476
512.821
495.064
475.185
453.251
429.456
404.155
596.944
595.434
592.398
587.803
581.599
573.712
564.048
552.485
538.878
523.065
504.888
484.229
461.068
435.554
408.074
607.946
606.498
603.585
599.171
593.198
585.58
576.199
564.896
551.463
535.65
517.172
495.756
471.22
443.599
413.291
620.371
619.003
616.249
612.074
606.418
599.188
590.25
579.412
566.407
550.878
532.373
510.383
484.437
454.313
420.33
634.14
632.868
630.31
626.435
621.186
614.479
606.176
596.072
583.853
569.058
551.038
528.943
501.813
468.867
430.087
649.155
647.994
645.664
642.142
637.389
631.339
623.88
614.822
603.85
590.441
573.754
552.517
524.985
489.238
444.192
665.304
664.265
662.184
659.055
654.864
649.584
643.155
635.461
626.259
615.076
600.999
582.362
556.352
518.887
465.892
682.466
681.55
679.725
677.003
673.402
668.949
663.671
657.58
650.625
642.579
632.779
619.558
599.151
564.043
502.438
700.516
699.719
698.137
695.802
692.766
689.113
684.973
680.535
676.054
671.812
667.956
663.913
656.626
635.672
572.526
719.337
718.643
717.275
715.274
712.718
709.735
706.544
703.507
701.215
700.632
703.294
711.484
727.74
749.466
733.181
376.666
358.886
341.133
323.585
306.411
289.768
273.793
258.602
244.292
230.935
218.587
207.281
197.038
187.862
179.749
172.682
166.637
161.583
157.483
154.293
151.961
150.432
149.641
149.515
149.977
150.939
152.309
153.992
155.89
157.906
159.949
161.937
163.798
165.469
166.9
168.047
168.873
169.344
169.426
169.088
168.299
167.033
165.274
163.015
160.26
157.026
153.338
149.228
144.724
139.853
134.632
129.07
123.164
116.901
110.265
103.235
95.7895
87.9106
79.5818
70.7884
61.5152
51.7433
41.4476
30.5942
19.1389
7.02687
-5.80588
-19.4308
-33.9237
-49.3615
-65.8192
-83.3671
-102.069
-121.983
-143.156
-165.629
-189.434
-214.591
-241.107
-268.973
-298.158
-328.605
-360.225
-392.894
-426.451
-460.693
-495.381
-530.246
-564.993
-599.315
376.872
358.833
340.824
323.032
305.636
288.795
272.652
257.325
242.908
229.475
217.076
205.743
195.492
186.326
178.235
171.203
165.203
160.204
156.167
153.05
150.801
149.364
148.676
148.665
149.251
150.346
151.855
153.678
155.714
157.861
160.024
162.117
164.066
165.811
167.303
168.504
169.38
169.899
170.028
169.733
168.98
167.739
165.99
163.724
160.945
157.675
153.944
149.79
145.249
140.352
135.121
129.563
123.673
117.436
110.83
103.83
96.4119
88.5566
80.2493
71.4782
62.2322
52.4968
42.2504
31.461
20.0848
8.06551
-4.66401
-18.1794
-32.5611
-47.8905
-64.2462
-81.7012
-100.321
-120.164
-141.278
-163.705
-187.48
-212.626
-239.155
-267.064
-296.331
-326.904
-358.701
-391.604
-425.449
-460.034
-495.111
-530.398
-565.586
-600.35
377.29
358.721
340.188
321.899
304.047
286.806
270.325
254.725
240.1
226.517
214.022
202.639
192.377
183.233
175.191
168.23
162.322
157.432
153.523
150.55
148.466
147.214
146.732
146.95
147.787
149.151
150.943
153.054
155.373
157.788
160.194
162.498
164.622
166.511
168.121
169.425
170.396
171.01
171.235
171.032
170.358
169.174
167.447
165.165
162.335
158.983
155.156
150.905
146.282
141.331
136.077
130.53
124.68
118.501
111.96
105.024
97.6617
89.8519
81.5829
72.8505
63.653
53.9857
43.8347
33.1729
21.957
10.1276
-2.38933
-15.6789
-29.8317
-44.9389
-61.0871
-78.3542
-96.8085
-116.508
-137.503
-159.836
-183.544
-208.66
-235.206
-263.192
-292.61
-323.427
-355.574
-388.94
-423.369
-458.649
-494.52
-530.675
-566.77
-602.443
377.944
358.542
339.188
320.122
301.566
283.711
266.718
250.712
235.78
221.984
209.357
197.912
187.646
178.544
170.584
163.736
157.968
153.244
149.524
146.767
144.925
143.948
143.776
144.34
145.557
147.335
149.565
152.126
154.89
157.724
160.507
163.131
165.515
167.606
169.377
170.818
171.923
172.677
173.053
173.003
172.467
171.383
169.7
167.393
164.47
160.973
156.973
152.55
147.785
142.74
137.453
131.932
126.156
120.082
113.658
106.83
99.5539
91.8065
83.5822
74.891
65.7493
56.1702
46.1541
35.6824
24.713
13.1806
0.998829
-11.9337
-25.726
-40.4862
-56.3137
-73.2944
-91.4984
-110.983
-131.795
-153.979
-177.575
-202.627
-229.174
-257.247
-286.867
-318.024
-350.677
-384.735
-420.047
-456.398
-493.505
-531.02
-568.545
-605.652
378.865
358.279
337.761
317.6
298.06
279.363
261.681
245.139
229.817
215.76
202.982
191.479
181.23
172.205
164.368
157.681
152.106
147.603
144.133
141.658
140.136
139.519
139.756
140.782
142.517
144.864
147.706
150.902
154.298
157.73
161.043
164.105
166.824
169.157
171.104
172.691
173.947
174.885
175.48
175.67
175.362
174.451
172.847
170.503
167.426
163.685
159.394
154.686
149.687
144.494
139.163
133.697
128.057
122.167
115.936
109.277
102.123
94.4457
86.2523
77.579
68.4744
58.9829
49.1292
38.9083
28.2801
17.1691
5.46906
-6.94907
-20.2247
-34.494
-49.8771
-66.4694
-84.3408
-103.541
-124.108
-146.081
-169.505
-194.434
-220.933
-249.068
-278.897
-310.456
-343.746
-378.709
-415.214
-453.043
-491.884
-531.331
-570.902
-610.067
380.107
357.906
335.803
314.17
293.33
273.542
254.992
237.799
222.023
207.683
194.764
183.234
173.045
164.147
156.489
150.019
144.693
140.468
137.306
135.173
134.035
133.857
134.595
136.197
138.59
141.677
145.331
149.387
153.65
157.904
161.936
165.567
168.684
171.26
173.344
175.034
176.427
177.581
178.485
179.049
179.119
178.511
177.058
174.662
171.333
167.185
162.412
157.236
151.863
146.446
141.062
135.71
130.314
124.74
118.829
112.433
105.444
97.826
89.6119
80.8863
71.7555
62.3163
52.6325
42.7204
32.5422
22.0064
10.9741
-0.728426
-13.2909
-26.8961
-41.6966
-57.7996
-75.2664
-94.1252
-114.392
-136.088
-159.259
-183.974
-210.33
-238.44
-268.424
-300.387
-334.394
-370.449
-408.459
-448.216
-489.373
-531.446
-573.827
-615.825
381.75
357.378
333.156
309.583
287.072
265.927
246.339
228.407
212.153
197.55
184.54
173.048
162.994
154.3
146.891
140.706
135.689
131.796
128.992
127.251
126.55
126.869
128.187
130.468
133.659
137.671
142.371
147.568
153.009
158.392
163.401
167.763
171.319
174.065
176.148
177.799
179.245
180.632
181.973
183.133
183.849
183.783
182.619
180.162
176.415
171.582
166.005
160.065
154.099
148.344
142.913
137.785
132.822
127.793
122.42
116.438
109.669
102.063
93.7059
84.7756
75.4793
66.0007
56.4638
46.9153
37.3192
27.5588
17.4447
6.73158
-4.85423
-17.5752
-31.6381
-47.1632
-64.1843
-82.6788
-102.611
-123.968
-146.783
-171.145
-197.192
-225.106
-255.094
-287.361
-322.082
-359.359
-399.176
-441.356
-485.526
-531.098
-577.282
-623.137
383.922
356.616
329.561
303.455
278.837
256.058
235.294
216.589
199.896
185.115
172.122
160.785
150.98
142.593
135.528
129.705
125.061
121.551
119.145
117.825
117.589
118.44
120.386
123.425
127.539
132.669
138.692
145.393
152.447
159.414
165.792
171.117
175.113
177.819
179.569
180.855
182.144
183.744
185.717
187.854
189.698
190.632
190.038
187.515
183.054
177.047
170.118
162.928
156.027
149.774
144.322
139.618
135.423
131.34
126.883
121.576
115.096
107.378
98.6238
89.1901
79.4643
69.768
60.3109
51.1782
42.3326
33.6203
24.7781
15.449
5.21808
-6.32026
-19.4719
-34.3703
-50.9774
-69.1586
-88.7736
-109.742
-132.075
-155.881
-181.358
-208.779
-238.471
-270.791
-306.079
-344.6
-386.477
-431.616
-479.643
-529.853
-581.19
-632.318
386.822
355.479
324.586
295.171
267.944
243.277
221.274
201.865
184.878
170.099
157.312
146.311
136.916
128.977
122.371
117.001
112.797
109.713
107.727
106.836
107.059
108.432
111.005
114.831
119.953
126.378
134.031
142.707
152.003
161.281
169.696
176.377
180.762
182.944
183.654
183.899
184.592
186.314
189.218
192.99
196.855
199.677
200.228
197.651
191.918
183.834
174.601
165.373
157.016
150.047
144.651
140.717
137.857
135.423
132.566
128.401
122.301
114.185
104.518
94.0234
83.4052
73.1894
63.69
55.0271
47.1537
39.8686
32.8127
25.4654
17.1738
7.25893
-4.78893
-19.1146
-35.5013
-53.5708
-72.9836
-93.5469
-115.241
-138.206
-162.719
-189.172
-218.056
-249.938
-285.407
-324.997
-369.067
-417.702
-470.602
-526.965
-585.377
-643.857
390.779
353.682
317.469
283.726
253.353
226.647
203.512
183.646
166.671
152.211
139.923
129.516
120.752
113.439
107.428
102.612
98.9145
96.2911
94.7274
94.2383
94.8682
96.6921
99.8147
104.366
110.489
118.313
127.893
139.122
151.582
164.385
176.092
184.936
189.58
190.184
188.401
186.295
185.551
187.175
191.466
197.987
205.507
211.987
214.918
212.329
204.16
192.27
179.072
166.558
156.003
148.05
142.87
140.266
139.676
140.113
140.128
138.009
132.408
123.225
111.599
99.0334
86.7649
75.5777
65.8635
57.7384
51.1272
45.7863
41.2667
36.8417
31.4677
23.9103
13.1753
-0.88964
-17.5998
-36.0458
-55.5337
-75.7193
-96.5717
-118.297
-141.28
-166.057
-193.318
-223.909
-258.793
-298.929
-345.071
-397.63
-456.559
-521.106
-589.448
-658.531
396.363
350.599
306.781
267.418
233.47
204.865
181.032
161.254
144.837
131.187
119.819
110.352
102.493
96.0182
90.7628
86.6095
83.4818
81.3395
80.1774
80.026
80.9552
83.0792
86.5639
91.6339
98.5734
107.713
119.378
133.76
150.661
169.061
186.608
199.538
204.208
200.856
193.606
186.728
183.092
184.192
190.495
201.541
215.652
229.4
237.551
235.036
221.757
202.584
182.554
164.917
151.24
142.057
137.377
136.909
140.013
145.407
150.762
152.625
147.671
135.779
120.031
103.614
88.5655
75.8432
65.7473
58.2685
53.2704
50.5208
49.5843
49.5841
48.9054
45.1376
35.935
21.1455
2.80257
-17.0182
-37.0767
-56.9281
-76.6415
-96.5733
-117.252
-139.358
-163.778
-191.691
-224.607
-264.202
-311.824
-368.368
-434.413
-509.764
-592.435
-677.634
404.639
344.697
289.666
243.299
205.885
176.204
152.711
134.016
119.014
106.871
96.9723
88.8695
82.2367
76.8382
72.5065
69.1266
66.6269
64.9734
64.1689
64.2551
65.3188
67.5038
71.0276
76.2065
83.4864
93.474
106.945
124.766
147.577
174.961
203.767
226.026
230.383
217.134
198.27
182.485
173.809
173.713
182.688
200.675
226.314
254.868
275.536
273.237
247.835
214.127
182.587
157.568
140.002
129.578
125.815
128.405
137.048
150.755
166.421
177.056
172.919
153.883
129.422
106.221
87.0149
72.3253
61.8616
55.2253
52.1748
52.6438
56.5526
63.3028
70.7911
74.1905
66.7398
48.2978
25.3338
2.3531
-18.916
-38.3327
-56.3935
-73.7703
-91.1624
-109.321
-129.203
-152.259
-180.794
-217.906
-265.719
-325.412
-398.852
-487.863
-591.763
-703.47
417.78
331.711
260.061
206.282
167.153
138.623
117.472
101.454
89.069
79.3188
71.5357
65.2665
60.1995
56.119
52.8767
50.3738
48.551
47.3825
46.8757
47.074
48.0656
49.9981
53.1056
57.7513
64.4974
74.2155
88.2463
108.583
137.904
178.806
230.346
278.29
281.901
241.493
198.493
167.999
152.166
150.168
161.899
188.787
232.771
291.685
346.588
344.7
285.869
222.54
173.226
139.483
118.476
107.502
105.102
111.181
126.787
153.278
189.321
222.752
219.617
179.797
136.996
103.074
78.958
62.7205
52.4629
47.0174
46.01
49.8127
59.4285
75.9574
98.5633
118.866
113.371
81.9611
47.8891
19.2605
-3.42162
-21.6881
-37.1278
-50.9425
-63.9656
-76.7986
-90.0531
-104.932
-124.624
-156.193
-202.499
-262.649
-340.854
-444.506
-579.827
-740.488
440.645
297.95
204.71
148.158
113.155
90.4108
74.8353
63.658
55.3261
48.9307
43.9162
39.9296
36.7393
34.1906
32.18
30.64
29.5309
28.8369
28.5652
28.7492
29.4556
30.7988
32.967
36.2694
41.2266
48.7447
60.4642
79.4574
111.552
167.328
262.095
394.385
396.796
269.58
180.7
132.399
110.595
106.848
119.279
152.276
217.723
334.269
499.409
498.152
330.371
210.768
141.437
103.052
82.5026
73.0745
72.1796
80.233
100.85
142.044
215.975
321.1
319.136
209.998
131.784
85.8012
59.5551
44.5033
36.1337
32.4178
32.9179
38.6098
52.3481
79.8597
129.649
200.689
197.317
119.456
62.6053
27.6052
5.71497
-9.11277
-20.2004
-29.2522
-37.0401
-43.6659
-48.56
-50.6701
-51.3463
-73.2534
-119.333
-173.879
-246.203
-355.529
-531.386
-798.156
484.489
192.961
96.5194
58.9976
41.4983
31.8727
25.8623
21.7622
18.7924
16.552
14.8149
13.4444
12.3537
11.4862
10.8044
10.2844
9.9121
9.6822
9.59766
9.67103
9.92743
10.4105
11.1938
12.4036
14.2667
17.2222
22.2063
31.4642
51.093
99.6981
239.805
697.491
698.342
242.455
104.469
58.6369
43.0208
40.2281
47.0432
69.0311
129.086
306.87
891.829
891.386
305.489
126.598
65.0832
40.9371
30.5116
26.3578
26.3693
31.1919
45.2795
83.6641
197.706
573.649
572.979
195.665
80.1526
40.1066
24.0312
16.6626
13.1025
11.7463
12.349
15.8191
25.4331
51.6795
130.133
389.659
388.522
126.694
45.8553
17.0712
4.68182
-1.92251
-6.20363
-9.38068
-11.7865
-13.0247
-11.0738
1.52949
52.5073
44.4982
-23.97
-59.5047
-98.2565
-170.734
-352.009
-897.609
-636.166
-674.956
-711.769
-746.223
-778.021
-806.954
-832.897
-855.794
-875.642
-892.479
-906.364
-917.363
-925.544
-930.964
-933.664
-637.664
-676.909
-714.105
-748.854
-780.859
-809.917
-835.915
-858.813
-878.625
-895.403
-909.218
-920.151
-928.275
-933.654
-936.331
-640.71
-680.89
-718.862
-754.205
-786.618
-815.914
-842.007
-864.89
-884.613
-901.258
-914.926
-925.716
-933.72
-939.012
-941.645
-645.417
-687.056
-726.224
-762.461
-795.467
-825.085
-851.279
-874.099
-893.649
-910.063
-923.48
-934.036
-941.845
-946.999
-949.56
-651.971
-695.671
-736.492
-773.924
-807.677
-837.654
-863.898
-886.548
-905.791
-921.832
-934.867
-945.072
-952.595
-957.547
-960.005
-660.661
-707.141
-750.123
-789.038
-823.637
-853.926
-880.081
-902.373
-921.105
-936.575
-949.051
-958.759
-965.884
-970.559
-972.875
-671.934
-722.086
-767.795
-808.441
-843.878
-874.302
-900.098
-921.727
-939.65
-954.281
-965.969
-974.999
-981.59
-985.899
-988.029
-686.481
-741.45
-790.505
-833.024
-869.105
-899.277
-924.251
-944.757
-961.455
-974.894
-985.512
-993.646
-999.545
-1003.39
-1005.28
-705.407
-766.703
-819.724
-864.02
-900.212
-929.419
-952.842
-971.567
-986.488
-998.295
-1007.5
-1014.49
-1019.53
-1022.79
-1024.39
-730.561
-800.205
-857.641
-903.09
-938.277
-965.311
-986.098
-1002.15
-1014.6
-1024.26
-1031.68
-1037.26
-1041.24
-1043.82
-1045.08
-765.234
-845.886
-907.516
-952.39
-984.463
-1007.42
-1024.05
-1036.31
-1045.48
-1052.43
-1057.67
-1061.57
-1064.34
-1066.12
-1066.99
-815.84
-910.563
-974.118
-1014.46
-1039.74
-1055.81
-1066.34
-1073.5
-1078.56
-1082.25
-1084.97
-1086.98
-1088.39
-1089.3
-1089.75
-896.401
-1006.38
-1063.9
-1091.55
-1104.19
-1109.71
-1111.96
-1112.77
-1112.99
-1113
-1112.96
-1112.93
-1112.91
-1112.91
-1112.91
-1042.52
-1154.61
-1183.52
-1183.62
-1175.73
-1166.84
-1158.98
-1152.59
-1147.58
-1143.76
-1140.91
-1138.83
-1137.38
-1136.48
-1136.04
-1361.81
-1385.97
-1331.92
-1283.62
-1248.25
-1222.89
-1204.5
-1190.98
-1180.96
-1173.52
-1168.03
-1164.05
-1161.28
-1159.54
-1158.69
737.198
736.583
735.372
733.608
731.37
728.802
726.151
723.855
722.687
724.052
730.59
747.668
787.887
888.596
1194.29
753.844
753.287
752.188
750.582
748.536
746.172
743.709
741.549
740.429
741.729
748.066
764.469
800.537
872.704
990.906
770.856
770.347
769.336
767.842
765.902
763.589
761.036
758.499
756.47
755.888
758.528
767.592
788.094
824.818
869.91
788.202
787.734
786.797
785.389
783.506
781.15
778.329
775.077
771.486
767.785
764.506
762.75
764.364
771.096
780.532
805.852
805.427
804.565
803.243
801.417
799.011
795.901
791.87
786.557
779.367
769.404
755.548
737.058
715.473
698.013
823.777
823.401
822.631
821.425
819.706
817.34
814.09
809.533
802.909
792.85
776.984
751.541
711.879
656.963
603.677
841.942
841.628
840.978
839.94
838.422
836.259
833.163
828.611
821.624
810.344
791.192
757.387
697.271
597.3
472.647
860.303
860.066
859.57
858.766
857.561
855.804
853.227
849.355
843.297
833.281
815.552
781.483
710.322
554.757
255.365
878.806
878.662
878.354
877.844
877.061
875.894
874.167
871.596
867.692
861.553
851.235
831.314
781.966
612.075
-169.512
897.388
897.348
897.256
897.087
896.802
896.349
895.672
894.739
893.612
892.706
893.565
901.555
937.299
1094.16
1866.98
915.975
916.047
916.187
916.386
916.633
916.934
917.334
917.992
919.352
922.609
930.917
952.496
1008.5
1148.47
1436.69
934.489
934.677
935.054
935.624
936.402
937.426
938.796
940.734
943.748
948.981
959.029
979.504
1021.36
1099.8
1206.9
952.85
953.152
953.761
954.692
955.972
957.654
959.839
962.706
966.572
971.985
979.877
991.636
1008.79
1031.21
1051.83
970.978
971.389
972.22
973.49
975.235
977.507
980.384
983.961
988.294
993.241
998.013
999.993
992.54
963.83
911.448
988.798
989.311
990.348
991.933
994.104
996.913
1000.42
1004.67
1009.56
1014.59
1018.06
1014.87
991.028
912.864
735.05
1006.24
1006.84
1008.07
1009.94
1012.5
1015.81
1019.92
1024.9
1030.7
1037.01
1042.71
1044.07
1027.21
931.073
435.534
1023.23
1023.92
1025.32
1027.44
1030.35
1034.11
1038.8
1044.53
1051.45
1059.81
1070.36
1085.87
1118.43
1226.62
1728.13
1039.72
1040.49
1042.03
1044.38
1047.59
1051.74
1056.93
1063.32
1071.18
1081.07
1094.52
1115.82
1157.1
1248.98
1433.52
1055.66
1056.49
1058.15
1060.68
1064.15
1068.61
1074.2
1081.06
1089.46
1099.84
1113.21
1131.85
1160.62
1206.98
1267.45
1071
1071.88
1073.63
1076.32
1079.97
1084.69
1090.56
1097.72
1106.32
1116.49
1128.21
1140.83
1151.88
1155.14
1143.75
1085.72
1086.62
1088.45
1091.24
1095.04
1099.93
1105.99
1113.35
1122.07
1132.05
1142.55
1150.87
1148.53
1113.44
1012.54
1099.77
1100.7
1102.58
1105.44
1109.32
1114.31
1120.51
1128.01
1136.92
1147.21
1158.39
1168.27
1167.89
1117.41
811.657
1113.16
1114.1
1116
1118.89
1122.81
1127.84
1134.08
1141.66
1150.78
1161.72
1175.11
1192.77
1222.01
1298.64
1620.67
1125.86
1126.8
1128.7
1131.59
1135.5
1140.5
1146.69
1154.23
1163.34
1174.5
1188.83
1209.19
1243.2
1309.4
1431.89
1137.89
1138.82
1140.7
1143.54
1147.39
1152.3
1158.35
1165.67
1174.44
1185.05
1198.33
1216.1
1242
1281.05
1328.58
1149.23
1150.15
1151.99
1154.77
1158.52
1163.28
1169.11
1176.07
1184.24
1193.73
1204.7
1217.32
1231.64
1246.78
1258.69
1159.92
1160.81
1162.6
1165.3
1168.92
1173.5
1179.05
1185.59
1193.08
1201.35
1209.88
1217.34
1220.69
1214.7
1197.49
1169.96
1170.82
1172.55
1175.15
1178.63
1183
1188.28
1194.43
1201.36
1208.75
1215.77
1220.18
1216.2
1190.39
1124.74
1179.38
1180.21
1181.86
1184.35
1187.68
1191.85
1196.87
1202.71
1209.29
1216.39
1223.45
1228.81
1226.84
1193.73
1006.81
1188.19
1188.99
1190.57
1192.95
1196.12
1200.09
1204.86
1210.43
1216.82
1224.03
1232.27
1242.5
1259.07
1303.84
1496.96
1196.43
1197.19
1198.7
1200.96
1203.97
1207.74
1212.26
1217.58
1223.73
1230.91
1239.7
1251.75
1271.7
1310.89
1384.17
1204.12
1204.84
1206.27
1208.41
1211.27
1214.83
1219.1
1224.11
1229.9
1236.66
1244.82
1255.49
1270.93
1294.24
1322.7
1211.28
1211.96
1213.32
1215.35
1218.04
1221.39
1225.39
1230.06
1235.38
1241.39
1248.18
1255.9
1264.65
1273.99
1281.4
1217.94
1218.59
1219.87
1221.79
1224.32
1227.47
1231.21
1235.52
1240.34
1245.55
1250.87
1255.55
1257.93
1255.05
1245.68
1224.13
1224.74
1225.95
1227.76
1230.15
1233.1
1236.6
1240.59
1245
1249.62
1253.96
1256.78
1254.83
1240.59
1203.87
1229.87
1230.45
1231.59
1233.3
1235.55
1238.33
1241.61
1245.36
1249.48
1253.84
1258.08
1261.27
1260.25
1241.7
1136.97
1235.18
1235.73
1236.81
1238.43
1240.56
1243.18
1246.28
1249.82
1253.77
1258.1
1262.9
1268.66
1277.82
1302.63
1410.38
1240.09
1240.61
1241.64
1243.17
1245.19
1247.68
1250.61
1253.97
1257.76
1262.02
1267.03
1273.66
1284.49
1305.93
1346.43
1244.6
1245.1
1246.08
1247.54
1249.46
1251.83
1254.61
1257.8
1261.39
1265.39
1269.99
1275.72
1283.77
1295.96
1311.04
1248.75
1249.22
1250.16
1251.55
1253.39
1255.65
1258.31
1261.34
1264.69
1268.31
1272.14
1276.12
1280.15
1283.95
1286.55
1252.54
1252.99
1253.89
1255.23
1257
1259.17
1261.72
1264.61
1267.77
1271.05
1274.16
1276.46
1276.67
1272.73
1264.29
1255.98
1256.42
1257.29
1258.58
1260.29
1262.39
1264.86
1267.67
1270.74
1273.88
1276.7
1278.23
1276.04
1264.61
1236.6
1259.1
1259.52
1260.36
1261.61
1263.27
1265.31
1267.74
1270.53
1273.62
1276.9
1280.11
1282.54
1281.81
1267.96
1189.89
1261.89
1262.3
1263.11
1264.33
1265.94
1267.95
1270.35
1273.14
1276.34
1279.94
1284.04
1289.03
1296.65
1315.88
1396.51
1264.37
1264.76
1265.55
1266.74
1268.31
1270.28
1272.65
1275.45
1278.73
1282.6
1287.33
1293.64
1303.4
1321.12
1352.45
1266.54
1266.93
1267.69
1268.84
1270.37
1272.29
1274.62
1277.4
1280.69
1284.62
1289.49
1295.83
1304.61
1316.88
1330.59
1268.42
1268.79
1269.53
1270.64
1272.13
1273.99
1276.25
1278.96
1282.17
1285.98
1290.59
1296.28
1303.36
1311.61
1318.68
1270.02
1270.37
1271.08
1272.15
1273.58
1275.37
1277.55
1280.14
1283.19
1286.74
1290.9
1295.75
1301.27
1307.14
1312.11
1271.33
1271.67
1272.36
1273.38
1274.75
1276.46
1278.53
1280.98
1283.82
1287.06
1290.71
1294.71
1298.92
1303.26
1309.43
1272.38
1272.71
1273.36
1274.34
1275.64
1277.27
1279.22
1281.52
1284.14
1287.07
1290.24
1293.49
1296.43
1298.08
1295.05
1273.17
1273.48
1274.1
1275.03
1276.27
1277.81
1279.65
1281.79
1284.22
1286.87
1289.68
1292.45
1294.82
1296.12
1295.46
1273.71
1274.01
1274.6
1275.48
1276.65
1278.11
1279.84
1281.84
1284.1
1286.54
1289.12
1291.66
1293.93
1295.49
1295.85
1274.02
1274.3
1274.86
1275.7
1276.81
1278.18
1279.81
1281.69
1283.8
1286.1
1288.54
1291.04
1293.49
1295.66
1296.96
1274.1
1274.37
1274.9
1275.69
1276.74
1278.03
1279.57
1281.35
1283.34
1285.52
1287.88
1290.42
1293.22
1296.4
1299.42
1273.97
1274.22
1274.72
1275.47
1276.46
1277.68
1279.14
1280.82
1282.72
1284.79
1287.06
1289.58
1292.66
1297.21
1304.46
1273.63
1273.86
1274.34
1275.04
1275.98
1277.14
1278.52
1280.12
1281.93
1283.9
1286.03
1288.32
1291.04
1296.13
1314.98
1273.09
1273.31
1273.76
1274.42
1275.31
1276.4
1277.72
1279.24
1280.98
1282.87
1284.86
1286.71
1287.76
1285.45
1267.58
1272.36
1272.57
1272.99
1273.62
1274.45
1275.48
1276.73
1278.19
1279.87
1281.75
1283.75
1285.64
1286.76
1285.55
1279.75
1271.45
1271.65
1272.04
1272.63
1273.41
1274.38
1275.56
1276.96
1278.6
1280.5
1282.67
1285.06
1287.36
1288.79
1288.39
1270.37
1270.56
1270.93
1271.47
1272.2
1273.11
1274.2
1275.52
1277.1
1279.02
1281.42
1284.52
1288.51
1293.27
1297.25
1269.13
1269.31
1269.65
1270.16
1270.83
1271.66
1272.66
1273.87
1275.34
1277.17
1279.65
1283.31
1289.11
1298.25
1309.38
1267.74
1267.9
1268.22
1268.69
1269.3
1270.05
1270.94
1272
1273.27
1274.85
1277.03
1280.57
1287.34
1301.83
1329.74
1266.2
1266.35
1266.65
1267.08
1267.64
1268.3
1269.08
1269.96
1270.94
1272.06
1273.44
1275.54
1280.19
1296.05
1369.98
1264.52
1264.66
1264.94
1265.35
1265.85
1266.45
1267.11
1267.8
1268.48
1269.05
1269.31
1268.71
1265.22
1249.91
1175.59
1262.71
1262.85
1263.11
1263.5
1263.97
1264.51
1265.08
1265.62
1266.06
1266.22
1265.75
1263.84
1258.41
1244.72
1216.62
1260.76
1260.9
1261.17
1261.55
1262.01
1262.51
1263.02
1263.48
1263.79
1263.78
1263.16
1261.36
1257.29
1249.49
1238.67
1258.69
1258.83
1259.11
1259.5
1259.96
1260.47
1260.97
1261.41
1261.7
1261.72
1261.36
1260.42
1258.74
1256.31
1253.77
1256.48
1256.63
1256.93
1257.35
1257.85
1258.39
1258.93
1259.4
1259.74
1259.9
1259.91
1259.96
1260.67
1263.16
1267.65
1254.12
1254.3
1254.63
1255.1
1255.67
1256.28
1256.89
1257.44
1257.87
1258.15
1258.38
1259.01
1261.32
1268.59
1285.2
1251.61
1251.81
1252.2
1252.74
1253.41
1254.13
1254.86
1255.53
1256.06
1256.39
1256.55
1256.83
1258.5
1267.49
1314.86
1248.92
1249.15
1249.61
1250.26
1251.06
1251.94
1252.84
1253.67
1254.34
1254.71
1254.6
1253.64
1250.56
1239.69
1190.3
1246.02
1246.31
1246.85
1247.64
1248.6
1249.69
1250.82
1251.89
1252.79
1253.32
1253.2
1251.87
1248
1238.58
1219.7
1242.9
1243.23
1243.89
1244.84
1246.02
1247.37
1248.79
1250.2
1251.45
1252.33
1252.6
1251.82
1249.26
1244
1236.59
1239.5
1239.9
1240.69
1241.84
1243.28
1244.94
1246.75
1248.58
1250.3
1251.73
1252.69
1252.96
1252.36
1250.85
1248.93
1235.78
1236.26
1237.2
1238.58
1240.33
1242.38
1244.64
1247
1249.31
1251.42
1253.2
1254.66
1256.04
1257.94
1260.54
1231.68
1232.25
1233.38
1235.02
1237.13
1239.63
1242.43
1245.41
1248.41
1251.28
1253.91
1256.38
1259.31
1264.52
1274.55
1227.15
1227.82
1229.14
1231.09
1233.61
1236.63
1240.05
1243.76
1247.56
1251.26
1254.67
1257.73
1260.97
1267.7
1296.13
1222.12
1222.9
1224.44
1226.72
1229.7
1233.3
1237.45
1241.99
1246.74
1251.4
1255.63
1258.91
1260.16
1255.77
1227.48
1216.51
1217.4
1219.17
1221.82
1225.3
1229.56
1234.52
1240.04
1245.92
1251.8
1257.22
1261.43
1263.21
1260.39
1250.41
1210.24
1211.25
1213.26
1216.29
1220.3
1225.28
1231.15
1237.81
1245.04
1252.48
1259.59
1265.6
1269.42
1269.91
1267.06
1203.22
1204.35
1206.61
1210.03
1214.6
1220.33
1227.21
1235.15
1243.97
1253.33
1262.69
1271.23
1277.9
1281.7
1282.39
1195.39
1196.63
1199.12
1202.91
1208.04
1214.55
1222.48
1231.82
1242.47
1254.13
1266.3
1278.1
1288.32
1295.59
1298.84
1186.65
1187.99
1190.69
1194.82
1200.47
1207.73
1216.72
1227.55
1240.21
1254.55
1270.12
1286.02
1300.75
1312.22
1318.21
1176.95
1178.36
1181.23
1185.64
1191.72
1199.66
1209.66
1221.96
1236.74
1254.05
1273.65
1294.7
1315.38
1332.62
1342.39
1166.22
1167.68
1170.65
1175.24
1181.65
1190.11
1200.95
1214.6
1231.46
1251.92
1276.14
1303.59
1332.34
1358.14
1374.01
1154.45
1155.91
1158.89
1163.55
1170.09
1178.85
1190.27
1204.95
1223.63
1247.14
1276.33
1311.51
1351.31
1390.49
1417.31
1141.62
1143.03
1145.94
1150.49
1156.95
1165.7
1177.29
1192.5
1212.38
1238.37
1272.32
1316.17
1370.66
1431.37
1479.9
1127.77
1129.08
1131.8
1136.07
1142.18
1150.53
1161.75
1176.75
1196.84
1224.04
1261.38
1313.37
1385.65
1480.66
1576.83
1112.96
1114.12
1116.53
1120.33
1125.79
1133.33
1143.56
1157.41
1176.32
1202.6
1240.23
1296.43
1384.81
1529.07
1741.2
1097.31
1098.27
1100.25
1103.39
1107.92
1114.21
1122.8
1134.52
1150.63
1173.24
1206.15
1257.08
1345.12
1530.29
2053.52
-2250.76
-1669.69
-1462.64
-1363.41
-1305.53
-1267.83
-1241.71
-1222.93
-1209.17
-1198.99
-1191.47
-1186.02
-1182.22
-1179.82
-1178.65
-1903.92
-1667.84
-1506.58
-1407.18
-1343.55
-1300.62
-1270.4
-1248.48
-1232.29
-1220.25
-1211.32
-1204.81
-1200.25
-1197.37
-1195.97
-1721.45
-1613.99
-1507.51
-1426.09
-1367.17
-1324.55
-1293.28
-1270.01
-1252.52
-1239.34
-1229.46
-1222.2
-1217.11
-1213.86
-1212.28
-1614.03
-1559.41
-1491.02
-1429.35
-1379.45
-1340.57
-1310.59
-1287.5
-1269.73
-1256.09
-1245.75
-1238.07
-1232.64
-1229.17
-1227.47
-1544.95
-1514.38
-1469.82
-1424.39
-1384.04
-1350.37
-1323.08
-1301.27
-1284.03
-1270.54
-1260.15
-1252.35
-1246.79
-1243.21
-1241.46
-1497.54
-1479.03
-1449.18
-1415.87
-1383.97
-1355.71
-1331.71
-1311.85
-1295.71
-1282.81
-1272.71
-1265.05
-1259.53
-1255.96
-1254.21
-1463.42
-1451.51
-1430.91
-1406.33
-1381.34
-1358.06
-1337.45
-1319.81
-1305.1
-1293.1
-1283.55
-1276.22
-1270.89
-1267.43
-1265.72
-1437.99
-1429.98
-1415.38
-1397.05
-1377.51
-1358.51
-1341.08
-1325.72
-1312.58
-1301.66
-1292.83
-1285.96
-1280.93
-1277.64
-1276.01
-1418.56
-1413
-1402.41
-1388.58
-1373.26
-1357.84
-1343.25
-1330.05
-1318.5
-1308.72
-1300.71
-1294.4
-1289.74
-1286.67
-1285.14
-1403.43
-1399.48
-1391.65
-1381.1
-1369.05
-1356.56
-1344.43
-1333.19
-1323.17
-1314.54
-1307.37
-1301.66
-1297.41
-1294.59
-1293.19
-1391.46
-1388.63
-1382.76
-1374.63
-1365.11
-1355
-1344.96
-1335.46
-1326.85
-1319.31
-1312.97
-1307.88
-1304.06
-1301.51
-1300.24
-1381.89
-1379.85
-1375.41
-1369.1
-1361.55
-1353.36
-1345.07
-1337.09
-1329.74
-1323.23
-1317.68
-1313.19
-1309.79
-1307.51
-1306.37
-1374.16
-1372.7
-1369.33
-1364.41
-1358.39
-1351.76
-1344.93
-1338.26
-1332.02
-1326.43
-1321.63
-1317.7
-1314.71
-1312.7
-1311.69
-1367.88
-1366.85
-1364.28
-1360.43
-1355.64
-1350.27
-1344.66
-1339.09
-1333.83
-1329.07
-1324.93
-1321.53
-1318.92
-1317.16
-1316.27
-1362.75
-1362.05
-1360.1
-1357.08
-1353.26
-1348.91
-1344.31
-1339.69
-1335.27
-1331.23
-1327.7
-1324.77
-1322.52
-1320.99
-1320.21
-1358.53
-1358.09
-1356.62
-1354.26
-1351.22
-1347.7
-1343.93
-1340.11
-1336.42
-1333.01
-1330.01
-1327.51
-1325.58
-1324.26
-1323.59
-1355.05
-1354.81
-1353.72
-1351.89
-1349.47
-1346.64
-1343.56
-1340.41
-1337.34
-1334.48
-1331.95
-1329.83
-1328.18
-1327.05
-1326.48
-1352.17
-1352.08
-1351.3
-1349.89
-1347.98
-1345.71
-1343.21
-1340.62
-1338.08
-1335.7
-1333.57
-1331.78
-1330.38
-1329.42
-1328.94
-1349.78
-1349.82
-1349.28
-1348.21
-1346.72
-1344.91
-1342.89
-1340.77
-1338.68
-1336.7
-1334.93
-1333.43
-1332.25
-1331.44
-1331.03
-1347.79
-1347.93
-1347.59
-1346.8
-1345.65
-1344.21
-1342.59
-1340.88
-1339.16
-1337.54
-1336.07
-1334.82
-1333.83
-1333.15
-1332.81
-1346.13
-1346.36
-1346.17
-1345.61
-1344.74
-1343.62
-1342.34
-1340.95
-1339.56
-1338.23
-1337.03
-1335.99
-1335.17
-1334.61
-1334.32
-1344.74
-1345.04
-1344.98
-1344.61
-1343.97
-1343.11
-1342.11
-1341.01
-1339.89
-1338.81
-1337.83
-1336.98
-1336.31
-1335.84
-1335.6
-1343.58
-1343.93
-1343.99
-1343.77
-1343.32
-1342.68
-1341.91
-1341.05
-1340.16
-1339.3
-1338.5
-1337.81
-1337.26
-1336.88
-1336.69
-1342.6
-1343
-1343.15
-1343.06
-1342.77
-1342.31
-1341.74
-1341.07
-1340.38
-1339.7
-1339.07
-1338.52
-1338.08
-1337.77
-1337.61
-1341.78
-1342.22
-1342.44
-1342.46
-1342.3
-1342
-1341.59
-1341.09
-1340.57
-1340.04
-1339.55
-1339.12
-1338.76
-1338.52
-1338.39
-1341.08
-1341.56
-1341.84
-1341.95
-1341.9
-1341.73
-1341.46
-1341.11
-1340.72
-1340.33
-1339.96
-1339.62
-1339.35
-1339.16
-1339.06
-1340.49
-1340.99
-1341.33
-1341.52
-1341.57
-1341.5
-1341.35
-1341.12
-1340.85
-1340.57
-1340.3
-1340.05
-1339.85
-1339.7
-1339.62
-1339.99
-1340.51
-1340.9
-1341.15
-1341.28
-1341.31
-1341.25
-1341.13
-1340.97
-1340.78
-1340.6
-1340.42
-1340.27
-1340.17
-1340.11
-1339.56
-1340.1
-1340.52