/*--------------------------------*- C++ -*----------------------------------*\
| =========                 |                                                 |
| \\      /  F ield         | OpenFOAM: The Open Source CFD Toolbox           |
|  \\    /   O peration     | Version:  5.x                                   |
|   \\  /    A nd           | Web:      www.OpenFOAM.org                      |
|    \\/     M anipulation  |                                                 |
\*---------------------------------------------------------------------------*/
FoamFile
{
    version     2.0;
    format      ascii;
    class       volScalarField;
    location    "7.1";
    object      T;
}
// * * * * * * * * * * * * * * * * * * * * * * * * * * * * * * * * * * * * * //

dimensions      [0 0 0 1 0 0 0];

internalField   nonuniform List<scalar> 
6300
(
12.8189
18.4484
24.0533
29.6173
35.1237
40.5561
45.8977
51.132
56.2426
61.2134
66.0289
70.6746
75.1374
79.406
83.4711
12.8269
18.4726
24.0938
29.674
35.1968
40.6456
46.0036
51.2541
56.3806
61.3666
66.1964
70.8551
75.329
79.6065
83.678
12.843
18.521
24.1745
29.7873
35.3429
40.8245
46.2154
51.4986
56.657
61.6739
66.5327
71.2178
75.7145
80.0102
84.0945
12.8672
18.5934
24.2955
29.9571
35.5619
41.093
46.5335
51.8661
57.0732
62.1372
67.0406
71.7663
76.2983
80.6224
84.7268
12.8992
18.6897
24.4563
30.183
35.8534
41.4508
46.958
52.3574
57.6306
62.7591
67.7238
72.5059
77.0873
81.4514
85.5843
12.9391
18.8095
24.6565
30.4644
36.2169
41.8975
47.4889
52.973
58.3308
63.5425
68.5873
73.4438
78.091
82.5088
86.6801
12.9866
18.9523
24.8953
30.8002
36.6513
42.4322
48.1256
53.7132
59.1753
64.4907
69.6366
74.5885
79.3212
83.8098
88.0323
13.0415
19.1174
25.1715
31.1891
37.1549
43.053
48.8665
54.577
60.1644
65.6063
70.8774
75.9497
80.7926
85.3741
89.6645
13.1036
19.3039
25.4836
31.6289
37.7251
43.7572
49.7089
55.5622
61.2971
66.8904
72.3147
77.5378
82.5223
87.2266
91.6086
13.1723
19.5105
25.8296
32.1167
38.3583
44.5404
50.6479
56.664
62.5694
68.341
73.9505
79.3618
84.5294
89.3981
93.9067
13.2472
19.7359
26.2071
32.6492
39.05
45.3969
51.6767
57.8745
63.9732
69.9515
75.782
81.4266
86.8323
91.9263
96.6171
13.3278
19.9783
26.6131
33.2219
39.7942
46.3192
52.7859
59.1823
65.4951
71.7075
77.7966
83.7275
89.4439
94.8545
99.8216
13.4135
20.2358
27.0445
33.8303
40.5845
47.2984
53.9635
60.5718
67.1151
73.5843
79.9667
86.2399
92.3579
98.2229
103.639
13.5036
20.5067
27.498
34.4695
41.414
48.3248
55.1962
62.0243
68.807
75.5453
82.2432
88.9045
95.5215
102.037
108.235
13.5976
20.7892
27.9704
35.1347
42.2759
49.389
56.4706
63.5199
70.5407
77.5442
84.5534
91.6101
98.7831
106.165
113.772
87.0053
90.0702
92.9867
95.7557
98.3798
100.863
103.209
105.426
107.519
109.497
111.368
113.14
114.823
116.424
117.954
119.42
120.832
122.198
123.525
124.822
126.097
127.355
128.604
129.849
131.096
132.349
133.611
134.887
136.178
137.485
138.81
140.151
141.509
142.881
144.266
145.663
147.067
148.477
149.89
151.301
152.708
154.106
155.492
156.86
158.208
159.531
160.826
162.087
163.313
164.499
165.644
166.743
167.795
168.796
169.743
170.634
171.464
172.23
172.929
173.556
174.109
174.582
174.971
175.272
175.481
175.591
175.598
175.495
175.274
174.929
174.452
173.832
173.062
172.131
171.029
169.745
168.269
166.588
164.692
162.57
160.209
157.6
154.732
151.596
148.184
144.489
140.506
136.233
131.669
126.816
87.2151
90.2807
93.1957
95.9611
98.5796
101.055
103.393
105.599
107.682
109.648
111.506
113.266
114.935
116.524
118.041
119.494
120.894
122.248
123.564
124.851
126.115
127.364
128.604
129.842
131.082
132.329
133.588
134.86
136.149
137.456
138.78
140.123
141.482
142.857
144.246
145.645
147.054
148.468
149.886
151.302
152.715
154.119
155.51
156.885
158.239
159.567
160.867
162.133
163.363
164.554
165.703
166.806
167.862
168.867
169.819
170.714
171.55
172.321
173.026
173.659
174.217
174.696
175.092
175.4
175.616
175.735
175.751
175.657
175.448
175.114
174.649
174.044
173.288
172.372
171.285
170.017
168.557
166.892
165.013
162.907
160.562
157.968
155.113
151.989
148.587
144.898
140.919
136.647
132.079
127.22
87.638
90.7048
93.6166
96.3746
98.9816
101.442
103.762
105.947
108.007
109.949
111.782
113.516
115.16
116.722
118.214
119.642
121.017
122.348
123.641
124.906
126.15
127.381
128.604
129.826
131.053
132.289
133.539
134.805
136.09
137.395
138.72
140.065
141.428
142.808
144.203
145.61
147.027
148.45
149.877
151.304
152.728
154.143
155.547
156.934
158.3
159.64
160.95
162.226
163.465
164.664
165.82
166.932
167.996
169.01
169.971
170.876
171.721
172.503
173.219
173.863
174.433
174.924
175.333
175.655
175.886
176.021
176.054
175.981
175.793
175.484
175.044
174.465
173.738
172.852
171.796
170.56
169.132
167.501
165.655
163.581
161.268
158.704
155.878
152.778
149.395
145.722
141.751
137.48
132.907
128.034
88.2801
91.3489
94.2558
97.002
99.5911
102.028
104.32
106.473
108.498
110.403
112.198
113.892
115.496
117.02
118.472
119.863
121.201
122.496
123.755
124.988
126.201
127.403
128.6
129.799
131.006
132.225
133.462
134.718
135.997
137.3
138.626
139.975
141.345
142.733
144.138
145.556
146.985
148.422
149.863
151.306
152.746
154.18
155.603
157.009
158.393
159.75
161.076
162.366
163.618
164.829
165.997
167.12
168.196
169.223
170.197
171.117
171.978
172.776
173.508
174.169
174.756
175.265
175.692
176.034
176.287
176.446
176.507
176.463
176.308
176.034
175.633
175.095
174.411
173.57
172.562
171.374
169.995
168.414
166.618
164.595
162.331
159.814
157.03
153.969
150.618
146.968
143.012
138.743
134.161
129.267
89.1513
92.2229
95.1227
97.8523
100.416
102.82
105.072
107.181
109.158
111.012
112.754
114.395
115.945
117.415
118.815
120.155
121.443
122.69
123.903
125.092
126.264
127.428
128.589
129.757
130.936
132.132
133.35
134.594
135.865
137.165
138.494
139.85
141.229
142.63
144.048
145.482
146.927
148.381
149.841
151.305
152.769
154.228
155.677
157.109
158.518
159.899
161.247
162.556
163.825
165.051
166.233
167.37
168.461
169.504
170.497
171.437
172.319
173.139
173.893
174.576
175.186
175.717
176.169
176.536
176.817
177.008
177.103
177.099
176.987
176.762
176.413
175.93
175.305
174.525
173.579
172.456
171.144
169.631
167.904
165.949
163.753
161.301
158.578
155.572
152.267
148.651
144.716
140.453
135.86
130.938
90.2659
93.3412
96.231
98.9379
101.467
103.827
106.026
108.077
109.99
111.777
113.451
115.023
116.505
117.907
119.241
120.515
121.741
122.927
124.082
125.215
126.335
127.449
128.566
129.692
130.836
132.002
133.197
134.424
135.687
136.985
138.319
139.684
141.078
142.496
143.932
145.385
146.85
148.325
149.809
151.3
152.793
154.285
155.769
157.236
158.68
160.092
161.466
162.799
164.087
165.33
166.527
167.681
168.789
169.853
170.868
171.833
172.742
173.59
174.373
175.084
175.721
176.28
176.759
177.157
177.471
177.7
177.838
177.882
177.826
177.661
177.378
176.966
176.414
175.712
174.846
173.805
172.577
171.151
169.511
167.645
165.537
163.171
160.531
157.598
154.357
150.791
146.886
142.634
138.029
133.071
91.6431
94.723
97.5994
100.276
102.759
105.06
107.191
109.166
110.998
112.702
114.29
115.777
117.175
118.494
119.746
120.942
122.091
123.204
124.288
125.353
126.409
127.463
128.523
129.599
130.698
131.827
132.992
134.2
135.452
136.75
138.092
139.473
140.888
142.328
143.789
145.264
146.752
148.252
149.763
151.285
152.815
154.349
155.878
157.392
158.881
160.333
161.74
163.099
164.408
165.668
166.88
168.05
169.177
170.263
171.307
172.304
173.247
174.131
174.948
175.693
176.361
176.951
177.461
177.892
178.243
178.514
178.703
178.805
178.815
178.724
178.522
178.197
177.736
177.127
176.358
175.417
174.292
172.97
171.439
169.684
167.688
165.432
162.898
160.064
156.909
153.411
149.553
145.319
140.701
135.698
93.3087
96.3945
99.2523
101.887
104.31
106.535
108.578
110.456
112.187
113.788
115.273
116.656
117.952
119.173
120.329
121.431
122.491
123.516
124.516
125.502
126.48
127.461
128.454
129.468
130.511
131.593
132.722
133.905
135.146
136.446
137.803
139.209
140.655
142.128
143.618
145.12
146.632
148.156
149.695
151.251
152.826
154.413
156.003
157.58
159.128
160.631
162.079
163.467
164.794
166.067
167.291
168.472
169.618
170.729
171.807
172.844
173.833
174.762
175.623
176.406
177.109
177.731
178.272
178.736
179.125
179.441
179.685
179.854
179.943
179.941
179.837
179.617
179.264
178.767
178.112
177.287
176.283
175.086
173.685
172.064
170.205
168.089
165.692
162.988
159.949
156.546
152.755
148.552
143.924
138.866
95.2978
98.391
101.222
103.801
106.142
108.266
110.197
111.954
113.561
115.036
116.396
117.658
118.834
119.939
120.984
121.979
122.934
123.859
124.763
125.654
126.543
127.439
128.35
129.289
130.264
131.288
132.371
133.522
134.749
136.055
137.437
138.884
140.377
141.896
143.426
144.957
146.491
148.034
149.596
151.187
152.812
154.468
156.14
157.805
159.435
161.004
162.498
163.914
165.255
166.531
167.755
168.942
170.101
171.239
172.358
173.449
174.498
175.487
176.401
177.229
177.968
178.619
179.188
179.681
180.105
180.467
180.769
181.013
181.194
181.3
181.315
181.22
180.996
180.628
180.103
179.412
178.544
177.491
176.241
174.779
173.088
171.145
168.922
166.388
163.506
160.237
156.544
152.394
147.761
142.637
97.6587
100.761
103.553
106.052
108.282
110.274
112.06
113.666
115.12
116.444
117.657
118.776
119.816
120.789
121.706
122.579
123.417
124.228
125.022
125.807
126.592
127.388
128.204
129.051
129.943
130.893
131.915
133.024
134.234
135.551
136.973
138.486
140.056
141.645
143.225
144.785
146.33
147.878
149.45
151.069
152.75
154.494
156.283
158.076
159.822
161.479
163.026
164.463
165.802
167.063
168.27
169.444
170.607
171.772
172.943
174.108
175.243
176.315
177.297
178.175
178.947
179.621
180.207
180.718
181.169
181.571
181.932
182.258
182.546
182.783
182.945
183.002
182.93
182.709
182.329
181.783
181.067
180.174
179.095
177.819
176.328
174.597
172.596
170.284
167.614
164.533
160.987
156.924
152.302
147.099
100.461
103.573
106.304
108.686
110.761
112.577
114.175
115.594
116.863
118.008
119.049
120.005
120.889
121.713
122.489
123.226
123.932
124.617
125.288
125.953
126.622
127.303
128.007
128.745
129.534
130.388
131.329
132.378
133.558
134.889
136.376
137.999
139.702
141.403
143.049
144.629
146.161
147.681
149.231
150.856
152.59
154.45
156.414
158.409
160.331
162.105
163.707
165.148
166.456
167.668
168.823
169.958
171.105
172.292
173.529
174.804
176.072
177.265
178.335
179.266
180.062
180.742
181.326
181.838
182.298
182.726
183.14
183.552
183.966
184.367
184.718
184.966
185.071
185.013
184.787
184.395
183.838
183.117
182.229
181.163
179.906
178.434
176.711
174.69
172.308
169.493
166.168
162.253
157.672
152.379
103.81
106.928
109.555
111.756
113.61
115.187
116.546
117.732
118.78
119.716
120.561
121.332
122.042
122.703
123.323
123.911
124.475
125.022
125.558
126.091
126.629
127.18
127.754
128.364
129.024
129.755
130.582
131.538
132.661
133.997
135.577
137.393
139.345
141.233
142.963
144.537
146.005
147.434
148.9
150.479
152.245
154.251
156.493
158.843
161.046
162.974
164.615
166.017
167.241
168.35
169.401
170.447
171.541
172.731
174.054
175.505
177.005
178.387
179.569
180.544
181.34
181.994
182.545
183.025
183.466
183.895
184.343
184.837
185.398
186.017
186.634
187.13
187.439
187.552
187.479
187.237
186.84
186.297
185.61
184.777
183.788
182.624
181.251
179.611
177.619
175.182
172.195
168.535
164.064
158.672
107.886
110.988
113.414
115.322
116.852
118.108
119.163
120.066
120.853
121.55
122.175
122.743
123.263
123.746
124.199
124.627
125.038
125.436
125.828
126.218
126.612
127.019
127.446
127.904
128.408
128.979
129.645
130.45
131.455
132.748
134.435
136.587
139.073
141.285
143.098
144.594
145.898
147.13
148.401
149.828
151.547
153.708
156.409
159.484
162.154
164.249
165.863
167.136
168.187
169.11
169.979
170.862
171.832
172.975
174.387
176.13
178.099
179.791
181.096
182.074
182.814
183.39
183.859
184.264
184.643
185.031
185.473
186.022
186.739
187.664
188.72
189.554
190.086
190.352
190.407
190.295
190.046
189.676
189.196
188.61
187.916
187.109
186.168
185.032
183.564
181.657
179.187
175.976
171.778
166.312
113.05
116.017
118.016
119.429
120.485
121.314
121.992
122.562
123.053
123.484
123.868
124.216
124.534
124.828
125.104
125.364
125.614
125.857
126.095
126.333
126.574
126.824
127.087
127.373
127.692
128.06
128.504
129.068
129.829
130.927
132.617
135.295
139.19
141.909
143.683
144.92
145.89
146.764
147.671
148.752
150.209
152.38
155.78
160.704
164.082
166.21
167.595
168.567
169.313
169.942
170.531
171.145
171.868
172.826
174.235
176.426
179.587
181.745
183.087
183.941
184.517
184.934
185.259
185.536
185.799
186.084
186.442
186.957
187.773
189.118
191.118
192.406
193.109
193.45
193.569
193.545
193.417
193.208
192.93
192.591
192.202
191.782
191.358
190.926
190.137
188.937
187.239
184.834
181.313
175.977
120.24
122.435
123.457
124.044
124.44
124.736
124.971
125.167
125.334
125.48
125.61
125.727
125.834
125.933
126.025
126.113
126.197
126.278
126.358
126.438
126.519
126.603
126.693
126.79
126.899
127.028
127.186
127.398
127.711
128.249
129.372
132.246
140.997
143.885
145.038
145.626
146.015
146.343
146.686
147.127
147.836
149.279
152.951
164.143
167.807
169.234
169.917
170.319
170.6
170.827
171.039
171.267
171.559
172.021
172.953
175.316
182.514
184.866
185.775
186.202
186.443
186.603
186.721
186.821
186.917
187.027
187.181
187.451
188.042
189.619
194.536
196.095
196.648
196.859
196.932
196.937
196.9
196.834
196.744
196.637
196.527
196.453
196.552
197.328
197.294
196.928
196.302
195.291
193.457
189.424
121.166
114.606
107.667
100.371
92.7428
84.8105
76.6037
68.1526
59.4878
50.6397
41.6382
32.5125
23.291
14.0016
4.67169
121.559
114.982
108.021
100.699
93.0437
85.0823
76.8454
68.364
59.6691
50.7915
41.7611
32.6071
23.3581
14.0416
4.685
122.349
115.736
108.731
101.359
93.6473
85.6267
77.329
68.7866
60.0312
51.0943
42.0061
32.7958
23.4918
14.1214
4.71151
123.547
116.879
109.806
102.355
94.5566
86.4453
78.0549
69.4197
60.5729
51.5467
42.3717
33.0771
23.691
14.2402
4.75099
125.168
118.423
111.255
103.694
95.7761
87.54
79.0231
70.2621
61.2921
52.1462
42.8555
33.4489
23.954
14.397
4.80308
127.235
120.388
113.092
105.385
97.3111
88.9127
80.2326
71.311
62.1851
52.8889
43.4536
33.9079
24.2784
14.5902
4.86725
129.777
122.797
115.336
107.441
99.167
90.5639
81.6809
72.562
63.2464
53.769
44.1608
34.4496
24.6608
14.8178
4.94279
132.837
125.684
118.008
109.874
101.348
92.4921
83.3624
74.0071
64.4673
54.778
44.9694
35.0678
25.0965
15.0769
5.02875
136.47
129.09
121.136
112.695
103.855
94.6911
85.2668
75.6343
65.8355
55.9045
45.8696
35.7544
25.5797
15.3639
5.12396
140.749
133.066
124.745
115.913
106.683
97.1472
87.3767
77.4252
67.3336
57.1331
46.8484
36.4995
26.1033
15.6746
5.22696
145.778
137.674
128.861
119.524
109.813
99.8347
89.6645
79.3538
68.9384
58.4441
47.8899
37.2907
26.6585
16.0038
5.33605
151.707
142.988
133.495
123.506
113.206
102.711
92.0899
81.3843
70.6198
59.813
48.9748
38.1135
27.2353
16.3456
5.44928
158.749
149.072
138.622
127.794
116.791
105.71
94.5967
83.4709
72.3413
61.2112
50.0813
38.9519
27.8227
16.6936
5.56455
167.214
155.923
144.122
132.253
120.45
108.738
97.1128
85.5586
74.061
62.6069
51.1857
39.7888
28.4092
17.0411
5.67965
177.404
163.28
149.684
136.642
124.012
111.677
99.5543
87.587
75.7347
63.9677
52.2642
40.6071
28.9832
17.3814
5.79243
13.6868
21.0572
28.4184
35.7646
43.0906
50.3921
57.6666
64.9151
72.1437
79.3688
86.6248
93.9806
101.578
109.738
119.35
13.7699
21.307
28.8357
36.3507
43.8473
51.3215
58.7707
66.1956
73.6017
81.0042
88.4363
95.9655
103.726
111.976
121.18
13.8549
21.5622
29.2619
36.9489
44.6187
52.267
59.8905
67.4877
75.0605
82.6171
90.1782
97.7876
105.53
113.55
122.026
13.9416
21.8224
29.6963
37.5584
45.4041
53.2285
61.0271
68.7951
76.5286
84.2248
91.8843
99.515
107.139
114.802
122.561
14.0298
22.0873
30.1383
38.1786
46.2032
54.2069
62.1834
70.1249
78.0208
85.8561
93.6082
101.244
108.719
115.985
123.029
14.1193
22.3562
30.5874
38.8088
47.0159
55.2029
63.3627
71.4847
79.5533
87.5429
95.4104
103.083
110.441
117.32
123.58
14.2101
22.6287
31.0426
39.4483
47.8415
56.2167
64.5666
72.88
81.1389
89.3125
97.3457
105.136
112.493
119.082
124.439
14.3018
22.9042
31.5031
40.0957
48.6784
57.2469
65.7945
74.3114
82.7816
91.1774
99.4472
107.488
115.077
121.695
126.172
14.3942
23.1819
31.9674
40.749
49.5243
58.2902
67.0422
75.7736
84.4741
93.1274
101.705
110.152
118.331
125.791
130.573
14.487
23.4608
32.4339
41.4059
50.3757
59.3419
68.3027
77.2554
86.1974
95.1276
104.052
112.999
122.083
131.745
143.966
14.5798
23.7397
32.9007
42.0635
51.2284
60.3961
69.5671
78.7428
87.927
97.1299
106.379
115.748
125.429
135.918
148.398
14.6722
24.0176
33.3657
42.7186
52.0782
61.4467
70.8268
80.2226
89.6414
99.0975
108.621
118.278
128.211
138.705
150.207
14.7639
24.2931
33.8269
43.3683
52.9207
62.4878
72.0738
81.6845
91.3279
101.016
110.768
120.614
130.6
140.789
151.224
14.8544
24.5652
34.2822
44.0096
53.752
63.5143
73.3021
83.122
92.9813
102.888
112.846
122.848
132.846
142.699
152.123
14.9434
24.8326
34.7296
44.6396
54.5682
64.5216
74.5065
84.5301
94.5998
104.721
114.892
125.083
135.189
144.903
153.446
15.0304
25.0943
35.1673
45.2557
55.3661
65.5057
75.6823
85.9042
96.1802
106.518
116.92
127.372
137.802
147.917
156.423
15.1153
25.3494
35.5938
45.8557
56.1426
66.4628
76.8248
87.2388
97.7155
108.268
118.912
129.675
140.629
152.044
165.162
15.1977
25.5968
36.0074
46.4373
56.895
67.3891
77.9297
88.5277
99.1961
109.951
120.818
131.842
143.134
154.984
168.114
15.2773
25.836
36.407
46.9989
57.6207
68.2818
78.9929
89.7658
100.614
111.555
122.611
133.819
145.248
157.031
169.387
15.3539
26.0661
36.7914
47.5388
58.3178
69.1383
80.0115
90.9495
101.966
113.076
124.296
135.64
147.112
158.678
170.215
15.4275
26.2869
37.1599
48.0559
58.9848
69.9568
80.9833
92.0766
103.25
114.518
125.891
137.369
148.909
160.34
171.177
15.4977
26.4977
37.5118
48.5494
59.6205
70.7358
81.9068
93.1459
104.467
115.884
127.411
139.052
150.777
162.41
173.125
15.5646
26.6985
37.8466
49.0185
60.2243
71.4747
82.7812
94.1563
105.614
117.172
128.849
140.674
152.704
165.114
178.677
15.6281
26.8891
38.1642
49.4632
60.796
72.1731
83.606
95.107
106.691
118.374
130.181
142.15
154.364
167.014
180.552
15.6883
27.0694
38.4646
49.8834
61.3355
72.8312
84.3816
95.9983
107.695
119.487
131.396
143.454
155.718
168.294
181.339
15.745
27.2397
38.748
50.2794
61.8435
73.4499
85.1091
96.8321
108.63
120.517
132.505
144.611
156.851
169.244
181.787
15.7985
27.3999
39.0147
50.6519
62.3207
74.0303
85.7906
97.6113
109.502
121.473
133.529
145.671
157.876
170.084
182.17
15.8487
27.5505
39.2652
51.0015
62.7681
74.574
86.4282
98.3396
110.317
122.367
134.492
146.682
158.895
171.006
182.703
15.8959
27.6917
39.5
51.329
63.1871
75.0826
87.0241
99.02
111.078
123.206
135.406
147.675
159.982
172.211
183.857
15.94
27.8239
39.7197
51.6353
63.5786
75.5577
87.5804
99.6549
111.789
123.991
136.27
148.637
161.12
173.818
187.196
15.9812
27.9474
39.925
51.9213
63.9441
76.0007
88.0988
100.246
112.45
124.721
137.069
149.515
162.104
174.949
188.322
16.0197
28.0627
40.1164
52.1881
64.2847
76.4134
88.5812
100.795
113.063
125.393
137.796
150.29
162.906
175.708
188.791
16.0556
28.1701
40.2948
52.4364
64.6017
76.7972
89.0295
101.305
113.631
126.013
138.458
150.976
163.576
176.269
189.056
16.0889
28.27
40.4607
52.6674
64.8964
77.1538
89.4458
101.778
114.156
126.585
139.067
151.602
164.178
176.761
189.279
16.1199
28.3628
40.6147
52.8818
65.17
77.4849
89.8321
102.217
114.644
127.117
139.636
152.196
164.772
177.293
189.584
16.1486
28.4488
40.7576
53.0807
65.4236
77.7918
90.1903
102.624
115.097
127.614
140.174
152.775
165.4
177.98
190.234
16.1752
28.5284
40.8898
53.2647
65.6584
78.0759
90.5221
103.002
115.519
128.077
140.681
153.335
166.054
178.891
192.106
16.1998
28.602
41.0119
53.4347
65.8753
78.3385
90.8288
103.351
115.908
128.506
141.149
153.846
166.622
179.536
192.741
16.2224
28.6697
41.1243
53.5912
66.0751
78.5805
91.1116
103.673
116.268
128.9
141.575
154.3
167.09
179.976
193.009
16.2431
28.7318
41.2275
53.735
66.2586
78.8028
91.3716
103.969
116.598
129.263
141.965
154.706
167.487
180.309
193.166
16.2621
28.7886
41.3219
53.8664
66.4265
79.0064
91.6099
104.241
116.902
129.596
142.323
155.079
167.852
180.613
193.307
16.2794
28.8403
41.4077
53.986
66.5794
79.1917
91.8271
104.489
117.181
129.904
142.658
155.438
168.223
180.959
193.515
16.295
28.887
41.4853
54.0941
66.7175
79.3595
92.0238
104.714
117.434
130.187
142.972
155.789
168.623
181.425
193.982
16.3089
28.9288
41.5549
54.1911
66.8414
79.5099
92.2004
104.917
117.663
130.444
143.262
156.124
169.042
182.057
195.36
16.3213
28.966
41.6166
54.2771
66.9513
79.6433
92.3568
105.096
117.866
130.671
143.518
156.417
169.391
182.486
195.813
16.3322
28.9986
41.6708
54.3525
67.0475
79.7599
92.4934
105.252
118.041
130.866
143.734
156.656
169.65
182.748
195.988
16.3416
29.0268
41.7175
54.4175
67.1304
79.86
92.6101
105.385
118.189
131.028
143.909
156.84
169.835
182.907
196.067
16.3496
29.0507
41.7571
54.4724
67.2002
79.944
92.7076
105.495
118.311
131.159
144.045
156.977
169.96
183.002
196.103
16.3562
29.0704
41.7897
54.5175
67.2573
80.0125
92.7866
105.583
118.406
131.26
144.147
157.074
170.042
183.052
196.107
16.3615
29.0861
41.8156
54.5533
67.3024
80.0661
92.8477
105.651
118.478
131.333
144.219
157.138
170.089
183.067
196.051
16.3655
29.098
41.8351
54.58
67.3358
80.1054
92.892
105.698
118.528
131.383
144.265
157.176
170.114
183.073
196.037
16.3682
29.1061
41.8484
54.5981
67.3581
80.1312
92.9202
105.728
118.557
131.41
144.288
157.192
170.121
183.071
196.031
16.3698
29.1107
41.8558
54.6079
67.3698
80.144
92.9333
105.74
118.567
131.416
144.289
157.187
170.11
183.057
196.023
16.3702
29.1119
41.8576
54.6099
67.3714
80.1446
92.932
105.736
118.559
131.403
144.269
157.16
170.078
183.025
196.006
16.3695
29.1098
41.8539
54.6042
67.3633
80.1334
92.9169
105.716
118.533
131.371
144.229
157.112
170.021
182.965
195.965
16.3678
29.1047
41.8451
54.5914
67.346
80.111
92.8887
105.681
118.491
131.32
144.169
157.04
169.935
182.861
195.858
16.3651
29.0966
41.8314
54.5717
67.3198
80.0779
92.8479
105.632
118.433
131.252
144.09
156.949
169.824
182.704
195.534
16.3615
29.0856
41.8129
54.5454
67.2853
80.0344
92.7949
105.569
118.359
131.166
143.994
156.841
169.706
182.577
195.417
16.357
29.072
41.79
54.5129
67.2426
79.9811
92.7303
105.492
118.269
131.064
143.879
156.718
169.581
182.465
195.356
16.3516
29.0558
41.7628
54.4743
67.1923
79.9183
92.6544
105.402
118.165
130.944
143.745
156.573
169.436
182.343
195.301
16.3454
29.0372
41.7316
54.4302
67.1347
79.8467
92.5678
105.3
118.045
130.807
143.589
156.4
169.255
182.182
195.22
16.3385
29.0163
41.6965
54.3807
67.0702
79.7666
92.4712
105.186
117.911
130.651
143.408
156.192
169.02
181.938
195.056
16.3308
28.9932
41.6578
54.3261
66.9994
79.6788
92.3655
105.06
117.765
130.479
143.206
155.948
168.717
181.552
194.638
16.3224
28.968
41.6157
54.2668
66.9226
79.5839
92.2516
104.926
117.608
130.296
142.989
155.682
168.363
180.986
193.361
16.3134
28.9408
41.5703
54.2031
66.8403
79.4825
92.1304
104.784
117.443
130.105
142.767
155.42
168.044
180.588
192.938
16.3036
28.9116
41.5217
54.135
66.7526
79.3751
92.0028
104.636
117.272
129.911
142.548
155.175
167.775
180.321
192.765
16.2933
28.8805
41.4699
54.0627
66.6598
79.2619
91.8692
104.481
117.097
129.715
142.332
154.942
167.54
180.117
192.667
16.2822
28.8474
41.4148
53.986
66.5618
79.143
91.7297
104.322
116.918
129.516
142.116
154.715
167.315
179.928
192.578
16.2704
28.812
41.3563
53.9046
66.4583
79.018
91.5839
104.156
116.733
129.313
141.896
154.481
167.076
179.707
192.448
16.2578
28.7744
41.294
53.8183
66.3488
78.8864
91.4314
103.984
116.542
129.105
141.67
154.236
166.806
179.406
192.156
16.2443
28.7341
41.2274
53.7263
66.2326
78.7474
91.2713
103.804
116.345
128.891
141.439
153.983
166.512
178.994
191.305
16.2298
28.6907
41.1559
53.6278
66.1086
78.5998
91.1024
103.616
116.14
128.672
141.207
153.736
166.244
178.696
191.016
16.2141
28.6439
41.0787
53.5217
65.9755
78.4421
90.9228
103.418
115.927
128.447
140.973
153.499
166.01
178.484
190.89
16.197
28.5929
40.995
53.4068
65.8317
78.2723
90.7305
103.207
115.702
128.213
140.737
153.267
165.796
178.314
190.813
16.1783
28.5372
40.9034
53.2813
65.675
78.0879
90.5227
102.981
115.463
127.967
140.491
153.031
165.584
178.152
190.743
16.1577
28.4759
40.8027
53.1435
65.5031
77.8861
90.2958
102.735
115.204
127.703
140.229
152.781
165.357
177.967
190.647
16.1349
28.4081
40.6913
52.991
65.3132
77.6632
90.0458
102.464
114.921
127.416
139.946
152.509
165.101
177.728
190.455
16.1096
28.3328
40.5675
52.8215
65.1019
77.4154
89.7679
102.164
114.608
127.099
139.636
152.212
164.814
177.415
189.929
16.0814
28.2487
40.4294
52.6322
64.8657
77.1381
89.4568
101.828
114.258
126.747
139.294
151.891
164.522
177.155
189.73
16.0499
28.1548
40.2748
52.4201
64.6006
76.8262
89.1062
101.449
113.862
126.35
138.912
151.542
164.224
176.93
189.622
16.0147
28.0498
40.1017
52.182
64.3023
76.474
88.7089
101.018
113.412
125.897
138.478
151.151
163.903
176.709
189.537
15.9754
27.9324
39.9079
51.9148
63.9662
76.0756
88.2571
100.525
112.894
125.374
137.976
150.7
163.538
176.467
189.45
15.9316
27.8014
39.6914
51.6153
63.5878
75.6246
87.7423
99.959
112.293
124.763
137.384
150.166
163.105
176.181
189.349
15.883
27.6559
39.4502
51.2805
63.1629
75.1149
87.156
99.3081
111.595
124.043
136.676
149.516
162.57
175.823
189.223
15.8293
27.4951
39.1829
50.9081
62.6877
74.541
86.4898
98.5601
110.782
123.189
135.82
148.712
161.892
175.359
189.055
15.7704
27.3185
38.8885
50.4963
62.1595
73.8982
85.7365
97.7036
109.836
122.176
134.778
147.703
161.009
174.729
188.818
15.7063
27.126
38.567
50.0448
61.5768
73.1838
84.8908
96.7296
108.741
120.977
133.508
146.424
159.832
173.837
188.459
15.6372
26.9181
38.2189
49.554
60.9403
72.3976
83.9509
95.6326
107.486
119.569
131.967
144.797
158.234
172.51
187.847
15.5634
26.6958
37.8459
49.0264
60.2524
71.5422
82.919
94.4134
106.067
117.94
130.119
142.745
156.048
170.441
186.629
15.4854
26.4608
37.4507
48.4657
59.5184
70.6242
81.8027
93.0803
104.493
116.093
127.958
140.216
153.1
167.118
183.705
187.665
169.536
154.272
140.283
127.003
114.173
101.647
89.3384
77.1882
65.155
53.2085
41.3256
29.4882
17.6812
5.89184
190.909
173.229
157.552
143.098
129.409
116.227
103.396
90.8186
78.4267
66.1727
54.0216
41.9463
29.9255
17.9412
5.97811
192.26
175.527
159.981
145.377
131.459
118.034
104.968
92.1678
79.5674
67.1174
54.7807
42.5283
30.3367
18.1862
6.05946
192.939
176.998
161.75
147.177
133.163
119.588
106.352
93.3765
80.6019
67.9819
55.4801
43.067
30.7186
18.4142
6.13527
193.335
177.982
163.048
148.586
134.56
120.905
107.553
94.4435
81.5272
68.7628
56.1164
43.5599
31.0694
18.6241
6.20515
193.594
178.672
164.014
149.688
135.696
122.009
108.582
95.3743
82.3452
69.4602
56.6891
44.006
31.3882
18.8153
6.26889
193.775
179.173
164.745
150.555
136.619
122.928
109.458
96.1787
83.0613
70.0768
57.1993
44.4057
31.675
18.9879
6.32646
193.908
179.548
165.309
151.241
137.368
123.691
110.198
96.869
83.6831
70.6174
57.65
44.7608
31.9308
19.1422
6.37802
194.009
179.836
165.749
151.788
137.977
124.323
110.821
97.458
84.2196
71.088
58.0452
45.0738
32.1572
19.279
6.42381
194.087
180.061
166.097
152.228
138.475
124.847
111.344
97.9586
84.6801
71.4952
58.3893
45.3478
32.3561
19.3996
6.4642
194.148
180.239
166.376
152.584
138.883
125.282
111.783
98.3827
85.0737
71.8458
58.6874
45.5863
32.5298
19.5051
6.49959
194.197
180.382
166.6
152.874
139.218
125.643
112.151
98.7412
85.409
72.1464
58.9444
45.7928
32.6807
19.597
6.53043
194.236
180.497
166.782
153.11
139.494
125.943
112.459
99.0439
85.6938
72.4034
59.1651
45.9708
32.8111
19.6766
6.55717
194.268
180.591
166.931
153.305
139.723
126.192
112.717
99.299
85.9354
72.6223
59.354
46.1236
32.9235
19.7452
6.58025
194.294
180.667
167.053
153.465
139.912
126.4
112.934
99.5139
86.1399
72.8085
59.5152
46.2545
33.0198
19.8042
6.60009
194.316
180.73
167.154
153.598
140.069
126.573
113.115
99.6948
86.3128
72.9665
59.6525
46.3662
33.1023
19.8547
6.61711
194.334
180.782
167.237
153.708
140.2
126.718
113.267
99.8471
86.4588
73.1004
59.7692
46.4614
33.1726
19.8979
6.63165
194.348
180.825
167.306
153.799
140.309
126.839
113.394
99.9753
86.5821
73.2137
59.8681
46.5423
33.2325
19.9346
6.64406
194.36
180.861
167.364
153.875
140.4
126.941
113.502
100.083
86.6861
73.3096
59.952
46.611
33.2834
19.9659
6.65462
194.37
180.89
167.412
153.939
140.476
127.026
113.591
100.174
86.7738
73.3906
60.0231
46.6692
33.3267
19.9925
6.6636
194.379
180.915
167.452
153.992
140.539
127.097
113.667
100.25
86.8478
73.4591
60.0832
46.7186
33.3634
20.0151
6.67122
194.386
180.936
167.485
154.036
140.593
127.157
113.73
100.315
86.9103
73.517
60.134
46.7604
33.3945
20.0343
6.67769
194.392
180.953
167.513
154.074
140.638
127.207
113.784
100.369
86.963
73.5659
60.1771
46.7958
33.4208
20.0505
6.68317
194.397
180.968
167.537
154.105
140.675
127.25
113.829
100.415
87.0076
73.6073
60.2135
46.8258
33.4432
20.0643
6.68783
194.401
180.98
167.556
154.131
140.707
127.285
113.867
100.454
87.0453
73.6423
60.2445
46.8513
33.4621
20.076
6.69179
194.404
180.991
167.573
154.154
140.734
127.316
113.9
100.487
87.0773
73.6721
60.2707
46.873
33.4783
20.086
6.69515
194.407
180.999
167.587
154.173
140.757
127.342
113.927
100.515
87.1046
73.6975
60.2931
46.8914
33.492
20.0945
6.69802
194.41
181.007
167.6
154.189
140.777
127.364
113.951
100.538
87.1279
73.7192
60.3123
46.9072
33.5038
20.1017
6.70048
194.412
181.013
167.61
154.203
140.794
127.383
113.971
100.559
87.148
73.7379
60.3288
46.9208
33.514
20.108
6.70259
194.414
181.019
167.619
154.215
140.808
127.399
113.988
100.577
87.1655
73.7541
60.3431
46.9326
33.5228
20.1134
6.70443
194.416
181.024
167.627
154.226
140.821
127.414
114.004
100.593
87.1808
73.7683
60.3556
46.943
33.5305
20.1182
6.70603
194.417
181.029
167.635
154.236
140.833
127.427
114.018
100.607
87.1945
73.781
60.3668
46.9522
33.5373
20.1224
6.70746
194.419
181.033
167.641
154.245
140.844
127.439
114.03
100.62
87.2069
73.7925
60.3769
46.9604
33.5434
20.1262
6.70873
194.42
181.037
167.648
154.253
140.854
127.45
114.042
100.632
87.2184
73.8031
60.3861
46.968
33.5491
20.1296
6.7099
194.421
181.041
167.654
154.261
140.864
127.461
114.054
100.643
87.2293
73.813
60.3948
46.9751
33.5543
20.1328
6.71099
194.423
181.045
167.661
154.27
140.874
127.472
114.065
100.654
87.2399
73.8227
60.4032
46.9819
33.5593
20.1359
6.71201