/*--------------------------------*- C++ -*----------------------------------*\
| =========                 |                                                 |
| \\      /  F ield         | OpenFOAM: The Open Source CFD Toolbox           |
|  \\    /   O peration     | Version:  5.x                                   |
|   \\  /    A nd           | Web:      www.OpenFOAM.org                      |
|    \\/     M anipulation  |                                                 |
\*---------------------------------------------------------------------------*/
FoamFile
{
    version     2.0;
    format      ascii;
    class       volScalarField;
    location    "1.9";
    object      gradTy;
}
// * * * * * * * * * * * * * * * * * * * * * * * * * * * * * * * * * * * * * //

dimensions      [0 -1 0 1 0 0 0];

internalField   nonuniform List<scalar> 
6300
(
5903.13
15695.7
25447
35129.5
44715.1
54175.4
63481.5
72604.2
81514.1
90182
98579.5
106679
114455
121886
128953
20.1899
60.6809
101.493
142.8
184.71
227.239
270.272
313.528
356.53
398.572
438.723
475.842
508.653
535.844
556.219
33.5259
100.776
168.602
237.324
307.158
378.167
450.198
522.824
595.272
666.376
734.554
797.835
853.965
900.603
935.582
46.6616
140.29
234.808
330.725
428.417
528.052
629.507
732.268
835.324
937.069
1035.24
1126.93
1208.72
1276.97
1328.23
59.4903
178.906
299.602
422.335
547.711
676.09
807.477
941.379
1076.64
1211.28
1342.35
1465.86
1576.95
1670.24
1740.5
71.8808
216.235
362.343
511.282
663.974
821.086
982.89
1149.08
1318.53
1489.01
1656.93
1817.12
1962.89
2086.44
2179.9
83.6745
251.8
422.236
596.451
775.784
961.347
1153.87
1353.46
1559.3
1769.21
1979.14
2182.7
2370.92
2532.64
2655.83
94.6874
285.042
478.328
676.47
881.325
1094.6
1317.71
1551.51
1795.92
2049.29
2307.61
2563.49
2805.33
3017.22
3180.54
104.717
315.339
529.541
749.743
978.4
1217.96
1470.78
1738.87
2023.47
2324.32
2638.4
2958.19
3269.55
3550.22
3770.83
113.552
342.041
574.726
814.522
1064.52
1328.01
1608.51
1909.61
2234.67
2586
2963.35
3361.16
3764.3
4143.08
4450.83
120.994
364.53
612.77
869.061
1137.08
1420.98
1725.54
2056.3
2419.47
2821.52
3267.7
3758.61
4283.2
4806.76
5256.86
126.884
382.297
642.732
911.828
1193.7
1493.2
1816.29
2170.46
2565.28
3012.78
3527.14
4122.2
4802.91
5543.61
6244.76
131.121
395.022
664
941.773
1232.62
1541.76
1875.85
2243.86
2658.29
3137.01
3705.69
4399.91
5262.36
6319.72
7493.51
133.691
402.651
676.439
958.593
1253.2
1565.28
1901.4
2270.74
2686.88
3171.11
3758.53
4509.14
5526.6
6979.05
9048.31
134.675
405.433
680.48
962.911
1256.23
1564.67
1893.65
2250.71
2647.23
3101.85
3647.97
4351.26
5355.57
7021.22
10414.4
135084
140389
145424
150188
154685
158919
162899
166633
170134
173412
176481
179354
182046
184571
186941
189171
191275
193264
195151
196947
198664
200311
201898
203434
204926
206381
207805
209204
210580
211937
213277
214601
215910
217204
218481
219742
220985
222208
223409
224587
225739
226864
227958
229018
230044
231030
231976
232878
233735
234543
235301
236006
236657
237251
237784
238254
238658
238993
239253
239436
239537
239550
239472
239296
239016
238626
238118
237485
236718
235807
234741
233510
232101
230502
228699
226678
224425
221925
219161
216120
212785
209142
205176
200873
196223
191215
185841
180098
173985
167502
567.799
572.623
571.674
565.117
553.329
536.855
516.36
492.567
466.21
437.993
408.559
378.474
348.222
318.204
288.744
260.104
232.489
206.065
180.969
157.318
135.22
114.78
96.1007
79.2853
64.429
51.6122
40.8883
32.2692
25.7127
21.1141
18.3057
17.0672
17.1473
18.2927
20.2772
22.9252
26.1211
29.8038
33.9486
38.5409
43.5503
48.9118
54.5207
60.2418
65.9312
71.4646
76.7626
81.8085
86.6515
91.399
96.1979
101.211
106.591
112.463
118.914
125.984
133.683
142.005
150.946
160.528
170.807
181.882
193.889
206.991
221.363
237.171
254.561
273.642
294.477
317.082
341.43
367.455
395.066
424.148
454.562
486.139
518.665
551.86
585.357
618.681
651.239
682.31
711.057
736.553
757.82
773.895
783.899
787.117
783.071
771.581
955.411
963.565
961.725
950.2
929.682
901.169
865.855
825.028
779.977
731.92
681.957
631.043
579.982
529.432
479.918
431.855
385.566
341.309
299.294
259.703
222.707
188.476
157.183
129.006
104.118
82.6735
64.7827
50.4861
39.7267
32.3303
28.0006
26.3366
26.8739
29.1429
32.731
37.3297
42.7548
48.934
55.867
63.5707
72.0236
81.1261
90.6889
100.452
110.132
119.479
128.336
136.667
144.568
152.247
159.987
168.097
176.864
186.516
197.197
208.964
221.806
235.678
250.546
266.423
283.397
301.638
321.39
342.949
366.633
392.748
421.558
453.258
487.956
525.675
566.355
609.877
656.078
704.767
755.728
808.701
863.359
919.271
975.855
1032.35
1087.76
1140.88
1190.27
1234.32
1271.3
1299.49
1317.3
1323.43
1316.97
1297.6
1357.16
1368.81
1365.63
1348.13
1317.45
1275.17
1223.18
1163.46
1097.96
1028.48
956.61
883.709
810.893
739.055
668.892
600.942
535.613
473.222
414.027
358.254
306.118
257.847
213.685
173.897
138.758
108.527
83.4117
63.5201
48.8092
39.0419
33.7682
32.3474
34.0176
38.0044
43.6398
50.454
58.212
66.8874
76.5841
87.4296
99.4682
112.584
126.474
140.687
154.714
168.104
180.57
192.048
202.707
212.911
223.146
233.937
245.763
258.987
273.816
290.296
308.343
327.816
348.59
370.636
394.059
419.113
446.183
475.74
508.294
544.336
584.285
628.443
676.972
729.887
787.072
848.322
913.386
981.995
1053.87
1128.71
1206.12
1285.58
1366.36
1447.43
1527.44
1604.67
1677.04
1742.12
1797.29
1839.89
1867.39
1877.7
1869.35
1841.76
1779.92
1795.34
1790.07
1764.97
1721.82
1663.09
1591.57
1510.16
1421.62
1328.42
1232.69
1136.19
1040.34
946.209
854.629
766.205
681.382
600.491
523.796
451.53
383.932
321.27
263.86
212.069
166.307
126.992
94.4973
69.0735
50.7533
39.2636
33.9692
33.8887
37.8069
44.4734
52.8327
62.2006
72.3292
83.3509
95.6275
109.551
125.342
142.906
161.773
181.169
200.191
218.037
234.203
248.583
261.477
273.504
285.479
298.262
312.622
329.12
348.032
369.342
392.8
418.048
444.772
472.833
502.338
533.653
567.358
604.178
644.895
690.259
740.907
797.29
859.629
927.901
1001.88
1081.22
1165.53
1254.46
1347.69
1444.94
1545.86
1649.93
1756.35
1863.95
1971.04
2075.39
2174.19
2264.08
2341.31
2401.93
2442.15
2458.72
2449.33
2412.99
2231.97
2251.53
2242.97
2207.69
2148.55
2069.3
1974.1
1867.05
1751.9
1631.92
1509.81
1387.7
1267.24
1149.64
1035.77
926.237
821.446
721.68
627.151
538.054
454.61
377.106
305.921
241.54
184.554
135.619
95.3874
64.3846
42.8496
30.5525
26.6507
29.661
37.6274
48.4933
60.5617
72.8399
85.1483
97.995
112.288
128.968
148.651
171.338
196.297
222.175
247.346
270.376
290.39
307.243
321.478
334.157
346.631
360.299
376.387
395.757
418.775
445.274
474.659
506.134
539.008
572.926
607.986
644.724
684.021
726.977
774.772
828.54
889.236
957.525
1033.7
1117.65
1208.93
1306.92
1410.98
1520.66
1635.66
1755.83
1880.99
2010.8
2144.58
2281.11
2418.5
2554.02
2684.08
2804.19
2909.13
2993.23
3050.87
3077.03
3068.03
3022.18
2723.92
2748.12
2734.21
2684.66
2604.12
2498.4
2373.61
2235.5
2089.07
1938.45
1786.87
1636.8
1489.99
1347.68
1210.66
1079.43
954.27
835.327
722.689
616.446
516.749
423.86
338.202
260.387
191.233
131.743
83.0175
46.0939
21.6758
9.78565
9.41262
18.3305
33.3065
50.8157
68.0223
83.4692
97.2259
110.59
125.541
144.095
167.667
196.532
229.53
264.23
297.618
327.088
351.16
369.702
383.75
395.136
406.092
418.879
435.454
457.171
484.532
517.08
553.531
592.231
631.762
671.397
711.239
752.129
795.432
842.819
896.062
956.855
1026.64
1106.41
1196.57
1296.84
1406.32
1523.84
1648.34
1779.17
1916.17
2059.49
2209.38
2365.93
2528.8
2696.99
2868.57
3040.45
3208.22
3366.06
3506.86
3622.57
3704.83
3745.88
3739.7
3683.29
3270
3299.44
3276.63
3206.13
3095.81
2954.83
2792.18
2615.8
2432.15
2246.21
2061.67
1881.09
1706.18
1538
1377.13
1223.81
1078.08
939.836
808.964
685.362
569.038
460.164
359.154
266.728
183.968
112.338
53.6299
9.77334
-17.5587
-27.5857
-21.2237
-1.74335
25.3183
53.5534
77.9961
96.5109
109.846
120.879
133.583
151.971
179.038
215.747
260.287
308.147
353.505
391.543
419.864
438.606
449.824
456.702
462.885
471.973
487.085
510.423
542.787
583.228
629.131
677.093
724.327
769.527
812.942
856.014
900.917
950.181
1006.43
1072.17
1149.59
1240.27
1344.84
1462.7
1592.07
1730.64
1876.48
2028.72
2187.49
2353.6
2528.08
2711.84
2905.25
3107.86
3318.06
3532.65
3746.52
3952.32
4140.55
4299.89
4417.98
4482.57
4483.5
4415.17
3890.63
3925.85
3887.53
3784.78
3631.46
3442.27
3230.38
3006.41
2778.34
2551.81
2330.59
2117.05
1912.53
1717.66
1532.59
1357.14
1190.97
1033.62
884.659
743.699
610.501
485.052
367.658
259.068
160.596
74.2502
2.78415
-50.4127
-81.7813
-88.6248
-70.8182
-32.8025
15.571
61.6817
96.4345
116.938
125.71
128.688
133.368
147.275
176.448
223.606
286.186
355.588
419.849
469.91
502.277
518.258
522.062
519.182
515.41
516.302
526.784
550.586
589.323
641.417
701.673
762.907
819.726
870.128
915.037
957.16
1000.02
1047.38
1103.01
1170.55
1253.34
1354.02
1473.83
1611.83
1764.46
1926.81
2095.27
2268.71
2448.08
2635.46
2833.26
3043.66
3268.24
3507.61
3761
4025.68
4296.19
4563.65
4815.58
5036.38
5207.89
5310.65
5326.77
5244.94
4617.16
4657.92
4590.98
4436.03
4218.54
3962.19
3685.77
3402.77
3122.19
2849.64
2588.36
2339.93
2104.9
1883.14
1674.12
1477.07
1291.1
1115.3
948.802
790.833
640.79
498.328
363.481
236.836
119.769
14.7434
-74.3576
-142.017
-181.304
-185.144
-149.498
-78.7627
9.09465
86.1759
135.401
154.265
149.923
134.054
119.874
120.603
147.972
209.265
302.268
410.436
506.645
573.756
608.288
615.445
603.923
582.948
561.221
546.823
547.305
569.241
616.623
687.851
772.802
855.074
924.356
978.627
1021.13
1057.23
1092.61
1132.64
1182.42
1246.96
1331.31
1440.17
1576.62
1739.82
1922.82
2114.13
2306.82
2500.1
2697.06
2902.22
3120.19
3354.97
3609.82
3887.02
4187.55
4510.17
4850.09
5197.17
5535.25
5843.63
6096.61
6263.27
6310.89
6214.57
5502.48
5544.81
5420.9
5177.11
4861.35
4510.81
4150.44
3795.44
3454.28
3131.1
2827.46
2543.37
2278.04
2030.18
1798.33
1580.95
1376.5
1183.51
1000.6
826.499
660.115
500.597
347.459
200.785
61.5776
-67.7126
-182.389
-274.491
-331.878
-338.53
-278.717
-149.392
18.1192
150.764
218.066
224.99
190.711
136.971
84.8877
55.5497
70.6257
149.24
296.488
482.478
635.313
724.485
753.686
739.5
699.363
647.767
596.444
555.885
536.899
551.223
609.553
714.486
847.754
965.905
1050.56
1104.02
1136.41
1158.3
1178.45
1203.83
1240.51
1294.77
1373.91
1486.52
1640.8
1839.23
2069.13
2299.35
2517.4
2726.1
2934.09
3150.43
3382.75
3637.24
3919.04
4232.69
4582.08
4969.56
5393.44
5843.43
6297.42
6730.39
7109.37
7387.03
7501.98
7394.57
6648.07
6670.78
6423.16
6021.54
5554
5073.34
4607.14
4167.98
3760.26
3384.23
3038.2
2719.66
2425.84
2154.01
1901.57
1666.08
1445.29
1237.12
1039.62
850.964
669.473
493.608
322.06
153.925
-10.9475
-171.26
-322.968
-456.99
-555.548
-587.662
-508.07
-275.05
77.3024
309.39
387.619
354.99
259.469
137.449
17.097
-73.5108
-98.268
-9.67071
234.862
602.199
855.589
961.502
961.492
900.854
811.236
712.126
616.1
533.814
478.463
469.767
535.307
700.249
944.398
1124.89
1221.59
1259.7
1266.7
1261.78
1256.67
1258.64
1273.22
1306.64
1368.22
1472.77
1641.28
1893.23
2214.82
2501.99
2741.31
2952.95
3158.95
3375.44
3613.22
3879.97
4182.19
4526.66
4921.5
5376.29
5898.91
6483.62
7089.53
7694.58
8267.66
8744.73
9012.89
8920.03
8288.58
8185.67
7646.83
6960.58
6265.23
5614.74
5024.67
4495.04
4020.4
3593.99
3209.21
2860.2
2541.86
2249.83
1980.29
1729.95
1495.84
1275.3
1065.83
865.071
670.695
480.372
291.729
102.355
-90.0444
-287.194
-489.007
-690.544
-874.879
-997.628
-958.344
-572.538
309.662
689.559
716.791
575.535
366.372
135.514
-93.5313
-297.398
-430.392
-393.13
-3.61054
885.988
1288.21
1351.02
1256.57
1103.91
936.751
772.022
615.953
472.938
352.827
281.398
317.905
571.932
1132.68
1404.52
1476.96
1460.14
1414.11
1365.49
1324.68
1295.24
1278.73
1277.91
1300.61
1366.86
1521.55
1846.85
2410
2773.45
3004.97
3187.82
3368.6
3569.66
3801.81
4071.48
4384.34
4747.9
5174.37
5685.13
6314.71
7093.02
7882.61
8704.45
9563.85
10402.9
11043.3
11103.2
11117.7
10327.8
9082.34
7912.31
6911.51
6068.82
5354.86
4742.62
4210.88
3743.56
3328.51
2956.38
2619.85
2313.08
2031.25
1770.31
1526.75
1297.43
1079.42
869.902
666.003
464.654
262.389
55.094
-162.343
-396.444
-655.47
-948.882
-1282.9
-1640.93
-1907.61
-1584.85
1265.28
1577.5
1288.51
893.803
504.457
130.918
-240.461
-623.378
-1007.72
-1283.87
-962.24
1871.54
2209.49
1966.91
1635.4
1327.79
1058.69
819.382
596.944
379.023
157.032
-62.4549
-212.784
1.88227
1736.89
1971.22
1860.78
1702.57
1565.14
1457.89
1376.23
1313.12
1261.56
1215.22
1170.21
1133.47
1156.04
1457.86
2892.62
3234.73
3338.57
3425.52
3548.89
3718.91
3936.2
4200.57
4513.27
4878.3
5305.61
5822.59
6516.02
7685.81
8628.85
9659.84
10888.9
12346.5
13909.2
14867.5
17792.5
13125.6
10408.7
8619.92
7329.73
6337.19
5538.27
4874.02
4308.34
3817.67
3385.81
3001.1
2654.84
2340.27
2051.99
1785.52
1537.05
1303.16
1080.7
866.566
657.577
450.198
240.248
22.399
-210.673
-469.819
-772.424
-1148.74
-1656.34
-2415.73
-3705.63
-6236.57
5875.42
3331.08
2012.38
1204.28
619.726
123.169
-370.807
-947.328
-1740.83
-3035.43
-5538.36
6450.99
3966.64
2710.77
1979.74
1496.12
1137.68
842.392
571.381
290.921
-42.4107
-505.931
-1269.1
-2757.5
4502
3034.32
2313.32
1915.01
1672.64
1513.35
1401
1314.28
1236.8
1150.54
1027.79
814.571
388.313
-562.67
4948.55
4038.99
3696.36
3610.62
3661.84
3799.91
4002.62
4259.85
4566.62
4918.79
5307.44
5705.68
6031.04
8604.8
9248.07
10329.6
11884.3
14138.4
17644.8
23753.4
159971
151246
142035
132364
122267
111779
100938
89782.8
78353.6
66689.1
54827.6
42806.8
30663.2
18432.6
6149.94
750.9
718.525
677.652
629.957
577.253
521.291
463.609
405.444
347.701
290.963
235.525
181.45
128.612
76.7508
25.5119
1262.34
1206.92
1136.95
1055.45
965.678
870.706
773.199
675.255
578.374
483.483
391.024
301.04
213.27
127.23
42.2845
1790.65
1709.79
1607.68
1489.15
1359.23
1222.59
1083.17
943.953
807.008
673.535
544.023
418.404
296.194
176.613
58.683
2343.95
2233.79
2094.76
1934.16
1759.42
1577.2
1392.86
1210.33
1032.12
859.578
693.091
532.335
376.478
224.341
74.5183
2932.02
2786.59
2603.34
2393.23
2167.02
1933.85
1700.7
1472.32
1251.52
1039.52
836.383
641.331
453.02
269.743
89.5657
3567.05
3377.12
3138.67
2868.34
2581.5
2290.42
2003.71
1726.7
1462.07
1210.55
971.548
743.549
524.502
312.029
103.562
4265.02
4016.02
3705.72
3359.79
3000.11
2642.5
2296.93
1968.63
1659.45
1369.04
1095.67
836.774
589.381
350.291
116.206
5047.94
4715.97
4308.16
3864.82
3416.47
2982.4
2572.75
2191.31
1837.98
1510.44
1205.26
918.46
645.927
383.527
127.173
5947.71
5491.57
4945.98
4374.7
3818.4
3297.75
2820.23
2385.78
1990.63
1629.43
1296.4
985.835
692.309
410.695
136.122
7012.25
6356.41
5609.28
4869.43
4184.51
3569.86
3024.53
2540.86
2109.23
1720.16
1365.01
1036.12
726.742
430.803
142.737
8315.17
7312.22
6264.97
5308.98
4480.15
3772.46
3167.02
2643.77
2185.19
1776.91
1407.3
1066.86
747.696
443.015
146.751
9960.84
8312
6829.14
5621.09
4654.46
3872.65
3227.17
2681.88
2210.76
1794.91
1420.34
1076.27
754.132
446.79
147.997
12008.7
9145.4
7118.25
5691.51
4643.75
3836.33
3186.96
2645.71
2180.94
1771.57
1402.8
1063.69
745.737
441.994
146.439
13800.6
9142.22
6806.59
5382.68
4392.48
3641.8
3038.48
2532.93
2095.63
1707.56
1355.54
1029.89
723.1
428.99
142.199
134.382
404.338
677.903
957.599
1246.15
1546.6
1862.58
2198.67
2561.27
2960.26
3412.86
3952.27
4648.8
5664.14
7393.37
133.193
400.548
670.808
945.899
1227.72
1518.07
1818.6
2130.54
2454.34
2788.83
3129.17
3460.41
3733.38
3763.4
2773.74
131.326
394.726
660.334
929.494
1203.31
1482.44
1766.65
2054.11
2339.91
2613.24
2851.7
3008.91
2986.52
2570.65
1319.16
128.937
387.358
647.369
909.822
1175.19
1443.22
1712.39
1978.76
2234.04
2461.77
2630.55
2682.05
2512.8
1958.1
827.608
126.162
378.874
632.687
888.096
1145.16
1403.17
1660.01
1911.07
2147.22
2351.15
2490.77
2508.38
2306.68
1745.34
700.419
123.112
369.612
616.874
865.188
1114.45
1363.9
1611.6
1853.66
2082.71
2285.12
2435.65
2486.92
2350.25
1868.34
820.372
119.868
359.808
600.312
841.592
1083.58
1325.79
1567.06
1805.23
2036.63
2255.06
2449.39
2595.9
2633.51
2384.39
1351.95
116.478
349.6
583.192
817.474
1052.53
1288.3
1524.63
1761.45
1999.49
2241.69
2496.25
2780.44
3115.81
3444.34
3044.24
112.968
339.054
565.575
792.792
1020.96
1250.4
1481.8
1716.78
1959.39
2219.7
2522.45
2929.36
3602.77
5010.22
8686.7
109.353
328.197
547.457
767.425
988.458
1211.11
1436.46
1666.76
1906.95
2168.19
2476.24
2893.16
3579.88
5000.27
8684.84
105.639
317.043
528.832
741.295
954.804
1169.93
1387.66
1609.81
1839.83
2084.12
2354.37
2669.52
3047.43
3417.84
3041.69
101.836
305.615
509.726
714.417
920
1126.9
1335.74
1547.38
1762.74
1981.98
2201.27
2402.23
2520.1
2353.77
1361.83
97.9561
293.952
490.205
686.9
884.252
1082.5
1281.86
1482.32
1682.91
1879.77
2060.83
2192.58
2190.1
1862.97
884.535
94.0168
282.107
470.366
658.912
847.86
1037.3
1227.19
1417.13
1605.64
1788.49
1954.59
2076.11
2085.48
1824.44
956.268
90.0371
270.138
450.32
630.631
811.108
991.75
1172.46
1352.9
1532.26
1708.81
1879.26
2037.47
2168.61
2207.5
1753.23
86.0371
258.11
430.175
602.221
774.224
946.136
1117.88
1289.38
1460.79
1633.34
1812.4
2017.6
2315.75
2932.99
4669.76
82.0368
246.081
410.034
573.829
737.387
900.619
1063.45
1225.91
1388.51
1553.3
1727.35
1933.13
2241.27
2880.97
4651.32
78.0552
234.11
389.996
545.591
700.762
855.364
1009.25
1162.33
1314.66
1466.8
1620.24
1777.53
1936.49
2043.74
1695.62
74.1106
222.252
370.151
517.636
664.518
810.588
955.6
1099.23
1240.94
1379.37
1510.43
1620.76
1667.59
1522.69
853.195
70.2199
210.558
350.587
490.089
628.827
766.533
902.89
1037.46
1169.46
1297.04
1415
1508.04
1531.82
1365.91
730.822
66.3985
199.074
331.382
463.064
593.839
723.401
851.405
977.452
1101.03
1221.36
1336.85
1443.41
1527.75
1534.94
1182.44
62.6603
187.843
312.607
436.659
559.683
681.338
801.266
919.143
1034.85
1149.02
1264.88
1394.19
1577.25
1953.73
3031.51
59.0167
176.899
294.321
410.961
526.468
640.462
752.539
862.329
969.708
1075.49
1183.56
1307.62
1492.41
1885.49
3002.95
55.4773
166.271
276.575
386.042
494.295
600.907
705.388
807.177
905.668
1000.34
1091.13
1178.85
1262.9
1314.2
1084.61
52.049
155.98
259.404
361.962
463.255
562.822
660.096
754.304
844.267
927.889
1000.81
1052.62
1056.13
937.961
513.225
48.7358
146.039
242.832
338.753
433.405
526.324
616.924
704.367
787.257
862.858
925.135
959.909
933.858
774.604
359.693
45.5386
136.451
226.862
316.422
404.752
491.428
575.935
657.585
735.3
807.07
868.552
909.43
904.076
788.78
417.6
42.4557
127.208
211.479
294.939
377.244
458.031
536.923
613.527
687.462
758.417
826.268
891.049
950.635
980.646
797.742
39.4827
118.297
196.656
274.254
350.783
425.946
499.493
571.314
641.685
711.912
786.108
876.269
1017.73
1320.36
2158.84
36.6142
109.7
182.36
254.308
325.265
394.976
463.254
530.103
596.002
662.643
734.853
825.86
972.879
1287.97
2146.63
33.8438
101.399
168.555
235.046
300.609
364.996
428.003
489.544
549.795
609.502
670.536
736.549
811.31
878.081
758.188
31.165
93.3722
155.21
216.426
276.766
335.968
393.764
449.876
503.961
555.432
602.757
641.157
655.284
597.818
339.524
28.5711
85.6011
142.292
198.411
253.709
307.911
360.691
411.608
459.938
504.235
541.17
562.617
548.971
457.017
213.048
26.0545
78.0637
129.771
180.963
231.408
280.837
328.907
375.131
418.709
458.144
490.335
508.443
497.037
421.778
213.05
23.6066
70.7346
117.604
164.03
209.81
254.701
298.399
340.485
380.351
417.08
449.274
474.761
489.441
479.225
364.006
21.2175
63.5838
105.742
147.543
188.823
229.39
269.005
307.375
344.166
379.16
412.866
448.579
499.133
609.592
940.516
18.8755
56.5761
94.1244
131.414
168.328
204.734
240.471
275.355
309.221
342.129
375.057
412.087
467.223
586.86
932.026
16.5679
49.6725
82.6841
115.541
148.181
180.536
212.522
244.035
274.935
305.077
334.395
363.017
390.518
407.512
336.636
14.2813
42.8317
71.3481
99.8151
128.227
156.587
184.897
213.132
241.168
268.591
294.208
314.718
321.104
289.183
159.58
12.0024
36.0124
60.0428
84.1227
108.303
132.665
157.315
182.359
207.817
233.349
257.558
276.22
278.286
238.685
114.159
9.71913
29.1768
48.6996
68.3551
88.2477
108.536
129.45
151.291
174.403
199.015
224.75
249.236
264.394
247.154
140.811
7.42159
22.2934
37.2603
52.4171
67.9099
83.9653
100.93
119.328
139.936
163.889
192.796
228.717
272.985
317.486
289.179
5.10326
15.3414
25.6846
36.2395
47.1734
58.7532
71.4056
85.8196
103.133
125.307
155.954
202.382
281.397
438.357
819.506
2.76203
8.31333
13.9571
19.7921
25.9798
32.7857
40.6456
50.2839
62.9393
80.8256
108.136
153.398
235.655
403.508
805.676
0.400776
1.21787
2.09128
3.09221
4.34757
6.07499
8.63756
12.6385
19.0966
29.7814
47.8314
78.7003
130.444
205.907
243.076
-1.97246
-5.92027
-9.86897
-13.7925
-17.6229
-21.2281
-24.3837
-26.7294
-27.699
-26.3971
-21.3959
-10.5163
8.73869
34.8718
43.8709
-4.34499
-13.0617
-21.8531
-30.7509
-39.761
-48.8571
-57.9831
-67.0707
-76.0917
-85.166
-94.7276
-105.573
-117.767
-124.285
-88.164
-6.70037
-20.1556
-33.7706
-47.6413
-61.8516
-76.4802
-91.6261
-107.477
-124.469
-143.619
-167.192
-199.717
-248.238
-313.073
-317.575
-9.01953
-27.1431
-45.5182
-64.3065
-83.6655
-103.76
-124.798
-147.113
-171.369
-199.026
-233.464
-282.781
-367.406
-543.784
-991.209
-11.2817
-33.9612
-56.9875
-80.5871
-104.983
-130.404
-157.104
-185.425
-215.932
-249.751
-289.434
-341.353
-422.888
-586.3
-1008.04
-13.4651
-40.5441
-68.0679
-96.3274
-125.606
-156.178
-188.306
-222.244
-258.224
-296.434
-336.936
-379.39
-421.544
-449.457
-373.607
-15.5472
-46.8244
-78.6476
-111.374
-145.349
-180.892
-218.277
-257.672
-298.997
-341.556
-383.117
-417.669
-430.123
-384.7
-205.418
-17.5047
-52.732
-88.6112
-125.57
-164.021
-204.35
-246.878
-291.791
-338.948
-387.407
-434.203
-471.333
-478.93
-412.931
-198.042
-19.3133
-58.1942
-97.8372
-138.746
-181.412
-226.307
-273.854
-324.384
-378.031
-434.453
-492.043
-545.549
-578.886
-544.59
-316.512
-20.9478
-63.135
-106.198
-150.719
-197.279
-246.45
-298.79
-354.85
-415.228
-480.733
-552.767
-633.82
-725.859
-810.865
-716.22
-22.3826
-67.4766
-113.559
-161.296
-211.358
-264.423
-321.178
-382.359
-448.911
-522.528
-607.284
-714.521
-877.779
-1201.96
-2045.01
-23.5921
-71.1408
-119.788
-170.28
-223.38
-279.868
-340.532
-406.181
-477.738
-556.642
-646.249
-756.384
-918.02
-1232.85
-2057.09
-24.5518
-74.0523
-124.752
-177.475
-233.079
-292.449
-356.467
-425.95
-501.518
-583.384
-671.023
-762.555
-851.963
-910.063
-756.21
-25.2396
-76.1421
-128.328
-182.695
-240.196
-301.84
-368.652
-441.545
-520.984
-606.181
-693.164
-770.277
-807.726
-734.551
-398.836
-25.6371
-77.3522
-130.409
-185.766
-244.471
-307.686
-376.664
-452.65
-536.517
-627.807
-722.235
-805.623
-840.39
-741.427
-362.298
-25.7327
-77.6429
-130.914
-186.54
-245.653
-309.573
-379.864
-458.343
-546.965
-647.333
-759.054
-874.821
-966.007
-942.932
-565.703
-25.5238
-77.0019
-129.804
-184.925
-243.536
-307.086
-377.437
-457.057
-549.333
-659.056
-793.156
-961.186
-1171.07
-1390.47
-1292.89
-25.0204
-75.4552
-127.109
-180.919
-238.031
-299.929
-368.633
-447.054
-539.664
-653.943
-803.799
-1018.6
-1369.65
-2058.25
-3748.12
-24.2482
-73.0771
-122.94
-174.654
-229.248
-288.1
-353.148
-427.275
-515.036
-624.22
-769.455
-981.507
-1333.97
-2030.91
-3737.44
-23.2504
-69.9965
-117.512
-166.426
-217.557
-272.025
-331.428
-398.108
-475.626
-569.564
-688.83
-847.043
-1059.22
-1302.66
-1257.58
-22.0875
-66.3977
-111.141
-156.698
-203.597
-252.586
-304.726
-361.501
-424.912
-497.431
-581.281
-675.24
-762.907
-774.913
-493.185
-20.8361
-62.5149
-104.233
-146.079
-188.238
-231.022
-274.882
-320.375
-367.979
-417.546
-466.84
-507.949
-519.28
-451.277
-218.189
-19.5858
-58.6222
-97.2642
-135.284
-172.501
-208.777
-243.984
-277.876
-309.791
-337.976
-358.222
-361.487
-330.9
-242.414
-84.4304
-18.4352
-55.0211
-90.7576
-125.09
-157.471
-187.344
-214.081
-236.847
-254.309
-264.049
-261.546
-238.702
-182.907
-81.9822
41.6759
-17.4881
-52.0277
-85.2566
-116.294
-144.241
-168.16
-187.02
-199.604
-204.307
-198.763
-179.159
-138.985
-66.4712
62.4131
311.312
-16.8499
-49.9626
-81.308
-109.687
-133.865
-152.558
-164.404
-167.936
-161.542
-143.384
-111.228
-61.9319
10.5606
123.093
335.409
-16.6254
-49.1428
-79.4502
-106.04
-127.356
-141.781
-147.646
-143.266
-127.072
-97.8684
-55.3728
-1.19279
59.5243
114.109
122.025
-16.9158
-49.8754
-80.2043
-106.099
-125.688
-137.019
-138.084
-126.903
-101.759
-61.7248
-7.79671
54.814
112.517
137.278
83.3882
-17.8171
-52.4519
-84.067
-110.58
-129.809
-139.455
-137.109
-120.336
-86.9065
-35.3693
33.5911
114.046
188.192
214.879
123.04
-19.4179
-57.1417
-91.5012
-120.158
-140.638
-150.283
-146.231
-125.432
-84.744
-21.2478
66.8448
177.486
296.647
374.635
269.727
-21.7957
-64.1831
-102.921
-135.454
-159.041
-170.685
-167.059
-144.43
-98.5287
-24.3351
84.2914
234.841
433.512
661.232
718.086
-25.0142
-73.7726
-118.675
-156.998
-185.784
-201.747
-201.156
-179.676
-132.063
-51.4547
72.4743
258.611
550.005
1066.26
2203.07
-29.1189
-86.0527
-139.02
-185.195
-221.474
-244.358
-249.823
-233.149
-188.608
-108.769
17.3123
209.115
510.126
1040.02
2193.83
-34.1327
-101.098
-164.102
-220.293
-266.501
-299.107
-313.92
-306.044
-269.753
-198.293
-83.6186
83.623
311.09
580.192
689.352
-40.052
-118.905
-193.933
-262.348
-321.004
-366.251
-393.816
-398.731
-375.394
-317.912
-221.16
-83.8213
82.9777
231.236
217.922
-46.8424
-139.374
-228.368
-311.201
-384.844
-445.704
-489.476
-511.082
-504.807
-464.869
-386.968
-271.825
-132.374
-5.63297
39.8401
-54.4349
-162.305
-267.092
-366.448
-457.58
-537.044
-600.552
-642.827
-657.637
-638.238
-578.695
-476.78
-338.971
-186.133
-51.363
-62.7222
-187.38
-309.591
-427.416
-538.43
-639.478
-726.386
-793.661
-834.246
-839.513
-799.879
-706.699
-556.048
-354.12
-120.329
-71.5555
-214.156
-355.136
-493.113
-626.203
-751.734
-865.856
-963.032
-1035.39
-1071.97
-1058.26
-976.54
-808.75
-544.248
-194.07
-80.7428
-242.054
-402.764
-562.199
-719.219
-871.902
-1017.08
-1149.63
-1261.35
-1339.35
-1363.87
-1306.14
-1128.6
-793.869
-294.17
-90.0497
-270.365
-451.27
-632.953
-815.229
-997.258
-1177.05
-1350.66
-1510.7
-1643.83
-1726.55
-1718.9
-1557.59
-1158.02
-455.813
-99.2047
-298.26
-499.226
-703.277
-911.389
-1124.13
-1341.28
-1561.07
-1778.69
-1983.26
-2151.93
-2238.3
-2151.97
-1732.3
-762.857
-107.908
-324.819
-545.024
-770.761
-1004.3
-1247.9
-1503.63
-1772.94
-2055.66
-2347.54
-2634.37
-2877.53
-2977.72
-2688.29
-1456.15
-115.849
-349.079
-586.962
-832.798
-1090.19
-1363.19
-1656.47
-1975.41
-2326.19
-2715.21
-3147.02
-3615.9
-4073.88
-4298.83
-3316.14
-122.721
-370.094
-623.357
-886.776
-1165.19
-1464.34
-1791.4
-2155.71
-2570.05
-3053.05
-3633.75
-4361.7
-5331.62
-6747.79
-9099.29
9748.33
7262.39
5762.93
4733.83
3959.01
3338.28
2819.3
2371.55
1975.63
1618.27
1289.82
982.905
691.591
410.863
136.282
3561.23
4638.52
4416.34
3938.13
3442.7
2982.46
2564.42
2184.53
1836.62
1514.68
1213.4
928.119
654.758
389.634
129.346
1572.06
2916.9
3247.39
3154.28
2901.83
2597.25
2282.97
1975.23
1679.5
1396.7
1125.82
865.029
612.185
365.035
121.299
832.337
1899.61
2372.49
2480.97
2397.08
2218.69
1996.9
1757.53
1513.35
1270.4
1031.2
796.392
565.64
338.053
112.458
507.445
1295.03
1750.58
1941.16
1957.87
1870.21
1722.97
1543.11
1346.3
1141.46
933.489
724.916
516.878
309.678
103.144
340.388
920.975
1312.63
1522.04
1591.08
1563.03
1471.64
1340.41
1184.79
1014.66
836.165
653.046
467.519
280.832
93.6544
242.896
678.096
1001.19
1200.35
1291.67
1299.79
1247.93
1154.59
1033.33
893.642
742.024
582.828
418.95
252.318
84.2534
180.53
513.044
775.795
953.51
1050
1078.16
1053
988.136
894.62
780.877
653.12
515.844
372.282
224.791
75.1571
137.981
396.421
609.424
763.046
855.736
893.518
885.595
841.545
769.929
677.82
570.808
453.208
328.329
198.746
66.5308
107.597
311.339
484.271
614.871
699.579
740.59
743.254
714.07
659.444
585.091
495.831
395.611
287.635
174.523
58.4901
85.1633
247.642
388.499
498.546
573.746
614.266
623.007
604.239
562.637
502.695
428.449
343.39
250.498
152.323
51.1055
68.1766
198.953
314.11
406.406
471.976
509.993
521.842
510.247
478.548
430.217
368.562
296.599
217.021
132.232
44.4092
55.0607
161.103
255.589
332.811
389.326
423.876
436.942
430.198
405.995
366.978
315.821
255.086
187.158
114.244
38.4029
44.7757
131.274
209.048
273.584
321.918
352.663
365.785
362.258
343.718
312.159
269.723
218.559
160.75
98.285
33.0653
36.6093
107.5
171.692
225.6
266.714
293.677
306.176
304.734
290.47
264.882
229.677
186.641
137.572
84.2356
28.3595
30.0586
88.3727
141.474
186.493
221.328
244.726
256.24
256.104
245.075
224.277
195.061
158.907
117.352
71.9472
24.238
24.7589
72.8629
116.863
154.452
183.877
204.021
214.386
215.03
206.458
189.51
165.257
134.919
99.8029
61.2565
20.6481
20.4402
60.2007
96.7001
128.074
152.867
170.098
179.275
180.35
173.651
159.809
139.672
114.246
84.6321
51.9958
17.5352
16.8984
49.8011
80.0935
106.263
127.102
141.764
149.786
151.061
145.799
134.473
117.758
96.476
71.5575
44.0004
14.8451
13.9769
41.2126
66.3473
88.1503
105.621
118.037
124.977
126.306
122.154
112.877
99.0095
81.2286
60.313
37.1133
12.5262
11.5536
34.0817
54.9127
73.0433
87.6462
98.1103
104.06
105.352
102.065
94.4637
82.9758
68.1552
50.6526
31.1885
10.5298
9.53205
28.1283
45.3513
60.3836
72.5428
81.315
86.3726
87.5765
84.9672
78.7464
69.2537
56.942
42.3526
26.092
8.8116
7.83508
23.1274
37.3098
49.717
59.7889
67.0965
71.3585
72.4454
70.3747
65.2984
57.4868
47.3086
35.2116
21.7029
7.33108
6.40016
18.8967
30.4995
40.6705
48.9523
54.9905
58.5468
59.5045
57.8666
53.7475
47.361
39.0059
29.0495
17.9123
6.05193
5.17599
15.2857
24.6823
32.9341
39.672
44.6059
47.5372
48.3637
47.0792
43.7689
38.6006
31.8136
23.7063
14.6232
4.94162
4.11983
12.1694
19.6589
26.2478
31.6425
35.61
37.9873
38.6866
37.6965
35.0787
30.9626
25.5367
19.0396
11.749
3.97113
3.19548
9.44149
15.2599
20.3895
24.6027
27.7167
29.6007
30.1809
29.4423
27.4274
24.2325
20.0024
14.9229
9.21279
3.11459
2.37158
7.00992
11.3385
15.1662
18.3248
20.6759
22.1177
22.5892
22.0727
20.5938
18.2199
15.0568
11.2434
6.94547
2.34881
1.62031
4.79294
7.76392
10.4066
12.6062
14.2649
15.3069
15.6821
15.3698
14.3801
12.754
10.5617
7.89939
4.88511
1.65295
0.916072
2.71549
4.41653
5.95349
7.26181
8.28078
8.95739
9.25065
9.13568
8.60695
7.68004
6.39181
4.79904
2.97553
1.00814
0.234386
0.705816
1.18225
1.65805
2.11701
2.53287
2.87252
3.10105
3.18728
3.10879
2.85564
2.43233
1.85809
1.16538
0.39711
-0.449333
-1.30788
-2.05247
-2.62687