/*--------------------------------*- C++ -*----------------------------------*\
| =========                 |                                                 |
| \\      /  F ield         | OpenFOAM: The Open Source CFD Toolbox           |
|  \\    /   O peration     | Version:  5.x                                   |
|   \\  /    A nd           | Web:      www.OpenFOAM.org                      |
|    \\/     M anipulation  |                                                 |
\*---------------------------------------------------------------------------*/
FoamFile
{
    version     2.0;
    format      ascii;
    class       volScalarField;
    location    "1.9";
    object      gradTx;
}
// * * * * * * * * * * * * * * * * * * * * * * * * * * * * * * * * * * * * * //

dimensions      [0 -1 0 1 0 0 0];

internalField   nonuniform List<scalar> 
6300
(
9785.9
9758.39
9703.23
9620.17
9508.86
9368.93
9200.04
9001.99
8774.86
8519.11
8235.75
7926.47
7593.75
7240.9
6872.05
9812.9
9785.53
9730.63
9647.92
9537
9397.4
9228.71
9030.61
8803.03
8546.28
8261.25
7949.5
7613.48
7256.52
6882.89
9866.77
9839.69
9785.35
9703.39
9593.3
9454.49
9286.33
9088.25
8859.91
8601.31
8313.02
7996.4
7653.75
7288.46
6905.06
9947.2
9920.61
9867.18
9786.48
9677.84
9540.44
9373.37
9175.69
8946.58
8685.57
8392.7
8068.91
7716.24
7338.14
6939.5
10053.7
10027.8
9975.79
9897
9790.63
9655.58
9490.54
9294.07
9064.71
8801.22
8502.88
8169.88
7803.78
7407.97
6987.88
10185.6
10160.7
10110.6
10034.6
9931.59
9800.21
9638.66
9444.85
9216.49
8951.27
8647.28
8303.52
7920.63
7501.69
7052.77
10341.8
10318.3
10270.8
10198.6
10100.4
9974.5
9818.54
9629.7
9404.64
9139.62
8830.99
8475.84
8073.11
7624.98
7138.14
10521.1
10499.3
10455.3
10388.1
10296.5
10178.3
10030.8
9850.29
9632.24
9371.11
9060.77
8695.3
8270.57
7786.6
7250.23
10721.6
10701.9
10662.3
10601.6
10518.6
10410.9
10275.4
10107.9
9902.42
9651.32
9345.19
8973.56
8526.84
8000.2
7399.06
10941.1
10924.1
10889.7
10837
10764.7
10670.7
10551.7
10403
10217.7
9986.04
9694.63
9326.44
8862.6
8287.87
7601.54
11177.2
11163.1
11134.7
11091.4
11032
10954.9
10857
10734.1
10578.8
10380
10120.3
9774.5
9308.76
8686.72
7888.26
11426.7
11415.9
11394.2
11361.3
11316.6
11259.1
11187
11096.9
10982.9
10834.3
10631.7
10341.9
9910.74
9261.53
8319.59
11686.3
11679
11664.3
11642.4
11613.4
11577.5
11534.3
11483.1
11421.1
11341.9
11229.8
11050.3
10730.2
10128.6
9029.38
11952.8
11948.8
11940.9
11929.9
11916.6
11902.4
11889.1
11879.4
11876.1
11881.7
11894.6
11898.6
11830.6
11492.7
10360.7
12222.7
12221.7
12220.2
12219.1
12220.1
12225.7
12239.8
12268.5
12321.5
12413.5
12567.8
12818.3
13200.1
13650.3
13356.1
6524.33
6203.17
5880.7
5560.03
5244.14
4935.77
4637.3
4350.79
4077.87
3819.79
3577.42
3351.33
3141.77
2948.74
2772.05
2611.34
2466.11
2335.77
2219.63
2116.92
2026.82
1948.44
1880.84
1823.02
1773.91
1732.41
1697.4
1667.72
1642.22
1619.8
1599.45
1580.24
1561.37
1542.19
1522.14
1500.8
1477.83
1452.93
1425.82
1396.26
1364.01
1328.88
1290.7
1249.38
1204.9
1157.3
1106.68
1053.16
996.855
937.839
876.118
811.619
744.188
673.595
599.556
521.75
439.838
353.476
262.319
166.013
64.1792
-43.6033
-157.819
-279.032
-407.896
-545.155
-691.635
-848.232
-1015.88
-1195.56
-1388.21
-1594.77
-1816.14
-2053.15
-2306.56
-2577.06
-2865.2
-3171.4
-3495.89
-3838.69
-4199.47
-4577.58
-4971.91
-5380.9
-5802.45
-6233.94
-6672.26
-7113.88
-7554.96
-7991.47
6530.4
6204.73
5877.79
5552.86
5233.06
4921.23
4619.86
4331
4056.29
3796.95
3553.82
3327.37
3117.8
2925.06
2748.9
2588.91
2444.56
2315.21
2200.17
2098.66
2009.85
1932.83
1866.68
1810.38
1762.86
1723.01
1689.66
1661.62
1637.7
1616.77
1597.75
1579.69
1561.78
1543.36
1523.93
1503.1
1480.56
1456.04
1429.3
1400.08
1368.13
1333.23
1295.18
1253.9
1209.35
1161.61
1110.82
1057.14
1000.74
941.713
880.099
815.827
748.728
678.549
604.977
527.662
446.248
360.388
269.745
173.988
72.7649
-34.315
-147.713
-267.98
-395.766
-531.828
-677.014
-832.25
-998.51
-1176.79
-1368.08
-1573.35
-1793.51
-2029.41
-2281.84
-2551.52
-2839.03
-3144.88
-3469.37
-3812.58
-4174.31
-4553.98
-4950.57
-5362.56
-5787.85
-6223.8
-6667.18
-7114.33
-7561.17
-8003.47
6542.76
6207.82
5871.69
5538.02
5210.23
4891.4
4584.16
4290.61
4012.38
3750.6
3506
3278.93
3069.44
2877.36
2702.33
2543.83
2401.27
2273.95
2161.13
2062.02
1975.78
1901.5
1838.25
1785.01
1740.7
1704.17
1674.19
1649.5
1628.83
1610.92
1594.6
1578.85
1562.85
1545.94
1527.7
1507.81
1486.08
1462.32
1436.3
1407.78
1376.46
1342.05
1304.3
1263.07
1218.36
1170.29
1119.09
1065.02
1008.36
949.294
887.892
824.09
757.691
688.383
615.781
539.474
459.064
374.192
284.547
189.846
89.8042
-15.9046
-127.688
-246.064
-371.68
-505.316
-647.87
-800.333
-963.756
-1139.21
-1327.76
-1530.4
-1748.11
-1981.75
-2232.17
-2500.13
-2786.33
-3091.37
-3415.71
-3759.63
-4123.12
-4505.8
-4906.82
-5324.79
-5757.64
-6202.64
-6656.39
-7114.88
-7573.6
-8027.82
6561.81
6212.31
5861.75
5514.41
5174.22
4844.64
4528.49
4227.95
3944.56
3679.33
3432.76
3205
2995.87
2804.98
2631.81
2475.69
2335.9
2211.69
2102.25
2006.76
1924.37
1854.21
1795.32
1746.7
1707.26
1675.81
1651.03
1631.55
1615.92
1602.7
1590.56
1578.34
1565.14
1550.39
1533.76
1515.13
1494.49
1471.78
1446.86
1419.47
1389.2
1355.62
1318.37
1277.23
1232.18
1183.46
1131.45
1076.62
1019.43
960.215
899.118
836.079
770.831
702.95
631.915
557.192
478.305
394.876
306.639
213.409
115.023
11.2764
-98.14
-213.688
-336.007
-465.918
-604.403
-752.572
-911.609
-1082.71
-1267.04
-1465.69
-1679.64
-1909.83
-2157.12
-2422.36
-2706.35
-3009.89
-3333.68
-3678.3
-4044.07
-4430.97
-4838.44
-5265.32
-5709.64
-6168.59
-6638.46
-7114.72
-7592.16
-8065.18
6588.3
6217.99
5846.88
5480.2
5122.68
4778.29
4450.11
4140.35
3850.4
3580.98
3332.28
3104.07
2895.86
2706.96
2536.59
2383.9
2248
2128.05
2023.17
1932.53
1855.29
1790.58
1737.51
1695.1
1662.25
1637.75
1620.18
1607.98
1599.46
1592.87
1586.56
1579.15
1569.63
1557.49
1542.64
1525.3
1505.8
1484.36
1460.95
1435.24
1406.65
1374.45
1338.02
1296.96
1251.26
1201.32
1147.82
1091.59
1033.4
973.821
913.123
851.231
787.751
722.047
653.352
580.906
504.087
422.488
335.931
244.408
147.977
46.6443
-59.7359
-171.53
-289.365
-414.128
-546.941
-689.107
-842.024
-1007.09
-1185.64
-1378.83
-1587.7
-1813.17
-2056.12
-2317.44
-2598.08
-2899.08
-3221.5
-3566.33
-3934.42
-4326.28
-4741.89
-5180.48
-5640.31
-6118.52
-6611.03
-7112.53
-7616.73
-8116.69
6623.32
6224.49
5825.31
5432.51
5051.96
4688.34
4344.98
4024
3726.47
3452.62
3202.1
2974.18
2767.88
2582.13
2415.8
2267.79
2137.05
2022.58
1923.49
1838.92
1768.06
1710.12
1664.28
1629.64
1605.17
1589.63
1581.53
1579.06
1580.14
1582.56
1584.11
1582.94
1577.85
1568.42
1555.03
1538.53
1519.87
1499.74
1478.3
1455.13
1429.22
1399.34
1364.29
1323.33
1276.43
1224.27
1168.1
1109.35
1049.34
989.018
928.828
868.651
807.86
745.441
680.181
610.915
536.753
457.243
372.381
282.487
188.007
89.3007
-13.5097
-120.644
-232.71
-350.703
-475.965
-610.107
-754.877
-912.007
-1083.06
-1269.3
-1471.76
-1691.24
-1928.54
-2184.56
-2460.37
-2757.3
-3076.86
-3420.68
-3790.34
-4187.19
-4612.02
-5064.78
-5544.23
-6047.58
-6570.31
-7106.11
-7647.04
-8184.1
6668.58
6231.18
5794.26
5366.89
4956.62
4568.95
4207.4
3873.71
3568.25
3290.47
3039.21
2812.98
2610.19
2429.2
2268.51
2126.71
2002.53
1894.89
1802.82
1725.48
1662.15
1612.15
1574.83
1549.46
1535.15
1530.75
1534.7
1544.94
1558.86
1573.43
1585.49
1592.32
1592.23
1585.01
1571.85
1554.81
1535.99
1516.93
1498.12
1478.88
1457.49
1431.63
1399.02
1358.22
1309.11
1252.97
1192.06
1128.89
1065.7
1004
944.493
886.938
830.301
772.912
712.772
647.967
577.119
499.707
416.081
327.183
234.135
137.886
38.9668
-62.6292
-167.489
-276.771
-392.159
-515.75
-649.873
-796.815
-958.517
-1136.37
-1331.21
-1543.56
-1773.92
-2023.04
-2292.11
-2582.77
-2897.13
-3237.63
-3606.93
-4007.58
-4441.69
-4910.42
-5413.45
-5948.43
-6510.47
-7091.94
-7682.55
-8270.07
6726.64
6236.84
5749.16
5276.4
4828.45
4411.73
4029.5
3682.55
3370
3089.98
2840.12
2617.92
2420.94
2246.93
2093.91
1960.12
1844.12
1744.69
1660.84
1591.79
1536.96
1495.86
1468.11
1453.27
1450.8
1459.78
1478.75
1505.45
1536.57
1567.84
1594.36
1611.61
1616.83
1610.08
1594.22
1573.57
1552.41
1533.72
1518.51
1505.68
1492.15
1473.58
1445.53
1405.04
1351.85
1288.52
1219.24
1148.46
1079.86
1015.83
957.32
903.886
853.81
804.334
752.071
693.714
626.934
551.119
467.379
377.86
284.886
190.333
95.3187
0.111268
-95.8677
-194.013
-296.498
-406.181
-526.359
-660.308
-810.657
-978.889
-1165.36
-1369.84
-1592.16
-1832.7
-2092.64
-2373.99
-2679.59
-3012.96
-3378.19
-3779.6
-4221.28
-4706.42
-5236.42
-5810.01
-6422.34
-7064.27
-7722.15
-8378.6
6801.5
6239.13
5682.29
5149.91
4655.05
4204.61
3800.57
3441.66
3124.74
2845.9
2601.06
2386.4
2198.48
2034.34
1891.48
1767.84
1661.77
1571.96
1497.45
1437.57
1391.91
1360.29
1342.71
1339.23
1349.88
1374.34
1411.62
1459.51
1514.03
1569.03
1616.51
1648.17
1658.59
1648.22
1623.4
1593.03
1565.23
1545.42
1535.43
1533.42
1534.02
1529.13
1509.91
1470.08
1409.18
1332.6
1248.54
1164.85
1087.41
1019.68
962.818
915.978
876.441
839.755
800.138
751.579
689.757
613.942
527.002
433.52
337.92
243.456
151.967
63.9848
-21.1002
-104.973
-190.437
-281.457
-382.967
-500.131
-636.985
-795.078
-973.507
-1170.35
-1384.07
-1614.33
-1862.22
-2130.18
-2421.9
-2742.26
-3097.18
-3493.43
-3938.08
-4437.58
-4996.37
-5615.51
-6291.26
-7013.31
-7763.43
-8515.87
6899.59
6233.12
5579.89
4969.12
4417.43
3930.43
3506.47
3140.11
2824.48
2552.68
2318.41
2116.24
1941.67
1791
1661.28
1550.18
1455.9
1377.12
1312.93
1262.8
1226.58
1204.45
1196.93
1204.8
1229.02
1270.4
1329.15
1403.97
1490.72
1581
1661.35
1715.28
1730.21
1707.12
1660.52
1608.7
1566.51
1542.9
1540.81
1557.37
1583.75
1605.26
1603.91
1565.43
1489.04
1387.44
1277.26
1172.2
1080.97
1007.85
953.864
917.534
894.951
879.38
861.069
828.534
772.723
692.783
596.044
492.234
389.324
292.307
203.581
123.705
51.944
-13.6136
-76.3409
-141.593
-216.991
-311.553
-432.675
-581.921
-755.078
-946.466
-1152.07
-1370.49
-1602.79
-1852.01
-2122.85
-2421.65
-2756.5
-3137.37
-3575.72
-4083.15
-4669.15
-5339.23
-6093.21
-6921.62
-7801
-8691.71
7031.86
6207.71
5416.03
4702.99
4086.44
3565.28
3129.27
2765.36
2460.99
2205.3
1989.4
1806.25
1650.34
1517.41
1404.19
1308.21
1227.64
1161.2
1108.09
1067.96
1040.91
1027.52
1028.92
1046.78
1083.37
1141.39
1223.51
1331.17
1462.28
1607.2
1744.16
1838.49
1856.52
1799.79
1705.11
1610.45
1540.98
1509.36
1519.29
1567.14
1640.41
1714.28
1751.31
1715.33
1605.16
1454.58
1298.56
1159.61
1048.42
968.436
919.467
899.279
903.343
922.937
942.47
938.994
890.425
795.806
675.266
549.652
432.247
329.23
242.461
171.756
116.075
73.6931
41.4174
12.9141
-23.3842
-84.689
-187.82
-334.282
-510.336
-702.056
-901.522
-1106.58
-1318.92
-1542.62
-1783.44
-2048.99
-2349.4
-2698.38
-3113.69
-3615.39
-4220.62
-4941.87
-5787.69
-6756.19
-7821.87
-8922.57
7218.33
6135.22
5138.65
4297.67
3617.88
3077.34
2648.03
2304.71
2027.27
1800.49
1613.13
1456.94
1325.84
1215.36
1122.21
1043.99
978.979
926.038
884.51
854.221
835.5
829.263
837.152
861.743
906.818
977.641
1081.02
1224.58
1413.87
1644.79
1888.31
2071.48
2090.4
1947.05
1749.59
1575.88
1460.89
1415.92
1443.11
1540.26
1696.17
1876.3
2003.79
1972.02
1779.45
1529.48
1295.27
1107.01
970.888
884.344
843.605
846.081
889.356
966.565
1056.99
1114.37
1074.43
936.149
761.787
595.249
454.452
342.761
258.218
198.182
161.073
146.465
153.765
178.671
206.261
202.438
119.47
-43.9899
-242.985
-446.437
-642.869
-832.099
-1018.62
-1208.47
-1408.31
-1626.01
-1872.25
-2163.73
-2527.08
-2998.38
-3604.79
-4364.89
-5305.24
-6450.48
-7791.95
-9237.68
7499.09
5937.82
4636.94
3659.99
2948.59
2429.06
2042.84
1749.1
1520.49
1338.83
1191.91
1071.42
971.567
888.281
818.669
760.68
712.893
674.393
644.704
623.785
612.078
610.627
621.299
647.17
693.148
766.968
880.632
1052.08
1305.47
1664.17
2119.3
2540.93
2557.84
2172.17
1759.83
1456.67
1279.93
1218.51
1266.14
1428.71
1717.02
2114.04
2485.55
2460.21
2036.33
1581.66
1225.79
979.301
821.941
734.273
705.492
734.114
826.488
991.15
1219.05
1429.9
1400
1128.44
837.033
603.777
434.741
317.204
238.691
191.605
173.679
187.704
240.775
340.582
481.16
603.556
542.698
297.506
30.8188
-200.881
-394.538
-561.462
-713.481
-859.844
-1007.41
-1161.82
-1329.84
-1525.49
-1784.89
-2186.64
-2767.47
-3528.12
-4527.51
-5861.9
-7611.52
-9693.86
7962.19
5365.12
3668.53
2639.75
2002.87
1588.66
1304.39
1099.6
946.012
827.056
732.586
656.126
593.39
541.47
498.353
462.646
433.401
410.026
392.237
380.056
373.861
374.504
383.532
403.615
439.359
498.886
597.001
761.534
1045.37
1544.63
2398.42
3593.09
3604.91
2435.61
1612.77
1155.38
932.865
864.032
923.614
1136.03
1581.3
2388.43
3538.73
3522.2
2337.49
1491.52
998.748
723.225
572.617
499.386
484.704
530.33
659.508
924.658
1405.63
2092.1
2073.54
1349.29
828.529
519.82
340.872
235.452
173.911
143.042
140.283
172.726
260.498
443.796
782.255
1268.58
1231.38
669.975
254.268
-10.0769
-184.668
-312.247
-416.437
-509.43
-596.606
-677.969
-747.569
-795.332
-837.625
-1116.9
-1671.07
-2347.4
-3267.12
-4675.11
-6951.59
-10412
8808.78
3495.42
1738.3
1055
736.405
561.078
451.406
376.322
321.617
279.982
247.289
221.032
199.609
181.954
167.344
155.281
145.434
137.597
131.676
127.687
125.781
126.29
129.827
137.491
151.303
175.215
217.706
299.16
475.015
914.519
2186.58
6348.4
6352.67
2200.04
939.393
515.809
364.469
324.608
360.983
507.999
924.428
2168.61
6272.05
6266.28
2150.78
892.754
458.838
287.25
211.856
180.175
177.061
206.22
296.715
547.371
1296.25
3769.51
3763.21
1277.12
514.651
249.002
141.118
90.5129
64.9679
54.0012
56.2034
78.078
142.668
323.582
870.434
2687.46
2674.94
832.646
259.768
51.5002
-42.4736
-96.6875
-135.49
-167.363
-194.13
-211.015
-196.693
-72.9918
450.974
348.758
-398.646
-816.07
-1303.46
-2237.52
-4586.4
-11662.6
-8461.01
-8956.02
-9426.51
-9867.41
-10274.8
-10645.8
-10978.7
-11272.8
-11527.8
-11744.3
-11922.9
-12064.4
-12169.7
-12239.4
-12274.2
-8479.09
-8980.12
-9455.66
-9900.5
-10310.6
-10683.4
-11017.1
-11311.2
-11565.9
-11781.6
-11959.4
-12100.1
-12204.6
-12273.9
-12308.3
-8515.95
-9029.27
-9515.08
-9967.81
-10383.4
-10759.4
-11094.6
-11388.7
-11642.3
-11856.5
-12032.4
-12171.3
-12274.4
-12342.5
-12376.4
-8572.98
-9105.51
-9607.13
-10071.8
-10495.4
-10875.8
-11212.6
-11506.1
-11757.7
-11969
-12141.8
-12277.8
-12378.4
-12444.8
-12477.8
-8652.57
-9212.23
-9735.71
-10216.3
-10650
-11035.5
-11373.2
-11664.8
-11912.7
-12119.5
-12287.5
-12419.1
-12516.1
-12580
-12611.7
-8758.45
-9354.7
-9906.76
-10407.1
-10852.3
-11242.4
-11579.4
-11866.8
-12108.4
-12308
-12469.1
-12594.4
-12686.4
-12746.8
-12776.7
-8896.35
-9540.91
-10129.1
-10652.6
-11109.4
-11501.8
-11834.7
-12114
-12345.5
-12534.6
-12685.7
-12802.5
-12887.7
-12943.5
-12971
-9075.18
-9783.08
-10415.6
-10964.3
-11430.3
-11820.2
-12143.1
-12408.5
-12624.6
-12798.5
-12936.1
-13041.5
-13117.9
-13167.7
-13192.3
-9309.16
-10100.2
-10785.3
-11358.2
-11826.7
-12205
-12508.6
-12751.5
-12945.1
-13098.4
-13218
-13308.8
-13374.2
-13416.7
-13437.5
-9622.07
-10522.9
-11266.7
-11856
-12312.7
-12663.9
-12934.2
-13143.2
-13305.4
-13431.3
-13528
-13600.8
-13652.9
-13686.5
-13703
-10056.4
-11101.9
-11902.2
-12485.8
-12903.6
-13203.1
-13420.6
-13581.1
-13701.5
-13792.6
-13861.6
-13912.9
-13949.4
-13972.8
-13984.3
-10695
-11925.8
-12753.7
-13280.7
-13612.3
-13823.9
-13963.2
-14058.5
-14126.1
-14175.5
-14212.1
-14239.1
-14258.2
-14270.5
-14276.5
-11719.2
-13152.2
-13905.4
-14270.6
-14440.1
-14516.3
-14549.3
-14563
-14568.3
-14570.5
-14571.6
-14572.5
-14573.2
-14573.8
-14574.1
-13590
-15057.5
-15444.6
-15455.4
-15360.7
-15251.2
-15154
-15074.9
-15013.1
-14965.9
-14930.7
-14905.3
-14887.7
-14876.6
-14871.3
-17701.2
-18042.6
-17359.3
-16745.1
-16295.3
-15973.1
-15739.9
-15569
-15442.5
-15348.6
-15279.5
-15229.5
-15194.9
-15173.1
-15162.5
12470.4
12471.8
12475.2
12481.8
12493.5
12513.6
12547.2
12602.6
12693.4
12843.3
13096
13540.6
14392.1
16309.7
21895.8
12694.1
12697.4
12704.4
12716.6
12735.8
12765.5
12811.1
12881.2
12990
13162.2
13442.5
13914
14735
16179.2
18398.1
12915.2
12919.8
12929.7
12945.9
12970.3
13006
13057.6
13132.4
13242
13405.7
13655.7
14044.1
14644.6
15510
16448.2
13132.5
13138.2
13150.1
13169
13196.6
13235
13287.5
13358.9
13455.9
13588.7
13772.2
14026.3
14369.8
14789.7
15156.6
13345.4
13351.9
13365.1
13385.7
13414.8
13453.7
13503.9
13567.1
13644.5
13736.1
13839.2
13945.9
14041.3
14105.7
14126.7
13553.4
13560.3
13574.4
13596.1
13625.8
13664
13710.8
13764.9
13822.6
13875
13903.2
13872.9
13733.9
13451.2
13118.5
13756
13763.3
13778.1
13800.4
13830.4
13868
13912
13959.7
14004
14030.2
14007.4
13874.8
13525.9
12830.8
11886.1
13953.1
13960.7
13975.9
13998.8
14029.3
14066.9
14110.3
14156.2
14197.5
14219
14187.3
14026.3
13557.7
12383.2
10004.8
14144.4
14152.3
14168
14191.5
14222.8
14261.4
14306.3
14355.4
14404.2
14444.2
14456.3
14391.1
14079.1
12771.1
6478.99
14329.8
14337.9
14354
14378.3
14410.7
14451
14498.9
14554.2
14616.6
14688.2
14778.7
14926.6
15291.7
16619.8
22905.3
14509
14517.4
14534
14559
14592.5
14634.7
14686
14747.4
14822.1
14918.6
15060.5
15310.8
15835
17025.3
19389.3
14682
14690.5
14707.6
14733.3
14767.8
14811.7
14865.5
14931
15011.9
15117
15266.5
15504.1
15915.3
16615
17522.3
14848.6
14857.3
14874.7
14900.9
14936.3
14981.2
15036.4
15103.3
15184.3
15284.1
15410.7
15576.5
15794.7
16060
16292.9
15008.6
15017.4
15035
15061.7
15097.5
15143
15198.7
15265.2
15343.1
15431.9
15527.2
15611.9
15640.7
15527.1
15232.7
15162
15170.9
15188.7
15215.5
15251.6
15297.3
15352.9
15418.7
15493.7
15574.8
15650.4
15685.5
15584.9
15119
13975.7
15308.8
15317.6
15335.5
15362.3
15398.4
15444.1
15499.6
15565
15639.7
15721.1
15801
15853
15782.3
15180.9
11932.1
15448.8
15457.7
15475.4
15502.2
15538.2
15583.7
15639
15704.4
15780.4
15867.9
15970.6
16105
16347.8
17080.7
20392.1
15582.2
15591
15608.6
15635.1
15670.8
15715.8
15770.7
15835.9
15912.5
16003.5
16117.6
16281.2
16572.2
17189.3
18407.3
15708.9
15717.6
15735
15761.2
15796.3
15840.7
15894.8
15958.9
16034.1
16122.5
16229.5
16368.5
16569.6
16880
17276
15829.2
15837.7
15854.7
15880.4
15914.9
15958.4
16011.3
16073.7
16145.9
16228.1
16318.7
16412.2
16490.5
16510.6
16427.4
15942.9
15951.3
15967.9
15993
16026.7
16069.1
16120.5
16181.1
16250.4
16327.1
16405.4
16465.9
16451.2
16212.5
15528.7
16050.4
16058.5
16074.7
16099.1
16131.8
16173.1
16223
16281.7
16349.2
16424.6
16503.8
16571.3
16566.8
16222.9
14162.9
16151.7
16159.5
16175.3
16198.9
16230.6
16270.4
16318.7
16375.7
16442
16518.8
16609.7
16726.2
16917.4
17424.4
19578.2
16247
16254.6
16269.8
16292.6
16323.1
16361.4
16407.9
16462.7
16526.8
16602.8
16697.2
16828.7
17048.3
17481.6
18293.1
16336.5
16343.8
16358.4
16380.4
16409.6
16446.3
16490.6
16542.6
16602.9
16673.4
16758.4
16869.4
17030.2
17275.8
17579.2
16420.3
16427.4
16441.4
16462.5
16490.5
16525.5
16567.4
16616.2
16671.5
16733.2
16801.1
16874.8
16952.8
17029.2
17083.7
16498.8
16505.5
16519
16539.2
16565.9
16599.3
16639
16684.6
16735
16788.3
16839.3
16876.6
16875.8
16797.3
16633.9
16572
16578.5
16591.4
16610.7
16636.3
16668.1
16705.9
16749
16796
16844.3
16886.5
16904.4
16852.2
16623.8
16078.4
16640.2
16646.4
16658.8
16677.3
16701.9
16732.3
16768.6
16810
16855.7
16903.9
16949.8
16980.3
16950.5
16669.9
15151.9
16703.5
16709.5
16721.4
16739.1
16762.7
16792.1
16827
16867.5
16913.2
16964.6
17023.4
17097.4
17222.3
17574.8
19123.8
16762.1
16767.8
16779.3
16796.4
16819.1
16847.3
16881.2
16920.6
16966.2
17019.6
17085.9
17178.6
17335.6
17648
18234.5
16816.2
16821.7
16832.7
16849.2
16871
16898.2
16930.8
16969
17013.2
17065.2
17129.3
17214.7
17340.3
17530.5
17760.3
16865.9
16871.2
16881.8
16897.7
16918.7
16944.8
16976.1
17012.5
17054.2
17102
17157.3
17222.4
17299.5
17384.9
17453.4
16911.3
16916.5
16926.7
16942
16962.3
16987.4
17017.2
17051.7
17090.4
17132.9
17177.9
17221.2
17252.3
17250.6
17201.9
16952.6
16957.6
16967.6
16982.4
17001.9
17026.1
17054.7
17087.3
17123.3
17161.7
17199.2
17228
17227.2
17148.3
16924.4
16989.9
16994.8
17004.5
17018.9
17037.8
17061.2
17088.7
17120
17154.2
17190.4
17226
17254.7
17256
17146
16499.2
17023.3
17028.1
17037.6
17051.6
17070.1
17092.9
17119.7
17149.9
17183.2
17218.9
17257.1
17299.9
17361.4
17516.1
18177.9
17052.8
17057.5
17066.9
17080.7
17098.9
17121.3
17147.6
17177.2
17209.8
17245.2
17284.3
17331.5
17401.6
17533.4
17778.7
17078.5
17083.2
17092.4
17106.2
17124.3
17146.5
17172.6
17201.9
17234
17268.5
17305.3
17346.6
17398.5
17471.2
17557.8
17100.4
17105.1
17114.3
17128.1
17146.2
17168.5
17194.7
17224.1
17256.1
17289.4
17322.7
17353.9
17380.3
17398.8
17404.8
17118.5
17123.2
17132.5
17146.4
17164.7
17187.4
17214
17244
17276.5
17309.9
17341.1
17363.9
17367.2
17334.4
17263.8
17132.8
17137.6
17147
17161.1
17179.7
17202.9
17230.3
17261.6
17295.8
17331.4
17364.6
17386.9
17378.6
17295.8
17081.5
17143.3
17148.1
17157.6
17172
17191
17214.9
17243.4
17276.5
17313.7
17354
17395.1
17430.7
17441.2
17347.9
16758.2
17149.9
17154.7
17164.4
17179
17198.5
17223.1
17252.9
17288
17328.7
17375.4
17428.8
17491.5
17575.3
17744.2
18369.6
17152.5
17157.4
17167.2
17182
17201.9
17227.1
17258
17295.1
17339.1
17391.6
17455.6
17537
17649.6
17822.9
18086.9
17151.2
17156.1
17166
17180.9
17201
17226.6
17258.4
17296.8
17343
17399.4
17469.6
17560.3
17681.3
17838.1
17995.5
17145.9
17150.8
17160.6
17175.5
17195.7
17221.5
17253.4
17292.3
17339.4
17396.9
17468.8
17562.1
17687.4
17852.2
18021.3
17136.7
17141.5
17151.2
17165.9
17185.9
17211.5
17243.2
17281.7
17327.9
17383.8
17452.6
17541.1
17665.7
17862.7
18172.5
17123.6
17128.3
17137.7
17152.1
17171.6
17196.7
17227.6
17265
17309.3
17361.3
17422.1
17494.6
17593
17794.4
18546.9
17106.6
17111.1
17120.3
17134.1
17153
17177.2
17207
17242.9
17284.7
17332.1
17382.8
17429.5
17448.2
17342.9
16638.6
17085.9
17090.2
17098.9
17112.1
17130.1
17153.2
17181.8
17215.9
17255.7
17300
17345.7
17383.4
17388.8
17306.8
17062.4
17061.6
17065.6
17073.8
17086.2
17103.1
17124.9
17152
17184.6
17222.8
17266.5
17313.7
17359
17389.8
17382.8
17324.5
17033.9
17037.6
17045.1
17056.5
17072.2
17092.4
17117.8
17148.7
17185.8
17229.9
17282.3
17344.2
17416.3
17494
17554.1
17003
17006.4
17013.1
17023.3
17037.5
17055.9
17079.1
17107.9
17143.2
17187.1
17243.7
17321.7
17438.4
17616.9
17833.6
16969.3
16972.2
16978
16986.9
16999.2
17015.4
17036.1
17061.9
17094
17134.9
17189.7
17271.8
17417.1
17712.7
18271.7
16933
16935.3
16940.1
16947.4
16957.7
16971.3
16988.8
17010.8
17038.3
17072.5
17116.1
17177.5
17290.9
17624.9
19106.2
16894.4
16896.2
16899.8
16905.4
16913.3
16923.9
16937.8
16955.4
16977.2
17002.9
17029.7
17046.4
17010.9
16740
15286.4
16854
16855.2
16857.5
16861.1
16866.4
16873.7
16883.5
16896.5
16912.9
16932.1
16949.7
16951
16893.9
16675.7
16156.7
16812.2
16812.7
16813.6
16815.1
16817.5
16821.1
16826.5
16834.5
16846
16861.7
16880.4
16895.6
16888
16819.8
16675
16769.5
16769.2
16768.7
16767.9
16767.1
16766.6
16767.1
16769.6
16775.7
16788.6
16812.9
16855.5
16923.6
17016.5
17101.2
16726.4
16725.4
16723.3
16720.1
16715.9
16710.9
16705.7
16701.3
16700.1
16706.9
16732.2
16797.2
16941.5
17218.2
17594.7
16683.4
16681.6
16677.9
16672.3
16664.6
16654.8
16643.1
16630.3
16618.2
16611.8
16623.4
16683.1
16866.9
17350
18358.4
16641
16638.5
16633.3
16625.3
16614.1
16599.3
16580.7
16558.1
16531.7
16503.7
16480.5
16482.2
16583.8
17116.7
19830.9
16599.7
16596.5
16590
16579.8
16565.4
16545.9
16520.5
16487.8
16445.8
16391.7
16319.5
16211.5
16000.5
15368
12582.5
16559.9
16556.2
16548.7
16536.7
16519.5
16496.1
16464.8
16423.2
16367.6
16291.7
16182.7
16011.8
15709.3
15113.8
14023.3
16522
16518
16509.7
16496.5
16477.4
16451
16415.5
16367.6
16302.9
16214.1
16088.3
15902.9
15620.8
15202.7
14716
16486.1
16482
16473.4
16459.7
16439.6
16411.8
16374
16323
16254.3
16161.4
16034.5
15860.4
15626.2
15338.6
15080
16452.5
16448.5
16440
16426.5
16406.6
16378.8
16341
16290
16221.9
16131.7
16012.9
15859.2
15668
15453.6
15273.9
16421
16417.3
16409.5
16397
16378.4
16352.2
16316.4
16268.2
16204.2
16121.1
16014.9
15883.2
15725.4
15543.9
15352.4
16391.3
16388.2
16381.7
16370.9
16354.7
16331.7
16299.7
16256.5
16199.3
16125.6
16034.1
15924.7
15798.6
15640.7
15307.5
16363
16360.8
16356
16347.8
16335.2
16316.6
16290.2
16253.8
16204.9
16142
16064.8
15977.1
15893.3
15858.8
16061.1
16335.6
16334.5
16331.9
16327.1
16319
16306.2
16286.9
16258.9
16219.7
16167.6
16101.9
16026.2
15952.8
15911.4
15945.5
16308.2
16308.5
16308.6
16307.9
16305.4
16299.7
16289
16270.9
16242.8
16201.8
16145.3
16072.9
15989.3
15910.8
15864.3
16279.9
16281.7
16285
16289.2
16293.2
16295.9
16295.4
16289.2
16274
16245.9
16199
16126.5
16021.5
15887.2
15761.6
16249.7
16253.2
16260.1
16269.8
16281.3
16293.6
16304.9
16312.8
16313.6
16302.2
16269.8
16201.7
16073.4
15856.6
15582.7
16216.1
16221.7
16232.5
16248.2
16268.1
16291.2
16316.1
16340.4
16360.9
16372.2
16364.7
16318
16185.8
15864.7
15224.7
16178
16185.6
16200.7
16223
16252
16286.9
16326.8
16369.9
16413.7
16454.5
16485.8
16492.7
16428.7
16093.7
14433.3
16133.8
16143.6
16163.2
16192.3
16230.8
16278.4
16334.5
16398
16467.7
16542.6
16623
16715.9
16858.9
17242.3
18911.8
16082
16094.1
16118.1
16154.3
16202.7
16263.3
16336.1
16420.9
16517.3
16626.1
16750.7
16903.4
17121.1
17496.8
18149.9
16021.1
16035.3
16063.8
16107
16165.2
16238.9
16328.7
16434.8
16557.5
16697.8
16858
17044.8
17272.7
17557.5
17853.8
15949.6
15965.8
15998.6
16048.4
16116.1
16202.6
16309.1
16436.2
16584.7
16754.7
16945.8
17156.8
17383.7
17609.2
17775.6
15866
15884
15920.6
15976.6
16053.1
16151.7
16274.2
16422
16596
16796
17018.8
17257
17494.5
17701
17825.3
15769
15788.6
15828.5
15889.6
15973.9
16083.5
16220.9
16388.7
16588.5
16820.4
17080.3
17356.6
17625.9
17848.9
17973.5
15657.5
15678.3
15720.6
15785.9
15876.4
15995.1
16145.7
16332.1
16557.8
16824.6
17129.5
17460.2
17788.3
18064.1
18220.7
15530.9
15552.3
15596
15663.8
15758.4
15883.8
16044.8
16247.4
16497.7
16801.4
17159.9
17564.5
17986.1
18361.1
18588.8
15388.5
15410
15453.8
15522.2
15618.3
15746.9
15914.3
16128.6
16399.7
16739.2
17157.2
17656.2
18215.2
18759.5
19127.4
15230.5
15251.3
15293.8
15360.5
15454.8
15582.2
15750.3
15969.4
16253.4
16621.5
17097.3
17705.3
18453.5
19279.3
19933.7
15057.3
15076.6
15116.3
15178.7
15267.6
15388.6
15550.2
15764.1
16047.9
16428.1
16944.7
17656.2
18636.9
19917.1
21206.7
14869.9
14887
14922.2
14977.7
15057.2
15166.1
15312.8
15509.3
15774.6
16139.2
16655.7
17419.2
18611.2
20547.3
23387.4
14669.9
14684
14713.2
14759.3
14825.6
14916.7
15040
15206
15431.4
15744.1
16194.1
16883.8
18067.8
20548.5
27552.5
-29222.3
-21717.4
-19050.4
-17775.8
-17034.4
-16552.5
-16219.3
-15980.4
-15805.5
-15676.2
-15581
-15512
-15464.1
-15433.8
-15419.2
-24744.2
-21697.8
-19620.2
-18342.1
-17525.5
-16975.5
-16589.1
-16309.4
-16103.2
-15949.9
-15836.4
-15753.7
-15696.1
-15659.5
-15641.8
-22389.2
-21004.8
-19634.1
-18587.2
-17830.8
-17284.4
-16884.2
-16586.9
-16363.7
-16195.6
-16069.8
-15977.6
-15912.8
-15871.7
-15851.7
-21003.4
-20301.7
-19422.4
-18630
-17989.6
-17491.2
-17107.4
-16812.3
-16585.3
-16411.3
-16279.4
-16181.8
-16112.7
-16068.6
-16047.1
-20112.6
-19721.4
-19149.6
-18566.7
-18049.3
-17617.9
-17268.5
-16989.8
-16769.6
-16597.4
-16464.8
-16365.5
-16294.8
-16249.3
-16227.1
-19501.3
-19265.8
-18883.9
-18457.3
-18048.8
-17687
-17380
-17126.2
-16920
-16755.3
-16626.6
-16528.9
-16458.8
-16413.4
-16391.1
-19061.5
-18911.2
-18648.7
-18334.7
-18015.2
-17717.4
-17454.1
-17228.9
-17041.1
-16887.9
-16766.2
-16672.7
-16605
-16560.9
-16539.2
-18733.8
-18633.9
-18448.7
-18215.2
-17965.9
-17723.4
-17501
-17305
-17137.5
-16998.1
-16885.6
-16798.2
-16734.2
-16692.3
-16671.6
-18483.5
-18415.1
-18281.6
-18106.2
-17911.3
-17714.9
-17529.1
-17360.9
-17213.8
-17089.1
-16987
-16906.8
-16847.5
-16808.5
-16789.1
-18288.5
-18241
-18143.2
-18009.9
-17857.2
-17698.5
-17544.3
-17401.4
-17273.9
-17164
-17072.7
-17000.2
-16946.2
-16910.5
-16892.7
-18134.4
-18101.2
-18028.7
-17926.7
-17806.5
-17678.5
-17551.2
-17430.7
-17321.3
-17225.5
-17144.9
-17080.3
-17031.8
-16999.4
-16983.3
-18011.2
-17988.2
-17934.1
-17855.6
-17760.8
-17657.5
-17552.7
-17451.7
-17358.5
-17275.9
-17205.5
-17148.5
-17105.5
-17076.6
-17062.2
-17911.8
-17896.3
-17855.8
-17795.2
-17720.2
-17637
-17551
-17466.8
-17388
-17317.1
-17256.3
-17206.5
-17168.7
-17143.3
-17130.5
-17831
-17821.1
-17791
-17744.1
-17684.9
-17617.8
-17547.4
-17477.5
-17411.2
-17351
-17298.7
-17255.7
-17222.8
-17200.6
-17189.4
-17765.1
-17759.4
-17737.2
-17701.1
-17654.3
-17600.4
-17543
-17485.2
-17429.7
-17378.8
-17334.3
-17297.3
-17269
-17249.7
-17240
-17710.9
-17708.5
-17692.6
-17664.9
-17628.1
-17584.9
-17538.2
-17490.6
-17444.4
-17401.7
-17363.9
-17332.5
-17308.2
-17291.6
-17283.2
-17666.4
-17666.5
-17655.5
-17634.6
-17605.8
-17571.3
-17533.5
-17494.5
-17456.2
-17420.5
-17388.7
-17362.1
-17341.4
-17327.3
-17320.1
-17629.6
-17631.8
-17624.6
-17609.1
-17586.8
-17559.5
-17529
-17497.2
-17465.7
-17436
-17409.4
-17387
-17369.6
-17357.6
-17351.5
-17599.2
-17603
-17598.9
-17587.8
-17570.8
-17549.3
-17524.9
-17499.2
-17473.3
-17448.8
-17426.7
-17408
-17393.3
-17383.2
-17378.1
-17574
-17579.1
-17577.5
-17569.9
-17557.2
-17540.6
-17521.3
-17500.5
-17479.5
-17459.4
-17441.1
-17425.5
-17413.3
-17404.8
-17400.5
-17553.2
-17559.4
-17559.8
-17555
-17545.9
-17533.2
-17518.1
-17501.5
-17484.5
-17468.1
-17453.1
-17440.2
-17430.1
-17423
-17419.4
-17536
-17543
-17545.1
-17542.6
-17536.4
-17526.9
-17515.2
-17502.2
-17488.6
-17475.3
-17463
-17452.5
-17444.1
-17438.3
-17435.3
-17521.8
-17529.5
-17532.9
-17532.4
-17528.4
-17521.7
-17512.8
-17502.7
-17491.9
-17481.2
-17471.2
-17462.6
-17455.8
-17451
-17448.5
-17510.2
-17518.4
-17522.9
-17523.9
-17521.9
-17517.3
-17510.8
-17503
-17494.6
-17486
-17478
-17471
-17465.4
-17461.5
-17459.5
-17500.7
-17509.4
-17514.8
-17517
-17516.5
-17513.7
-17509.1
-17503.3
-17496.7
-17489.9
-17483.5
-17477.9
-17473.3
-17470.1
-17468.5
-17493.1
-17502.2
-17508.2
-17511.4
-17512.1
-17510.7
-17507.7
-17503.4
-17498.4
-17493.1
-17488
-17483.4
-17479.8
-17477.1
-17475.8
-17487.1
-17496.5
-17503
-17507
-17508.7
-17508.4
-17506.5
-17503.5
-17499.7
-17495.5
-17491.5
-17487.8
-17484.8
-17482.7
-17481.6
-17482.6
-17492.1
-17499.1
-17503.6
-17506
-17506.6
-17505.6
-17503.5
-17500.7
-17497.4
-17494.2
-17491.2
-17488.7
-17487
-17486
-17479.3
-17489
-17496.2
-17501.2
-17504.1
-17505.2
-17504.9
-17503.5
-17501.4
-17498.8
-17496.1
-17493.6
-17491.6
-17490.1
-17489.3
-17477.2
-17487
-17494.4
-17499.6
-17502.8
-17504.3
-17504.4
-17503.5