/*--------------------------------*- C++ -*----------------------------------*\
| =========                 |                                                 |
| \\      /  F ield         | OpenFOAM: The Open Source CFD Toolbox           |
|  \\    /   O peration     | Version:  5.x                                   |
|   \\  /    A nd           | Web:      www.OpenFOAM.org                      |
|    \\/     M anipulation  |                                                 |
\*---------------------------------------------------------------------------*/
FoamFile
{
    version     2.0;
    format      ascii;
    class       volScalarField;
    location    "17.3";
    object      gradTx;
}
// * * * * * * * * * * * * * * * * * * * * * * * * * * * * * * * * * * * * * //

dimensions      [0 -1 0 1 0 0 0];

internalField   nonuniform List<scalar> 
6300
(
7.52958
7.50675
7.46112
7.39271
7.3016
7.18795
7.05201
6.89421
6.71518
6.51587
6.29763
6.06225
5.81204
5.54985
5.27905
7.55211
7.52927
7.4836
7.41511
7.32386
7.20996
7.0736
6.91516
6.73518
6.53455
6.31453
6.07684
5.82379
5.55825
5.28368
7.59719
7.57433
7.5286
7.45998
7.36848
7.25413
7.11701
6.95736
6.77558
6.57238
6.34883
6.10656
5.8478
5.57548
5.29324
7.66482
7.64195
7.59618
7.52745
7.43567
7.32077
7.18268
7.02142
6.83714
6.63027
6.40161
6.15253
5.88513
5.6024
5.30826
7.75502
7.73218
7.68643
7.61766
7.5257
7.41031
7.27123
7.10821
6.92104
6.70971
6.47457
6.21658
5.93756
5.64051
5.32973
7.86776
7.845
7.7994
7.73078
7.63885
7.52325
7.38346
7.21887
7.02881
6.81268
6.57013
6.3014
6.00779
5.69212
5.35917
8.00296
7.98037
7.93508
7.86688
7.77539
7.66008
7.52019
7.35471
7.1624
6.94182
6.69162
6.41087
6.09983
5.7608
5.39897
8.16042
8.13811
8.09337
8.02596
7.93546
7.8212
7.68222
7.51711
7.32396
7.10033
6.84338
6.55038
6.21963
5.85205
5.45294
8.33988
8.31796
8.27402
8.20782
8.11896
8.00675
7.87008
7.70725
7.51571
7.29186
7.03093
6.72738
6.37602
5.97458
5.52736
8.54094
8.51951
8.4766
8.41203
8.32551
8.21644
8.08379
7.9258
7.73949
7.52018
7.26083
6.9519
6.58224
6.14263
5.63307
8.76309
8.74222
8.7005
8.63788
8.55427
8.44938
8.32255
8.17235
7.99597
7.78822
7.54003
7.23688
6.85813
6.38038
5.79009
9.00576
8.98546
8.94495
8.88439
8.80398
8.70395
8.58435
8.44475
8.28351
8.09637
7.87387
7.59716
7.23276
6.73043
6.0387
9.26838
9.24857
9.20912
9.1504
9.07298
8.97774
8.86581
8.73845
8.59662
8.43956
8.26159
8.04484
7.74504
7.26965
6.4696
9.55045
9.53096
9.49221
9.43474
9.35946
9.26788
9.16233
9.04628
8.9246
8.80333
8.68777
8.57526
8.43262
8.13328
7.31827
9.85164
9.83223
9.79367
9.73653
9.66189
9.57163
9.46898
9.35936
9.25179
9.16104
9.11058
9.1355
9.27655
9.51223
9.30618
5.02657
4.79604
4.56706
4.34199
4.12304
3.91226
3.71145
3.52215
3.34562
3.18285
3.03458
2.9013
2.78333
2.68079
2.59366
2.52179
2.46492
2.42269
2.39466
2.38025
2.37882
2.38958
2.41164
2.44394
2.48533
2.53446
2.58991
2.65012
2.71349
2.7784
2.84324
2.90649
2.96674
3.02265
3.07301
3.11663
3.15233
3.17892
3.19516
3.19977
3.19152
3.16924
3.13196
3.07891
3.00959
2.92371
2.82115
2.70184
2.56566
2.41229
2.24116
2.0514
1.84183
1.61102
1.35737
1.07918
0.77473
0.442334
0.0803168
-0.313021
-0.739489
-1.20111
-1.70024
-2.2396
-2.8224
-3.4523
-4.13336
-4.87003
-5.66697
-6.529
-7.46094
-8.46753
-9.55334
-10.7227
-11.9796
-13.3276
-14.7698
-16.3085
-17.9453
-19.6802
-21.512
-23.4372
-25.4503
-27.5431
-29.7046
-31.9211
-34.1761
-36.4509
-38.7253
-40.9779
5.02753
4.79358
4.56125
4.33299
4.11112
3.89775
3.69473
3.50361
3.32566
3.16184
3.01285
2.87915
2.761
2.6585
2.57158
2.50008
2.44373
2.40216
2.37493
2.36147
2.36116
2.37322
2.39677
2.43078
2.47406
2.52527
2.58294
2.64546
2.71117
2.77837
2.8454
2.9107
2.97284
3.03053
3.08258
3.12789
3.16531
3.19369
3.21175
3.21815
3.21156
3.1907
3.15452
3.1022
3.03328
2.94758
2.84511
2.726
2.59026
2.43772
2.26785
2.07978
1.87227
1.64378
1.39258
1.11686
0.814858
0.484875
0.125311
-0.265413
-0.688959
-1.1472
-1.64237
-2.17713
-2.75466
-3.37867
-4.05335
-4.78327
-5.57328
-6.42834
-7.35345
-8.35345
-9.43303
-10.5966
-11.8483
-13.1919
-14.6306
-16.1673
-17.8038
-19.5407
-21.3772
-23.3105
-25.3354
-27.4439
-29.6252
-31.8653
-34.1472
-36.4513
-38.7562
-41.0395
5.02957
4.78862
4.54941
4.31462
4.08679
3.86818
3.66071
3.46598
3.28522
3.11935
2.96898
2.83448
2.71603
2.61364
2.52719
2.45646
2.40116
2.3609
2.33525
2.32368
2.32558
2.34022
2.36675
2.40416
2.45126
2.50668
2.56886
2.63611
2.70659
2.77847
2.84993
2.91934
2.98524
3.04639
3.10175
3.15035
3.1912
3.22318
3.24498
3.25511
3.25199
3.2341
3.20015
3.14926
3.08101
2.99544
2.89292
2.77395
2.63893
2.48795
2.32061
2.13604
1.9328
1.70912
1.46297
1.19228
0.895159
0.569904
0.215071
-0.170642
-0.588557
-1.04022
-1.52757
-2.05313
-2.62005
-3.23215
-3.89384
-4.61003
-5.38592
-6.22685
-7.13811
-8.12479
-9.19175
-10.3436
-11.5846
-12.919
-14.3504
-15.8824
-17.5175
-19.2576
-21.1029
-23.0516
-25.0997
-27.2397
-29.461
-31.7491
-34.0859
-36.4501
-38.818
-41.1644
5.03286
4.78096
4.531
4.28607
4.04904
3.82239
3.60821
3.40809
3.22322
3.05441
2.90212
2.76658
2.64782
2.54572
2.46005
2.39053
2.33681
2.29851
2.2752
2.2664
2.27155
2.29
2.32097
2.36348
2.41637
2.47823
2.5474
2.62198
2.6999
2.77903
2.85731
2.93291
3.00433
3.07046
3.13051
3.18383
3.22972
3.26719
3.29488
3.31101
3.31354
3.30046
3.27003
3.22116
3.15352
3.06755
2.96426
2.84487
2.71045
2.56157
2.39808
2.21901
2.02265
1.80669
1.56854
1.30566
1.01585
0.69741
0.349189
-0.0296013
-0.439659
-0.881915
-1.35784
-1.86964
-2.42045
-3.01426
-3.65591
-4.35086
-5.10495
-5.92412
-6.81416
-7.78052
-8.82825
-9.96208
-11.1866
-12.5062
-13.9254
-15.4487
-17.08
-18.8229
-20.6794
-22.6497
-24.7314
-26.9183
-29.2003
-31.5624
-33.9848
-36.4434
-38.9105
-41.3564
5.03775
4.77034
4.50517
4.24598
3.99616
3.75853
3.53531
3.3281
3.13798
2.96554
2.81102
2.67441
2.55552
2.45402
2.36956
2.30175
2.25017
2.21445
2.19417
2.18893
2.19828
2.22168
2.25846
2.30776
2.36848
2.43917
2.51804
2.60292
2.69135
2.7807
2.86844
2.95238
3.03092
3.10317
3.16882
3.22788
3.28021
3.32516
3.36128
3.38633
3.39745
3.39165
3.36633
3.31995
3.25227
3.16446
3.05864
2.93729
2.80265
2.65609
2.49783
2.32677
2.14059
1.93607
1.7096
1.45771
1.17764
0.867688
0.52722
0.156362
-0.24449
-0.675227
-1.13651
-1.63008
-2.15898
-2.72755
-3.34128
-4.00656
-4.73028
-5.51937
-6.38034
-7.31907
-8.34073
-9.45
-10.6515
-11.9499
-13.3506
-14.8593
-16.4819
-18.2244
-20.0917
-22.0872
-24.2112
-26.4599
-28.8241
-31.2885
-33.8313
-36.424
-39.0331
-41.6217
5.04478
4.75629
4.47054
4.19225
3.92557
3.67376
3.4392
3.2234
3.02716
2.85075
2.69404
2.55664
2.43805
2.33769
2.25501
2.18948
2.14062
2.10804
2.09139
2.09037
2.10469
2.13399
2.17782
2.23552
2.30612
2.38823
2.47991
2.57864
2.68135
2.78458
2.88493
2.9795
3.06644
3.14523
3.2165
3.28149
3.34121
3.39568
3.44347
3.48155
3.5056
3.51077
3.49283
3.44923
3.37988
3.28716
3.17521
3.04872
2.91186
2.76733
2.61589
2.45616
2.28479
2.09695
1.88714
1.6502
1.38233
1.0818
0.7489
0.385411
-0.00638509
-0.424653
-0.868751
-1.33971
-1.84047
-2.37587
-2.95246
-3.57815
-4.26153
-5.01112
-5.83458
-6.73822
-7.72703
-8.80515
-9.97667
-11.2464
-12.6202
-14.1056
-15.711
-17.4459
-19.3194
-21.3396
-23.5113
-25.8348
-28.3032
-30.9017
-33.6055
-36.3807
-39.1848
-41.9699
5.05481
4.73812
4.42497
4.12165
3.83339
3.56401
3.31593
3.09039
2.88768
2.70749
2.54913
2.41168
2.29422
2.19582
2.11568
2.0531
2.00754
1.9786
1.96602
1.96965
1.98942
2.02528
2.07711
2.1446
2.2271
2.32341
2.43154
2.54854
2.67047
2.79251
2.90962
3.01748
3.11357
3.19797
3.2731
3.34256
3.4096
3.47567
3.53951
3.59684
3.64076
3.66304
3.65613
3.61543
3.54097
3.43742
3.31256
3.17494
3.03195
2.88837
2.74575
2.60219
2.45259
2.28935
2.10362
1.88708
1.63395
1.34239
1.01452
0.655114
0.269734
-0.136978
-0.562403
-1.00653
-1.47216
-1.96492
-2.49301
-3.06672
-3.69748
-4.39653
-5.17337
-6.03476
-6.98473
-8.02577
-9.16046
-10.3928
-11.7293
-13.1789
-14.7537
-16.4676
-18.3359
-20.3735
-22.5928
-25.0006
-27.595
-30.3628
-33.2768
-36.2954
-39.3634
-42.4157
5.06919
4.71465
4.36506
4.0292
3.71386
3.42342
3.16007
2.92435
2.71565
2.53271
2.37398
2.23787
2.12285
2.02758
1.95097
1.89213
1.85044
1.82552
1.81723
1.82561
1.85092
1.8935
1.95376
2.03198
2.12812
2.24147
2.37027
2.51126
2.6593
2.80741
2.94753
3.07226
3.17741
3.26394
3.33772
3.40698
3.47925
3.55873
3.64479
3.73126
3.80691
3.8572
3.86793
3.8301
3.74377
3.61822
3.4681
3.30876
3.15272
3.00788
2.87681
2.75676
2.63988
2.51399
2.36432
2.17652
1.9408
1.65514
1.32541
0.962112
0.576465
0.177538
-0.229226
-0.642454
-1.06486
-1.50316
-1.96793
-2.47318
-3.03515
-3.66995
-4.39045
-5.20375
-6.11128
-7.11155
-8.20358
-9.38935
-10.6752
-12.0721
-13.5959
-15.2668
-17.1083
-19.1456
-21.4026
-23.8974
-26.6371
-29.613
-32.7971
-36.1388
-39.5643
-42.9813
5.09017
4.68385
4.28518
3.90705
3.55833
3.24366
2.96429
2.71927
2.50638
2.32294
2.16618
2.03359
1.92294
1.83241
1.76058
1.70638
1.66912
1.64844
1.64434
1.65714
1.68745
1.73619
1.80447
1.89349
2.00426
2.13718
2.29137
2.46373
2.64793
2.83372
3.00745
3.15511
3.26794
3.34815
3.40868
3.46694
3.53836
3.63218
3.74929
3.88112
4.0094
4.10814
4.14951
4.11442
4.00289
3.83423
3.63677
3.43765
3.25722
3.10738
2.99186
2.90662
2.83998
2.77275
2.67977
2.53484
2.3194
2.03124
1.68453
1.30117
0.902216
0.503238
0.113161
-0.265263
-0.634766
-1.00335
-1.38463
-1.79805
-2.26799
-2.82001
-3.47396
-4.2371
-5.10429
-6.06521
-7.11171
-8.24179
-9.46102
-10.7824
-12.2264
-13.8203
-15.5986
-17.6012
-19.8699
-22.4414
-25.3386
-28.5632
-32.0904
-35.8612
-39.7768
-43.701
5.12153
4.64188
4.17554
3.7424
3.35366
3.01296
2.71897
2.4678
2.25462
2.07463
1.92351
1.79761
1.69397
1.61026
1.54474
1.49618
1.46384
1.44742
1.44706
1.46336
1.49738
1.55066
1.62524
1.72359
1.84842
2.00219
2.1862
2.39904
2.63417
2.87725
3.10482
3.28798
3.40529
3.46056
3.48276
3.50782
3.56507
3.67194
3.83247
4.0359
4.25425
4.4415
4.54102
4.50862
4.34413
4.09154
3.80766
3.53951
3.31753
3.15734
3.06314
3.02954
3.0408
3.06842
3.0699
2.99456
2.80258
2.49152
2.09628
1.66257
1.2279
0.816032
0.438678
0.0989896
-0.206078
-0.48537
-0.755114
-1.04161
-1.38271
-1.82335
-2.40028
-3.12067
-3.96234
-4.89568
-5.89945
-6.96585
-8.09967
-9.31631
-10.6408
-12.1083
-13.7659
-15.6736
-17.901
-20.5163
-23.5684
-27.0777
-31.0324
-35.3746
-39.9766
-44.6297
5.17012
4.58056
4.01792
3.51366
3.07968
2.71489
2.41191
2.16155
1.955
1.78467
1.64444
1.52952
1.43623
1.36185
1.3044
1.26256
1.23557
1.22321
1.22574
1.24402
1.27951
1.33438
1.41171
1.51551
1.65084
1.82355
2.03944
2.30215
2.60884
2.94302
3.26598
3.51555
3.63186
3.62047
3.55256
3.50218
3.5202
3.63428
3.8537
4.16905
4.54372
4.90099
5.12233
5.09286
4.81203
4.39374
3.95575
3.5747
3.28872
3.11214
3.04705
3.08771
3.2179
3.40157
3.5705
3.62207
3.45708
3.07289
2.5633
2.0252
1.52065
1.07903
0.709877
0.413308
0.185413
0.0187811
-0.101555
-0.206636
-0.354157
-0.630503
-1.12009
-1.82963
-2.68844
-3.62474
-4.59703
-5.5928
-6.61903
-7.69487
-8.84913
-10.1224
-11.573
-13.2855
-15.3734
-17.9619
-21.1397
-24.9504
-29.4162
-34.5133
-40.1026
-45.8586
5.24899
4.48032
3.77611
3.18353
2.70591
2.32763
2.02894
1.79212
1.6031
1.45128
1.32887
1.23021
1.15122
1.089
1.04153
1.0075
0.986211
0.977486
0.981707
0.999857
1.03365
1.08574
1.16
1.26196
1.39936
1.58265
1.82517
2.14182
2.54384
3.02482
3.53271
3.93487
4.04218
3.86161
3.597
3.39791
3.33686
3.44474
3.73665
4.21658
4.85808
5.55601
6.06461
6.03884
5.4777
4.72415
4.02164
3.47284
3.10219
2.90624
2.87851
3.01683
3.31783
3.75579
4.23994
4.56126
4.42707
3.83469
3.07122
2.33941
1.72265
1.23757
0.876442
0.628636
0.488596
0.456177
0.529948
0.689364
0.859805
0.869312
0.476755
-0.323726
-1.303
-2.30205
-3.26082
-4.17593
-5.06696
-5.9605
-6.88614
-7.88096
-9.00296
-10.3566
-12.1248
-14.5589
-17.7996
-21.8794
-26.8908
-32.9432
-39.9879
-47.5485
5.38539
4.28707
3.37337
2.68773
2.18904
1.82571
1.55681
1.3538
1.19758
1.07548
0.979037
0.902519
0.842017
0.794858
0.759252
0.734067
0.718714
0.713085
0.71757
0.733123
0.76142
0.805124
0.868338
0.957334
1.08174
1.2564
1.50407
1.85849
2.36502
3.06775
3.95155
4.77862
4.86687
4.22362
3.54692
3.09472
2.91013
2.99008
3.3487
4.03129
5.09098
6.48346
7.77612
7.75549
6.42022
4.98084
3.86604
3.11431
2.66398
2.45799
2.47072
2.71157
3.22038
4.04335
5.14366
6.15618
6.05666
4.84268
3.53338
2.48783
1.73495
1.21752
0.879754
0.688703
0.636724
0.740573
1.03803
1.56939
2.3054
2.94797
2.66088
1.43954
0.110816
-1.03739
-1.9875
-2.79372
-3.5113
-4.17988
-4.82351
-5.45638
-6.09934
-6.8307
-7.91748
-9.99411
-13.2513
-17.4665
-22.866
-29.944
-39.1299
-50.0065
5.64137
3.82776
2.64216
1.92264
1.47714
1.18772
0.989752
0.848044
0.742872
0.662697
0.600472
0.551731
0.513566
0.484054
0.46194
0.446448
0.437183
0.434091
0.437465
0.448008
0.466969
0.496382
0.539516
0.601676
0.691717
0.824984
1.02917
1.35603
1.90361
2.84979
4.45193
6.68609
6.74472
4.63364
3.17345
2.40601
2.10236
2.13402
2.49409
3.30283
4.84444
7.55442
11.3785
11.3649
7.51242
4.76995
3.18742
2.32164
1.87381
1.69468
1.73431
2.02035
2.67039
3.93137
6.17358
9.35221
9.29083
5.98772
3.61561
2.21467
1.40807
0.938698
0.67172
0.548441
0.560391
0.7461
1.20921
2.15459
3.88539
6.36519
6.19013
3.35731
1.26461
-0.0580916
-0.921408
-1.53918
-2.02619
-2.43519
-2.77638
-3.01727
-3.0684
-2.793
-2.2847
-3.72925
-7.32354
-11.348
-16.4241
-23.909
-35.8369
-53.8769
6.16334
2.46397
1.23961
0.762911
0.540423
0.418009
0.341629
0.28964
0.252139
0.224037
0.202465
0.185694
0.172633
0.162578
0.155073
0.149843
0.146746
0.145768
0.147018
0.150756
0.157446
0.167862
0.183276
0.205844
0.239417
0.291408
0.377587
0.535692
0.868119
1.68716
4.04203
11.7261
11.7467
4.10618
1.80229
1.04935
0.811666
0.804961
0.993282
1.51891
2.91526
7.02078
20.5066
20.5018
7.00593
2.88857
1.47653
0.927048
0.696641
0.616291
0.642998
0.804882
1.24056
2.40625
5.8548
17.2135
17.1927
5.79189
2.29919
1.08556
0.595536
0.36836
0.256713
0.213401
0.2338
0.352112
0.685849
1.60868
4.38664
13.6051
13.5463
4.20915
1.30948
0.259646
-0.208939
-0.472956
-0.653429
-0.788139
-0.873702
-0.851435
-0.507666
0.909278
6.16008
5.63115
-0.776275
-3.71518
-6.51347
-11.4758
-23.7424
-60.5856
-43.4026
-45.96
-48.3914
-50.6703
-52.7758
-54.6933
-56.4137
-57.9328
-59.2502
-60.368
-61.29
-62.0204
-62.5637
-62.9237
-63.103
-43.4963
-46.0854
-48.5436
-50.8431
-52.9633
-54.8898
-56.6144
-58.134
-59.4493
-60.5633
-61.4808
-62.2069
-62.7465
-63.1038
-63.2816
-43.6874
-46.3415
-48.8538
-51.195
-53.344
-55.2876
-57.0196
-58.5391
-59.8489
-60.9546
-61.8625
-62.5793
-63.111
-63.4626
-63.6375
-43.9834
-46.7389
-49.3346
-51.7385
-53.9295
-55.8966
-57.6368
-59.1531
-60.4522
-61.543
-62.4346
-63.1361
-63.655
-63.9975
-64.1677
-44.3971
-47.2959
-50.0067
-52.4943
-54.7385
-56.732
-58.4774
-59.9837
-61.2634
-62.3299
-63.1964
-63.8748
-64.3749
-64.704
-64.8673
-44.9486
-48.0403
-50.9015
-53.4931
-55.7976
-57.8149
-59.5566
-61.0405
-62.287
-63.3161
-64.1458
-64.7913
-65.265
-65.5758
-65.7297
-45.6686
-49.0147
-52.0655
-54.7786
-57.1434
-59.1729
-60.8928
-62.334
-63.5275
-64.5012
-65.2787
-65.8791
-66.3173
-66.6038
-66.7453
-46.6048
-50.2837
-53.5668
-56.4116
-58.8241
-60.8398
-62.507
-63.8747
-64.9872
-65.8817
-66.5879
-67.1287
-67.5207
-67.776
-67.9018
-47.8332
-51.9481
-55.506
-58.4763
-60.9008
-62.8549
-64.4201
-65.6698
-66.6642
-67.45
-68.0621
-68.5262
-68.8604
-69.077
-69.1835
-49.4807
-54.1689
-58.0324
-61.0862
-63.4473
-65.2582
-66.648
-67.7196
-68.5491
-69.191
-69.6835
-70.053
-70.317
-70.4874
-70.571
-51.7729
-57.214
-61.3678
-64.3882
-66.5434
-68.082
-69.1938
-70.0109
-70.6209
-71.0808
-71.4274
-71.6844
-71.8668
-71.984
-72.0413
-55.1461
-61.5459
-65.836
-68.555
-70.2551
-71.3318
-72.0337
-72.5086
-72.842
-73.0831
-73.2602
-73.3897
-73.481
-73.5397
-73.5684
-60.5513
-67.987
-71.8745
-73.7402
-74.5894
-74.9555
-75.1
-75.1472
-75.1547
-75.1485
-75.1397
-75.1323
-75.1274
-75.1246
-75.1234
-70.3944
-77.9758
-79.9342
-79.9412
-79.4061
-78.8001
-78.263
-77.8247
-77.4803
-77.2158
-77.0171
-76.8719
-76.7709
-76.7073
-76.6765
-91.9378
-93.5865
-89.9442
-86.6838
-84.2928
-82.5747
-81.3265
-80.4077
-79.7251
-79.2165
-78.84
-78.5665
-78.3763
-78.2563
-78.1982
10.1452
10.1256
10.0867
10.0289
9.95308
9.86108
9.75611
9.64411
9.53597
9.45166
9.42878
9.5423
9.96303
11.1808
15.0521
10.4254
10.4055
10.3659
10.3069
10.2288
10.1329
10.0217
9.90003
9.77749
9.67298
9.62307
9.69851
10.0333
10.8546
12.3082
10.719
10.6989
10.6585
10.5977
10.5166
10.4152
10.2943
10.1562
10.0063
9.85612
9.73004
9.67428
9.76563
10.089
10.5776
11.0264
11.006
10.9648
10.9025
10.8181
10.7106
10.5786
10.4204
10.2349
10.0223
9.78791
9.54756
9.33653
9.20845
9.19015
11.3477
11.3272
11.2857
11.2223
11.1355
11.0229
10.8807
10.7033
10.4819
10.2035
9.84961
9.40022
8.84958
8.25139
7.79394
11.683
11.6627
11.6214
11.558
11.4704
11.3552
11.2069
11.0164
10.7684
10.4367
9.97736
9.32291
8.39541
7.19638
6.08401
12.0321
12.0124
11.9722
11.9103
11.8242
11.7103
11.5621
11.3692
11.1127
10.7584
10.2403
9.43496
8.12956
6.08102
3.6056
12.3947
12.3759
12.3378
12.2789
12.1971
12.0888
11.9481
11.7657
11.5248
11.1933
10.7026
9.89403
8.37951
5.26197
-0.587798
12.77
12.7526
12.7174
12.6632
12.5881
12.4893
12.3627
12.2025
11.9996
11.7384
11.3852
10.8431
9.74241
6.34018
-8.83935
13.157
13.1414
13.1099
13.0616
12.9951
12.9087
12.8003
12.6686
12.5146
12.3471
12.1986
12.1799
12.7033
15.5969
30.4604
13.5544
13.541
13.5138
13.4723
13.4157
13.343
13.2538
13.1499
13.0386
12.9422
12.9217
13.1398
14.0178
16.5408
21.9988
13.9608
13.9497
13.9273
13.8933
13.847
13.7882
13.7171
13.636
13.552
13.4842
13.4785
13.6412
14.1896
15.4461
17.3325
14.3746
14.366
14.3486
14.3223
14.2866
14.2415
14.1869
14.1237
14.054
13.9827
13.9182
13.8743
13.8691
13.9137
13.9814
14.794
14.788
14.7757
14.7573
14.7325
14.701
14.6624
14.6154
14.5568
14.476
14.343
14.0803
13.5137
12.3649
10.6826
15.2173
15.2138
15.2068
15.1964
15.1825
15.165
15.1431
15.1149
15.0747
15.0051
14.8575
14.497
13.5622
11.1862
6.22104
15.6426
15.6417
15.64
15.6376
15.6347
15.6315
15.6277
15.6224
15.6125
15.5881
15.5194
15.3121
14.6111
11.8054
-1.68302
16.0681
16.0698
16.0732
16.0787
16.0867
16.0979
16.1128
16.1328
16.1601
16.2012
16.2771
16.4697
17.1212
19.8428
33.2481
16.4921
16.4962
16.5045
16.5176
16.5361
16.5611
16.594
16.6376
16.6979
16.7896
16.9532
17.3082
18.1932
20.4603
25.2984
16.9129
16.9192
16.9322
16.9523
16.9806
17.0182
17.0672
17.1305
17.2136
17.3274
17.4961
17.7783
18.3048
19.292
20.7148
17.3288
17.3372
17.3544
17.3809
17.418
17.467
17.5299
17.6092
17.7077
17.8265
17.9595
18.0784
18.0958
17.8208
17.1259
17.7385
17.7488
17.7696
17.8019
17.8467
17.9056
17.9807
18.0742
18.1872
18.3152
18.4323
18.4486
18.0893
16.6407
13.061
18.1406
18.1525
18.1765
18.2136
18.265
18.3324
18.4181
18.5251
18.6561
18.8108
18.9744
19.0793
18.8387
16.94
6.517
18.5341
18.5472
18.5739
18.615
18.6717
18.7458
18.8402
18.9588
19.1082
19.2996
19.5569
19.9493
20.7389
23.1587
33.9195
18.9179
18.9322
18.9609
19.005
19.0657
19.1447
19.2448
19.3706
19.5306
19.7421
20.0451
20.543
21.5065
23.5845
27.6242
19.2915
19.3065
19.3368
19.3831
19.4465
19.5284
19.631
19.7583
19.9169
20.1203
20.3973
20.8129
21.4996
22.6473
24.1416
19.6541
19.6697
19.7011
19.7489
19.8138
19.8969
19.9996
20.1236
20.2716
20.4468
20.6528
20.894
21.1719
21.4687
21.7043
20.0054
20.0214
20.0535
20.1022
20.168
20.2513
20.3526
20.4718
20.6071
20.7513
20.8831
20.9491
20.8305
20.3323
19.4381
20.3451
20.3614
20.394
20.4432
20.5094
20.5926
20.6926
20.8084
20.936
21.0638
21.1586
21.132
20.752
19.4703
16.5585
20.6731
20.6895
20.7224
20.772
20.8384
20.9215
21.021
21.1362
21.2644
21.3985
21.5178
21.5599
21.2989
19.7398
11.6646
20.9891
21.0056
21.0388
21.0886
21.1551
21.2383
21.338
21.4543
21.5882
21.7428
21.93
22.1977
22.7468
24.5339
32.7301
21.2931
21.3097
21.3431
21.3931
21.4597
21.5429
21.6427
21.7598
21.8972
22.0638
22.2858
22.6395
23.3341
24.8767
27.9361
21.5849
21.6017
21.6352
21.6855
21.7523
21.8354
21.9347
22.0507
22.1854
22.3456
22.5494
22.8441
23.3319
24.1656
25.2749
21.8646
21.8815
21.9153
21.9658
22.0328
22.116
22.2146
22.328
22.4555
22.5964
22.7494
22.914
23.0888
23.2625
23.3922
22.1321
22.1491
22.1832
22.2341
22.3016
22.3851
22.4834
22.5949
22.7159
22.838
22.9405
22.9765
22.8457
22.3893
21.6079
22.3871
22.4043
22.4388
22.4904
22.5587
22.6431
22.7424
22.8546
22.9751
23.0925
23.1774
23.1542
22.828
21.7413
19.2894
22.6295
22.6471
22.6821
22.7345
22.804
22.89
22.9918
23.108
23.236
23.3689
23.4886
23.5417
23.3377
22.0409
15.2765
22.8592
22.8771
22.9128
22.9661
23.0371
23.1253
23.2305
23.3528
23.4929
23.6538
23.8453
24.1072
24.6057
26.1369
33.026
23.076
23.0942
23.1305
23.185
23.2576
23.3481
23.4567
23.5845
23.7349
23.9165
24.1526
24.508
25.1556
26.5115
29.1169
23.2796
23.2981
23.3352
23.3908
23.4649
23.5575
23.6688
23.8001
23.9547
24.1407
24.3765
24.7052
25.2131
26.0177
27.0259
23.4697
23.4886
23.5264
23.5832
23.6588
23.7531
23.8663
23.9989
24.1523
24.3295
24.5351
24.7773
25.0637
25.3818
25.644
23.646
23.6653
23.704
23.7619
23.8389
23.9349
24.0496
24.1826
24.333
24.4978
24.6676
24.8182
24.8916
24.7842
24.453
23.8084
23.8281
23.8675
23.9266
24.0052
24.103
24.2195
24.3536
24.5031
24.6619
24.8129
24.9119
24.8444
24.3414
23.041
23.9565
23.9766
24.0169
24.0773
24.1576
24.2575
24.3764
24.5133
24.6663
24.8306
24.9935
25.1208
25.099
24.4516
20.7349
24.09
24.1106
24.1517
24.2135
24.2956
24.3979
24.52
24.6612
24.8212
24.9996
25.1981
25.4327
25.7871
26.6929
30.5434
24.2086
24.2296
24.2717
24.3349
24.419
24.5239
24.6494
24.7955
24.9628
25.1538
25.3769
25.6609
26.0915
26.8885
28.3484
24.312
24.3335
24.3765
24.4411
24.5272
24.6349
24.7639
24.9144
25.0874
25.285
25.5127
25.7865
26.1408
26.6231
27.1764
24.3998
24.4218
24.4657
24.5317
24.6199
24.7302
24.8626
25.0172
25.1945
25.3944
25.6159
25.8558
26.1004
26.3077
26.3979
24.4718
24.4942
24.539
24.6064
24.6964
24.8093
24.9451
25.1038
25.2852
25.4879
25.7056
25.9211
26.0851
26.073
25.6913
24.5277
24.5505
24.596
24.6646
24.7565
24.8718
25.0109
25.1739
25.3608
25.5703
25.7962
26.0216
26.1913
26.0943
24.7288
24.5672
24.5902
24.6365
24.7061
24.7995
24.9171
25.0593
25.2267
25.4202
25.6404
25.8864
26.1602
26.4821
26.9959
28.6035
24.5901
24.6133
24.66
24.7305
24.8251
24.9445
25.0893
25.2608
25.4607
25.6916
25.9567
26.2648
26.6386
27.1373
27.828
24.5962
24.6196
24.6665
24.7375
24.8329
24.9534
25.1001
25.2745
25.4792
25.7182
25.9965
26.3231
26.7077
27.1447
27.5414
24.5854
24.6088
24.6558
24.7268
24.8224
24.9434
25.0908
25.2665
25.4735
25.7166
26.0021
26.3405
26.7396
27.1795
27.5398
24.5578
24.581
24.6278
24.6985
24.7937
24.9142
25.061
25.2361
25.4424
25.6846
25.9704
26.315
26.7423
27.2689
27.7978
24.5133
24.5364
24.5826
24.6525
24.7467
24.8658
25.0109
25.1835
25.3858
25.6214
25.8972
26.2315
26.6753
27.356
28.4325
24.4523
24.4749
24.5204
24.5891
24.6817
24.7987
24.941
25.1095
25.3055
25.5296
25.7825
26.0714
26.4429
27.1675
29.8242
24.375
24.3971
24.4415
24.5086
24.5989
24.7132
24.852
25.016
25.2052
25.4171
25.6421
25.8534
25.9645
25.6367
23.2016
24.2817
24.3031
24.3461
24.4112
24.4989
24.6098
24.7447
24.9043
25.0885
25.2945
25.5106
25.7043
25.7902
25.5686
24.766
24.1729
24.1935
24.2349
24.2976
24.382
24.4891
24.6196
24.7749
24.9564
25.1642
25.3938
25.6296
25.8286
25.9033
25.7824
24.0492
24.0689
24.1084
24.1682
24.2488
24.3512
24.4765
24.6267
24.8054
25.0179
25.2719
25.5799
25.9525
26.3732
26.7242
23.9112
23.9298
23.9672
24.0236
24.0998
24.1966
24.3152
24.4582
24.6305
24.8418
25.112
25.4846
26.0422
26.891
27.9189
23.7598
23.7772
23.8121
23.8648
23.9359
24.026
24.1362
24.2687
24.428
24.6241
24.8804
25.2601
25.929
27.2837
29.8367
23.5957
23.6117
23.644
23.6927
23.7581
23.8407
23.941
24.06
24.1995
24.3636
24.5624
24.8343
25.3387
26.8436
33.5367
23.4198
23.4344
23.4639
23.5083
23.5677
23.6424
23.7321
23.8363
23.9536
24.0782
24.193
24.2464
24.0528
22.8
16.2431
23.2331
23.2463
23.2729
23.3128
23.3662
23.4328
23.5122
23.6031
23.702
23.7988
23.8655
23.8294
23.5018
22.4392
20.0558
23.0366
23.0484
23.072
23.1074
23.1547
23.2136
23.2836
23.3638
23.4515
23.5395
23.6087
23.6144
23.4605
22.995
22.2224
22.8314
22.8417
22.8623
22.8932
22.9344
22.9858
23.0472
23.1186
23.2003
23.2925
23.3953
23.5095
23.6349
23.7636
23.8612
22.6184
22.6272
22.6449
22.6713
22.7065
22.7504
22.8031
22.8658
22.9413
23.0375
23.1733
23.3962
23.8064
24.5531
25.5766
22.3987
22.4061
22.4208
22.4427
22.4718
22.508
22.5515
22.6034
22.6675
22.7541
22.8903
23.1523
23.7434
25.1498
28.0117
22.1734
22.1793
22.1911
22.2086
22.2316
22.2599
22.2932
22.3319
22.3777
22.4354
22.5192
22.6794
23.1134
24.7352
32.4429
21.9433
21.9478
21.9568
21.9701
21.9871
22.0075
22.0304
22.0549
22.0791
22.0979
22.0945
22.0158
21.6578
20.0935
12.4086
21.7095
21.7127
21.7191
21.7283
21.7397
21.7526
21.7658
21.7775
21.784
21.7749
21.7215
21.5457
21.0391
19.7019
16.8729
21.4728
21.4749
21.4789
21.4844
21.4906
21.4968
21.5015
21.5033
21.4991
21.482
21.4327
21.3049
20.9965
20.3457
19.381
21.2342
21.2353
21.2372
21.2394
21.241
21.2412
21.2386
21.2325
21.2229
21.2107
21.1978
21.189
21.191
21.2071
21.2274
20.9942
20.9945
20.9947
20.9941
20.9919
20.9867
20.9774
20.9637
20.9481
20.9391
20.9593
21.0653
21.3748
22.0651
23.0964
20.7535
20.7532
20.7521
20.7496
20.7442
20.7344
20.7185
20.6957
20.6683
20.6463
20.6608
20.7996
21.2936
22.6858
25.6897
20.5124
20.5118
20.5101
20.5064
20.4989
20.4856
20.4637
20.4304
20.3842
20.3276
20.2754
20.2867
20.5878
22.1867
30.3774
20.2713
20.2707
20.269
20.2651
20.2571
20.2421
20.2161
20.1736
20.1071
20.005
19.8452
19.572
18.9802
17.1095
8.73845
20.03
20.0298
20.029
20.0263
20.0196
20.0056
19.9793
19.9329
19.8542
19.7218
19.4933
19.078
18.26
16.5459
13.317
19.7882
19.7889
19.7897
19.7896
19.7865
19.7769
19.7557
19.714
19.6383
19.5045
19.2706
18.863
18.1616
17.0337
15.6612
19.5455
19.5474
19.5507
19.5545
19.5572
19.5558
19.5455
19.5184
19.4621
19.3562
19.1679
18.8517
18.3586
17.6909
17.0601
19.301
19.3043
19.3107
19.3197
19.3302
19.3402
19.3462
19.3426
19.3201
19.2643
19.1534
18.9628
18.6764
18.322
18.0287
19.0536
19.0585
19.0684
19.0833
19.1029
19.1267
19.1531
19.1794
19.2009
19.2098
19.1938
19.1399
19.0407
18.9101
18.8015
18.8023
18.8088
18.8222
18.8431
18.8722
18.9106
18.9592
19.019
19.0902
19.1718
19.2599
19.348
19.4262
19.4823
19.5066
18.546
18.5539
18.5703
18.5966
18.6345
18.6868
18.7571
18.8501
18.9718
19.1286
19.3255
19.5625
19.8263
20.0761
20.2365
18.2837
18.2925
18.3112
18.3415
18.3862
18.4499
18.5385
18.6607
18.8285
19.057
19.3626
19.758
20.2354
20.7314
21.0855
18.0147
18.0239
18.0435
18.0757
18.1243
18.1949
18.2958
18.4392
18.6428
18.9312
19.3367
19.896
20.6309
21.4848
22.188
17.7387
17.7476
17.7666
17.7982
17.8466
17.9183
18.0231
18.1755
18.3977
18.7235
19.2033
19.9116
20.943
22.3422
23.7866
17.4562
17.4639
17.4804
17.5084
17.5521
17.6182
17.7166
17.8627
18.0804
18.4083
18.9105
19.7025
20.9989
23.1676
26.3959
17.1679
17.1735
17.1858
17.2072
17.2416
17.295
17.3764
17.4996
17.6862
17.9713
18.4158
19.1425
20.4484
23.2566
31.2547
-151.962
-112.745
-98.7692
-92.067
-88.1546
-85.6031
-83.8322
-82.5582
-81.6224
-80.9287
-80.4157
-80.0428
-79.783
-79.6188
-79.5392
-128.582
-112.634
-101.74
-95.0228
-90.7196
-87.8132
-85.7648
-84.2778
-83.1785
-82.3592
-81.7502
-81.3058
-80.9951
-80.798
-80.7024
-116.285
-109.011
-101.809
-96.3016
-92.314
-89.4269
-87.3069
-85.7277
-84.5396
-83.6428
-82.9699
-82.4753
-82.1277
-81.9064
-81.7988
-109.047
-105.337
-100.702
-96.5243
-93.1433
-90.5072
-88.473
-86.9055
-85.6977
-84.7702
-84.0653
-83.5422
-83.172
-82.9353
-82.8198
-104.395
-102.306
-99.2766
-96.1929
-93.4547
-91.1686
-89.3145
-87.833
-86.6606
-85.7421
-85.0338
-84.5023
-84.1232
-83.8794
-83.7602
-101.202
-99.9257
-97.8885
-95.6208
-93.4514
-91.5293
-89.8968
-88.5453
-87.4464
-86.5675
-85.8789
-85.356
-84.9799
-84.7366
-84.6172
-98.9046
-98.0733
-96.6596
-94.98
-93.2757
-91.6882
-90.2835
-89.0817
-88.0787
-87.26
-86.6082
-86.1073
-85.7438
-85.5072
-85.3906
-97.1932
-96.6247
-95.6147
-94.3559
-93.0181
-91.7194
-90.5287
-89.4795
-88.5824
-87.8357
-87.2321
-86.7627
-86.419
-86.1939
-86.0826
-95.8854
-95.4819
-94.7418
-93.786
-92.7327
-91.6748
-90.6751
-89.7711
-88.981
-88.3114
-87.7622
-87.3302
-87.0112
-86.8011
-86.6968
-94.8666
-94.572
-94.0183
-93.2832
-92.4497
-91.589
-90.7547
-89.9829
-89.2952
-88.7027
-88.2102
-87.8187
-87.5272
-87.3341
-87.238
-94.0611
-93.8415
-93.4199
-92.8481
-92.1849
-91.4843
-90.7903
-90.1358
-89.5426
-89.0239
-88.5874
-88.2371
-87.9743
-87.7993
-87.712
-93.4169
-93.2507
-92.9252
-92.476
-91.9453
-91.3741
-90.7981
-90.2456
-89.7374
-89.2872
-88.9043
-88.5941
-88.3598
-88.2031
-88.1246
-92.897
-92.7698
-92.5157
-92.1599
-91.7331
-91.2666
-90.7889
-90.3242
-89.8912
-89.5032
-89.1699
-88.8977
-88.691
-88.552
-88.4823
-92.4743
-92.3762
-92.1763
-91.8925
-91.5479
-91.1661
-90.7701
-90.3803
-90.0129
-89.6805
-89.3923
-89.1554
-88.9744
-88.8523
-88.7909
-92.1285
-92.0526
-91.8944
-91.667
-91.3876
-91.0747
-90.7466
-90.4203
-90.1097
-89.8262
-89.5786
-89.3737
-89.2164
-89.1099
-89.0562
-91.8443
-91.7856
-91.6598
-91.4769
-91.2499
-90.9932
-90.7214
-90.4487
-90.1869
-89.9462
-89.7345
-89.5584
-89.4225
-89.3303
-89.2837
-91.6097
-91.5645
-91.4644
-91.3169
-91.1322
-90.9214
-90.6964
-90.4689
-90.2489
-90.0452
-89.8651
-89.7145
-89.5978
-89.5184
-89.4782
-91.4153
-91.3808
-91.3012
-91.1822
-91.0318
-90.8588
-90.6727
-90.4832
-90.2989
-90.1272
-89.9746
-89.8463
-89.7467
-89.6787
-89.6443
-91.2537
-91.2278
-91.1646
-91.0687
-90.9463
-90.8045
-90.6508
-90.4934
-90.3394
-90.1952
-90.0664
-89.9577
-89.8731
-89.8152
-89.7858
-91.119
-91.1
-91.0502
-90.9731
-90.8737
-90.7576
-90.631
-90.5006
-90.3724
-90.2517
-90.1435
-90.0519
-89.9803
-89.9312
-89.9063
-91.0062
-90.9929
-90.954
-90.8924
-90.812
-90.7173
-90.6134
-90.5057
-90.3994
-90.2989
-90.2084
-90.1315
-90.0713
-90.03
-90.0089
-90.9116
-90.9029
-90.873
-90.8242
-90.7596
-90.6827
-90.5978
-90.5094
-90.4217
-90.3384
-90.2631
-90.199
-90.1486
-90.114
-90.0964
-90.8318
-90.827
-90.8045
-90.7663
-90.7149
-90.653
-90.5841
-90.5121
-90.4402
-90.3717
-90.3094
-90.2563
-90.2145
-90.1857
-90.171
-90.7642
-90.7626
-90.7464
-90.7171
-90.6767
-90.6275
-90.5722
-90.514
-90.4556
-90.3997
-90.3488
-90.3051
-90.2707
-90.2469
-90.2348
-90.7066
-90.7077
-90.6968
-90.6749
-90.644
-90.6055
-90.5618
-90.5154
-90.4687
-90.4236
-90.3824
-90.347
-90.3189
-90.2996
-90.2897
-90.6571
-90.6605
-90.654
-90.6386
-90.6157
-90.5865
-90.5526
-90.5165
-90.4798
-90.4442
-90.4114
-90.383
-90.3606
-90.345
-90.3371
-90.614
-90.6194
-90.6169