/*--------------------------------*- C++ -*----------------------------------*\
| =========                 |                                                 |
| \\      /  F ield         | OpenFOAM: The Open Source CFD Toolbox           |
|  \\    /   O peration     | Version:  5.x                                   |
|   \\  /    A nd           | Web:      www.OpenFOAM.org                      |
|    \\/     M anipulation  |                                                 |
\*---------------------------------------------------------------------------*/
FoamFile
{
    version     2.0;
    format      ascii;
    class       volScalarField;
    location    "3.5";
    object      T;
}
// * * * * * * * * * * * * * * * * * * * * * * * * * * * * * * * * * * * * * //

dimensions      [0 0 0 1 0 0 0];

internalField   nonuniform List<scalar> 
6300
(
27.3819
62.0964
96.6623
130.98
164.949
198.468
231.435
263.747
295.301
325.996
355.734
384.423
411.976
438.321
463.394
27.4307
62.2429
96.9071
131.324
165.393
199.013
232.082
264.495
296.148
326.941
356.771
385.543
413.17
439.574
464.692
27.528
62.5353
97.3957
132.011
166.28
200.103
233.375
265.991
297.847
328.835
358.851
387.794
415.571
442.097
467.304
27.6735
62.9724
98.1265
133.038
167.608
201.735
235.314
268.239
300.401
331.688
361.99
391.197
419.205
445.922
471.269
27.8664
63.5522
99.0962
134.403
169.373
203.907
237.899
271.241
303.819
335.515
366.21
395.783
424.116
451.101
476.644
28.1058
64.2717
100.3
136.098
171.569
206.613
241.125
274.996
308.106
340.331
371.539
401.594
430.359
457.702
483.512
28.39
65.1265
101.731
138.115
174.185
209.843
244.985
279.5
313.267
346.151
378.007
408.68
438.005
465.822
491.982
28.7172
66.1106
103.38
140.441
177.206
213.58
249.463
284.744
319.298
352.985
385.645
417.098
447.145
475.579
502.203
29.0847
67.2163
105.234
143.059
180.611
217.801
254.534
290.703
326.184
360.833
394.476
426.906
457.88
487.127
514.373
29.4892
68.4339
107.276
145.946
184.371
222.47
260.159
297.338
333.891
369.673
404.505
438.153
470.324
500.657
528.756
29.9269
69.7514
109.487
149.074
188.448
227.543
266.285
304.59
342.355
379.45
415.701
450.862
484.588
516.404
545.717
30.3933
71.1553
111.843
152.408
192.798
232.96
272.838
312.369
351.476
390.058
427.971
464.989
500.742
534.635
565.775
30.8834
72.6307
114.32
155.911
197.368
238.653
279.729
320.561
361.108
401.321
441.121
480.362
518.736
555.601
589.68
31.3923
74.1623
116.889
159.544
202.103
244.545
286.854
329.025
371.06
412.98
454.814
496.583
538.221
579.331
618.493
31.915
75.7349
119.525
163.267
206.948
250.561
294.108
337.611
381.115
424.71
468.556
512.917
558.213
604.986
653.265
485.173
504.042
521.975
538.975
555.053
570.231
584.538
598.007
610.68
622.601
633.818
644.381
654.341
663.75
672.66
681.121
689.183
696.894
704.3
711.446
718.372
725.117
731.718
738.206
744.611
750.958
757.268
763.557
769.839
776.121
782.408
788.7
794.996
801.289
807.573
813.837
820.073
826.269
832.412
838.49
844.49
850.396
856.195
861.871
867.408
872.793
878.012
883.05
887.896
892.538
896.964
901.165
905.128
908.842
912.294
915.47
918.356
920.935
923.192
925.107
926.663
927.84
928.616
928.969
928.875
928.306
927.234
925.626
923.446
920.657
917.216
913.079
908.197
902.52
895.995
888.566
880.177
870.77
860.285
848.664
835.848
821.781
806.409
789.682
771.558
752.002
730.987
708.499
684.536
659.107
486.494
505.372
523.299
540.28
556.328
571.465
585.721
599.132
611.74
623.591
634.736
645.224
655.11
664.444
673.28
681.67
689.662
697.307
704.649
711.735
718.605
725.298
731.852
738.298
744.667
750.983
757.268
763.539
769.809
776.085
782.371
788.667
794.97
801.273
807.569
813.849
820.101
826.313
832.475
838.573
844.593
850.521
856.341
862.038
867.597
873.002
878.239
883.295
888.158
892.816
897.258
901.475
905.455
909.187
912.658
915.856
918.764
921.368
923.65
925.593
927.177
928.385
929.193
929.582
929.526
928.999
927.974
926.417
924.293
921.565
918.189
914.121
909.312
903.711
897.266
889.919
881.615
872.293
861.894
850.357
837.623
823.634
808.333
791.668
773.596
754.077
733.085
710.602
686.624
661.162
489.155
508.049
525.965
542.908
558.894
573.946
588.098
601.389
613.865
625.576
636.573
646.912
656.646
665.83
674.518
682.763
690.616
698.126
705.341
712.306
719.063
725.653
732.112
738.474
744.769
751.024
757.26
763.495
769.74
776.004
782.289
788.593
794.912
801.237
807.56
813.869
820.153
826.401
832.599
838.736
844.797
850.768
856.632
862.373
867.974
873.42
878.695
883.786
888.682
893.371
897.844
902.093
906.106
909.874
913.385
916.625
919.579
922.231
924.565
926.561
928.203
929.47
930.343
930.801
930.822
930.38
929.447
927.992
925.98
923.372
920.127
916.197
911.536
906.089
899.804
892.622
884.487
875.337
865.111
853.746
841.179
827.348
812.192
795.657
777.691
758.251
737.305
714.833
690.828
665.299
493.195
512.114
530.012
546.896
562.783
577.702
591.691
604.797
617.069
628.563
639.335
649.445
658.948
667.904
676.368
684.395
692.037
699.345
706.367
713.15
719.736
726.168
732.484
738.718
744.902
751.064
757.226
763.406
769.617
775.864
782.15
788.47
794.815
801.176
807.54
813.895
820.228
826.528
832.782
838.978
845.101
851.138
857.069
862.878
868.545
874.052
879.384
884.528
889.471
894.205
898.723
903.017
907.079
910.9
914.469
917.773
920.796
923.522
925.932
928.009
929.734
931.09
932.058
932.619
932.753
932.435
931.64
930.337
928.492
926.067
923.018
919.299
914.859
909.645
903.601
896.67
888.792
879.903
869.941
858.838
846.527
832.941
818.014
801.68
783.883
764.569
743.7
721.249
697.205
671.574
498.675
517.628
535.5
552.297
568.043
582.774
596.535
609.381
621.37
632.564
643.028
652.824
662.015
670.661
678.822
686.555
693.913
700.948
707.71
714.248
720.604
726.823
732.944
739.005
745.038
751.074
757.136
763.244
769.411
775.64
781.932
788.279
794.666
801.08
807.504
813.922
820.321
826.69
833.017
839.292
845.5
851.627
857.652
863.554
869.312
874.905
880.313
885.525
890.529
895.319
899.891
904.242
908.365
912.256
915.903
919.292
922.409
925.233
927.747
929.93
931.766
933.237
934.327
935.021
935.3
935.145
934.531
933.431
931.809
929.628
926.844
923.407
919.265
914.364
908.646
902.053
894.521
885.987
876.383
865.64
853.684
840.44
825.833
809.786
792.231
773.103
752.35
729.936
705.842
680.074
505.683
524.682
542.514
559.191
574.744
589.219
602.674
615.175
626.791
637.594
647.657
657.05
665.84
674.092
681.868
689.227
696.226
702.917
709.351
715.578
721.643
727.591
733.465
739.303
745.143
751.017
756.952
762.97
769.084
775.298
781.607
787.998
794.45
800.939
807.444
813.945
820.427
826.88
833.297
839.669
845.986
852.23
858.379
864.408
870.286
875.989
881.495
886.788
891.863
896.715
901.347
905.76
909.956
913.93
917.674
921.173
924.409
927.36
930.004
932.319
934.289
935.898
937.135
937.987
938.441
938.483
938.092
937.242
935.9
934.027
931.577
928.498
924.734
920.229
914.923
908.755
901.663
893.581
884.438
874.16
862.668
849.875
835.696
820.039
802.818
783.951
763.368
741.017
716.869
690.923
514.34
533.395
551.169
567.682
582.975
597.111
610.165
622.219
633.357
643.666
653.227
662.118
670.413
678.181
685.487
692.392
698.955
705.228
711.264
717.113
722.822
728.439
734.007
739.571
745.17
750.842
756.619
762.528
768.583
774.788
781.135
787.599
794.149
800.747
807.361
813.964
820.543
827.092
833.61
840.096
846.544
852.938
859.25
865.444
871.482
877.326
882.949
888.336
893.483
898.395
903.084
907.56
911.832
915.902
919.764
923.4
926.787
929.897
932.7
935.173
937.298
939.064
940.464
941.492
942.144
942.412
942.28
941.728
940.724
939.226
937.185
934.542
931.24
927.215
922.409
916.758
910.202
902.672
894.098
884.401
873.493
861.28
847.658
832.519
815.75
797.245
776.907
754.661
730.46
704.295
524.806
543.931
561.621
577.906
592.85
606.538
619.072
630.556
641.095
650.791
659.736
668.019
675.719
682.909
689.657
696.025
702.072
707.853
713.419
718.821
724.108
729.328
734.529
739.759
745.063
750.487
756.07
761.846
767.836
774.047
780.463
787.047
793.747
800.502
807.261
813.988
820.673
827.318
833.938
840.547
847.15
853.731
860.258
866.675
872.924
878.948
884.711
890.196
895.409
900.366
905.094
909.62
913.965
918.142
922.145
925.953
929.533
932.841
935.839
938.495
940.792
942.725
944.294
945.506
946.368
946.882
947.042
946.833
946.226
945.176
943.625
941.507
938.753
935.298
931.078
926.036
920.11
913.237
905.346
896.355
886.17
874.686
861.779
847.316
831.155
813.151
793.169
771.097
746.856
720.425
537.301
556.511
574.074
590.041
604.509
617.605
629.466
640.229
650.024
658.97
667.175
674.734
681.732
688.247
694.347
700.095
705.547
710.76
715.783
720.667
725.462
730.216
734.982
739.811
744.756
749.873
755.214
760.826
766.744
772.981
779.518
786.301
793.237
800.223
807.175
814.045
820.827
827.549
834.251
840.977
847.753
854.573
861.39
868.119
874.657
880.915
886.84
892.418
897.67
902.634
907.363
911.907
916.311
920.599
924.773
928.804
932.636
936.201
939.436
942.3
944.779
946.875
948.606
949.993
951.061
951.828
952.303
952.48
952.334
951.815
950.85
949.354
947.245
944.448
940.903
936.555
931.353
925.239
918.147
909.997
900.692
890.111
878.113
864.533
849.187
831.879
812.418
790.629
766.385
739.633
552.13
571.441
588.804
604.311
618.122
630.427
641.417
651.272
660.15
668.192
675.517
682.229
688.417
694.157
699.518
704.561
709.342
713.912
718.32
722.615
726.845
731.061
735.316
739.666
744.175
748.909
753.939
759.337
765.163
771.452
778.193
785.303
792.624
799.965
807.177
814.197
821.04
827.776
834.499
841.305
848.263
855.388
862.618
869.806
876.761
883.329
889.435
895.079
900.311
905.209
909.865
914.366
918.789
923.187
927.573
931.907
936.092
940.002
943.532
946.629
949.284
951.52
953.378
954.907
956.154
957.161
957.96
958.561
958.948
959.063
958.807
958.054
956.694
954.645
951.852
948.275
943.878
938.619
932.442
925.275
917.019
907.547
896.696
884.265
870.016
853.684
834.991
813.67
789.501
762.37
569.73
589.155
606.182
620.999
633.881
645.119
654.98
663.694
671.455
678.419
684.717
690.454
695.718
700.586
705.121
709.379
713.413
717.269
720.992
724.628
728.222
731.822
735.483
739.266
743.24
747.488
752.106
757.202
762.884
769.244
776.307
783.97
791.954
799.861
807.424
814.572
821.377
827.991
834.597
841.382
848.499
856.02
863.875
871.797
879.389
886.375
892.665
898.301
903.4
908.102
912.556
916.902
921.27
925.759
930.416
935.192
939.912
944.316
948.22
951.561
954.358
956.675
958.592
960.194
961.559
962.762
963.866
964.917
965.92
966.814
967.445
967.597
967.104
965.881
963.897
961.142
957.612
953.288
948.134
942.09
935.068
926.939
917.525
906.586
893.816
878.861
861.323
840.785
816.858
789.288
590.773
610.299
626.72
640.451
651.984
661.768
670.167
677.465
683.881
689.582
694.698
699.332
703.566
707.467
711.094
714.494
717.712
720.789
723.763
726.674
729.561
732.469
735.449
738.562
741.882
745.507
749.558
754.193
759.603
765.995
773.526
782.146
791.367
800.221
808.24
815.412
821.96
828.184
834.407
840.952
848.122
856.142
865.003
874.233
882.858
890.393
896.802
902.266
907.027
911.32
915.368
919.376
923.544
928.058
933.055
938.524
944.154
949.315
953.687
957.243
960.089
962.371
964.229
965.789
967.166
968.472
969.818
971.309
973.017
974.91
976.741
978.035
978.533
978.182
977.018
975.096
972.458
969.12
965.075
960.284
954.681
948.152
940.522
931.515
920.735
907.727
891.949
872.755
849.433
821.394
616.399
635.891
651.107
663.041
672.582
680.387
686.914
692.481
697.31
701.56
705.347
708.759
711.864
714.718
717.365
719.843
722.188
724.43
726.599
728.725
730.841
732.984
735.195
737.529
740.059
742.882
746.14
750.039
754.878
761.078
769.147
779.427
791.277
801.756
810.242
817.122
822.978
828.349
833.723
839.588
846.491
855.019
865.567
877.508
887.865
895.998
902.268
907.213
911.292
914.86
918.205
921.586
925.285
929.628
934.982
941.589
949.04
955.415
960.297
963.913
966.6
968.644
970.26
971.612
972.842
974.091
975.526
977.354
979.815
983.061
986.779
989.584
991.153
991.622
991.199
990.049
988.278
985.94
983.056
979.618
975.594
970.92
965.471
958.966
950.834
940.553
927.468
910.64
888.776
860.413
648.909
667.619
680.193
689.054
695.655
700.819
705.017
708.534
711.548
714.178
716.509
718.6
720.498
722.239
723.851
725.359
726.785
728.148
729.468
730.764
732.057
733.371
734.735
736.188
737.785
739.604
741.772
744.502
748.165
753.442
761.556
774.418
793.132
806.129
814.528
820.277
824.663
828.479
832.3
836.702
842.486
850.959
864.095
883.032
896.043
904.252
909.61
913.373
916.26
918.691
920.955
923.308
926.064
929.711
935.071
943.406
955.441
963.631
968.697
971.887
974.004
975.501
976.637
977.578
978.456
979.409
980.634
982.457
985.45
990.497
998.101
1002.88
1005.32
1006.31
1006.39
1005.87
1004.88
1003.51
1001.8
999.764
997.411
994.775
991.907
988.73
983.999
977.386
968.347
955.747
937.451
909.832
694.269
708.158
714.602
718.294
720.772
722.615
724.076
725.283
726.309
727.201
727.988
728.693
729.332
729.917
730.458
730.965
731.443
731.901
732.344
732.78
733.215
733.658
734.119
734.613
735.161
735.794
736.569
737.592
739.1
741.691
747.099
760.954
803.189
817.092
822.602
825.363
827.137
828.573
830.011
831.793
834.578
840.151
854.237
897.059
911.101
916.581
919.214
920.765
921.85
922.729
923.543
924.415
925.529
927.292
930.844
939.862
967.345
976.314
979.765
981.372
982.266
982.842
983.26
983.603
983.927
984.302
984.846
985.84
988.093
994.216
1013.46
1019.49
1021.56
1022.28
1022.43
1022.31
1022
1021.55
1020.99
1020.33
1019.6
1018.93
1018.76
1020.7
1019.84
1017.68
1014.32
1009.03
999.523
978.712
629.549
595.286
559.094
521.082
481.379
440.127
397.474
353.575
308.587
262.663
215.956
168.615
120.785
72.6089
24.2259
631.548
597.197
560.895
522.757
482.914
441.513
398.707
354.654
309.512
263.437
216.583
169.098
121.128
72.8134
24.2939
635.569
601.04
564.516
526.119
485.992
444.29
401.175
356.811
311.36
264.983
217.834
170.062
121.81
73.2208
24.4293
641.665
606.86
569.99
531.194
490.629
448.466
404.879
360.042
314.126
267.293
219.701
171.498
122.828
73.8277
24.6309
649.917
614.726
577.374
538.021
496.849
454.052
409.82
364.342
317.798
270.355
222.172
173.397
124.172
74.6286
24.897
660.439
624.735
586.739
546.649
504.68
461.056
415.994
369.698
322.358
274.148
225.227
175.742
125.829
75.6157
25.2249
673.39
637.015
598.181
557.137
514.151
469.485
423.389
376.086
327.778
278.643
228.839
178.509
127.782
76.7783
25.6108
688.98
651.733
611.814
569.551
525.284
479.33
431.976
383.467
334.015
283.798
232.971
181.668
130.009
78.1022
26.0501
707.493
669.101
627.77
583.952
538.086
490.561
441.704
391.78
341.006
289.554
237.571
185.177
132.478
79.5693
26.5367
729.315
689.388
646.195
600.382
552.53
503.109
452.485
400.933
348.662
295.834
242.574
188.985
135.155
81.1575
27.0632
754.979
712.919
667.219
618.834
568.525
516.845
464.179
410.791
356.866
302.536
247.898
193.03
137.993
82.8406
27.6209
785.25
740.069
690.906
639.189
585.873
531.552
476.58
421.173
365.464
309.535
253.446
197.238
140.942
84.5884
28.1999
821.248
771.179
717.127
661.122
604.21
546.892
489.402
431.846
374.268
316.686
259.105
201.526
143.947
86.3682
28.7894
864.564
806.248
745.278
683.943
622.933
562.387
502.276
442.527
383.066
323.827
264.755
205.807
146.947
88.1455
29.3782
916.786
843.945
773.772
706.419
641.171
577.429
514.771
452.907
391.63
330.789
270.272
209.993
149.883
89.8866
29.9551
32.4028
77.2017
121.981
166.731
211.446
256.127
300.789
345.468
390.234
435.219
480.663
527.016
575.165
627.102
688.369
32.8503
78.5468
124.232
169.901
215.553
261.194
306.844
352.542
398.362
444.441
491.026
538.572
587.931
640.711
699.749
33.3
79.898
126.491
173.078
219.661
266.248
312.857
359.521
406.301
453.301
500.71
548.855
598.306
649.958
704.852
33.7503
81.2509
128.752
176.254
223.761
271.28
318.824
366.411
414.075
461.866
509.868
558.217
607.136
656.937
707.887
34.2002
82.602
131.008
179.422
227.847
276.289
324.752
373.239
421.751
470.273
518.771
567.17
615.338
663.1
710.332
34.6485
83.9483
133.256
182.577
231.916
281.276
330.654
380.042
429.408
478.685
527.73
576.267
623.806
669.613
713.001
35.0944
85.2872
135.492
185.716
235.965
286.242
336.543
386.849
437.116
487.245
537.028
586.042
633.461
677.79
716.932
35.5368
86.6158
137.711
188.833
239.989
291.185
342.418
393.673
444.909
496.034
546.846
596.911
645.245
689.55
724.633
35.9747
87.9313
139.909
191.921
243.98
296.095
348.27
400.501
452.769
505.026
557.169
608.965
659.811
707.698
743.984
36.4071
89.2301
142.08
194.973
247.926
300.956
354.074
407.293
460.625
514.086
567.718
621.664
676.414
733.884
802.693
36.8326
90.5086
144.217
197.978
251.814
305.747
359.799
413.997
468.38
523.012
578.036
633.787
691.113
752.175
822.112
37.2502
91.763
146.313
200.927
255.629
310.447
365.413
420.563
475.949
531.655
587.835
644.801
703.198
764.286
829.99
37.6584
92.9894
148.363
203.809
259.356
315.038
370.89
426.954
483.284
539.954
597.072
654.805
713.399
773.17
834.332
38.0561
94.1841
150.36
206.615
262.984
319.503
376.21
433.15
490.372
547.929
605.869
664.194
722.763
781.069
838.013
38.4422
95.3439
152.297
209.338
266.502
323.829
381.36
439.14
497.215
555.625
614.382
673.398
732.293
789.896
843.215
38.8158
96.4658
154.171
211.97
269.901
328.006
386.328
444.914
503.812
563.067
622.7
682.668
742.701
801.678
854.646
39.1759
97.5471
155.977
214.505
273.173
332.024
391.103
450.461
510.151
570.231
630.77
691.878
753.823
817.613
887.941
39.5218
98.5858
157.711
216.938
276.311
335.875
395.676
455.767
516.206
577.062
638.43
700.488
763.646
828.988
899.23
39.8531
99.5801
159.37
219.266
279.311
339.552
400.038
460.821
521.959
583.522
645.596
708.317
771.935
836.939
904.131
40.1691
100.529
160.952
221.484
282.168
343.052
404.183
465.616
527.406
589.613
652.297
715.507
779.242
843.349
907.336
40.4697
101.431
162.457
223.591
284.88
346.37
408.11
470.153
532.551
595.359
658.617
722.314
786.273
849.822
911.07
40.7546
102.286
163.882
225.587
287.447
349.507
411.818
474.43
537.399
600.779
664.616
728.922
793.569
857.871
918.617
41.0239
103.093
165.227
227.47
289.866
352.462
415.306
478.45
541.949
605.866
670.273
735.277
801.086
868.37
940.108
41.2775
103.854
166.494
229.242
292.141
355.237
418.577
482.212
546.197
610.598
675.501
741.054
807.561
875.754
947.375
41.5156
104.568
167.683
230.903
294.272
357.834
421.633
485.719
550.143
614.966
680.262
746.152
812.844
880.738
950.431
41.7384
105.236
168.795
232.457
296.263
360.257
424.481
488.981
553.801
618.99
684.596
750.673
817.276
884.451
952.182
41.9464
105.859
169.832
233.904
298.118
362.512
427.128
492.008
557.19
622.71
688.588
754.813
821.291
887.757
953.695
42.1398
106.439
170.796
235.25
299.84
364.605
429.583
494.814
560.332
626.167
692.323
758.759
825.294
891.41
955.83
42.3191
106.976
171.689
236.496
301.434
366.54
431.853
497.409
563.243
629.385
695.849
762.619
829.57
896.22
960.497
42.4847
107.472
172.514
237.646
302.904
368.325
433.945
499.8
565.927
632.364
699.148
766.335
834.036
902.656
974.08
42.637
107.929
173.272
238.703
304.255
369.963
435.863
501.991
568.385
635.087
702.153
769.675
837.845
907.126
978.618
42.7767
108.347
173.967
239.67
305.49
371.46
437.614
503.986
570.615
637.543
704.826
772.549
840.864
910.041
980.463
42.9041
108.728
174.6
240.552
306.615
372.822
439.203
505.793
572.626
639.739
707.177
774.995
843.266
912.07
981.436
43.0197
109.074
175.175
241.351
307.634
374.053
440.638
507.42
574.429
641.696
709.249
777.11
845.278
913.689
982.153
43.1241
109.387
175.693
242.072
308.552
375.161
441.928
508.879
576.042
643.44
711.091
778.995
847.105
915.25
982.986
43.2178
109.667
176.158
242.718
309.374
376.152
443.079
510.18
577.478
644.995
712.742
780.721
848.888
917.075
984.583
43.3012
109.917
176.572
243.292
310.104
377.032
444.101
511.333
578.752
646.375
714.218
782.298
850.64
919.353
989.008
43.3747
110.137
176.936
243.798
310.747
377.806
444.999
512.347
579.871
647.588
715.516
783.677
852.116
920.957
990.522
43.4389
110.329
177.254
244.239
311.307
378.48
445.78
513.228
580.843
648.641
716.637
784.847
853.296
922.04
991.169
43.4941
110.494
177.528
244.618
311.788
379.058
446.45
513.983
581.677
649.544
717.595
785.833
854.253
922.836
991.541
43.5408
110.633
177.758
244.938
312.193
379.544
447.012
514.617
582.377
650.306
718.408
786.679
855.08
923.527
991.864
43.5793
110.748
177.948
245.2
312.524
379.941
447.471
515.134
582.949
650.933
719.091
787.416
855.859
924.276
992.331
43.6099
110.84
178.099
245.407
312.784
380.251
447.827
515.534
583.394
651.425
719.644
788.057
856.638
925.259
993.391
43.6331
110.909
178.212
245.562
312.977
380.478
448.084
515.819
583.707
651.774
720.048
788.566
857.371
926.565
996.57
43.6492
110.956
178.289
245.666
313.104
380.623
448.243
515.988
583.884
651.965
720.27
788.859
857.818
927.29
997.526
43.6588
110.984
178.333
245.723
313.169
380.69
448.307
516.042
583.923
651.986
720.281
788.881
857.893
927.468
997.747
43.6621
110.994
178.346
245.735
313.176
380.684
448.28
515.983
583.823
651.834
720.067
788.601
857.56
927.139
997.568
43.6599
110.986
178.331
245.707
313.129
380.61
448.168
515.821
583.593
651.516
719.631
788.01
856.78
926.204
996.845
43.6528
110.964
178.29
245.643
313.034
380.476
447.981
515.565
583.248
651.05
718.998
787.134
855.53
924.406
994.721
43.6413
110.928
178.228
245.548
312.899
380.289
447.73
515.232
582.808
650.469
718.222
786.061
853.929
921.593
988.022
43.6263
110.882
178.147
245.427
312.729
380.06
447.427
514.837
582.297
649.811
717.373
784.953
852.455
919.621
985.828
43.6085
110.827
178.052
245.286
312.534
379.798
447.085
514.397
581.737
649.107
716.498
783.885
851.199
918.298
984.94
43.5888
110.767
177.947
245.131
312.319
379.514
446.715
513.926
581.146
648.376
715.612
782.85
850.077
917.276
984.427
43.5678
110.703
177.836
244.967
312.094
379.216
446.33
513.437
580.536
647.626
714.712
781.808
848.959
916.27
983.93
43.5465
110.638
177.724
244.801
311.866
378.914
445.941
512.944
579.919
646.866
713.789
780.713
847.713
915.003
983.111
43.5256
110.574
177.613
244.638
311.642
378.618
445.559
512.459
579.31
646.108
712.851
779.548
846.249
913.153
981.143
43.5059
110.514
177.509
244.484
311.43
378.337
445.196
511.995
578.726
645.375
711.928
778.364
844.628
910.529
975.209
43.4882
110.46
177.416
244.345
311.238
378.081
444.862
511.568
578.184
644.693
711.072
777.283
843.24
908.734
973.262
43.4733
110.414
177.336
244.226
311.072
377.859
444.57
511.191
577.702
644.085
710.316
776.359
842.155
907.59
972.492
43.4617
110.378
177.273
244.133
310.94
377.679
444.33
510.876
577.295
643.568
709.672
775.589
841.301
906.797
972.085
43.4541
110.355
177.231
244.068
310.847
377.549
444.152
510.635
576.975
643.15
709.14
774.942
840.577
906.126
971.748
43.451
110.345
177.213
244.037
310.799
377.476
444.045
510.48
576.755
642.842
708.721
774.39
839.893
905.381
971.243
43.4527
110.349
177.219
244.044
310.801
377.468
444.018
510.422
576.647
642.66
708.428
773.933
839.194
904.353
970.034
43.4596
110.37
177.253
244.089
310.856
377.529
444.079
510.472
576.67
642.628
708.296
773.622
838.543
902.938
966.312
43.4716
110.406
177.314
244.175
310.967
377.664
444.235
510.642
576.841
642.776
708.38
773.568
838.229
902.204
965.217
43.4886
110.458
177.401
244.3
311.133
377.874
444.489
510.94
577.176
643.134
708.729
773.853
838.365
902.107
964.974
43.5103
110.523
177.514
244.464
311.354
378.157
444.842
511.369
577.685
643.721
709.38
774.535
839.006
902.586
965.147
43.5359
110.602
177.648
244.662
311.623
378.509
445.29
511.926
578.368
644.545
710.357
775.662
840.235
903.738
965.761
43.5645
110.689
177.8
244.886
311.933
378.919
445.82
512.6
579.213
645.596
711.66
777.268
842.176
905.882
967.297
43.5949
110.783
177.963
245.13
312.272
379.375
446.417
513.37
580.195
646.844
713.251
779.328
844.917
909.58
971.461
43.6255
110.877
178.13
245.381
312.627
379.858
447.058
514.207
581.277
648.233
715.042
781.695
848.266
915.173
984.36
43.6545
110.967
178.29
245.627
312.979
380.345
447.716
515.079
582.413
649.696
716.912
784.083
851.343
919.141
988.633
43.6798
111.046
178.433
245.851
313.31
380.814
448.362
515.948
583.559
651.177
718.782
786.373
854.009
921.889
990.421
43.6988
111.107
178.547
246.038
313.596
381.234
448.961
516.777
584.675
652.637
720.628
788.596
856.465
924.141
991.544
43.7091
111.142
178.619
246.167
313.813
381.577
449.478
517.526
585.721
654.047
722.458
790.851
859.013
926.535
992.775
43.7077
111.142
178.634
246.219
313.933
381.808
449.872
518.148
586.649
655.368
724.265
793.226
861.965
929.774
995.017
43.6916
111.098
178.576
246.17
313.927
381.889
450.099
518.591
587.397
656.534
725.992
795.718
865.52
934.747
1000.69
43.6576
111.001
178.429
245.998
313.764
381.782
450.107
518.792
587.889
657.443
727.5
798.117
869.43
941.954
1018.16
43.6026
110.841
178.177
245.678
313.411
381.443
449.844
518.683
588.034
657.972
728.582
799.994
872.455
946.556
1023.7
43.5234
110.607
177.803
245.186
312.835
380.83
449.254
518.194
587.744
658
729.072
801.102
874.298
949
1025.64
43.4169
110.292
177.291
244.499
312.005
379.9
448.283
517.258
586.935
657.429
728.861
801.358
875.051
950.052
1026.33
43.2803
109.886
176.626
243.594
310.889
378.613
446.879
515.808
585.528
656.174
727.873
800.743
874.852
950.172
1026.47
43.1111
109.381
175.795
242.452
309.459
376.931
444.993
513.783
583.451
654.153
726.037
799.226
873.766
949.564
1026.29
42.9074
108.772
174.786
241.055
307.692
374.821
442.579
511.124
580.628
651.277
723.258
796.729
871.763
948.26
1025.84
42.6679
108.054
173.593
239.392
305.569
372.254
439.598
507.773
576.98
647.444
719.407
793.106
868.698
946.156
1025.08
42.3919
107.226
172.211
237.455
303.077
369.212
436.017
503.68
572.43
642.536
714.316
788.126
864.295
942.985
1023.88
42.0799
106.288
170.641
235.244
300.214
365.685
431.817
498.809
566.909
636.431
707.78
781.467
858.096
938.235
1021.95
41.7332
105.244
168.89
232.768
296.989
361.68
427
493.144
560.371
629.026
699.584
772.725
849.415
930.954
1018.56
41.3542
104.102
166.969
230.043
293.422
357.222
421.587
486.702
552.814
620.267
689.56
761.477
837.323
919.412
1011.72
40.9466
102.872
164.898
227.095
289.548
352.353
415.632
479.544
544.299
610.197
677.678
747.461
820.854
900.725
995.183
969.477
876.031
797.283
725.073
656.492
590.207
525.484
461.872
399.069
336.865
275.105
213.669
152.467
91.4205
30.4637
986.128
894.975
814.101
739.494
668.811
600.725
534.44
469.449
405.408
342.074
279.266
216.846
154.705
92.7508
30.9052
993.062
906.761
826.549
751.175
679.313
609.98
542.487
476.357
411.248
346.909
283.151
219.824
156.809
94.0043
31.3215
996.541
914.3
835.62
760.4
688.046
617.943
549.575
482.545
416.544
351.334
286.73
222.581
158.764
95.1713
31.7095
998.576
919.348
842.271
767.617
695.202
624.687
555.724
488.008
421.281
355.332
289.988
225.104
160.559
96.2456
32.0671
999.903
922.881
847.221
773.264
701.023
630.339
560.997
492.774
425.469
358.902
292.919
227.387
162.191
97.2244
32.3933
1000.83
925.45
850.969
777.704
705.747
635.047
565.479
496.893
429.135
362.058
295.531
229.433
163.658
98.1073
32.6879
1001.51
927.375
853.856
781.219
709.583
638.954
569.268
500.427
432.318
364.825
297.838
231.251
164.968
98.8969
32.9518
1002.03
928.85
856.11
784.023
712.705
642.192
572.458
503.442
435.064
367.234
299.86
232.852
166.126
99.5973
33.1861
1002.43
930.002
857.894
786.276
715.254
644.875
575.137
506.004
437.421
369.318
301.621
234.254
167.144
100.214
33.3927
1002.74
930.913
859.319
788.098
717.341
647.1
577.383
508.174
439.434
371.111
303.146
235.474
168.032
100.754
33.5737
1002.99
931.643
860.468
789.579
719.056
648.946
579.265
510.008
441.149
372.649
304.46
236.53
168.804
101.224
33.7314
1003.19
932.231
861.401
790.79
720.469
650.479
580.841
511.555
442.605
373.962
305.588
237.44
169.47
101.63
33.868
1003.36
932.71
862.162
791.784
721.636
651.754
582.16
512.859
443.839
375.08
306.552
238.22
170.044
101.981
33.9858
1003.49
933.101
862.786
792.603
722.601
652.816
583.265
513.955
444.883
376.03
307.375
238.888
170.535
102.281
34.0871
1003.6
933.422
863.299
793.279
723.402
653.7
584.189
514.877
445.763
376.835
308.074
239.457
170.955
102.539
34.1737
1003.69
933.686
863.723
793.838
724.067
654.436
584.962
515.652
446.506
377.516
308.667
239.94
171.313
102.758
34.2476
1003.76
933.905
864.073
794.302
724.62
655.051
585.608
516.301
447.131
378.09
309.168
240.35
171.616
102.944
34.3104
1003.82
934.085
864.363
794.686
725.079
655.563
586.149
516.846
447.655
378.574
309.591
240.697
171.873
103.102
34.3637
1003.87
934.234
864.603
795.005
725.461
655.989
586.6
517.301
448.095
378.98
309.948
240.989
172.09
103.235
34.4087
1003.92
934.358
864.802
795.269
725.778
656.343
586.975
517.681
448.463
379.32
310.246
241.234
172.272
103.348
34.4466
1003.95
934.459
864.966
795.488
726.041
656.637
587.288
517.998
448.77
379.604
310.496
241.439
172.424
103.442
34.4783
1003.98
934.543
865.101
795.668
726.257
656.88
587.546
518.26
449.025
379.84
310.704
241.61
172.552
103.52
34.5048
1004
934.612
865.212
795.816
726.435
657.08
587.758
518.475
449.234
380.035
310.875
241.751
172.657
103.585
34.5267
1004.02
934.668
865.302
795.935
726.579
657.242
587.931
518.651
449.405
380.194
311.016
241.867
172.743
103.638
34.5446
1004.04
934.712
865.374
796.032
726.695
657.372
588.07
518.793
449.543
380.322
311.129
241.96
172.812
103.681
34.5591
1004.05
934.747
865.43
796.107
726.786
657.475
588.179
518.904
449.652
380.423
311.218
242.034
172.867
103.715
34.5706
1004.06
934.773
865.472
796.163
726.854
657.552
588.262
518.988
449.734
380.5
311.286
242.09
172.909
103.741
34.5794
1004.06
934.792
865.502
796.203
726.902
657.607
588.32
519.049
449.793
380.556
311.335
242.131
172.94
103.759
34.5857
1004.07
934.803
865.52
796.228
726.932
657.64
588.357
519.086
449.831
380.591
311.367
242.157
172.959
103.772
34.5899
1004.07
934.807
865.527
796.237
726.944
657.654
588.373
519.103
449.847
380.607
311.381
242.169
172.969
103.778
34.5919
1004.07
934.804
865.523
796.231
726.938
657.649
588.367
519.099
449.844
380.605
311.38
242.169
172.969
103.778
34.5919
1004.06
934.794
865.507
796.211
726.914
657.623
588.342
519.074
449.821
380.585
311.363
242.155
172.959
103.772
34.59
1004.06
934.776
865.478
796.174
726.871
657.576
588.294
519.027
449.778
380.546
311.33
242.129
172.94
103.76
34.586
1004.05
934.749
865.436
796.119
726.807
657.507
588.223
518.958
449.713
380.488
311.28
242.089
172.911
103.742
34.5801
1004.04
934.712
865.378
796.044
726.72
657.413
588.126
518.864
449.625
380.409
311.213
242.035
172.871
103.718
34.5721
1004.02
934.664
865.301
795.945
726.605
657.29