/*--------------------------------*- C++ -*----------------------------------*\
| =========                 |                                                 |
| \\      /  F ield         | OpenFOAM: The Open Source CFD Toolbox           |
|  \\    /   O peration     | Version:  5.x                                   |
|   \\  /    A nd           | Web:      www.OpenFOAM.org                      |
|    \\/     M anipulation  |                                                 |
\*---------------------------------------------------------------------------*/
FoamFile
{
    version     2.0;
    format      ascii;
    class       volScalarField;
    location    "11";
    object      gradTx;
}
// * * * * * * * * * * * * * * * * * * * * * * * * * * * * * * * * * * * * * //

dimensions      [0 -1 0 1 0 0 0];

internalField   nonuniform List<scalar> 
6300
(
109.837
109.512
108.86
107.883
106.579
104.95
102.996
100.724
98.1383
95.2525
92.0837
88.6564
85.003
81.1642
77.1883
110.158
109.832
109.181
108.204
106.899
105.268
103.311
101.031
98.4341
95.5309
92.3378
88.8782
85.1844
81.2973
77.2668
110.798
110.473
109.823
108.846
107.542
105.908
103.944
101.65
99.0315
96.0947
92.8537
89.3301
85.5548
81.5698
77.4277
111.757
111.434
110.786
109.812
108.508
106.872
104.9
102.59
99.9419
96.958
93.6479
90.0292
86.131
81.9957
77.6803
113.035
112.714
112.07
111.101
109.802
108.167
106.19
103.864
101.183
98.1429
94.746
91.0035
86.9399
82.5977
78.0394
114.628
114.311
113.674
112.715
111.425
109.799
107.824
105.488
102.778
99.6798
96.1853
92.2944
88.0232
83.4116
78.5291
116.533
116.222
115.596
114.652
113.381
111.773
109.813
107.481
104.755
101.609
98.0164
93.961
89.4424
84.4924
79.1867
118.744
118.441
117.831
116.911
115.669
114.095
112.168
109.864
107.148
103.978
100.306
96.0861
91.2888
85.9245
80.0711
121.253
120.96
120.372
119.483
118.285
116.763
114.896
112.653
109.989
106.844
103.138
98.784
93.6976
87.8416
81.279
124.049
123.769
123.208
122.36
121.219
119.771
117.994
115.857
113.306
110.264
106.615
102.209
96.8715
90.4609
82.9761
127.118
126.854
126.324
125.525
124.454
123.1
121.448
119.469
117.11
114.284
110.844
106.56
101.114
94.1501
85.466
130.446
130.198
129.702
128.957
127.965
126.722
125.223
123.453
121.376
118.914
115.911
112.068
106.87
99.5551
89.3563
134.016
133.784
133.321
132.631
131.72
130.594
129.263
127.738
126.02
124.08
121.812
118.926
114.736
107.839
96.01
137.811
137.594
137.162
136.521
135.682
134.663
133.492
132.211
130.879
129.567
128.327
127.084
125.302
121.051
108.953
141.818
141.612
141.205
140.602
139.818
138.878
137.824
136.728
135.712
134.976
134.837
135.774
138.331
142.104
138.969
73.4725
70.0713
66.6854
63.3493
60.0958
56.9549
53.9533
51.1136
48.4546
45.9907
43.7326
41.6876
39.8598
38.251
36.8604
35.6857
34.7227
33.966
33.4086
33.0424
32.8576
32.8431
32.986
33.2718
33.684
34.2045
34.8138
35.4912
36.2154
36.9652
37.7204
38.4623
39.174
39.8407
40.4497
40.9894
41.4493
41.8191
42.0887
42.2479
42.2871
42.1983
41.9756
41.6159
41.1196
40.4903
39.734
38.8579
37.8697
36.7755
35.5795
34.2833
32.8857
31.3834
29.7714
28.0444
26.1971
24.2252
22.1252
19.8941
17.529
15.0263
12.3805
9.58378
6.62559
3.49243
0.168151
-3.36541
-7.12767
-11.1384
-15.4169
-19.9814
-24.8483
-30.0322
-35.5457
-41.3992
-47.6008
-54.1561
-61.067
-68.3314
-75.9414
-83.8825
-92.1319
-100.657
-109.416
-118.356
-127.415
-136.521
-145.597
-154.564
73.4973
70.046
66.6106
63.2275
59.9307
56.7516
53.7174
50.8512
48.1713
45.6921
43.4237
41.3727
39.5427
37.9348
36.5479
35.379
34.4241
33.6773
33.1318
32.7795
32.6109
32.6149
32.7788
33.0882
33.5264
34.0752
34.7143
35.4222
36.1767
36.9557
37.738
38.5041
39.237
39.9222
40.5476
41.1025
41.5772
41.9617
42.2458
42.4187
42.4697
42.3895
42.171
41.8108
41.3095
40.6715
39.9046
39.0179
38.0206
36.9205
35.7224
34.4279
33.0352
31.5399
29.9358
28.2163
26.3755
24.4087
22.3129
20.0861
17.7265
15.2316
12.5972
9.81584
6.87722
3.76739
0.469405
-3.03605
-6.76968
-10.7525
-15.0047
-19.5453
-24.391
-29.5566
-35.0548
-40.8964
-47.0899
-53.6419
-60.5558
-67.8311
-75.4619
-83.4356
-91.731
-100.317
-109.152
-118.182
-127.342
-136.559
-145.751
-154.833
73.5482
69.994
66.4574
62.9781
59.5934
56.3369
53.2372
50.3178
47.5968
45.0878
42.7995
40.7375
38.9039
37.2985
35.9193
34.7627
33.8239
33.0971
32.5753
32.2506
32.114
32.1548
32.3607
32.7174
33.2082
33.8141
34.514
35.2845
36.1013
36.9399
37.7771
38.5919
39.3669
40.0881
40.7451
41.3294
41.833
42.2471
42.5613
42.7631
42.8394
42.7778
42.5686
42.207
41.6942
41.0368
40.2459
39.3353
38.318
37.2049
36.0025
34.7123
33.331
31.8516
30.265
28.5617
26.7341
24.777
22.6884
20.4683
18.1179
15.6374
13.0247
10.274
7.37501
4.31307
1.06931
-2.37811
-6.05272
-9.97817
-14.1769
-18.669
-23.472
-28.6009
-34.0682
-39.8851
-46.0611
-52.6046
-59.5219
-66.8162
-74.4857
-82.5221
-90.9081
-99.6152
-108.602
-117.814
-127.183
-136.627
-146.057
-155.377
73.6288
69.9136
66.2184
62.5893
59.0687
55.6937
52.4948
49.4961
46.715
44.1632
41.8477
39.7714
37.9345
36.3347
34.9685
33.8311
32.917
32.22
31.7333
31.4495
31.3601
31.4555
31.724
32.1519
32.7226
33.4164
34.2103
35.0784
35.9927
36.9246
37.8467
38.7354
39.5723
40.3448
41.0456
41.6706
42.2157
42.6746
43.0366
43.2865
43.406
43.3767
43.1837
42.8194
42.2853
41.5923
40.7582
39.8045
38.7518
37.6164
36.4075
35.1264
33.7667
32.3165
30.7608
29.085
27.2779
25.3336
23.252
21.0374
18.6958
16.2328
13.6503
10.945
8.10715
5.1203
1.96237
-1.39303
-4.97442
-8.8101
-12.926
-17.3444
-22.0832
-27.1568
-32.5771
-38.3551
-44.5014
-51.0272
-57.9431
-65.2584
-72.9784
-81.1023
-89.6195
-98.5066
-107.725
-117.217
-126.91
-136.711
-146.516
-156.212
73.7447
69.8008
65.8811
62.0413
58.3314
54.7939
51.4617
48.3588
45.5007
42.8964
40.5493
38.4588
36.6216
35.0329
33.6866
32.5764
31.6959
31.0384
30.5976
30.3668
30.3388
30.5053
30.8563
31.3793
32.0583
32.8729
33.7982
34.8043
35.8572
36.9215
37.9627
38.9519
39.8686
40.7028
41.4535
42.1248
42.7208
43.2398
43.6715
43.9958
44.185
44.2093
44.0437
43.6744
43.1035
42.3491
41.441
40.4145
39.3031
38.132
36.9148
35.652
34.3314
32.932
31.4283
29.796
28.0179
26.0869
24.0064
21.7882
19.4478
16.9995
14.4522
11.8065
9.05335
6.1736
3.13962
-0.0825531
-3.52982
-7.2382
-11.2393
-15.5578
-20.2114
-25.2124
-30.5699
-36.2932
-42.3938
-48.886
-55.7871
-63.1152
-70.8869
-79.1131
-87.7948
-96.9177
-106.448
-116.328
-126.476
-136.784
-147.126
-157.361
73.9049
69.6499
65.4256
61.3028
57.3431
53.5957
50.0958
46.8662
43.9188
41.2572
38.8794
36.7795
34.9494
33.3802
32.0631
30.9896
30.1519
29.5434
29.1581
28.9907
29.0359
29.288
29.7396
30.3807
31.197
32.1686
33.2683
34.461
35.7039
36.9499
38.152
39.2709
40.282
41.1793
41.9738
42.6858
43.3346
43.9288
44.4593
44.8976
45.1994
45.3136
45.1951
44.8178
44.1842
43.3252
42.2924
41.1452
39.9385
38.7122
37.4864
36.2591
35.0082
33.6964
32.2794
30.7158
28.9771
27.0542
24.9579
22.714
20.3542
17.9079
15.395
12.8223
10.1813
7.44865
4.58765
1.55198
-1.70918
-5.24468
-9.095
-13.288
-17.8389
-22.7536
-28.0347
-33.6868
-39.7205
-46.1543
-53.014
-60.331
-68.1381
-76.4652
-85.3315
-94.7388
-104.663
-115.05
-125.806
-136.804
-147.883
-158.862
74.1234
69.4511
64.8207
60.3264
56.0464
52.0382
48.3382
44.9649
41.9229
39.2073
36.8074
34.7097
32.8996
31.3631
30.0874
29.0615
28.2765
27.7255
27.4035
27.307
27.4339
27.782
28.3486
29.1282
30.1107
31.2785
32.6032
34.0436
35.5446
37.0397
38.4593
39.7434
40.8574
41.802
42.6109
43.3357
44.0253
44.7077
45.3778
45.9938
46.4819
46.7511
46.7169
46.3285
45.5876
44.5497
43.3065
41.96
40.6002
39.2901
38.0585
36.8987
35.771
34.6107
33.3403
31.8866
30.2004
28.2698
26.1209
23.8056
21.3845
18.9113
16.4233
13.9358
11.4408
8.90807
6.2869
3.51107
0.506502
-2.7977
-6.45696
-10.5026
-14.9419
-19.7665
-24.9642
-30.5295
-36.4698
-42.8077
-49.5807
-56.8385
-64.6384
-73.0378
-82.0859
-91.8113
-102.21
-113.234
-124.784
-136.702
-148.779
-160.769
74.4224
69.1885
64.0165
59.0383
54.3556
50.0343
46.1078
42.5843
39.4548
36.7006
34.2985
32.2241
30.4543
28.9689
27.7505
26.7852
26.0629
25.5766
25.3227
25.3005
25.5118
25.9602
26.6495
27.5823
28.7564
30.1607
31.7698
33.5374
35.392
37.2367
38.96
40.4592
41.675
42.6183
43.3673
44.0344
44.7245
45.5022
46.3723
47.2722
48.0774
48.6232
48.7469
48.3447
47.4165
46.0681
44.4676
42.7922
41.1886
39.7532
38.5257
37.4902
36.5792
35.6823
34.6635
33.3906
31.7743
29.7987
27.5224
25.0486
22.4886
19.9354
17.4502
15.0592
12.7542
10.4943
8.20848
5.7993
3.15353
0.160579
-3.26233
-7.15003
-11.4896
-16.2413
-21.3635
-26.8313
-32.6451
-38.8328
-45.4473
-52.5636
-60.2727
-68.6739
-77.8621
-87.9109
-98.8521
-110.658
-123.226
-136.365
-149.796
-163.168
74.8376
68.8335
62.9302
57.3219
52.1418
47.4598
43.2953
39.6344
36.4444
33.6853
31.3159
29.298
27.5982
26.1888
25.0476
24.1579
23.5081
23.0918
22.9071
22.9565
23.2473
23.7901
24.5986
25.6876
27.0692
28.7468
30.7067
32.9045
35.252
37.607
39.7815
41.5811
42.883
43.7123
44.2398
44.6981
45.2955
46.1616
47.3218
48.685
50.0445
51.1009
51.5324
51.116
49.8485
47.9474
45.7347
43.5192
41.5332
39.9152
38.7149
37.9009
37.3654
36.9278
36.3509
35.3879
33.8643
31.7594
29.2071
26.4145
23.5821
20.8607
18.3408
16.0582
14.0019
12.1176
10.3072
8.42789
6.30027
3.73792
0.601623
-3.14646
-7.44361
-12.1821
-17.2644
-22.6338
-28.281
-34.2417
-40.5898
-47.4331
-54.9082
-63.1739
-72.3962
-82.7219
-94.2454
-106.981
-120.84
-135.602
-150.892
-166.19
75.4284
68.3301
61.4164
54.9861
49.208
44.1376
39.7556
36.0043
32.8121
30.1074
27.8258
25.9124
24.3226
23.0212
21.9813
21.1838
20.6162
20.2725
20.153
20.2641
20.6187
21.2362
22.1428
23.3705
24.9542
26.9253
29.2994
32.0546
35.0994
38.2357
41.1408
43.418
44.7696
45.2391
45.21
45.1596
45.4773
46.3956
47.9767
50.1013
52.4458
54.4764
55.5364
55.1109
53.1907
50.2735
47.0038
43.9139
41.346
39.4742
38.3461
37.9091
38.0093
38.3722
38.5928
38.191
36.7898
34.3633
31.2365
27.8365
24.5148
21.4948
18.8887
16.7307
15.0013
13.6338
12.5047
11.4136
10.0727
8.14151
5.34647
1.64782
-2.76187
-7.6271
-12.7516
-18.0352
-23.4644
-29.0913
-35.0179
-41.391
-48.4032
-56.2942
-65.3387
-75.8049
-87.8898
-101.682
-117.149
-134.073
-151.972
-170.045
76.2992
67.5577
59.2033
51.7083
45.2528
39.8214
35.3051
31.5671
28.4759
25.9186
23.8038
22.0595
20.6306
19.4758
18.565
17.8775
17.4007
17.1295
17.066
17.2202
17.6104
18.2649
19.2236
20.5398
22.2801
24.5221
27.342
30.7864
34.8135
39.1955
43.4027
46.5856
47.9242
47.482
46.2086
45.089
44.7922
45.6731
47.8468
51.1986
55.2967
59.2472
61.6771
61.2558
57.9663
53.105
48.0122
43.5547
40.1547
37.9604
36.9804
37.1419
38.2732
40.0198
41.7296
42.4317
41.19
37.9742
33.6579
29.1446
25.012
21.5321
18.7905
16.7853
15.4787
14.8061
14.6469
14.7586
14.6947
13.7886
11.3923
7.46585
2.5759
-2.69859
-8.00912
-13.2264
-18.3625
-23.5081
-28.8018
-34.4271
-40.6308
-47.7513
-56.2312
-66.5543
-79.0718
-93.9701
-111.352
-131.138
-152.796
-175.079
77.6475
66.2241
55.7495
46.9311
39.8208
34.186
29.7328
26.1973
23.3696
21.0916
19.2471
17.7512
16.5429
15.5781
14.8263
14.267
13.8884
13.6865
13.6649
13.8356
14.2206
14.8546
15.7889
17.0972
18.8828
21.2855
24.484
28.6776
34.015
40.4054
47.1376
52.407
53.641
50.9196
46.9836
43.8317
42.4092
43.0872
46.0184
51.219
58.3578
66.2052
71.921
71.5284
65.0025
56.2675
48.1036
41.6709
37.2256
34.6965
33.9695
34.9769
37.6493
41.7187
46.3156
49.4696
48.4314
43.1682
36.3614
29.9033
24.5684
20.5051
17.6312
15.8334
15.0425
15.2385
16.3982
18.3558
20.5289
21.5811
19.6407
14.671
8.46721
2.28188
-3.40066
-8.53403
-13.2461
-17.7107
-22.1071
-26.6292
-31.5365
-37.2489
-44.4676
-54.141
-66.8225
-82.6772
-102.092
-125.5
-152.717
-181.908
79.8815
63.5209
49.908
39.6925
32.2619
26.8471
22.8374
19.8068
17.4705
15.6395
14.1873
13.0282
12.1035
11.3731
10.8097
10.3956
10.1211
9.98322
9.98616
10.1417
10.4717
11.0112
11.8149
12.9667
14.5958
16.9021
20.1918
24.9203
31.6989
41.121
52.9767
64.0369
65.0513
56.1037
46.6275
40.0823
36.9992
37.2549
40.92
48.4461
60.3961
76.2299
90.9579
90.63
75.2172
58.6051
45.7002
36.9234
31.5356
28.8358
28.4599
30.4126
35.0122
42.6564
52.9774
62.5425
61.7545
50.5833
38.5613
29.0433
22.2928
17.7646
14.9212
13.4309
13.1847
14.2823
17
21.6419
27.9762
33.682
32.2508
23.6523
14.3316
6.53823
0.417025
-4.44809
-8.48558
-12.0111
-15.2303
-18.2758
-21.2814
-24.5762
-29.1674
-37.3942
-50.001
-66.2555
-87.0763
-114.372
-149.789
-191.711
83.9223
56.8587
39.1715
28.4412
21.7987
17.4836
14.5309
12.4156
10.843
9.64115
8.70465
7.96678
7.38394
6.9272
6.57746
6.32269
6.15635
6.07676
6.08713
6.1963
6.42056
6.78691
7.339
8.14804
9.33324
11.1016
13.8271
18.2095
25.5748
38.3304
59.9587
90.13
90.8037
62.0465
42.0487
31.3454
26.7798
26.5115
30.2602
39.3007
56.8391
87.8436
131.671
131.45
87.1555
55.602
37.3504
27.2942
21.9737
19.6275
19.5959
22.0353
27.9897
39.7376
60.7253
90.5212
90.0271
59.2213
37.1541
24.1967
16.8162
12.597
10.2624
9.23651
9.39107
10.9926
14.8303
22.4899
36.3275
56.0585
55.1804
33.6728
17.9961
8.3863
2.4259
-1.55375
-4.46203
-6.75198
-8.60291
-9.97922
-10.6091
-10.0356
-8.63085
-14.3387
-27.9247
-43.2561
-62.7341
-91.544
-137.491
-206.979
91.9212
36.6913
18.4155
11.302
7.98311
6.15743
5.01809
4.242
3.68135
3.26015
2.93557
2.68176
2.48239
2.32682
2.20818
2.12215
2.06644
2.04049
2.04553
2.08484
2.16452
2.29481
2.49276
2.78735
3.23049
3.92229
5.07598
7.20227
11.6876
22.7614
54.6359
158.695
158.932
55.3729
24.084
13.769
10.3711
9.98227
11.9788
17.9167
33.8884
80.9884
235.809
235.731
80.7427
33.4418
17.1978
10.8442
8.12794
7.08519
7.17288
8.59561
12.6233
23.5118
55.7871
162.114
161.945
55.2734
22.6271
11.3185
6.78652
4.71502
3.71845
3.34191
3.51334
4.48254
7.15644
14.4406
36.1908
108.11
107.814
35.2953
12.9237
4.97879
1.58238
-0.202124
-1.32872
-2.12481
-2.65866
-2.75705
-1.66922
3.30858
22.1484
20.0619
-3.33404
-14.2836
-24.9513
-44.0353
-91.2863
-233.235
-164.191
-174.326
-183.945
-192.947
-201.255
-208.815
-215.593
-221.576
-226.762
-231.161
-234.788
-237.662
-239.8
-241.216
-241.921
-164.582
-174.836
-184.554
-193.634
-201.996
-209.589
-216.382
-222.364
-227.54
-231.924
-235.533
-238.39
-240.512
-241.918
-242.617
-165.376
-175.875
-185.796
-195.031
-203.5
-211.154
-217.972
-223.951
-229.104
-233.453
-237.023
-239.842
-241.934
-243.316
-244.004
-166.603
-177.484
-187.719
-197.187
-205.811
-213.549
-220.393
-226.355
-231.463
-235.751
-239.256
-242.014
-244.054
-245.401
-246.07
-168.313
-179.733
-190.4
-200.18
-208.999
-216.831
-223.688
-229.605
-234.632
-238.823
-242.228
-244.894
-246.86
-248.154
-248.796
-170.581
-182.729
-193.96
-204.128
-213.167
-221.08
-227.913
-233.736
-238.63
-242.671
-245.931
-248.467
-250.328
-251.549
-252.154
-173.525
-186.633
-198.577
-209.196
-218.454
-226.401
-233.139
-238.789
-243.471
-247.293
-250.346
-252.705
-254.427
-255.553
-256.109
-177.328
-191.694
-204.511
-215.618
-225.042
-232.922
-239.445
-244.801
-249.162
-252.673
-255.447
-257.571
-259.113
-260.116
-260.611
-182.282
-198.298
-212.148
-223.715
-233.166
-240.792
-246.909
-251.799
-255.696
-258.78
-261.186
-263.011
-264.327
-265.179
-265.599
-188.871
-207.062
-222.058
-233.922
-243.106
-250.163
-255.59
-259.782
-263.034
-265.556
-267.495
-268.952
-269.994
-270.666
-270.996
-197.961
-219.012
-235.092
-246.798
-255.165
-261.154
-265.495
-268.695
-271.092
-272.905
-274.277
-275.296
-276.02
-276.486
-276.714
-211.229
-235.927
-252.492
-263.005
-269.594
-273.784
-276.531
-278.401
-279.723
-280.687
-281.4
-281.924
-282.295
-282.533
-282.65
-232.335
-260.966
-275.934
-283.126
-286.412
-287.847
-288.433
-288.645
-288.704
-288.709
-288.702
-288.695
-288.693
-288.692
-288.693
-270.549
-299.659
-307.142
-307.14
-305.072
-302.747
-300.698
-299.032
-297.728
-296.734
-295.991
-295.451
-295.076
-294.84
-294.726
-353.864
-359.971
-345.822
-333.209
-323.978
-317.362
-312.567
-309.044
-306.434
-304.497
-303.066
-302.03
-301.31
-300.856
-300.636
145.673
145.475
145.083
144.503
143.746
142.839
141.826
140.79
139.881
139.38
139.813
142.247
149.154
167.728
225.511
149.31
149.118
148.735
148.165
147.418
146.509
145.476
144.389
143.384
142.73
142.941
145.022
150.885
163.789
185.779
153.075
152.887
152.512
151.947
151.195
150.261
149.159
147.925
146.64
145.473
144.767
145.166
147.722
153.534
161.387
156.966
156.783
156.414
155.854
155.095
154.124
152.928
151.492
149.808
147.892
145.819
143.807
142.292
141.857
142.52
160.978
160.802
160.444
159.895
159.135
158.138
156.858
155.226
153.134
150.413
146.825
142.097
136.106
129.414
124.183
165.108
164.942
164.602
164.075
163.335
162.342
161.027
159.276
156.891
153.53
148.618
141.261
130.403
115.952
102.286
169.349
169.197
168.885
168.397
167.706
166.764
165.494
163.761
161.32
157.72
152.103
142.85
127.191
101.939
70.9717
173.69
173.557
173.284
172.856
172.245
171.409
170.278
168.731
166.548
163.306
158.106
148.884
130.637
91.8919
18.2257
178.118
178.009
177.785
177.434
176.934
176.253
175.345
174.136
172.507
170.246
166.898
161.18
148.313
106.092
-85.6021
182.617
182.536
182.369
182.109
181.742
181.25
180.616
179.827
178.898
177.935
177.33
178.436
186.367
224.089
412.882
187.166
187.115
187.013
186.853
186.63
186.34
185.989
185.61
185.307
185.368
186.57
190.945
203.728
237.169
307.204
191.743
191.726
191.69
191.633
191.557
191.465
191.376
191.334
191.455
192.003
193.599
197.609
206.737
224.827
250.25
196.328
196.343
196.374
196.421
196.488
196.583
196.723
196.941
197.299
197.904
198.947
200.71
203.516
207.384
211.043
200.896
200.944
201.04
201.188
201.393
201.663
202.01
202.445
202.963
203.496
203.788
203.081
199.55
190.08
174.468
205.425
205.504
205.664
205.909
206.246
206.683
207.229
207.884
208.609
209.248
209.315
207.407
199.702
177.035
127.144
209.892
210.001
210.222
210.559
211.022
211.62
212.367
213.269
214.308
215.389
216.209
215.75
210.239
182.889
45.2677
214.278
214.415
214.692
215.115
215.695
216.447
217.391
218.553
219.968
221.706
223.983
227.594
235.934
265.316
403.813
218.563
218.725
219.053
219.554
220.242
221.134
222.258
223.654
225.396
227.642
230.823
236.145
247.01
271.959
322.743
222.728
222.913
223.286
223.857
224.639
225.653
226.928
228.509
230.464
232.923
236.168
240.84
248.297
260.651
277.045
226.759
226.963
227.375
228.005
228.867
229.982
231.379
233.096
235.174
237.649
240.516
243.592
246.177
246.529
242.836
230.641
230.861
231.306
231.984
232.911
234.108
235.602
237.426
239.6
242.096
244.711
246.678
245.598
235.209
206.169
234.363
234.596
235.066
235.782
236.76
238.019
239.59
241.504
243.793
246.452
249.35
251.87
251.476
236.833
149.443
237.917
238.159
238.648
239.391
240.404
241.707
243.331
245.316
247.721
250.634
254.243
259.078
267.242
288.969
380.788
241.296
241.545
242.045
242.805
243.839
245.165
246.813
248.83
251.287
254.326
258.276
263.965
273.581
292.421
327.357
244.496
244.747
245.253
246.021
247.061
248.39
250.033
252.029
254.439
257.378
261.093
266.117
273.505
284.687
298.302
247.513
247.766
248.272
249.039
250.074
251.389
253.001
254.934
257.215
259.882
262.992
266.617
270.786
275.254
278.815
250.349
250.599
251.103
251.863
252.884
254.173
255.74
257.589
259.714
262.07
264.527
266.73
267.851
266.442
261.917
253.002
253.25
253.748
254.496
255.498
256.757
258.274
260.045
262.042
264.179
266.231
267.586
266.665
259.784
241.992
255.476
255.721
256.21
256.945
257.925
259.153
260.625
262.337
264.263
266.34
268.409
270.014
269.61
260.695
209.828
257.773
258.013
258.493
259.213
260.172
261.369
262.803
264.472
266.37
268.497
270.902
273.829
278.457
290.73
343.38
259.896
260.131
260.602
261.307
262.245
263.413
264.81
266.439
268.307
270.454
273.023
276.452
281.987
292.715
312.691
261.847
262.078
262.54
263.231
264.148
265.289
266.65
268.232
270.042
272.108
274.538
277.605
281.901
288.27
295.993
263.63
263.857
264.311
264.989
265.887
267.002
268.328
269.86
271.588
273.503
275.603
277.895
280.367
282.874
284.778
265.247
265.471
265.918
266.584
267.467
268.56
269.856
271.343
272.995
274.759
276.526
278.05
278.8
277.889
275.006
266.702
266.923
267.363
268.021
268.891
269.969
271.245
272.704
274.315
276.004
277.61
278.734
278.378
274.264
263.351
267.995
268.214
268.649
269.3
270.162
271.23
272.497
273.952
275.57
277.297
279.02
280.435
280.558
275.352
244.239
269.129
269.346
269.778
270.424
271.281
272.345
273.612
275.079
276.739
278.585
280.637
283.025
286.43
294.422
326.984
270.105
270.32
270.75
271.393
272.246
273.309
274.581
276.065
277.769
279.721
282.011
284.899
289.107
296.419
309.121
270.923
271.137
271.565
272.205
273.057
274.119
275.394
276.889
278.618
280.613
282.961
285.848
289.618
294.666
300.201
271.585
271.798
272.224
272.862
273.712
274.772
276.047
277.543
279.271
281.251
283.529
286.173
289.235
292.564
295.248
272.091
272.303
272.728
273.364
274.21
275.268
276.539
278.028
279.739
281.673
283.835
286.198
288.657
290.9
292.281
272.442
272.653
273.076
273.71
274.553
275.607
276.872
278.351
280.041
281.93
283.991
286.149
288.219
289.827
290.394
272.638
272.848
273.269
273.9
274.741
275.79
277.05
278.52
280.195
282.058
284.072
286.15
288.094
289.466
289.025
272.68
272.89
273.309
273.937
274.773
275.818
277.073
278.538
280.209
282.072
284.101
286.234
288.357
290.354
292.663
272.569
272.777
273.194
273.819
274.651
275.692
276.942
278.405
280.08
281.962
284.048
286.317
288.698
291.017
292.834
272.305
272.512
272.927
273.548
274.376
275.411
276.657
278.117
279.796
281.702
283.861
286.311
289.075
292.021
294.388
271.89
272.096
272.507
273.124
273.947
274.976
276.215
277.668
279.344
281.258
283.464
286.077
289.317
293.416
297.706
271.325
271.529
271.937
272.549
273.366
274.387
275.617
277.058
278.715
280.603
282.776
285.399
288.953
294.671
304.123
270.61
270.812
271.216
271.823
272.632
273.645
274.864
276.289
277.918
279.742
281.768
284.064
287.077
293.323
317.225
269.747
269.947
270.347
270.947
271.748
272.752
273.96
275.371
276.974
278.733
280.563
282.223
282.947
279.704
257.401
268.739
268.935
269.33
269.922
270.714
271.709
272.908
274.312
275.912
277.665
279.468
281.023
281.563
279.314
271.85
267.586
267.779
268.167
268.75
269.531
270.514
271.705
273.111
274.732
276.556
278.536
280.518
282.107
282.537
281.231
266.291
266.481
266.86
267.432
268.199
269.168
270.347
271.752
273.403
275.331
277.595
280.278
283.449
286.956
289.822
264.858
265.042
265.412
265.969
266.718
267.666
268.824
270.214
271.871
273.863
276.354
279.691
284.549
291.81
300.519
263.29
263.468
263.825
264.365
265.09
266.009
267.134
268.485
270.096
272.042
274.518
278.038
283.972
295.65
317.379
261.591
261.762
262.105
262.623
263.32
264.202
265.28
266.567
268.079
269.845
271.95
274.698
279.398
292.501
349.442
259.766
259.929
260.255
260.748
261.411
262.251
263.274
264.485
265.877
267.404
268.928
269.995
268.981
258.9
203.6
257.821
257.974
258.282
258.747
259.372
260.164
261.13
262.271
263.571
264.957
266.215
266.729
264.851
256.693
237.025
255.763
255.906
256.192
256.625
257.209
257.95
258.857
259.939
261.196
262.592
264.012
265.114
265.077
262.471
256.899
253.6
253.731
253.993
254.391
254.928
255.612
256.456
257.48
258.715
260.203
262.023
264.282
267.08
270.3
273.009
251.339
251.457
251.694
252.052
252.536
253.155
253.923
254.869
256.048
257.576
259.721
263.068
268.781
278.477
291.107
248.989
249.093
249.302
249.618
250.044
250.586
251.259
252.089
253.131
254.514
256.577
260.203
267.708
284.608
318.081
246.56
246.65
246.83
247.1
247.462
247.92
248.48
249.155
249.968
250.973
252.341
254.637
260.102
279.22
368.403
244.063
244.138
244.287
244.51
244.806
245.176
245.615
246.119
246.663
247.173
247.453
246.862
243.009
225.169
136.607
241.508
241.568
241.686
241.862
242.093
242.375
242.7
243.05
243.371
243.527
243.163
241.344
235.622
220.223
187.558
238.906
238.95
239.038
239.168
239.336
239.536
239.762
239.994
240.188
240.234
239.878
238.53
234.948
227.263
215.919
236.267
236.297
236.355
236.44
236.548
236.674
236.813
236.959
237.099
237.212
237.277
237.259
237.117
236.836
236.496
233.6
233.616
233.647
233.69
233.741
233.796
233.854
233.922
234.02
234.219
234.728
236.067
239.376
246.444
256.929
230.917
230.92
230.925
230.927
230.923
230.909
230.884
230.857
230.863
231.005
231.595
233.499
239.02
253.67
284.735
228.226
228.217
228.197
228.162
228.106
228.023
227.909
227.765
227.603
227.472
227.546
228.412
232.318
249.49
334.203
225.536
225.516
225.474
225.404
225.3
225.152
224.95
224.681
224.315
223.791
222.941
221.206
216.397
198.4
113.084
222.854
222.825
222.763
222.664
222.517
222.312
222.034
221.657
221.13
220.33
218.945
216.129
209.63
194.055
162.303
220.188
220.151
220.074
219.949
219.768
219.518
219.18
218.732
218.128
217.27
215.937
213.604
209.16
200.939
189.551
217.541
217.499
217.411
217.269
217.062
216.777
216.399
215.911
215.295
214.534
213.617
212.539
211.31
210.016
208.969
214.919
214.874
214.779
214.627
214.404
214.096
213.688
213.172
212.557
211.902
211.405
211.572
213.498
218.919
227.736
212.324
212.278
212.183
212.027
211.798
211.478
211.048
210.499
209.84
209.154
208.728
209.376
213.255
225.456
252.704
209.755
209.712
209.622
209.473
209.25
208.93
208.488
207.896
207.134
206.221
205.301
204.932
207.229
221.537
296.669
207.21
207.174
207.096
206.965
206.763
206.462
206.027
205.406
204.529
203.286
201.487
198.63
192.856
175.375
98.1885
204.687
204.66
204.603
204.502
204.338
204.082
203.689
203.09
202.171
200.734
198.402
194.35
186.61
170.67
140.868
202.176
202.164
202.134
202.076
201.972
201.792
201.491
200.992
200.167
198.799
196.508
192.626
186.054
175.589
162.917
199.67
199.674
199.679
199.677
199.653
199.582
199.426
199.115
198.535
197.499
195.715
192.765
188.197
182.037
176.231
197.157
197.18
197.225
197.287
197.36
197.427
197.463
197.42
197.215
196.714
195.727
194.022
191.443
188.237
185.577
194.623
194.666
194.753
194.886
195.065
195.29
195.552
195.834
196.095
196.263
196.234
195.882
195.119
194.053
193.141
192.055
192.117
192.245
192.447
192.734
193.12
193.623
194.257
195.033
195.945
196.963
198.021
199.003
199.758
200.134
189.439
189.518
189.682
189.945
190.329
190.866
191.598
192.578
193.873
195.547
197.66
200.208
203.04
205.723
207.451
186.764
186.855
187.044
187.353
187.813
188.472
189.395
190.678
192.442
194.842
198.05
202.192
207.177
212.345
216.032
184.023
184.118
184.32
184.652
185.155
185.888
186.94
188.439
190.566
193.571
197.786
203.586
211.182
219.99
227.237
181.212
181.304
181.501
181.828
182.332
183.078
184.17
185.761
188.075
191.454
196.419
203.729
214.342
228.714
243.536
178.332
178.413
178.586
178.878
179.335
180.024
181.051
182.575
184.839
188.233
193.418
201.572
214.886
237.121
270.191
175.393
175.453
175.584
175.809
176.171
176.731
177.584
178.872
180.813
183.764
188.351
195.828
209.23
237.999
319.872
-585.144
-433.811
-379.86
-353.993
-338.904
-329.077
-322.268
-317.376
-313.789
-311.137
-309.18
-307.759
-306.771
-306.145
-305.842
-494.782
-433.3
-391.292
-365.394
-348.811
-337.623
-329.747
-324.036
-319.819
-316.683
-314.356
-312.66
-311.474
-310.722
-310.357
-447.236
-419.256
-391.525
-370.315
-354.964
-343.859
-335.713
-329.649
-325.093
-321.659
-319.086
-317.196
-315.869
-315.023
-314.612
-419.242
-405.029
-387.219
-371.158
-358.16
-348.032
-340.224
-334.209
-329.579
-326.028
-323.333
-321.334
-319.92
-319.015
-318.574
-401.24
-393.29
-381.69
-369.862
-359.355
-350.586
-343.478
-337.799
-333.308
-329.795
-327.088
-325.057
-323.609
-322.677
-322.221
-388.883
-384.074
-376.31
-367.64
-359.335
-351.977
-345.729
-340.556
-336.352
-332.993
-330.363
-328.367
-326.931
-326.002
-325.545
-379.989
-376.901
-371.548
-365.154
-358.65
-352.588
-347.223
-342.632
-338.8
-335.675
-333.19
-331.279
-329.892
-328.989
-328.544
-373.363
-371.291
-367.5
-362.734
-357.65
-352.706
-348.171
-344.171
-340.751
-337.906
-335.607
-333.819
-332.509
-331.651
-331.226
-368.3
-366.866
-364.12
-360.526
-356.543
-352.532
-348.737
-345.299
-342.294
-339.748
-337.66
-336.018
-334.804
-334.004
-333.606
-364.356
-363.344
-361.318
-358.578
-355.446
-352.199
-349.044
-346.119
-343.51
-341.263
-339.395
-337.91
-336.802
-336.068
-335.702
-361.239
-360.517
-359.002
-356.894
-354.421
-351.793
-349.182
-346.711
-344.468
-342.506
-340.856
-339.529
-338.533
-337.869
-337.537
-358.747
-358.231
-357.088
-355.455
-353.494
-351.367
-349.212
-347.136
-345.222
-343.525
-342.081
-340.91
-340.024
-339.43
-339.133
-356.738
-356.373
-355.506
-354.233
-352.674
-350.952
-349.177
-347.44
-345.816
-344.36
-343.108
-342.083
-341.303
-340.778
-340.514
-355.106
-354.853
-354.196
-353.202
-351.96
-350.565
-349.105
-347.657
-346.286
-345.044
-343.966
-343.078
-342.397
-341.937
-341.705
-353.773
-353.607
-353.11
-352.333
-351.343
-350.214
-349.015
-347.811
-346.66
-345.606
-344.684
-343.918
-343.329
-342.928
-342.726
-352.681
-352.58
-352.208
-351.603
-350.814
-349.901
-348.919
-347.921
-346.957
-346.067
-345.283
-344.627
-344.12
-343.774
-343.599
-351.782
-351.734
-351.46
-350.991
-350.364
-349.627
-348.825
-347.999
-347.195
-346.447
-345.783
-345.224
-344.79
-344.493
-344.342
-351.042
-351.034
-350.839
-350.478
-349.983
-349.39
-348.735
-348.055
-347.386
-346.759
-346.199
-345.726
-345.356
-345.102
-344.973
-350.432
-350.457
-350.324
-350.05
-349.661
-349.185
-348.653
-348.094
-347.539
-347.016
-346.545
-346.146
-345.832
-345.616
-345.506
-349.929
-349.979
-349.897
-349.694
-349.39
-349.011
-348.58
-348.122
-347.663
-347.227
-346.833
-346.497
-346.231
-346.048
-345.954
-349.514
-349.586
-349.544
-349.398
-349.164
-348.864
-348.517
-348.142
-347.763
-347.401
-347.071
-346.788
-346.564
-346.409
-346.33
-349.175
-349.263
-349.253
-349.154
-348.977
-348.741
-348.461
-348.155
-347.843
-347.543
-347.268
-347.03
-346.841
-346.71
-346.642
-348.898
-349
-349.016
-348.953
-348.822
-348.638
-348.415
-348.165
-347.908
-347.658
-347.428
-347.228
-347.069
-346.957
-346.9
-348.675
-348.788
-348.824
-348.791
-348.697
-348.555
-348.376
-348.172
-347.959
-347.751
-347.558
-347.389
-347.254
-347.159
-347.11
-348.499
-348.619
-348.672
-348.662
-348.596
-348.487
-348.344
-348.176
-347.999
-347.824
-347.661
-347.517
-347.401
-347.32
-347.278
-348.362
-348.489
-348.555
-348.562
-348.518
-348.434
-348.318
-348.179
-348.029
-347.88
-347.741
-347.617
-347.516
-347.446
-347.409
-348.262
-348.394
-348.468
-348.488
-348.461
-348.395
-348.299
-348.18
-348.051
-347.922
-347.799
-347.69
-347.602
-347.539
-347.506
-348.195
-348.33
-348.409
-348.438
-348.421
-348.368
-348.285
-348.18
-348.065
-347.949
-347.839
-347.74
-347.66
-347.603
-347.573
-348.159
-348.295
-348.377
-348.41
-348.399
-348.352