/*--------------------------------*- C++ -*----------------------------------*\
| =========                 |                                                 |
| \\      /  F ield         | OpenFOAM: The Open Source CFD Toolbox           |
|  \\    /   O peration     | Version:  5.x                                   |
|   \\  /    A nd           | Web:      www.OpenFOAM.org                      |
|    \\/     M anipulation  |                                                 |
\*---------------------------------------------------------------------------*/
FoamFile
{
    version     2.0;
    format      ascii;
    class       volScalarField;
    location    "11";
    object      gradTy;
}
// * * * * * * * * * * * * * * * * * * * * * * * * * * * * * * * * * * * * * //

dimensions      [0 -1 0 1 0 0 0];

internalField   nonuniform List<scalar> 
6300
(
1055.04
1164.96
1274.38
1383
1490.47
1596.48
1700.69
1802.78
1902.44
1999.36
2093.23
2183.78
2270.76
2353.96
2433.22
0.240068
0.72044
1.20143
1.68311
2.16501
2.64582
3.12312
3.59304
4.04994
4.48619
4.8921
5.25618
5.56574
5.80797
5.97139
0.399832
1.20002
2.00158
2.80489
3.60948
4.4135
5.2133
6.00274
6.77271
7.51053
8.19979
8.82065
9.35076
9.76722
10.0491
0.559064
1.67814
2.79986
3.92529
5.05436
6.18525
7.31361
8.4317
9.52735
10.5831
11.5755
12.4754
13.249
13.8605
14.2768
0.717327
2.15356
3.59432
5.04188
6.49721
7.95924
9.42387
10.8827
12.3215
13.7185
15.0433
16.256
17.3085
18.1482
18.7244
0.873967
2.62434
4.38184
6.15049
7.93307
9.73029
11.5395
13.3533
15.1568
16.9255
18.6224
20.1959
21.58
22.6985
23.4747
1.02813
3.08789
5.15802
7.2449
9.35396
11.4889
13.6502
15.8335
18.0262
20.2036
22.3241
24.3241
26.1158
27.5898
28.6287
1.17875
3.54096
5.91723
8.31683
10.7486
13.2205
15.7384
18.3036
20.9099
23.5375
26.145
28.6595
30.9679
32.9147
34.3172
1.32463
3.97981
6.65287
9.35619
12.1027
14.9057
17.7783
20.7317
23.7714
26.8904
30.0574
33.1995
36.1802
38.7822
40.7166
1.46453
4.40059
7.35796
10.352
13.3997
16.5205
19.7367
23.0725
26.5523
30.1937
33.9932
37.8993
41.7693
45.3157
48.0779
1.59738
4.79987
8.02608
11.2936
14.623
18.0393
21.5743
25.2681
29.1703
33.3375
37.8208
42.6335
47.6801
52.6316
56.7743
1.72243
5.17525
8.65256
12.1729
15.7587
19.4387
23.2521
27.254
31.522
36.1635
41.3173
47.132
53.6837
60.7537
67.373
1.83946
5.52593
9.23564
12.9862
16.7993
20.7036
24.7404
28.9724
33.4984
38.4757
44.151
50.8912
59.1667
69.3236
80.6627
1.94886
5.85314
9.77744
13.7365
17.748
21.8351
26.0322
30.3954
35.0221
40.0881
45.918
53.1126
62.7652
76.7078
97.0293
2.05163
6.16008
10.2841
14.4339
18.6202
22.8554
27.1567
31.5536
36.1047
40.9349
46.318
52.8735
62.0702
77.7091
111.077
2502.15
2561.96
2618.92
2673.04
2724.4
2773.07
2819.15
2862.79
2904.12
2943.31
2980.53
3015.94
3049.74
3082.11
3113.23
3143.29
3172.45
3200.91
3228.82
3256.36
3283.67
3310.92
3338.22
3365.72
3393.52
3421.73
3450.42
3479.67
3509.52
3539.99
3571.12
3602.88
3635.26
3668.22
3701.72
3735.72
3770.13
3804.91
3839.95
3875.18
3910.51
3945.81
3981
4015.94
4050.52
4084.63
4118.15
4150.99
4183.05
4214.24
4244.46
4273.65
4301.72
4328.59
4354.16
4378.34
4401.04
4422.15
4441.57
4459.19
4474.89
4488.57
4500.1
4509.38
4516.27
4520.63
4522.32
4521.16
4516.98
4509.58
4498.74
4484.23
4465.8
4443.2
4416.15
4384.36
4347.57
4305.46
4257.73
4204.1
4144.27
4077.93
4004.83
3924.71
3837.36
3742.57
3640.24
3530.28
3412.67
3287.49
6.04106
6.04081
5.9767
5.8508
5.66732
5.43215
5.15233
4.83543
4.48911
4.12063
3.73666
3.34308
2.94492
2.54643
2.15118
1.76218
1.38205
1.01319
0.657948
0.318733
-0.00184817
-0.300939
-0.575433
-0.822039
-1.03744
-1.21855
-1.36278
-1.46845
-1.53507
-1.56353
-1.55613
-1.51631
-1.44813
-1.3556
-1.24199
-1.1094
-0.958668
-0.789674
-0.602017
-0.395846
-0.172622
0.0644084
0.310224
0.558557
0.802841
1.03735
1.2582
1.46401
1.656
1.83763
2.01385
2.1901
2.37132
2.56117
2.76154
2.97249
3.19264
3.41992
3.65243
3.88923
4.13096
4.37996
4.64021
4.9168
5.21537
5.54132
5.89923
6.29229
6.72198
7.18807
7.68885
8.22148
8.78253
9.36836
9.9753
10.5996
11.2371
11.8827
12.5299
13.1702
13.7926
14.3833
14.9263
15.4032
15.7947
16.0816
16.2465
16.2752
16.1583
15.8923
10.1697
10.1696
10.0594
9.84284
9.52763
9.12448
8.646
8.10566
7.51682
6.89208
6.24277
5.57875
4.90836
4.23853
3.57496
2.92244
2.28505
1.66655
1.07061
0.501085
-0.0377746
-0.541218
-1.00395
-1.42024
-1.78417
-2.09009
-2.33316
-2.51006
-2.61965
-2.66343
-2.64564
-2.57283
-2.45285
-2.29341
-2.10072
-1.8784
-1.62733
-1.34627
-1.03324
-0.687261
-0.310044
0.0929933
0.512641
0.936944
1.35317
1.75017
2.12046
2.46152
2.77599
3.07087
3.35592
3.64179
3.938
4.25141
4.58523
4.93894
5.30912
5.69091
6.07985
6.47351
6.87259
7.28128
7.70689
8.15893
8.64789
9.18387
9.77531
10.428
11.1445
11.9241
12.7631
13.6563
14.5972
15.5795
16.597
17.6442
18.7148
19.8013
20.8937
21.9785
23.0376
24.0481
24.982
25.8077
26.4908
26.9969
27.2943
27.357
27.1676
26.7195
14.4559
14.4568
14.2949
13.9766
13.5142
12.9249
12.2284
11.4453
10.5959
9.6986
8.76981
7.82341
6.87088
5.92154
4.98286
4.06095
3.16095
2.28755
1.44539
0.639491
-0.124462
-0.839852
-1.49905
-2.09351
-2.6141
-3.05177
-3.39844
-3.64821
-3.7986
-3.85156
-3.81395
-3.69687
-3.51396
-3.27873
-3.0017
-2.68841
-2.33881
-1.94856
-1.51156
-1.02334
-0.484346
0.097945
0.708626
1.32723
1.93144
2.50168
3.02502
3.49753
3.92441
4.31841
4.69697
5.07872
5.48006
5.9124
6.3804
6.88182
7.40901
7.95172
8.50057
9.05005
9.60045
10.1583
10.7355
11.3479
12.0127
12.7465
13.5631
14.4718
15.4761
16.5742
17.7594
19.0222
20.3521
21.7394
23.1759
24.6547
26.1691
27.7108
29.268
30.8232
32.3521
33.8222
35.193
36.4167
37.4409
38.2119
38.6793
38.801
38.5483
37.9102
18.9743
18.9772
18.7545
18.3165
17.6824
16.8785
15.9341
14.8793
13.7425
12.5491
11.3208
10.0755
8.82755
7.58798
6.36548
5.1668
3.99749
2.86254
1.767
0.716556
-0.281983
-1.22028
-2.08822
-2.87396
-3.56425
-4.14528
-4.60404
-4.93024
-5.11858
-5.17091
-5.09748
-4.9165
-4.65124
-4.32506
-3.95578
-3.55157
-3.10977
-2.61912
-2.0646
-1.43358
-0.722074
0.0608873
0.892037
1.73702
2.55739
3.31943
4.0015
4.59791
5.11878
5.58679
6.03199
6.48593
6.97597
7.52048
8.12585
8.78599
9.48492
10.2021
10.9187
11.6236
12.3159
13.0056
13.7118
14.4595
15.2762
16.188
17.2165
18.3758
19.6707
21.0968
22.6419
24.2893
26.0221
27.8262
29.6915
31.6116
33.5817
35.5956
37.6424
39.7032
41.7486
43.7368
45.6129
47.3101
48.7528
49.8613
50.5591
50.7811
50.4816
49.6418
23.8148
23.8212
23.5233
22.9375
22.0942
21.0333
19.7978
18.4303
16.9695
15.4488
13.8953
12.3305
10.771
9.22889
7.7129
6.22954
4.7838
3.38009
2.02305
0.718306
-0.526779
-1.70247
-2.79619
-3.79224
-4.67208
-5.41518
-6.00082
-6.41107
-6.63472
-6.67163
-6.53618
-6.25779
-5.87655
-5.43378
-4.96054
-4.46924
-3.95145
-3.38211
-2.72824
-1.96023
-1.06324
-0.0461746
1.05486
2.18151
3.26659
4.25154
5.10049
5.80619
6.38841
6.88714
7.35351
7.84021
8.39241
9.03986
9.79134
10.6332
11.5334
12.4519
13.3526
14.214
15.0338
15.8279
16.627
17.4705
18.4013
19.4601
20.68
22.0828
23.6747
25.4464
27.3752
29.4316
31.5878
33.8229
36.126
38.4943
40.929
43.4309
45.9943
48.6029
51.2249
53.81
56.2876
58.5674
60.543
62.099
63.1213
63.5092
63.1899
62.1312
29.0898
29.1019
28.7053
27.9277
26.8183
25.4381
23.8505
22.1148
20.2822
18.3947
16.485
14.5773
12.6889
10.8314
9.01273
7.23755
5.50911
3.83005
2.20345
0.633872
-0.871709
-2.30288
-3.6449
-4.87794
-5.97687
-6.91179
-7.65012
-8.16058
-8.41973
-8.42049
-8.18067
-7.74718
-7.19048
-6.5864
-5.99136
-5.42512
-4.86749
-4.26692
-3.55637
-2.67278
-1.5775
-0.274411
1.18048
2.68549
4.1195
5.37904
6.40523
7.19174
7.77772
8.23355
8.64521
9.09963
9.67112
10.4088
11.326
12.3955
13.555
14.7265
15.8421
16.8635
17.7876
18.6422
19.4772
20.3548
21.3413
22.4989
23.8793
25.5162
27.4188
29.5685
31.9231
34.429
37.0382
39.7201
42.4651
45.2794
48.178
51.1756
54.2792
57.4811
60.752
64.0357
67.2448
70.2602
72.9347
75.1029
76.5944
77.2532
76.9603
75.6589
34.9495
34.9698
34.4349
33.3945
31.9312
30.1406
28.1159
25.9382
23.6738
21.3729
19.0721
16.7966
14.5623
12.3787
10.2504
8.17888
6.16401
4.20522
2.30261
0.458214
-1.32278
-3.03061
-4.64939
-6.15557
-7.51656
-8.69023
-9.62624
-10.2706
-10.5755
-10.5145
-10.1027
-9.41267
-8.57133
-7.72472
-6.97943
-6.36734
-5.84411
-5.30889
-4.6325
-3.68892
-2.3898
-0.72007
1.23507
3.29278
5.22468
6.84355
8.05607
8.867
9.35539
9.64452
9.87635
10.1915
10.7116
11.5202
12.6424
14.0291
15.5602
17.0823
18.4682
19.6541
20.6423
21.4855
22.2667
23.0833
24.0354
25.2175
26.71
28.5678
30.8073
33.3959
36.2537
39.2781
42.3838
45.5267
48.7042
51.9432
55.284
58.7672
62.4223
66.2595
70.2602
74.368
78.4801
82.4428
86.0546
89.0799
91.2656
92.3664
92.182
90.6055
41.6064
41.6358
40.8911
39.469
37.5142
35.1793
32.6002
29.8858
27.117
24.3502
21.6226
18.9563
16.3629
13.8465
11.4065
9.03889
6.73857
4.49996
2.31851
0.191913
-1.87847
-3.88573
-5.81514
-7.64131
-9.32496
-10.8098
-12.0212
-12.8685
-13.2568
-13.1123
-12.4244
-11.2949
-9.95869
-8.71608
-7.77464
-7.18056
-6.83701
-6.55321
-6.09246
-5.21618
-3.73492
-1.5759
1.14275
4.08197
6.7813
8.89382
10.2858
11.0073
11.2205
11.1385
10.988
10.9888
11.337
12.1805
13.5786
15.455
17.5789
19.6346
21.3828
22.7296
23.706
24.4181
25.0056
25.6169
26.3985
27.4895
29.0147
31.0697
33.6933
36.8357
40.3441
44.0097
47.6756
51.2828
54.8542
58.4594
62.1843
66.11
70.3022
74.8012
79.6127
84.6925
89.9291
95.1287
100.017
104.264
107.497
109.328
109.407
107.515
49.384
49.4146
48.3209
46.3088
43.6429
40.568
37.2775
33.9095
30.5548
27.269
24.0826
21.0089
18.0505
15.2026
12.4563
9.80047
7.22272
4.71096
2.25413
-0.156556
-2.52616
-4.85397
-7.13049
-9.33315
-11.4204
-13.324
-14.941
-16.1279
-16.7061
-16.4933
-15.3824
-13.4756
-11.2119
-9.27456
-8.07052
-7.63389
-7.74475
-8.05327
-8.15181
-7.61575
-6.0572
-3.23891
0.731403
5.21509
9.18127
11.9799
13.4792
13.8778
13.5088
12.729
11.8797
11.2836
11.2472
12.0401
13.8239
16.5223
19.6937
22.6271
24.8727
26.3361
27.1478
27.5277
27.7073
27.9025
28.3132
29.1332
30.5537
32.7496
35.8293
39.7449
44.2049
48.7371
53.0485
57.0867
60.9514
64.7995
68.7908
73.0649
77.7354
82.8883
88.5738
94.7861
101.426
108.257
114.899
120.902
125.741
128.808
129.462
127.221
58.8253
58.81
57.0703
54.0876
50.3578
46.2648
42.0649
37.9125
33.8923
30.0438
26.3792
22.8949
19.5782
16.4118
13.3757
10.4493
7.61176
4.84284
2.1234
-0.563946
-3.2337
-5.89563
-8.55165
-11.1905
-13.7794
-16.25
-18.4792
-20.2629
-21.2935
-21.1666
-19.4854
-16.1693
-11.9946
-8.77641
-7.26084
-7.29836
-8.36739
-9.85514
-11.1244
-11.487
-10.1929
-6.56032
-0.4189
7.09354
13.2624
16.9367
18.2574
17.8532
16.3883
14.4196
12.4068
10.7724
9.96331
10.4725
12.7521
16.9081
22.1509
26.6094
29.4884
30.8802
31.2107
30.9249
30.3859
29.8769
29.6382
29.9113
30.9754
33.1559
36.7606
41.8694
47.9602
53.7813
58.8129
63.1389
67.0703
70.9313
74.988
79.4466
84.4718
90.2056
96.7732
104.261
112.644
121.654
130.697
139.21
146.535
151.757
153.68
151.137
70.9706
70.6853
67.6066
62.9392
57.5934
52.1135
46.7815
41.7237
36.9813
32.5525
28.4153
24.5388
20.8892
17.4329
14.137
10.9701
7.90208
4.90374
1.94684
-0.996169
-3.95187
-6.94506
-9.99659
-13.119
-16.3075
-19.5226
-22.6575
-25.4811
-27.546
-28.0766
-25.9414
-20.0983
-11.3987
-5.82574
-4.21393
-5.47663
-8.38624
-11.9708
-15.4014
-17.7431
-17.6951
-13.4936
-3.54289
10.907
20.9356
25.2828
25.5191
23.3562
19.993
16.1736
12.3892
9.07319
6.78137
6.35576
8.97854
15.7289
25.7375
32.866
36.2451
36.9522
36.1606
34.6862
33.0211
31.4618
30.2257
29.5501
29.7893
31.5111
35.5253
42.579
52.1031
59.9611
65.5918
69.7575
73.2892
76.7793
80.6045
85.0101
90.1853
96.3197
103.645
112.444
122.957
134.997
147.257
159.223
170.353
179.453
184.324
181.959
88.2325
86.5798
80.428
72.7649
65.0197
57.7465
51.1011
45.0783
39.6163
34.6395
30.0742
25.8541
21.9205
18.2216
14.7114
11.3476
8.0911
4.9042
1.74965
-1.4106
-4.61644
-7.91066
-11.3395
-14.9523
-18.7972
-22.9102
-27.2838
-31.7909
-36.0072
-38.8244
-37.7363
-28.1402
-6.30051
2.82872
2.97195
-1.28368
-7.43329
-14.3081
-21.2464
-27.44
-31.1783
-28.7056
-13.1463
21.0863
36.7884
39.5471
36.2339
30.5861
24.2532
17.8761
11.6957
5.89808
0.911113
-2.1516
-0.73983
9.85649
33.4698
44.5196
46.8474
45.1802
42.0919
38.72
35.5017
32.5793
30.0043
27.8697
26.4661
26.5631
29.9112
39.7287
58.6424
69.345
74.4773
77.2858
79.5643
82.1413
85.3812
89.4613
94.5135
100.715
108.388
118.154
131.066
148.018
164.235
180.433
197.086
213.231
225.382
225.92
117.78
108.949
95.4219
82.7051
71.7632
62.4728
54.5218
47.6234
41.5511
36.1324
31.235
26.756
22.613
18.7383
15.0744
11.5704
8.17984
4.85821
1.5609
-1.75898
-5.15318
-8.68164
-12.4169
-16.4501
-20.8996
-25.9212
-31.7161
-38.5177
-46.4811
-55.1938
-61.7807
-53.8111
17.1014
24.4232
16.4924
5.63692
-5.43539
-16.5532
-28.1626
-40.6709
-53.6038
-62.7606
-49.6384
57.9489
71.2789
62.5535
50.3095
38.8015
28.5767
19.2951
10.4513
1.55589
-7.72954
-17.1016
-23.6833
-14.7601
59.2926
68.732
63.201
55.4534
48.4303
42.5315
37.5557
33.1959
29.1482
25.1364
20.9817
16.9334
14.9806
23.7789
77.0041
86.7483
86.7066
85.575
85.407
86.5461
88.9453
92.5102
97.1839
102.987
110.116
119.33
133.354
162.093
181.234
200.982
224.544
252.753
283.157
301.506
187.203
138.075
109.244
90.0854
76.1249
65.2672
56.424
48.9763
42.5427
36.8726
31.7917
27.1725
22.9179
18.9505
15.2062
11.6292
8.16883
4.77684
1.40445
-2.00038
-5.49651
-9.15461
-13.0646
-17.3477
-22.1774
-27.8175
-34.6973
-43.5701
-55.8738
-74.6221
-106.784
-170.118
132.073
67.98
34.2233
12.8693
-3.37198
-18.0897
-33.7834
-53.2889
-81.4646
-128.895
-222.158
230.539
137.526
90.624
63.3229
45.1672
31.541
20.0825
9.28044
-2.22481
-16.2453
-36.069
-68.9532
-133.163
178.156
114.499
82.7438
64.6811
53.1478
45.0122
38.7211
33.3615
28.2391
22.6078
15.3431
4.28553
-15.4323
-56.1464
157.975
118.24
100.502
92.4731
89.3643
89.1329
90.8275
93.9585
98.2248
103.343
108.838
113.575
114.444
189.985
197.35
216.034
245.299
289.105
358.282
479.753
3141.58
2971.98
2792.42
2603.48
2405.84
2200.23
1987.43
1768.25
1543.49
1313.95
1080.41
843.628
604.356
363.316
121.222
15.439
14.749
13.8905
12.8974
11.8064
10.6526
9.46692
8.27406
7.09198
5.93214
4.80023
3.69717
2.6201
1.5634
0.519655
25.9479
24.7682
23.2998
21.6041
19.7467
17.7896
15.7861
13.7781
11.7953
9.85593
7.96843
6.13315
4.34422
2.59133
0.861183
36.7934
35.0748
32.935
30.4715
27.7859
24.9722
22.1092
19.2566
16.4549
13.7278
11.0845
8.52281
6.03233
3.59651
1.19494
48.1368
45.8007
42.8922
39.5592
35.9515
32.2029
28.4208
24.683
21.0393
17.5156
14.1186
10.8413
7.66578
4.56745
1.51706
60.1719
57.0967
53.2718
48.9195
44.2562
39.4654
34.6865
30.014
25.5026
21.1756
17.0328
13.0577
9.22203
5.49046
1.82294
73.1428
69.1403
64.1769
58.5893
52.6867
46.7144
40.8445
35.1824
29.7801
24.6502
19.7787
15.1341
10.6741
6.34939
2.10722
87.3702
82.1435
75.7051
68.5728
61.1856
53.8602
46.7939
40.0902
33.7838
27.8651
22.2966
17.0254
11.9904
7.12569
2.36378
103.292
96.3563
87.9249
78.8093
69.6211
60.745
52.3801
44.5999
37.3992
30.7286
24.516
18.68
13.1359
7.79903
2.58597
121.538
112.059
100.824
89.1142
77.7412
67.115
57.3793
48.5287
40.4835
33.133
26.3581
20.0419
14.0736
8.34838
2.76694
143.06
129.513
114.195
99.0789
85.1117
72.5914
61.4908
51.6501
42.8715
34.9604
27.7404
21.0553
14.7676
8.75372
2.90029
169.314
148.734
127.36
107.892
91.0332
76.6459
64.3406
53.7078
44.3904
36.0955
28.5865
21.6706
15.1872
8.99837
2.98073
202.347
168.743
138.614
114.093
94.4791
78.6152
65.5157
54.4484
44.8853
36.4433
28.8384
21.8525
15.3118
9.07154
3.0049
243.259
185.271
144.255
115.383
94.1712
77.8165
64.6564
53.683
44.2573
35.9528
28.4701
21.5883
15.1355
8.97082
2.97217
278.609
184.822
137.745
109.009
89.0027
73.8203
61.6081
51.3682
42.5064
34.6388
27.4999
20.8945
14.6707
8.70381
2.8851
2.14136
6.42803
10.726
15.0412
19.3768
23.7323
28.1025
32.4785
36.8519
41.23
45.6763
50.4125
56.0683
64.2968
79.2952
2.21984
6.66269
11.1142
15.5769
20.0479
24.5156
28.9538
33.3146
37.5159
41.4248
44.828
47.3695
48.3299
45.651
31.2975
2.29606
6.89119
11.4942
16.1062
20.7207
25.3185
29.858
34.2603
38.382
41.9692
44.5764
45.4227
43.1178
35.1107
16.8002
2.37012
7.11404
11.8677
16.6332
21.4044
26.1609
30.8565
35.3999
39.6183
43.1928
45.546
45.6629
41.8641
31.7246
12.92
2.44158
7.32992
12.2327
17.1557
22.0977
27.0447
31.9598
36.7642
41.3006
45.2632
48.067
48.6213
45.0119
34.3551
13.925
2.50939
7.53559
12.5833
17.6646
22.7868
27.9498
33.1389
38.3134
43.3799
48.1367
52.1487
54.4696
53.0523
43.7715
20.0823
2.572
7.72611
12.9104
18.1444
23.4469
28.8357
34.3274
39.9366
45.6729
51.5255
57.4037
62.9119
66.5519
63.1923
37.6802
2.62753
7.8955
13.2025
18.5761
24.0463
29.6493
35.4331
41.4704
47.8836
54.8948
62.9143
72.6495
84.9103
97.995
89.8937
2.67405
8.03759
13.4482
18.94
24.5527
30.3364
36.3619
42.7421
49.6777
57.5617
67.2319
80.6306
102.694
147.507
261.331
2.70979
8.14681
13.6371
19.2195
24.9396
30.8544
37.0431
43.6268
50.8119
58.9863
68.9583
82.5922
104.676
149.091
261.968
2.73338
8.21888
13.7616
19.4029
25.1904
31.1812
37.4487
44.0927
51.2575
59.1607
68.1398
78.6833
91.1468
103.127
92.0316
2.74389
8.25104
13.8172
19.4844
25.2994
31.3149
37.5915
44.1957
51.1888
58.5862
66.2325
73.4387
77.9508
73.184
42.2095
2.74087
8.24205
13.8022
19.4628
25.2683
31.2663
37.5057
44.0274
50.8379
57.8369
64.629
70.0629
71.1961
61.4388
29.5003
2.72428
8.19188
13.7171
19.34
25.1027
31.0492
37.2227
43.657
50.3547
57.2296
63.9666
69.6716
72.0022
65.0953
35.5834
2.6944
8.10148
13.5638
19.1195
24.8088
30.6736
36.7573
43.1026
49.7468
56.7163
64.0191
71.6214
79.2212
84.4476
70.5924
2.65177
7.9725
13.3452
18.8059
24.3922
30.145
36.1093
42.3392
48.9116
55.9698
63.8618
73.5706
88.0862
117.049
194.023
2.59711
7.80721
13.0652
18.4043
23.8594
29.4687
35.2759
41.337
47.7375
54.6426
62.4412
72.1797
86.9159
116.305
193.799
2.53137
7.60841
12.7286
17.9217
23.2188
28.654
34.2651
40.0978
46.2118
52.6931
59.6717
67.316
75.5676
82.152
69.9699
2.45565
7.37946
12.341
17.3662
22.4818
27.7161
33.0994
38.6622
44.4299
50.3966
56.4382
62.0287
65.3748
61.0289
34.8597
2.37117
7.12411
11.909
16.7474
21.6615
26.6741
31.8079
37.0834
42.5084
48.0466
53.5164
58.2983
60.5217
55.0592
29.9915
2.27926
6.8464
11.4394
16.0756
20.7724
25.5471
30.4172
35.3994
40.5073
45.7426
51.0708
56.343
61.0043
62.7027
49.3693
2.18131
6.55055
10.9396
15.3614
19.8284
24.353
28.9477
33.6273
38.4165
43.3729
48.6626
54.8104
63.5427
80.7832
128.055
2.07869
6.24077
10.4168
14.6153
18.844
23.1097
27.4183
31.7781
36.2085
40.7703
45.6573
51.4812
60.171
78.0064
126.876
1.97277
5.92119
9.87799
13.8477
17.8335
21.8359
25.8528
29.879
33.9083
37.9406
42.0002
46.1604
50.4464
53.6757
45.3076
1.86479
5.59564
9.32997
13.0688
16.8108
20.5513
24.28
27.977
31.6052
35.0908
38.272
40.7508
41.4544
37.3971
20.8534
1.75587
5.26755
8.77862
12.2872
15.7887
19.2745
22.7286
26.1221
29.4002
32.4513
35.0307
36.5729
35.7673
29.7885
13.873
1.64695
4.93976
8.22882
11.5101
14.7771
18.0191
21.2186
24.3465
27.352
30.1387
32.5087
34.0245
33.6719
29.0796
15.108
1.53876
4.61445
7.68421
10.7427
13.7825
16.7926
19.7576
22.6554
25.455
28.1145
30.5789
32.7727
34.5196
34.8833
27.6233
1.43182
4.29315
7.14723
9.98808
12.808
15.5971
18.3429
21.0318
23.6546
26.2251
28.8362
31.8303
36.3271
45.9804
73.4619
1.32644
3.97679
6.61927
9.24772
11.8547
14.4312
16.9672
19.4535
21.89
24.3068
26.8269
29.8434
34.5526
44.6955
72.9773
1.22279
3.66581
6.10089
8.52203
10.9222
13.2932
15.6254
17.9094
20.1384
22.3162
24.4721
26.6802
29.0039
30.8131
26.0519
1.1209
3.36025
5.59205
7.8107
10.0098
12.1817
14.3169
16.4031
18.422
20.3401
22.0805
23.4362
23.8116
21.4926
12.0026
1.0207
3.05987
5.09221
7.11278
9.11601
11.0953
13.0419
14.9431
16.7751
18.487
19.9554
20.8725
20.4897
17.1517
8.0329
0.922038
2.76418
4.60044
6.42674
8.23867
10.0313
11.7983
13.5307
15.2114
16.8026
18.2127
19.2111
19.2194
16.8247
8.88738
0.824701
2.4725
4.11551
5.75056
7.37459
8.98476
10.5785
12.1539
13.7093
15.2437
16.7555
18.2369
19.6177
20.3462
16.5733
0.728462
2.18412
3.63602
5.08191
6.52001
7.94946
9.37133
10.7907
12.2216
13.7
15.3191
17.3321
20.4684
26.9935
44.6571
0.633094
1.8983
3.16064
4.4186
5.67131
6.91928
8.16571
9.41927
10.7007
12.0584
13.6089
15.6468
18.9654
25.9051
44.2463
0.538402
1.61444
2.68828
3.75885
4.8258
5.89007
6.95501
8.0284
9.12662
10.2826
11.5602
13.0719
14.9475
16.8984
15.2404
0.444239
1.33209
2.21815
3.10158
3.98208
4.86032
5.73834
6.62021
7.51237
8.42218
9.34863
10.2441
10.8772
10.3978
6.25021
0.350511
1.05098
1.74985
2.44631
3.13992
3.83067
4.51894
5.20482
5.88583
6.55016
7.15854
7.59836
7.57924
6.44425
3.0605
0.25717
0.770974
1.28322
1.79304
2.29973
2.80274
3.30119
3.79281
4.27086
4.717
5.08549
5.27133
5.05622
4.05237
1.77165
0.164205
0.492065
0.818308
1.14196
1.46215
1.778
2.08824
2.39029
2.67811
2.93783
3.13937
3.22281
3.08103
2.54728
1.35965
0.0716305
0.214301
0.35523
0.493342
0.627657
0.757245
0.88108
0.997749
1.10499
1.19917
1.27542
1.33084
1.37824
1.49647
2.01152
-0.0205235
-0.0622209
-0.10584
-0.152569
-0.203463
-0.2594
-0.320964
-0.388072
-0.458878
-0.526846
-0.573811
-0.555307
-0.373458
0.170474
1.48881
-0.112212
-0.337366
-0.564681
-0.795489
-1.03096
-1.27198
-1.51897
-1.7711
-2.02447
-2.26718
-2.4682
-2.55457
-2.37625
-1.69288
-0.376615
-0.203375
-0.610959
-1.02101
-1.43505
-1.85443
-2.28024
-2.71317
-3.15301
-3.59714
-4.03614
-4.44184
-4.73723
-4.72936
-3.99533
-1.85077
-0.293938
-0.882778
-1.47447
-2.07076
-2.67325
-3.28333
-3.90231
-4.53162
-5.17302
-5.82782
-6.49164
-7.13002
-7.58627
-7.2769
-4.40594
-0.383807
-1.15255
-1.9246
-2.70201
-3.48658
-4.27995
-5.08394
-5.90148
-6.73916
-7.61278
-8.55859
-9.64872
-10.9742
-12.3368
-11.0864
-0.472868
-1.41993
-2.37089
-3.32809
-4.29354
-5.26891
-6.25579
-7.25693
-8.27985
-9.34705
-10.5247
-12.0032
-14.3357
-19.2103
-32.2957
-0.560981
-1.68452
-2.81269
-3.94822
-5.09335
-6.24951
-7.41732
-8.5968
-9.78923
-11.004
-12.2812
-13.764
-15.9308
-20.3807
-32.7416
-0.647965
-1.9458
-3.2492
-4.56147
-5.88516
-7.22165
-8.5703
-9.92715
-11.2825
-12.6169
-13.8942
-15.0488
-15.9395
-16.056
-12.5405
-0.733596
-2.20309
-3.67938
-5.16651
-6.66776
-8.18491
-9.71708
-11.258
-12.7897
-14.2687
-15.5915
-16.5161
-16.4848
-14.2526
-7.31456
-0.817588
-2.45556
-4.10182
-5.76148
-7.43893
-9.13729
-10.8573
-12.5945
-14.3329
-16.0282
-17.5643
-18.6465
-18.5575
-15.7164
-7.42921
-0.899596
-2.70216
-4.51475
-6.34378
-8.19518
-10.0742
-11.9849
-13.9294
-15.9053
-17.8974
-19.8515
-21.5891
-22.5403
-20.9614
-12.1068
-0.979217
-2.94166
-4.91605
-6.91022
-8.93183
-10.9885
-13.0884
-15.2419
-17.4656
-19.792
-22.2879
-25.0769
-28.2789
-31.2579
-27.4497
-1.05601
-3.17271
-5.30337
-7.45727
-9.64368
-11.8722
-14.154
-16.5048
-18.9537
-21.568
-24.5197
-28.2765
-34.1708
-46.2663
-78.2713
-1.12952
-3.39391
-5.6743
-7.98137
-10.3258
-12.7184
-15.1711
-17.6987
-20.3261
-23.1085
-26.1912
-29.9903
-35.7548
-47.4464
-78.7249
-1.19927
-3.60383
-6.02645
-8.47915
-10.9739
-13.5223
-16.1353
-18.8224
-21.5899
-24.4393
-27.3639
-30.338
-33.2209
-35.0222
-28.9359
-1.26479
-3.80105
-6.35742
-8.94734
-11.5842
-14.2806
-17.0474
-19.8894
-22.7959
-25.7166
-28.5008
-30.7474
-31.4367
-28.0737
-15.1077
-1.3256
-3.98415
-6.66482
-9.38255
-12.1525
-14.9894
-17.9064
-20.9105
-23.991
-27.0875
-30.0098
-32.2369
-32.465
-27.7926
-13.2575
-1.38125
-4.1517
-6.94617
-9.7811
-12.6737
-15.6418
-18.704
-21.8777
-25.1737
-28.5782
-32.0002
-35.1131
-36.8949
-34.3594
-19.7261
-1.43131
-4.30241
-7.19909
-10.1392
-13.1418
-16.2282
-19.4233
-22.759
-26.2798
-30.0555
-34.2038
-38.9119
-44.3213
-49.3259
-43.4292
-1.47544
-4.43514
-7.42155
-10.4534
-13.5511
-16.7382
-20.0441
-23.5106
-27.2076
-31.2727
-36.017
-42.2218
-52.0269
-71.8606
-123.354
-1.51338
-4.54914
-7.61212
-10.7214
-13.8978
-17.165
-20.5524
-24.1011
-27.8787
-32.0168
-36.8144
-43.0297
-52.7657
-72.4066
-123.562
-1.54502
-4.64403
-7.77018
-10.9424
-14.1807
-17.5074
-20.9477
-24.5316
-28.298
-32.3014
-36.6255
-41.3908
-46.6239
-51.0639
-44.1112
-1.57036
-4.71988
-7.89594
-11.1168
-14.4017
-17.7702
-21.2422
-24.8344
-28.5515
-32.3618
-36.1286
-39.425
-41.0308
-37.6306
-21.0953
-1.58954
-4.77709
-7.99022
-11.2465
-14.5638
-17.9603
-21.4523
-25.0492
-28.7391
-32.4508
-35.9566
-38.6317
-38.9121
-33.3172
-15.8948
-1.60276
-4.81634
-8.05423
-11.3331
-14.6703
-18.0832
-21.5885
-25.1983
-28.9102
-32.6814
-36.3597
-39.4996
-40.8717
-37.2157
-20.6706
-1.61033
-4.83851
-8.08942
-11.3788
-14.7234
-18.141
-21.6511
-25.2752
-29.0387
-32.9749
-37.1352
-41.5931
-46.3213
-50.0631
-42.6652
-1.61261
-4.84468
-8.09752
-11.3857
-14.7252
-18.1339
-21.6336
-25.2542
-29.0458
-33.1113
-37.7022
-43.4969
-52.4535
-70.6442
-118.777
-1.61007
-4.83622
-8.08069
-11.3565
-14.6782
-18.0627
-21.531
-25.1134
-28.8613
-32.8813
-37.4317
-43.2027
-52.1708
-70.4285
-118.693
-1.60328
-4.81485
-8.04172
-11.295
-14.587
-17.9323
-21.3483
-24.8566
-28.4865
-32.2813
-36.3117
-40.6864
-45.4344
-49.3709
-42.3885
-1.59295
-4.78266
-7.9841
-11.2059
-14.4581
-17.7521
-21.1004
-24.5142
-27.996
-31.5161
-34.9508
-37.9089
-39.2594
-35.8935
-20.1055
-1.5799
-4.74214
-7.91198
-11.0954
-14.2996
-17.5333
-20.8058
-24.1236
-27.4775
-30.8088
-33.9191
-36.2462
-36.3578
-31.0408
-14.7819
-1.56509
-4.69615
-7.83012
-10.9699
-14.1199
-17.2866
-20.479
-23.7068
-26.9734
-30.2535
-33.4297
-36.1203
-37.2243
-33.7852
-18.697
-1.54961
-4.64795
-7.7439
-10.8368
-13.9279
-17.0213
-20.1266
-23.2619
-26.4586
-29.7689
-33.2761
-37.0943
-41.2439
-44.6175
-38.1015
-1.53469
-4.60123
-7.65946
-10.7046
-13.7336
-16.747
-19.7525
-22.7733
-25.8636
-29.1462
-32.9049
-37.8362
-45.8003
-62.3153
-105.898
-1.52167
-4.56009
-7.58379
-10.5832
-13.5497
-16.4773
-19.3671
-22.2355
-25.134
-28.1916
-31.7179
-36.4702
-44.4163
-61.2132
-105.457
-1.512
-4.52899
-7.52469
-10.4842
-13.3921
-16.2333
-18.9955
-21.6759
-24.2928
-26.91
-29.6781
-32.8846
-36.8837
-41.0478
-36.6265
-1.50716
-4.51253
-7.49042
-10.4206
-13.2803
-16.0432
-18.6801
-21.1595
-23.4504
-25.5224
-27.3324
-28.7472
-29.2347
-26.8423
-15.5938
-1.50849
-4.51498
-7.489
-10.4057
-13.2351
-15.9401
-18.4732
-20.7732
-22.759
-24.3156
-25.26
-25.2523
-23.5844
-18.7855
-8.40695
-1.51706
-4.53981
-7.52713
-10.4509
-13.2759
-15.9557
-18.4274
-20.6044
-22.3648
-23.533
-23.8477
-22.9093
-20.1073
-14.6028
-5.68866
-1.53348
-4.58911
-7.60913
-10.5644
-13.4171
-16.1151
-18.5855
-20.724
-22.381
-23.3421
-23.3047
-21.8594
-18.5062
-12.7871
-4.68067
-1.55774
-4.66298
-7.73583
-10.7489
-13.6652
-16.4321
-18.9735
-21.1772
-22.8796
-23.8437
-23.7386
-22.1336
-18.5474
-12.6287
-4.54401
-1.58906
-4.7592
-7.9038
-11.0002
-14.0165
-16.9053
-19.5952
-21.978
-23.8902
-25.087
-25.2134
-23.7829
-20.2078
-13.9741
-5.10395
-1.62589
-4.87304
-8.10498
-11.3069
-14.456
-17.5161
-20.4296
-23.105
-25.3966
-27.0729
-27.7685
-26.9207
-23.7138
-17.1498
-6.59279
-1.66588
-4.9973
-8.32681
-11.65
-14.9568
-18.228
-21.4287
-24.4979
-27.3297
-29.7389
-31.3947
-31.6959
-29.5506
-23.098
-9.90689
-1.70607
-5.12277
-8.55284
-12.004
-15.482
-18.9884
-22.5186
-26.0549
-29.5555
-32.9273
-35.9608
-38.1694
-38.3776
-33.7251
-17.8199
-1.74304
-5.23883
-8.76402
-12.3393
-15.9869
-19.7319
-23.6034
-27.6358
-31.8701
-36.3496
-41.0988
-46.031
-50.5793
-52.1654
-39.4374
-1.77324
-5.33436
-8.94027
-12.624
-16.4238
-20.387
-24.5757
-29.0758
-34.0134
-39.584
-46.1088
-54.1578
-64.8372
-80.5447
-106.989
196.468
146.655
116.527
95.8047
80.1735
67.6337
57.1382
48.0758
40.0573
32.8159
26.1579
19.9348
14.0271
8.33352
2.76424
71.8153
93.6746
89.2808
79.6769
69.6948
60.4049
51.956
44.2708
37.2275
30.7065
24.6013
18.8188
13.2767
7.90096
2.62291
31.7249
58.9231
65.6504
63.8096
58.7336
52.5907
46.242
40.019
34.0341
28.3076
22.82
17.5353
12.4105
7.4004
2.45915
16.8087
38.3858
47.9686
50.1875
48.5117
44.918
40.4397
35.6007
30.6605
25.7421
20.8974
16.1403
11.4643
6.85187
2.27942
10.2534
26.1769
35.3994
39.2686
39.6207
37.8583
34.887
31.2519
27.2708
23.1247
18.9133
14.6886
10.4738
6.27542
2.09017
6.88061
18.6207
26.5468
30.7911
32.197
31.6374
29.7942
27.1424
23.9951
20.552
16.9382
13.2297
9.4717
5.68971
1.89749
4.91125
13.7127
20.2504
24.284
26.1373
26.3071
25.2623
23.3765
20.9241
18.0975
15.0283
11.8049
8.48602
5.11097
1.70667
3.65087
10.3762
15.6925
19.2905
21.2461
21.8196
21.3136
20.0034
18.1124
15.811
13.2252
10.446
7.53917
4.55243
1.52209
2.79066
8.01805
12.3275
15.4369
17.3143
18.0811
17.9229
17.0333
15.5851
13.7217
11.5561
9.17567
6.64762
4.02406
1.34708
2.17618
6.29715
9.79556
12.4384
14.1533
14.9845
15.0398
14.4504
13.3459
11.8419
10.0358
8.00763
5.82222
3.53271
1.18397
1.72233
5.00842
7.85755
10.0839
11.6058
12.4263
12.6039
12.225
11.3839
10.1715
8.66952
6.94859
5.06899
3.0824
1.03418
1.37857
4.02301
6.3518
8.21848
9.5449
10.3142
10.5543
10.3202
9.67937
8.70203
7.45509
5.99956
4.38994
2.67483
0.898326
1.11304
3.25669
5.16679
6.728
7.87069
8.56935
8.8337
8.69751
8.20833
7.41957
6.38533
5.1574
3.78403
2.30983
0.776447
0.904714
2.65246
4.22394
5.52797
6.50463
7.12588
7.39103
7.31977
6.94512
6.30741
5.44993
4.41611
3.24803
1.98588
0.668096
0.739198
2.17058
3.4667
4.55513
5.38521
5.92953
6.18179
6.15254
5.86442
5.34771
4.63685
3.76795
2.77729
1.70052
0.572509
0.606313
1.78256
2.85361
3.76159
4.4641
4.93586
5.16789
5.16494
4.94232
4.5227
3.9334
3.20426
2.36627
1.45071
0.488717
0.498679
1.46754
2.35369
3.11065
3.70311
4.10856
4.31704
4.32975
4.1569
3.81542
3.32696
2.71608
2.00907
1.23309
0.415639
0.410819
1.20993
1.94344
2.57385
3.07191
3.41793
3.60205
3.62333
3.48846
3.21013
2.80545
2.29459
1.69972
1.04423
0.352153
0.338594
0.997844
1.60473
2.12892
2.5462
2.83967
3.00004
3.02525
2.91957
2.69251
2.35759
1.93137
1.43243
0.880759
0.29715
0.278816
0.822102
1.32341
1.75817
2.10641
2.35377
2.49183
2.51799
2.43491
2.2497
1.9731
1.6186
1.20173
0.739442
0.249564
0.228996
0.675489
1.08828
1.44746
1.73664
1.94371
2.06126
2.08654
2.02112
1.87032
1.64265
1.3491
1.00255
0.617265
0.208394
0.187158
0.552266
0.890353
1.18534
1.42384
1.59576
1.69472
1.71804
1.66655
1.54428
1.35791
1.11636
0.830248
0.511452
0.172717
0.151709
0.447795
0.722334
0.962433
1.15724
1.29846
1.38068
1.40144
1.36112
1.26271
1.11147
0.914551
0.68062
0.419473
0.14169
0.12135
0.358276
0.578218
0.770956
0.927818
1.04209
1.10929
1.12722
1.09599
1.0178
0.896718
0.738424
0.54988
0.339038
0.114545
0.0949999
0.280546
0.452981
0.604379
0.727958
0.818403
0.87208
0.88713
0.86346
0.802651
0.707794
0.58329
0.434613
0.268077
0.0905888
0.0717406
0.211916
0.342348
0.457112
0.551095
0.620235
0.661685
0.673912
0.656705
0.611134
0.539448