/*--------------------------------*- C++ -*----------------------------------*\
| =========                 |                                                 |
| \\      /  F ield         | OpenFOAM: The Open Source CFD Toolbox           |
|  \\    /   O peration     | Version:  5.x                                   |
|   \\  /    A nd           | Web:      www.OpenFOAM.org                      |
|    \\/     M anipulation  |                                                 |
\*---------------------------------------------------------------------------*/
FoamFile
{
    version     2.0;
    format      ascii;
    class       volScalarField;
    location    "11";
    object      T;
}
// * * * * * * * * * * * * * * * * * * * * * * * * * * * * * * * * * * * * * //

dimensions      [0 0 0 1 0 0 0];

internalField   nonuniform List<scalar> 
6300
(
10.5496
11.6472
12.7398
13.8244
14.8975
15.9559
16.9965
18.0159
19.0109
19.9786
20.916
21.8203
22.6891
23.5204
24.3124
10.5512
11.652
12.7478
13.8356
14.9119
15.9736
17.0173
18.0398
19.0379
20.0085
20.9485
21.8552
22.7261
23.5589
24.352
10.5544
11.6616
12.7639
13.858
14.9408
16.0089
17.0589
18.0877
19.0919
20.0684
21.0138
21.9254
22.8004
23.6365
24.4318
10.5592
11.676
12.7879
13.8917
14.9841
16.0618
17.1215
18.1598
19.1734
20.1587
21.1125
22.0316
22.9131
23.7543
24.553
10.5656
11.6951
12.8199
13.9365
15.0419
16.1326
17.2052
18.2564
19.2825
20.28
21.2454
22.1749
23.0654
23.9137
24.7174
10.5735
11.719
12.8598
13.9925
15.1141
16.221
17.31
18.3775
19.4198
20.4331
21.4134
22.3568
23.2593
24.1172
24.9275
10.5831
11.7476
12.9075
14.0595
15.2005
16.3272
17.436
18.5234
19.5856
20.6185
21.6178
22.5789
23.497
24.3677
25.1869
10.5941
11.7808
12.9629
14.1374
15.3011
16.4508
17.583
18.6942
19.7803
20.8371
21.8599
22.8432
23.7816
24.669
25.5001
10.6066
11.8184
13.0258
14.2259
15.4155
16.5916
17.7508
18.8895
20.0038
21.0893
22.1407
23.152
24.1164
25.026
25.8732
10.6206
11.8604
13.096
14.3245
15.5432
16.7489
17.9386
19.1088
20.2557
21.3749
22.461
23.5072
24.5052
25.4447
26.3144
10.6359
11.9064
13.173
14.4329
15.6835
16.922
18.1455
19.351
20.5349
21.6932
22.8206
23.91
24.9518
25.9323
26.8348
10.6525
11.9564
13.2565
14.5504
15.8356
17.1097
18.3701
19.6142
20.8391
22.0417
23.2174
24.3599
25.4588
26.4973
27.4499
10.6704
12.0099
13.346
14.6764
15.9987
17.3108
18.6105
19.896
21.1653
22.4164
23.6469
24.8527
26.0254
27.1474
28.1822
10.6893
12.0669
13.4412
14.8101
16.1716
17.5238
18.8649
20.1936
21.5091
22.8112
24.1004
25.3777
26.6421
27.8838
29.0631
10.7093
12.127
13.5416
14.9511
16.3536
17.7475
19.1312
20.5039
21.8658
23.2182
24.5653
25.9149
27.2807
28.6815
30.1228
25.0015
25.5996
26.1693
26.711
27.2252
27.7126
28.1744
28.6118
29.0263
29.4194
29.7928
30.1483
30.4876
30.8126
31.1251
31.427
31.7199
32.0057
32.286
32.5625
32.8367
33.1101
33.3841
33.6599
33.9386
34.2213
34.5087
34.8015
35.1002
35.4051
35.7163
36.0338
36.3573
36.6867
37.0213
37.3608
37.7045
38.0517
38.4015
38.7531
39.1056
39.4579
39.8089
40.1575
40.5025
40.8428
41.1774
41.5051
41.825
42.1362
42.4379
42.7292
43.0093
43.2773
43.5324
43.7735
43.9998
44.2101
44.4035
44.5789
44.7351
44.871
44.9855
45.0774
45.1453
45.1878
45.2035
45.1906
45.1474
45.0718
44.9617
44.8149
44.6287
44.4007
44.1282
43.8083
43.4382
43.0149
42.5356
41.9972
41.3967
40.7315
39.9987
39.1959
38.3211
37.3723
36.3485
35.2487
34.0731
32.8221
25.0416
25.6397
26.209
26.7498
27.2628
27.7487
28.2087
28.644
29.0562
29.4468
29.8177
30.1706
30.5073
30.8296
31.1395
31.4387
31.7291
32.0125
32.2904
32.5647
32.8368
33.1082
33.3803
33.6545
33.9318
34.2133
34.4997
34.7918
35.0901
35.3948
35.706
36.0238
36.3478
36.6777
37.0131
37.3535
37.6982
38.0465
38.3975
38.7506
39.1045
39.4584
39.811
40.1612
40.5079
40.8497
41.1857
41.5148
41.836
42.1485
42.4514
42.7438
43.0252
43.2944
43.5508
43.7934
44.0211
44.233
44.4279
44.6048
44.7627
44.9003
45.0165
45.1102
45.1801
45.2249
45.2429
45.2327
45.1923
45.1198
45.0131
44.8698
44.6874
44.4633
44.1947
43.879
43.5131
43.0942
42.6191
42.0849
41.4886
40.8272
40.098
39.2984
38.426
37.4792
36.4563
35.3568
34.1804
32.9276
25.1223
25.7204
26.2889
26.828
27.3385
27.8213
28.2775
28.7085
29.1161
29.5018
29.8676
30.2152
30.5465
30.8635
31.1682
31.4622
31.7475
32.0259
32.2992
32.5689
32.8367
33.1041
33.3726
33.6434
33.9179
34.1969
34.4814
34.7721
35.0695
35.3738
35.6852
36.0034
36.3284
36.6596
36.9965
37.3386
37.6853
38.0359
38.3894
38.7452
39.1022
39.4592
39.8151
40.1687
40.5186
40.8636
41.2025
41.5344
41.8581
42.173
42.4782
42.773
43.0567
43.3285
43.5876
43.833
44.0636
44.2785
44.4766
44.6567
44.8177
44.9586
45.0783
45.1757
45.2496
45.2986
45.3215
45.3164
45.2818
45.2156
45.1155
44.9793
44.8044
44.5881
44.3277
44.0203
43.6629
43.2526
42.7862
42.2606
41.6726
41.0191
40.2972
39.504
38.637
37.694
36.6734
35.5743
34.3963
33.14
25.245
25.8431
26.4102
26.9467
27.4533
27.9312
28.3816
28.8061
29.2065
29.5847
29.9426
30.2821
30.6054
30.9144
31.211
31.4972
31.7749
32.0458
32.3118
32.5747
32.836
33.0974
33.3603
33.6261
33.8961
34.1715
34.4531
34.7416
35.0377
35.3415
35.6531
35.9723
36.2987
36.6318
36.9711
37.3159
37.6656
38.0195
38.3769
38.7368
39.0983
39.4602
39.8213
40.18
40.5349
40.8847
41.2281
41.564
41.8915
42.2099
42.5185
42.8167
43.1039
43.3795
43.6425
43.8921
44.1273
44.3468
44.5495
44.7343
44.9001
45.0459
45.1707
45.2734
45.3531
45.4085
45.4384
45.4412
45.4152
45.3583
45.2684
45.1429
44.9793
44.7748
44.5267
44.2319
43.8874
43.4902
43.037
42.5245
41.9493
41.3082
40.5976
39.8145
38.9559
38.0191
37.0022
35.9039
34.7237
33.462
25.4114
26.0095
26.5748
27.1076
27.6088
28.0798
28.522
28.9375
29.328
29.6958
30.043
30.3716
30.6839
30.982
31.2678
31.5434
31.8108
32.0717
32.3281
32.5816
32.8342
33.0873
33.3426
33.6016
33.8656
34.1359
34.4135
34.6992
34.9935
35.2968
35.6089
35.9295
36.2581
36.594
36.9365
37.2849
37.6386
37.9969
38.3592
38.7247
39.0925
39.4612
39.8293
40.1952
40.5572
40.9136
41.263
41.6043
41.9366
42.2594
42.5721
42.8746
43.1663
43.4468
43.7152
43.9706
44.2118
44.4376
44.6466
44.8377
45.0097
45.1618
45.293
45.4027
45.4898
45.5536
45.5927
45.6059
45.5913
45.5471
45.4707
45.3597
45.2114
45.0229
44.7912
44.5134
44.1863
43.8068
43.3715
42.877
42.3196
41.6956
41.0011
40.2323
39.3858
38.4582
37.447
36.3503
35.1672
33.8982
25.6244
26.2226
26.7853
27.313
27.807
28.2688
28.7003
29.1037
29.4814
29.8357
30.169
30.4837
30.782
31.0661
31.3383
31.6005
31.8548
32.1031
32.3472
32.589
32.8304
33.073
33.3185
33.5686
33.8248
34.0886
34.361
34.643
34.9353
35.2381
35.5512
35.874
36.2057
36.5453
36.892
37.2449
37.6034
37.9671
38.3356
38.7081
39.0839
39.4615
39.8391
40.2147
40.5861
40.9511
41.3082
41.656
41.9939
42.3216
42.6391
42.9464
43.2434
43.5299
43.805
44.0679
44.317
44.5508
44.7679
44.9668
45.1464
45.306
45.4449
45.5626
45.6586
45.7323
45.7828
45.8088
45.8086
45.7803
45.7212
45.6287
45.4997
45.3314
45.1205
44.8641
44.5591
44.2021
43.7898
43.3185
42.7843
42.1829
41.5099
40.7607
39.9309
39.0163
38.0134
36.9196
35.7334
34.4548
25.8877
26.486
27.0452
27.5663
28.0507
28.5004
28.918
29.3061
29.6674
30.0048
30.3209
30.6182
30.8994
31.1666
31.4221
31.668
31.9064
32.1393
32.3685
32.596
32.8236
33.0532
33.2867
33.5257
33.7721
34.0276
34.2934
34.571
34.8608
35.1634
35.4782
35.8044
36.1406
36.4853
36.8373
37.1955
37.5595
37.9292
38.3047
38.6855
39.0712
39.4602
39.8504
40.2389
40.6225
40.9986
41.365
41.7204
42.0644
42.3971
42.7192
43.0314
43.3342
43.6276
43.911
44.1833
44.4425
44.6866
44.9136
45.1219
45.3104
45.4784
45.6256
45.7521
45.8578
45.9428
46.0063
46.0475
46.0648
46.056
46.0182
45.9484
45.8432
45.6993
45.5137
45.2833
45.0049
44.6754
44.2914
43.8491
43.3441
42.7718
42.1268
41.4037
40.5966
39.7002
38.7094
37.6205
36.431
35.1408
26.2062
26.8046
27.3594
27.8716
28.3434
28.7775
29.1773
29.546
29.887
30.2036
30.4987
30.7752
31.0357
31.2828
31.5186
31.7453
31.965
32.1797
32.3913
32.6017
32.8129
33.0269
33.2456
33.4711
33.7053
33.9503
34.208
34.4798
34.7669
35.0697
35.3876
35.719
36.0619
36.4136
36.7722
37.1364
37.5061
37.8818
38.2645
38.6547
39.0523
39.456
39.8627
40.2684
40.6685
41.0587
41.4363
41.7998
42.1495
42.4863
42.812
43.1284
43.4369
43.738
44.0316
44.3158
44.5881
44.8453
45.0847
45.3041
45.5022
45.6789
45.8344
45.9697
46.0854
46.1823
46.2603
46.3191
46.357
46.3716
46.3597
46.3173
46.2405
46.1258
45.9698
45.7697
45.5226
45.2256
44.8754
44.4682
43.9994
43.4636
42.8548
42.1659
41.3896
40.5184
39.5453
38.4646
37.2726
35.968
26.5867
27.1854
27.7339
28.2342
28.6893
29.1032
29.4803
29.8248
30.1409
30.4322
30.7023
30.9542
31.1906
31.4141
31.6271
31.8316
32.0297
32.2234
32.4146
32.6052
32.7972
32.9926
33.1937
33.4026
33.6218
33.8538
34.1009
34.3655
34.6493
34.9531
35.2761
35.6161
35.9691
36.3308
36.6977
37.0681
37.4426
37.8231
38.212
38.6118
39.0234
39.4458
39.8751
40.3047
40.727
41.1355
41.5262
41.8978
42.2515
42.59
42.9167
43.2352
43.5484
43.858
44.1639
44.4638
44.7537
45.0282
45.283
45.515
45.7232
45.9081
46.0709
46.2137
46.3386
46.4471
46.5405
46.6189
46.681
46.7239
46.7433
46.7339
46.6908
46.6099
46.4878
46.3221
46.1106
45.8508
45.5399
45.1743
44.7493
44.2591
43.6964
43.0525
42.3177
41.4818
40.5347
39.4678
38.2747
36.9529
27.0384
27.6374
28.1772
28.661
29.0936
29.4811
29.8293
30.1437
30.4293
30.6906
30.9311
31.1543
31.363
31.5597
31.7467
31.9261
32.0998
32.2697
32.4376
32.6055
32.7754
32.9492
33.1293
33.3182
33.5188
33.7341
33.9676
34.2225
34.5018
34.8075
35.1391
35.4931
35.8627
36.2393
36.6167
36.9928
37.3693
37.7507
38.1426
38.5504
38.9776
39.4245
39.8856
40.3501
40.8041
41.2366
41.642
42.02
42.3739
42.7091
43.0318
43.3482
43.6636
43.9817
44.3031
44.6249
44.9396
45.238
45.5124
45.7586
45.9763
46.1672
46.3346
46.482
46.6134
46.7321
46.8406
46.9405
47.0309
47.1083
47.1666
47.1975
47.194
47.1514
47.0669
46.9389
46.7663
46.5478
46.2815
45.9642
45.5916
45.1575
44.6534
44.0685
43.39
42.6037
41.6952
40.6512
39.4607
38.1183
27.5744
28.1737
28.7004
29.1604
29.5622
29.9146
30.2259
30.503
30.752
30.9776
31.184
31.3743
31.5516
31.7182
31.8762
32.0276
32.1742
32.3176
32.4597
32.602
32.7467
32.8956
33.0511
33.2159
33.3934
33.5873
33.8021
34.043
34.3152
34.6232
34.9685
35.3466
35.7449
36.1453
36.5363
36.9155
37.2877
37.662
38.049
38.4595
38.9023
39.3811
39.8897
40.409
40.9107
41.3751
41.7957
42.1753
42.5217
42.8446
43.1543
43.4609
43.7734
44.0988
44.4404
44.7943
45.1476
45.4808
45.7805
46.0418
46.2662
46.4586
46.6251
46.7718
46.9048
47.0298
47.1516
47.2739
47.3976
47.5188
47.6274
47.7087
47.7518
47.7516
47.7068
47.6181
47.4864
47.3121
47.0946
46.832
46.5208
46.1549
45.7249
45.2177
44.6157
43.8998
43.0495
42.0439
40.8639
39.4973
28.2149
28.8136
29.3186
29.7427
30.1008
30.4064
30.6706
30.9019
31.1072
31.2914
31.4587
31.6122
31.7546
31.8879
32.0142
32.135
32.252
32.3665
32.4801
32.5943
32.7107
32.8313
32.9583
33.0944
33.2432
33.4091
33.598
33.8172
34.0759
34.3841
34.7494
35.1697
35.6228
36.0638
36.4715
36.8468
37.202
37.5536
37.9201
38.3206
38.7738
39.2932
39.8772
40.4919
41.0693
41.5753
42.0071
42.377
42.7016
42.9975
43.2799
43.5636
43.8629
44.1911
44.5582
44.963
45.3827
45.7702
46.1021
46.3762
46.6005
46.7857
46.9423
47.0796
47.2062
47.3303
47.4601
47.6036
47.7661
47.9457
48.1258
48.2731
48.3703
48.4142
48.4083
48.3575
48.2661
48.1368
47.9709
47.7683
47.5271
47.2427
46.9063
46.5016
46.0039
45.3879
44.626
43.6863
42.5343
41.1411
28.9938
29.5874
30.0525
30.4192
30.714
30.9569
31.1615
31.3375
31.4916
31.6287
31.7523
31.8651
31.9694
32.0668
32.1589
32.247
32.3322
32.4157
32.4986
32.5821
32.6676
32.7567
32.8511
32.9536
33.0673
33.1968
33.349
33.5334
33.7643
34.0617
34.4496
34.9446
35.5169
36.0288
36.452
36.8059
37.12
37.4226
37.7409
38.1046
38.5484
39.1112
39.8189
40.6272
41.3294
41.8808
42.3061
42.6424
42.9215
43.168
43.4021
43.6424
43.909
44.2259
44.6199
45.1089
45.6623
46.1381
46.5054
46.7808
46.9894
47.1523
47.2855
47.401
47.5093
47.6208
47.7474
47.9041
48.1081
48.3704
48.6694
48.9079
49.0636
49.1468
49.1726
49.1537
49.0985
49.0123
48.8983
48.7584
48.5937
48.4037
48.1841
47.9176
47.5609
47.0843
46.4566
45.633
44.5504
43.1365
29.9795
30.5452
30.9272
31.198
31.4012
31.5613
31.6926
31.8035
31.8995
31.9842
32.0602
32.1293
32.193
32.2524
32.3084
32.362
32.4138
32.4646
32.5151
32.5661
32.6184
32.6731
32.7315
32.7954
32.8673
32.9509
33.0523
33.1814
33.3558
33.6076
33.9946
34.6069
35.4968
36.1203
36.5309
36.8212
37.0533
37.2675
37.4952
37.7718
38.1502
38.7191
39.6143
40.9137
41.8051
42.3662
42.7318
42.9888
43.1867
43.355
43.5138
43.6816
43.8811
44.1481
44.5434
45.1602
46.0521
46.6606
47.0391
47.2799
47.4424
47.5601
47.6523
47.7312
47.8063
47.8877
47.9895
48.1348
48.3643
48.7403
49.2986
49.66
49.8598
49.9599
49.9996
50.0003
49.9737
49.926
49.8612
49.7826
49.6948
49.6058
49.5276
49.4619
49.2886
48.9965
48.5677
47.951
47.0419
45.6594
31.3494
31.7663
31.9609
32.0733
32.1493
32.2063
32.2519
32.29
32.3226
32.3513
32.377
32.4002
32.4217
32.4416
32.4604
32.4784
32.4958
32.5129
32.5298
32.5469
32.5646
32.583
32.6028
32.6246
32.6493
32.6784
32.7146
32.763
32.8347
32.9578
33.214
33.8684
35.859
36.5173
36.7818
36.9187
37.0113
37.0915
37.1777
37.2912
37.4763
37.856
38.8261
41.7861
42.755
43.1318
43.3123
43.4185
43.493
43.5539
43.6111
43.6735
43.7544
43.8839
44.1463
44.8137
46.8482
47.5127
47.7694
47.8899
47.958
48.003
48.0366
48.0649
48.0923
48.1235
48.167
48.2428
48.4077
48.846
50.2095
50.6429
50.7978
50.8583
50.8808
50.8846
50.8774
50.8625
50.842
50.8182
50.796
50.7903
50.8512
51.1595
51.1855
51.1039
50.9475
50.6881
50.2135
49.1666
31.3645
29.6708
27.878
25.9919
24.0191
21.9668
19.8428
17.6549
15.4113
13.1197
10.788
8.42393
6.0348
3.62794
1.21049
31.467
29.7688
27.9703
26.0777
24.0976
22.0377
19.9059
17.7101
15.4586
13.1593
10.8201
8.44864
6.05231
3.63839
1.21396
31.6733
29.9658
28.1558
26.2499
24.2552
22.1799
20.0321
17.8204
15.5531
13.2383
10.8841
8.49788
6.0872
3.65921
1.22088
31.986
30.2641
28.4363
26.5098
24.4926
22.3935
20.2216
17.9857
15.6945
13.3564
10.9795
8.5713
6.1392
3.69021
1.23118
32.4092
30.6673
28.8145
26.8593
24.8109
22.6793
20.4743
18.2055
15.8822
13.5129
11.1057
8.66833
6.20785
3.73114
1.24478
32.9487
31.1801
29.2942
27.3009
25.2116
23.0376
20.79
18.4793
16.1153
13.7067
11.2619
8.78812
6.29251
3.78156
1.26152
33.6126
31.8092
29.88
27.8377
25.696
23.4686
21.168
18.8058
16.3923
13.9364
11.4464
8.92949
6.39229
3.84094
1.28124
34.4116
32.5629
30.5777
28.4727
26.2653
23.9719
21.6069
19.183
16.7109
14.1997
11.6574
9.09081
6.50599
3.90855
1.30367
35.36
33.4521
31.3941
29.2091
26.9198
24.5458
22.1039
19.6076
17.0679
14.4937
11.8923
9.26999
6.6321
3.98346
1.32851
36.4774
34.4901
32.3362
30.0489
27.6578
25.1868
22.6545
20.075
17.4589
14.8143
12.1477
9.46441
6.76871
4.06453
1.35539
37.7908
35.6933
33.4106
30.9914
28.4746
25.8881
23.2515
20.5782
17.8776
15.1564
12.4195
9.67083
6.91357
4.15043
1.38385
39.3386
37.0803
34.6201
32.0305
29.36
26.6386
23.8843
21.108
18.3163
15.5135
12.7026
9.88551
7.06406
4.23961
1.41339
41.1771
38.6679
35.9578
33.1493
30.2952
27.421
24.5383
21.6524
18.7654
15.8783
12.9912
10.1042
7.21731
4.33039
1.44347
43.3856
40.4552
37.3924
34.3124
31.2496
28.2109
25.1946
22.197
19.214
16.2424
13.2793
10.3226
7.3703
4.42104
1.47349
46.0423
42.3734
38.8429
35.4569
32.1787
28.9774
25.8314
22.726
19.6506
16.5973
13.5606
10.536
7.52002
4.50981
1.50291
10.7286
12.1848
13.6381
15.0865
16.5282
17.9614
19.385
20.798
22.2008
23.5956
24.9883
26.3918
27.8333
29.3749
31.1879
10.7468
12.2394
13.7291
15.2141
16.6924
18.1625
19.6226
21.072
22.5104
23.9397
25.365
26.7985
28.2654
29.8162
31.5412
10.7656
12.2959
13.8234
15.3461
16.8623
18.37
19.8675
21.3532
22.826
24.286
25.7355
27.1813
28.6388
30.1358
31.7095
10.7851
12.3543
13.9207
15.4825
17.0378
18.5844
20.1203
21.643
23.1501
24.6392
26.1079
27.5555
28.9841
30.4014
31.8212
10.8051
12.4145
14.0211
15.6233
17.219
18.806
20.3818
21.9432
23.4863
25.0059
26.4946
27.9424
29.3365
30.6645
31.9248
10.8257
12.4764
14.1246
15.7685
17.4061
19.0352
20.6529
22.2557
23.8385
25.3935
26.9091
28.3659
29.7343
30.974
32.0533
10.8469
12.54
14.2309
15.9177
17.5988
19.2719
20.9341
22.5818
24.2093
25.8082
27.3637
28.8502
30.2207
31.394
32.2595
10.8686
12.6052
14.3398
16.0709
17.7969
19.5158
21.2251
22.9213
24.5997
26.2523
27.8658
29.4144
30.8435
32.0272
32.6813
10.8907
12.6716
14.4509
16.2273
17.9996
19.766
21.5247
23.2729
25.0074
26.7231
28.4123
30.061
31.6359
33.0273
33.7577
10.9132
12.7391
14.5639
16.3865
18.2061
20.0214
21.8311
23.6337
25.4276
27.2117
28.9863
30.7583
32.555
34.4856
37.0368
10.9359
12.8074
14.6782
16.5477
18.4153
20.2803
22.142
24
25.8542
27.7062
29.5616
31.4376
33.3805
35.5121
38.1239
10.9587
12.8761
14.7933
16.7099
18.6259
20.5411
22.4552
24.3686
26.2819
28.1977
30.122
32.0697
34.0742
36.2044
38.5707
10.9816
12.9449
14.9085
16.8724
18.8369
20.8022
22.7686
24.7366
26.7074
28.6826
30.6655
32.6616
34.6797
36.7319
38.8274
11.0044
13.0135
15.0233
17.0343
19.0471
21.0622
23.0803
25.1024
27.1292
29.1616
31.1991
33.2374
35.2608
37.2284
39.0624
11.027
13.0815
15.1371
17.1947
19.2553
21.3197
23.3889
25.4643
27.5466
29.6364
31.7316
33.8227
35.8797
37.8168
39.4204
11.0493
13.1485
15.2494
17.353
19.4605
21.5734
23.6929
25.8207
27.9583
30.1069
32.2661
34.4311
36.5811
38.6358
40.2389
11.0712
13.2143
15.3595
17.5082
19.6618
21.8221
23.9908
26.1699
28.3618
30.5693
32.796
35.0489
37.3478
39.7676
42.6541
11.0926
13.2786
15.4671
17.6597
19.8582
22.0645
24.2809
26.5097
28.754
31.0176
33.3068
35.6341
38.0297
40.5743
43.4689
11.1134
13.3412
15.5717
17.8069
20.0488
22.2997
24.5619
26.8382
29.132
31.4475
33.7905
36.1709
38.6073
41.1368
43.8203
11.1335
13.4016
15.6728
17.9491
20.2329
22.5265
24.8325
27.1541
29.4945
31.8575
34.2474
36.6679
39.1193
41.5914
44.0499
11.1529
13.4599
15.7701
18.086
20.4098
22.7442
25.092
27.4563
29.8405
32.2483
34.6824
37.1425
39.616
42.0545
44.3202
11.1715
13.5157
15.8635
18.2171
20.5791
22.9523
25.3395
27.7441
30.1696
32.6199
35.0986
37.6069
40.136
42.6364
44.8727
11.1893
13.5691
15.9525
18.342
20.7403
23.1501
25.5744
28.0167
30.4808
32.9711
35.4935
38.056
40.675
43.4008
46.4544
11.2062
13.6198
16.0371
18.4606
20.8932
23.3374
25.7965
28.2737
30.7731
33.2994
35.8596
38.4649
41.1389
43.9366
46.9873
11.2222
13.6677
16.1171
18.5728
21.0375
23.514
26.0053
28.5147
31.0459
33.6035
36.1935
38.8253
41.5158
44.2954
47.2095
11.2373
13.713
16.1926
18.6785
21.1733
23.6799
26.2011
28.74
31.2998
33.8843
36.4974
39.1441
41.8298
44.5598
47.3349
11.2514
13.7555
16.2634
18.7776
21.3007
23.8353
26.3841
28.9501
31.5359
34.1443
36.7773
39.4349
42.1119
44.7919
47.4408
11.2647
13.7953
16.3297
18.8703
21.4196
23.9803
26.5548
29.1457
31.7557
34.3866
37.0393
39.7112
42.391
45.0445
47.5867
11.2771
13.8324
16.3915
18.9566
21.5304
24.1152
26.7134
29.3277
31.9602
34.6129
37.287
39.9811
42.6872
45.3733
47.9011
11.2886
13.8669
16.4488
19.0368
21.6331
24.2402
26.8605
29.4963
32.1499
34.8237
37.5199
40.2417
42.9964
45.8108
48.811
11.2992
13.8987
16.5018
19.1108
21.728
24.3557
26.9962
29.6519
32.325
35.018
37.7341
40.4785
43.2631
46.1182
49.1174
11.3089
13.928
16.5505
19.1788
21.8151
24.4618
27.1209
29.7948
32.4856
35.1956
37.9277
40.6864
43.4798
46.3244
49.2452
11.3179
13.9547
16.595
19.241
21.8948
24.5587
27.2348
29.9253
32.632
35.357
38.1021
40.8691
43.66
46.4764
49.3175
11.326
13.979
16.6354
19.2973
21.9671
24.6467
27.3383
30.0438
32.7651
35.5037
38.2603
41.0342
43.8213
46.6102
49.3791
11.3332
14.0008
16.6717
19.3481
22.0321
24.7259
27.4315
30.1508
32.8856
35.6371
38.4056
41.1893
43.9803
46.7568
49.4656
11.3397
14.0202
16.704
19.3932
22.09
24.7964
27.5146
30.2464
32.9936
35.7578
38.5396
41.3382
44.1483
46.9494
49.6553
11.3454
14.0372
16.7323
19.4328
22.1408
24.8584
27.5877
30.3306
33.0892
35.8654
38.6609
41.4781
44.3214
47.2067
50.2099
11.3503
14.0518
16.7567
19.4668
22.1845
24.9118
27.6507
30.4034
33.172
35.9588
38.7664
41.599
44.4644
47.3811
50.3928
11.3543
14.0641
16.7771
19.4954
22.2212
24.9565
27.7036
30.4644
33.2414
36.0368
38.8536
41.696
44.5706
47.4884
50.4639
11.3577
14.074
16.7936
19.5185
22.2509
24.9928
27.7463
30.5137
33.2972
36.0991
38.9222
41.7697
44.6457
47.5544
50.4969
11.3602
14.0816
16.8063
19.5362
22.2735
25.0204
27.7789
30.5512
33.3395
36.146
38.9729
41.8226
44.6969
47.5958
50.5149
11.3619
14.0869
16.815
19.5484
22.2892
25.0395
27.8013
30.5769
33.3684
36.1777
39.007
41.8576
44.7299
47.6219
50.5265
11.3629
14.0898
16.8199
19.5552
22.2979
25.05
27.8137
30.591
33.3841
36.1949
39.0252
41.8764
44.7482
47.6382
50.5376
11.3631
14.0905
16.8209
19.5566
22.2997
25.0521
27.816
30.5935
33.3868
36.1977
39.0282
41.8797
44.7529
47.6469
50.56
11.3626
14.0888
16.8181
19.5527
22.2945
25.0457
27.8083
30.5845
33.3764
36.1861
39.0157
41.8671
44.742
47.6411
50.5624
11.3613
14.0848
16.8115
19.5434
22.2825
25.0309
27.7907
30.564
33.353
36.1599
38.9871
41.8372
44.7133
47.6187
50.5537
11.3592
14.0786
16.8011
19.5288
22.2636
25.0077
27.7631
30.532
33.3165
36.1189
38.9417
41.7882
44.6632
47.5745
50.5315
11.3564
14.0701
16.7869
19.5089
22.2379
24.9762
27.7257
30.4885
33.2668
36.0628
38.8789
41.7183
44.5869
47.4974
50.4803
11.3528
14.0594
16.769
19.4837
22.2055
24.9364
27.6784
30.4336
33.2042
35.992
38.799
41.6273
44.4803
47.3689
50.3467
11.3485
14.0465
16.7474
19.4534
22.1664
24.8884
27.6214
30.3676
33.1288
35.907
38.7035
41.5183
44.3479
47.1772
49.942
11.3434
14.0313
16.7222
19.4179
22.1206
24.8322
27.5548
30.2904
33.041
35.8086
38.5943
41.3979
44.2148
47.0292
49.8011
11.3377
14.014
16.6933
19.3774
22.0683
24.768
27.4786
30.2021
32.9408
35.6967
38.4719
41.2675
44.0823
46.9096
49.733
11.3312
13.9946
16.6608
19.3318
22.0095
24.6958
27.3928
30.1027
32.8279
35.5708
38.3345
41.1227
43.94
46.7917
49.6791
11.3241
13.9731
16.6249
19.2813
21.9443
24.6157
27.2976
29.9922
32.7019
35.4296
38.1792
40.9567
43.773
46.6477
49.6092
11.3162
13.9496
16.5856
19.2261
21.8729
24.5279
27.1931
29.8706
32.5628
35.2725
38.0036
40.7629
43.5644
46.4423
49.4774
11.3077
13.9241
16.543
19.1662
21.7954
24.4326
27.0795
29.7382
32.4108
35.0997
37.8077
40.5387
43.3017
46.1267
49.1517
11.2986
13.8967
16.4972
19.1018
21.7122
24.33
26.9572
29.5955
32.2469
34.913
37.5949
40.2916
42.9948
45.6712
48.1728
11.2889
13.8675
16.4484
19.0331
21.6233
24.2206
26.8266
29.4432
32.072
34.7146
37.3712
40.0389
42.7058
45.3359
47.8396
11.2786
13.8366
16.3968
18.9605
21.5293
24.1046
26.6883
29.2818
31.887
34.5057
37.1389
39.7859
42.4412
45.0875
47.6906
11.2678
13.8042
16.3424
18.884
21.4303
23.9826
26.5425
29.1117
31.6921
34.286
36.8962
39.5264
42.1818
44.868
47.5878
11.2565
13.7702
16.2857
18.8041
21.3267
23.8548
26.3898
28.9333
31.4872
34.0542
36.6387
39.2487
41.9001
44.6243
47.4696
11.2448
13.735
16.2267
18.721
21.219
23.7219
26.2308
28.7471
31.2725
33.8097
36.3628
38.9412
41.5669
44.2954
47.259
11.2327
13.6985
16.1657
18.6351
21.1077
23.5844
26.0661
28.554
31.0492
33.5533
36.0687
38.6001
41.1614
43.8022
46.7458
11.2202
13.661
16.103
18.5468
20.9932
23.4429
25.8967
28.3552
30.8191
33.2885
35.7625
38.2375
40.6998
43.0977
45.2032
11.2075
13.6227
16.0388
18.4564
20.8761
23.2983
25.7236
28.1523
30.5845
33.0197
35.4551
37.883
40.282
42.5954
44.6864
11.1945
13.5836
15.9735
18.3644
20.7568
23.1511
25.5476
27.9464
30.3474
32.7501
35.1521
37.5477
39.9227
42.2466
44.468
11.1813
13.544
15.9072
18.2711
20.636
23.0021
25.3695
27.7384
30.1087
32.4803
34.8529
37.2259
39.5981
41.9682
44.3348
11.168
13.504
15.8403
18.177
20.5141
22.8518
25.19
27.5289
29.8685
32.2093
34.5528
36.9038
39.2742
41.6914
44.2031
11.1546
13.4638
15.773
18.0823
20.3915
22.7007
25.0097
27.3184
29.6269
31.9357
34.2469
36.5676
38.9169
41.348
43.9903
11.1411
13.4234
15.7055
17.9873
20.2687
22.5494
24.8292
27.1076
29.3845
31.6597
33.9339
36.2106
38.5022
40.857
43.492
11.1277
13.383
15.638
17.8925
20.1461
22.3985
24.6491
26.8975
29.1428
31.3838
33.6186
35.8426
38.0427
40.1706
42.0107
11.1143
13.3428
15.5708
17.798
20.0241
22.2484
24.4703
26.6891
28.9035
31.1117
33.3101
35.4906
37.6326
39.6832
41.5137
11.101
13.3028
15.504
17.7042
19.903
22.0996
24.2933
26.4832
28.668
30.8458
33.0134
35.1645
37.2855
39.3477
41.3042
11.0878
13.2631
15.4377
17.6113
19.7831
21.9525
24.1187
26.2805
28.4369
30.5864
32.7276
34.8587
36.9783
39.0849
41.1787
11.0747
13.2237
15.3721
17.5193
19.6647
21.8074
23.9466
26.0812
28.21
30.3323
32.4481
34.5604
36.6795
38.8304
41.0579
11.0617
13.1848
15.3072
17.4285
19.5478
21.6644
23.7773
25.8854
27.9873
30.0822
32.1704
34.2567
36.3579
38.5218
40.867
11.0488
13.1463
15.2431
17.3387
19.4325
21.5237
23.6111
25.6935
27.769
29.8361
31.8935
33.9422
35.9921
38.0867
40.4228
11.0361
13.1081
15.1796
17.25
19.3189
21.3853
23.4481
25.5058
27.5562
29.5964
31.622
33.6261
35.5946
37.4833
39.1021
11.0235
13.0703
15.1167
17.1623
19.2067
21.2491
23.2883
25.3229
27.3501
29.3663
31.3648
33.3343
35.2518
37.0665
38.6652
11.0109
13.0326
15.0542
17.0753
19.0957
21.1147
23.1315
25.1446
27.1514
29.1479
31.1273
33.0781
34.9799
36.7991
38.4916
10.9983
12.9951
14.9918
16.9886
18.9854
20.9817
22.977
24.9702
26.9593
28.9409
30.9093
32.8552
34.7646
36.6192
38.4053
10.9858
12.9574
14.9294
16.9019
18.8751
20.8491
22.8236
24.7983
26.7721
28.7426
30.7063
32.6572
34.5868
36.486
38.3515
10.9731
12.9194
14.8664
16.8145
18.7641
20.7158
22.6699
24.6268
26.5866
28.5487
30.5118
32.4734
34.4295
36.3758
38.3105
10.9602
12.8809
14.8025
16.7258
18.6515
20.5805
22.5139
24.4529
26.399
28.3536
30.3179
32.2929
34.2783
36.2729
38.2735
10.9471
12.8417
14.7374
16.6353
18.5363
20.4419
22.3537
24.2738
26.2052
28.1513
30.1162
32.1045
34.1203
36.1653
38.2348
10.9337
12.8016
14.6708
16.5425
18.4179
20.2987
22.1873
24.0866
26.0009
27.9355
29.8977
31.8965
33.9415
36.04
38.1884
10.92
12.7605
14.6024
16.4469
18.2954
20.15
22.0132
23.8888
25.782
27.7001
29.6534
31.6558
33.7251
35.8795
38.1249
10.9059
12.7183
14.532
16.3483
18.1686
19.9949
21.8302
23.6783
25.5454
27.4398
29.3745
31.3682
33.449
35.6551
38.0233
10.8916
12.6751
14.4598
16.2468
18.0374
19.8335
21.6379
23.4545
25.2894
27.1513
29.054
31.0197
33.0855
35.3174
37.8279
10.8769
12.631
14.386
16.1426
17.9021
19.6661
21.4368
23.2177
25.0142
26.834
28.6895
30.601
32.606
34.7856
37.366
48.7148
44.0034
40.0386
36.4062
32.9587
29.6282
26.3772
23.1828
20.0297
16.907
13.8069
10.7234
7.65174
4.588
1.52884
49.5597
44.9658
40.8937
37.14
33.5858
30.1637
26.8334
23.5688
20.3526
17.1724
14.019
10.8853
7.76578
4.65581
1.55134
49.9117
45.5647
41.5266
37.7342
34.1203
30.6349
27.2431
23.9206
20.6501
17.4188
14.2169
11.0371
7.87302
4.71969
1.57255
50.0884
45.9479
41.9879
38.2035
34.5647
31.0403
27.6041
24.2358
20.9199
17.6442
14.3993
11.1775
7.97263
4.77915
1.59232
50.1919
46.2044
42.3261
38.5706
34.9288
31.3835
27.9171
24.514
21.1611
17.8478
14.5652
11.3061
8.06409
4.83389
1.61054
50.2593
46.3841
42.5778
38.8579
35.225
31.6712
28.1855
24.7567
21.3744
18.0296
14.7145
11.4224
8.14719
4.88374
1.62716
50.3065
46.5148
42.7685
39.0838
35.4654
31.9108
28.4137
24.9664
21.561
18.1904
14.8475
11.5266
8.22195
4.92871
1.64217
50.3412
46.6127
42.9153
39.2627
35.6607
32.1097
28.6065
25.1463
21.7231
18.3312
14.965
11.6191
8.28862
4.96892
1.6556
50.3674
46.6877
43.0301
39.4053
35.8195
32.2745
28.7689
25.2997
21.8629
18.4539
15.068
11.7007
8.34761
5.00459
1.66754
50.3877
46.7463
43.1208
39.52
35.9492
32.411
28.9053
25.4302
21.9829
18.5599
15.1576
11.772
8.39942
5.03599
1.67805
50.4037
46.7927
43.1933
39.6126
36.0554
32.5242
29.0196
25.5406
22.0854
18.6512
15.2352
11.8341
8.44464
5.06347
1.68727
50.4164
46.8298
43.2518
39.688
36.1427
32.6181
29.1153
25.6339
22.1726
18.7295
15.3021
11.8878
8.4839
5.08736
1.69529
50.4266
46.8597
43.2992
39.7496
36.2145
32.6961
29.1955
25.7126
22.2467
18.7963
15.3595
11.9341
8.51781
5.10805
1.70224
50.4349
46.8841
43.3379
39.8002
36.2738
32.761
29.2625
25.7789
22.3094
18.8531
15.4085
11.9738
8.54697
5.12586
1.70823
50.4417
46.9039
43.3696
39.8418
36.3229
32.8149
29.3187
25.8346
22.3624
18.9014
15.4503
12.0077
8.57194
5.14114
1.71338
50.4473
46.9202
43.3957
39.8761
36.3636
32.8598
29.3656
25.8814
22.4072
18.9423
15.4858
12.0366
8.59325
5.1542
1.71777
50.4518
46.9337
43.4171
39.9044
36.3973
32.8972
29.4048
25.9207
22.4448
18.9768
15.5159
12.0611
8.61138
5.16532
1.72152
50.4556
46.9447
43.4349
39.9279
36.4253
32.9283
29.4375
25.9536
22.4764
19.0058
15.5413
12.0819
8.62674
5.17476
1.7247
50.4587
46.9538
43.4495
39.9473
36.4485
32.9541
29.4648
25.9811
22.5029
19.0303
15.5626
12.0994
8.63971
5.18273
1.72739
50.4612
46.9613
43.4616
39.9634
36.4678
32.9756
29.4875
26.004
22.5251
19.0507
15.5805
12.1141
8.65061
5.18943
1.72965
50.4633
46.9675
43.4716
39.9766
36.4836
32.9934
29.5064
26.023
22.5435
19.0678
15.5955
12.1263
8.65974
5.19505
1.73155
50.465
46.9726
43.4798
39.9875
36.4967
33.008
29.5219
26.0388
22.5588
19.0819
15.6079
12.1365
8.66732
5.19972
1.73313
50.4664
46.9767
43.4864
39.9964
36.5074
33.02
29.5346
26.0517
22.5713
19.0935
15.6181
12.1449
8.67357
5.20357
1.73443
50.4676
46.9801
43.4918
40.0036
36.516
33.0296
29.5449
26.0621
22.5815
19.1029
15.6264
12.1518
8.67867
5.20671
1.73549
50.4685
46.9827
43.4961
40.0093
36.5228
33.0373
29.5531
26.0704
22.5896
19.1105
15.6331
12.1573
8.68274
5.20923
1.73634
50.4691
46.9847
43.4994
40.0136
36.5281
33.0433
29.5594
26.0769
22.5959
19.1163
15.6382
12.1615
8.68591
5.21118
1.737
50.4697
46.9862
43.5018
40.0169
36.532
33.0477
29.5641
26.0817
22.6005
19.1207
15.6421
12.1647
8.68827
5.21264
1.73749
50.47
46.9872
43.5034
40.019
36.5346
33.0506
29.5673
26.0849
22.6037
19.1236
15.6447
12.1668
8.68988
5.21364
1.73783
50.4702
46.9878
43.5043
40.0202
36.5361
33.0523
29.569
26.0867
22.6055
19.1253
15.6462
12.1681
8.69081
5.21421
1.73802
50.4702
46.9879
43.5044
40.0205
36.5364
33.0526
29.5694
26.0872
22.6059
19.1257
15.6466
12.1684
8.69106
5.21437
1.73808
50.4701
46.9875
43.5039
40.0197
36.5355
33.0517
29.5685
26.0862
22.605
19.1249
15.6459
12.1679
8.69067
5.21413
1.73799
50.4698
46.9867
43.5026
40.018
36.5335
33.0494
29.5661
26.0839
22.6028
19.1229
15.6441
12.1664
8.68961
5.21348
1.73778
50.4694
46.9854
43.5005
40.0153
36.5302
33.0458
29.5623
26.0801
22.5992
19.1196
15.6412
12.1641
8.68788
5.21242
1.73742
50.4687
46.9835
43.4975
40.0113
36.5256
33.0407
29.557
26.0747
22.594
19.1149
15.6372
12.1607
8.68542
5.21091
1.73691
50.4679
46.9811
43.4935
40.0061
36.5194
33.0338
29.5498
26.0676
22.5872
19.1087
15.6318
12.1564
8.68219
5.20893
1.73625
50.4668
46.9778
43.4884
39.9994
36.5114
33.0251
29.5407
26.0586
22.5786
19.1008
15.625
12.1508
8.67811
5.20643
1.7354
50.4654
46.9737