/*--------------------------------*- C++ -*----------------------------------*\
| =========                 |                                                 |
| \\      /  F ield         | OpenFOAM: The Open Source CFD Toolbox           |
|  \\    /   O peration     | Version:  5.x                                   |
|   \\  /    A nd           | Web:      www.OpenFOAM.org                      |
|    \\/     M anipulation  |                                                 |
\*---------------------------------------------------------------------------*/
FoamFile
{
    version     2.0;
    format      ascii;
    class       volScalarField;
    location    "17.9";
    object      T;
}
// * * * * * * * * * * * * * * * * * * * * * * * * * * * * * * * * * * * * * //

dimensions      [0 0 0 1 0 0 0];

internalField   nonuniform List<scalar> 
6300
(
10.0298
10.0893
10.1486
10.2074
10.2655
10.3229
10.3793
10.4345
10.4883
10.5407
10.5914
10.6403
10.6873
10.7322
10.7751
10.0299
10.0896
10.149
10.208
10.2663
10.3239
10.3804
10.4358
10.4898
10.5423
10.5932
10.6422
10.6893
10.7343
10.7772
10.0301
10.0901
10.1499
10.2092
10.2679
10.3258
10.3827
10.4384
10.4928
10.5456
10.5968
10.646
10.6933
10.7385
10.7815
10.0303
10.0909
10.1513
10.2111
10.2704
10.3288
10.3862
10.4424
10.4973
10.5506
10.6021
10.6518
10.6995
10.7449
10.7881
10.0307
10.092
10.153
10.2136
10.2736
10.3327
10.3908
10.4477
10.5033
10.5572
10.6094
10.6596
10.7077
10.7536
10.797
10.0311
10.0933
10.1553
10.2168
10.2776
10.3376
10.3966
10.4544
10.5108
10.5656
10.6186
10.6696
10.7183
10.7646
10.8083
10.0317
10.095
10.158
10.2205
10.2824
10.3435
10.4036
10.4625
10.52
10.5758
10.6298
10.6817
10.7312
10.7782
10.8223
10.0323
10.0968
10.1611
10.2249
10.2881
10.3504
10.4118
10.472
10.5308
10.5879
10.6431
10.6961
10.7467
10.7945
10.8393
10.033
10.099
10.1646
10.2299
10.2945
10.3584
10.4212
10.4829
10.5432
10.6018
10.6585
10.713
10.7649
10.8139
10.8594
10.0338
10.1013
10.1686
10.2355
10.3017
10.3672
10.4318
10.4951
10.5572
10.6176
10.6761
10.7325
10.7861
10.8366
10.8833
10.0347
10.104
10.173
10.2417
10.3097
10.377
10.4434
10.5087
10.5727
10.6352
10.696
10.7545
10.8105
10.863
10.9114
10.0357
10.1069
10.1779
10.2484
10.3184
10.3878
10.4562
10.5236
10.5898
10.6547
10.7179
10.7792
10.8381
10.8937
10.9446
10.0367
10.11
10.1831
10.2557
10.3279
10.3993
10.4699
10.5396
10.6082
10.6756
10.7418
10.8064
10.869
10.9289
10.9841
10.0378
10.1133
10.1887
10.2636
10.338
10.4117
10.4846
10.5567
10.6278
10.6979
10.7671
10.8354
10.9028
10.9688
11.0314
10.039
10.1169
10.1946
10.2719
10.3487
10.4249
10.5002
10.5747
10.6483
10.7211
10.7933
10.8652
10.9378
11.012
11.0883
10.8123
10.8447
10.8755
10.9048
10.9327
10.9591
10.9842
11.008
11.0306
11.052
11.0724
11.0919
11.1105
11.1284
11.1457
11.1625
11.1788
11.1948
11.2105
11.2261
11.2416
11.2571
11.2728
11.2886
11.3046
11.3209
11.3376
11.3546
11.372
11.3897
11.4079
11.4265
11.4454
11.4647
11.4844
11.5042
11.5243
11.5445
11.5649
11.5852
11.6054
11.6255
11.6452
11.6646
11.6835
11.7017
11.7192
11.7358
11.7514
11.7659
11.7792
11.791
11.8013
11.81
11.8167
11.8214
11.8239
11.824
11.8213
11.8158
11.8071
11.795
11.7792
11.7594
11.7352
11.7064
11.6724
11.633
11.5877
11.5358
11.4771
11.4108
11.3363
11.2531
11.1604
11.0575
10.9438
10.8184
10.6806
10.5297
10.3648
10.1852
9.99012
9.77899
9.55117
9.30618
9.04364
8.76331
8.46512
8.14915
10.8145
10.8468
10.8776
10.9069
10.9347
10.9611
10.986
11.0097
11.0321
11.0534
11.0737
11.0931
11.1115
11.1293
11.1464
11.163
11.1792
11.1951
11.2107
11.2261
11.2415
11.257
11.2725
11.2882
11.3042
11.3204
11.337
11.354
11.3713
11.3891
11.4073
11.4259
11.4449
11.4642
11.4839
11.5039
11.524
11.5444
11.5648
11.5852
11.6056
11.6258
11.6457
11.6653
11.6843
11.7027
11.7204
11.7372
11.753
11.7677
11.7811
11.7932
11.8037
11.8126
11.8196
11.8246
11.8274
11.8277
11.8254
11.8202
11.8119
11.8002
11.7849
11.7655
11.7419
11.7136
11.6803
11.6415
11.5968
11.5458
11.4878
11.4224
11.3489
11.2666
11.1749
11.0731
10.9605
10.8362
10.6995
10.5497
10.3859
10.2073
10.0132
9.80293
9.57583
9.33138
9.06918
8.78897
8.49066
8.17432
10.8188
10.8512
10.8819
10.9111
10.9388
10.9649
10.9897
11.0131
11.0353
11.0563
11.0763
11.0954
11.1136
11.131
11.1479
11.1642
11.1801
11.1956
11.211
11.2262
11.2414
11.2566
11.2719
11.2874
11.3032
11.3193
11.3358
11.3527
11.37
11.3878
11.406
11.4247
11.4438
11.4632
11.483
11.5031
11.5234
11.544
11.5646
11.5853
11.606
11.6265
11.6467
11.6666
11.686
11.7047
11.7228
11.7399
11.7561
11.7711
11.7849
11.7974
11.8084
11.8177
11.8253
11.8308
11.8342
11.8352
11.8336
11.8291
11.8216
11.8107
11.7962
11.7778
11.7552
11.728
11.6958
11.6584
11.6151
11.5656
11.5093
11.4456
11.3739
11.2936
11.2039
11.1042
10.9938
10.8717
10.7373
10.5897
10.4281
10.2517
10.0595
9.85101
9.62538
9.38205
9.12057
8.84062
8.54208
8.22502
10.8255
10.8578
10.8885
10.9175
10.9449
10.9708
10.9952
11.0183
11.0401
11.0607
11.0803
11.0989
11.1166
11.1336
11.15
11.1659
11.1814
11.1965
11.2115
11.2263
11.2411
11.256
11.271
11.2862
11.3018
11.3177
11.334
11.3508
11.3681
11.3858
11.4041
11.4228
11.442
11.4616
11.4816
11.5019
11.5225
11.5434
11.5643
11.5854
11.6065
11.6274
11.6482
11.6686
11.6885
11.7078
11.7263
11.744
11.7607
11.7763
11.7907
11.8037
11.8154
11.8254
11.8337
11.8401
11.8444
11.8464
11.8458
11.8424
11.836
11.8263
11.8131
11.796
11.7749
11.7494
11.719
11.6835
11.6424
11.5952
11.5413
11.4802
11.4113
11.3339
11.2473
11.1508
11.0436
10.925
10.794
10.6499
10.4917
10.3185
10.1294
9.92365
9.70033
9.4588
9.19847
8.91897
8.62011
8.30194
10.8344
10.8667
10.8973
10.9261
10.9532
10.9787
11.0027
11.0253
11.0465
11.0666
11.0855
11.1035
11.1207
11.1371
11.1529
11.1682
11.183
11.1976
11.212
11.2263
11.2407
11.2551
11.2697
11.2845
11.2997
11.3154
11.3315
11.3481
11.3653
11.3831
11.4014
11.4202
11.4396
11.4594
11.4797
11.5003
11.5212
11.5425
11.5639
11.5855
11.6071
11.6287
11.6501
11.6712
11.6918
11.7118
11.731
11.7494
11.7668
11.7831
11.7982
11.812
11.8245
11.8355
11.8449
11.8524
11.8579
11.8611
11.8619
11.8599
11.855
11.8468
11.8353
11.8201
11.8009
11.7775
11.7496
11.7167
11.6783
11.6342
11.5836
11.526
11.4608
11.3873
11.3049
11.2127
11.11
10.9959
10.8696
10.7302
10.5767
10.4081
10.2233
10.0214
9.80145
9.56251
9.30391
9.02513
8.72589
8.4062
10.8459
10.8782
10.9086
10.9371
10.9638
10.9888
11.0122
11.0341
11.0546
11.0739
11.0921
11.1093
11.1257
11.1414
11.1564
11.1709
11.1851
11.199
11.2127
11.2264
11.24
11.2539
11.2679
11.2823
11.2971
11.3123
11.3282
11.3446
11.3617
11.3794
11.3979
11.4169
11.4365
11.4566
11.4772
11.4981
11.5195
11.5412
11.5631
11.5853
11.6077
11.6301
11.6524
11.6744
11.6959
11.7168
11.7369
11.7561
11.7743
11.7915
11.8075
11.8223
11.8358
11.848
11.8586
11.8675
11.8745
11.8794
11.8818
11.8816
11.8785
11.8723
11.8628
11.8498
11.833
11.8122
11.7872
11.7575
11.7227
11.6823
11.6358
11.5827
11.5221
11.4536
11.3763
11.2896
11.1925
11.0843
10.9641
10.8308
10.6834
10.5208
10.3418
10.1452
9.92978
9.69448
9.43834
9.16067
8.86104
8.5394
10.8601
10.8924
10.9226
10.9507
10.9769
11.0012
11.0238
11.0448
11.0645
11.0828
11.1001
11.1164
11.1318
11.1465
11.1606
11.1742
11.1875
11.2006
11.2134
11.2263
11.2392
11.2523
11.2656
11.2794
11.2936
11.3084
11.3239
11.3401
11.3571
11.3748
11.3934
11.4126
11.4326
11.453
11.474
11.4954
11.5172
11.5394
11.562
11.5849
11.6082
11.6316
11.655
11.6782
11.7009
11.7229
11.7441
11.7643
11.7834
11.8014
11.8184
11.8342
11.849
11.8625
11.8747
11.8853
11.8942
11.901
11.9055
11.9073
11.9063
11.9024
11.8952
11.8847
11.8707
11.8531
11.8314
11.8055
11.7749
11.7391
11.6977
11.6498
11.595
11.5324
11.4614
11.3812
11.291
11.19
11.0772
10.9516
10.812
10.6571
10.4856
10.2959
10.0867
9.85636
9.60373
9.32775
9.0278
8.70373
10.8773
10.9095
10.9394
10.9671
10.9925
11.016
11.0376
11.0576
11.0761
11.0933
11.1094
11.1245
11.1388
11.1524
11.1654
11.178
11.1903
11.2023
11.2142
11.2261
11.238
11.2502
11.2628
11.2758
11.2893
11.3035
11.3185
11.3344
11.3512
11.3691
11.3878
11.4074
11.4278
11.4487
11.4701
11.492
11.5143
11.537
11.5603
11.5841
11.6084
11.6331
11.6579
11.6826
11.7068
11.7302
11.7526
11.7738
11.7939
11.8129
11.8308
11.8477
11.8638
11.8789
11.8929
11.9057
11.9168
11.926
11.9328
11.937
11.9385
11.9369
11.9324
11.9246
11.9137
11.8995
11.8817
11.8602
11.8345
11.8041
11.7685
11.727
11.6788
11.6232
11.5596
11.4871
11.4051
11.3126
11.2088
11.0925
10.9625
10.8173
10.6554
10.4748
10.2738
10.0503
9.80264
9.52928
9.22924
8.90218
10.8978
10.93
10.9595
10.9865
11.011
11.0334
11.0537
11.0724
11.0895
11.1054
11.1201
11.1339
11.1468
11.1591
11.1709
11.1822
11.1933
11.2041
11.2149
11.2256
11.2365
11.2477
11.2592
11.2713
11.2839
11.2974
11.3118
11.3273
11.344
11.3619
11.3809
11.4011
11.422
11.4436
11.4656
11.4879
11.5106
11.5338
11.5577
11.5824
11.6079
11.6342
11.6609
11.6877
11.7138
11.7389
11.7627
11.785
11.806
11.8257
11.8445
11.8625
11.8799
11.8967
11.9129
11.9282
11.9421
11.9542
11.9638
11.9707
11.9748
11.9758
11.9739
11.9691
11.9614
11.9509
11.9374
11.9208
11.9007
11.8766
11.8479
11.8137
11.7732
11.7256
11.6704
11.6067
11.534
11.4515
11.3581
11.253
11.1347
11.0016
10.8518
10.6832
10.4931
10.279
10.0385
9.76916
9.46951
9.13882
10.9222
10.9543
10.9833
11.0094
11.0327
11.0535
11.0723
11.0893
11.1048
11.119
11.1321
11.1443
11.1557
11.1666
11.1769
11.1868
11.1965
11.206
11.2155
11.225
11.2346
11.2446
11.2549
11.2658
11.2774
11.2899
11.3036
11.3185
11.3349
11.3529
11.3725
11.3934
11.4154
11.4379
11.4605
11.4833
11.5062
11.5296
11.5539
11.5794
11.6063
11.6346
11.6639
11.6935
11.7222
11.7495
11.7748
11.7981
11.8197
11.8399
11.8592
11.8781
11.8967
11.9154
11.9342
11.9527
11.9701
11.9857
11.9986
12.0085
12.0153
12.0189
12.0196
12.0176
12.0131
12.0064
11.9974
11.9862
11.9725
11.9558
11.935
11.9093
11.8776
11.8391
11.7932
11.7393
11.6771
11.6057
11.5245
11.4323
11.328
11.2098
11.0755
10.9222
10.7469
10.5458
10.3156
10.0527
9.75438
9.41933
10.951
10.9831
11.0114
11.0361
11.0577
11.0767
11.0935
11.1084
11.1219
11.1342
11.1454
11.1558
11.1655
11.1747
11.1834
11.1918
11.2
11.208
11.216
11.224
11.2323
11.2408
11.2497
11.2592
11.2695
11.2808
11.2933
11.3075
11.3235
11.3416
11.362
11.3843
11.408
11.4318
11.4553
11.4782
11.501
11.5241
11.5484
11.5744
11.6027
11.6336
11.6666
11.7003
11.7328
11.7627
11.7896
11.8136
11.8353
11.8554
11.8746
11.8937
11.9133
11.934
11.9558
11.9785
12.0007
12.0209
12.0378
12.0508
12.0601
12.0661
12.069
12.0696
12.0681
12.065
12.0606
12.0552
12.0487
12.0405
12.0293
12.0135
11.9917
11.9631
11.9273
11.884
11.8331
11.774
11.7063
11.6292
11.5414
11.4412
11.3262
11.1931
11.0375
10.8547
10.6396
10.387
10.0921
9.75191
10.9855
11.0175
11.0445
11.0673
11.0865
11.1029
11.1172
11.1296
11.1408
11.1507
11.1598
11.1682
11.176
11.1834
11.1903
11.197
11.2035
11.2099
11.2163
11.2228
11.2294
11.2363
11.2436
11.2515
11.2601
11.2698
11.2808
11.2937
11.3089
11.327
11.3485
11.3733
11.4001
11.4264
11.4507
11.4734
11.4952
11.517
11.5402
11.5659
11.5953
11.6294
11.668
11.7088
11.747
11.7803
11.8085
11.8324
11.8532
11.8721
11.8902
11.9086
11.9284
11.9507
11.9762
12.0048
12.0343
12.0609
12.0823
12.0984
12.1098
12.1174
12.122
12.1244
12.1252
12.1253
12.1253
12.1258
12.1272
12.1294
12.1302
12.1262
12.1154
12.0973
12.072
12.0397
12.0006
11.9548
11.9018
11.8413
11.7724
11.6937
11.603
11.4961
11.3672
11.21
11.0176
10.7822
10.4951
10.1492
11.0273
11.059
11.0838
11.1034
11.1193
11.1323
11.1433
11.1528
11.1611
11.1686
11.1753
11.1814
11.1872
11.1925
11.1976
11.2025
11.2072
11.2119
11.2166
11.2213
11.2262
11.2313
11.2367
11.2426
11.2492
11.2568
11.2657
11.2765
11.29
11.3075
11.3303
11.3594
11.3931
11.4234
11.4486
11.4699
11.4891
11.508
11.5283
11.5519
11.5811
11.6187
11.6663
11.7209
11.7683
11.8052
11.8334
11.8555
11.8737
11.8898
11.9052
11.9214
11.9399
11.9627
11.9921
12.0295
12.0722
12.108
12.1344
12.1527
12.1649
12.1729
12.178
12.1812
12.1835
12.1857
12.189
12.1948
12.2048
12.2199
12.238
12.2487
12.2497
12.2418
12.2266
12.2051
12.178
12.1456
12.108
12.0653
12.0173
11.9636
11.9029
11.8309
11.7376
11.6157
11.4574
11.2516
10.9827
10.6327
11.0801
11.1102
11.1306
11.1451
11.156
11.1645
11.1716
11.1776
11.1828
11.1874
11.1915
11.1953
11.1987
11.202
11.2051
11.2081
11.211
11.2138
11.2166
11.2195
11.2225
11.2256
11.229
11.2327
11.2369
11.2418
11.2477
11.2552
11.2655
11.2803
11.303
11.3389
11.391
11.4277
11.452
11.4694
11.4836
11.4969
11.5115
11.5297
11.5549
11.5934
11.6545
11.7435
11.8044
11.8425
11.8671
11.8842
11.8972
11.9084
11.919
11.9307
11.9451
11.9653
11.9964
12.0464
12.1198
12.1688
12.1981
12.2155
12.226
12.2325
12.2366
12.2394
12.2417
12.2445
12.249
12.2577
12.2747
12.3063
12.3562
12.385
12.3965
12.3969
12.3902
12.3784
12.3627
12.3437
12.3216
12.2969
12.2704
12.2435
12.2188
12.1964
12.1491
12.0737
11.9656
11.8119
11.5868
11.2457
11.1534
11.1755
11.1858
11.1918
11.1959
11.199
11.2014
11.2035
11.2052
11.2068
11.2082
11.2094
11.2106
11.2117
11.2127
11.2137
11.2147
11.2157
11.2166
11.2176
11.2186
11.2197
11.2208
11.2221
11.2235
11.2252
11.2273
11.2301
11.2343
11.2416
11.2566
11.2948
11.4112
11.4497
11.4653
11.4734
11.479
11.4841
11.4896
11.4971
11.5096
11.5356
11.6023
11.8066
11.8734
11.8992
11.9114
11.9185
11.9235
11.9276
11.9314
11.9358
11.9419
11.9521
11.9736
12.0296
12.2023
12.258
12.2789
12.2881
12.2928
12.2955
12.2971
12.2982
12.2992
12.3005
12.303
12.3087
12.3235
12.3663
12.5044
12.5464
12.5593
12.5622
12.5609
12.5573
12.5523
12.546
12.5388
12.5311
12.5238
12.5202
12.5314
12.5978
12.6007
12.5789
12.5394
12.4749
12.3577
12.1003
7.78229
7.3575
6.90917
6.43862
5.9474
5.43723
4.90991
4.36734
3.81142
3.24405
2.66708
2.08235
1.49163
0.896667
0.29917
7.80681
7.38098
6.93133
6.45924
5.96632
5.45432
4.92512
4.38065
3.82285
3.25361
2.67483
2.08832
1.49586
0.899194
0.30001
7.85616
7.42821
6.97588
6.50065
6.00425
5.48856
4.95556
4.40727
3.84566
3.2727
2.69028
2.10022
1.5043
0.904226
0.301682
7.93101
7.49977
7.04327
6.56317
6.06141
5.54006
5.00127
4.44715
3.87981
3.30123
2.71334
2.11797
1.51687
0.911723
0.304174
8.03239
7.59654
7.13419
6.6473
6.13811
5.60897
5.06225
4.50024
3.92514
3.33904
2.74385
2.14143
1.53347
0.921619
0.307462
8.16177
7.71974
7.24958
6.75368
6.23472
5.69542
5.13847
4.56637
3.98146
3.38589
2.7816
2.17039
1.55394
0.933817
0.311513
8.32114
7.87102
7.39065
6.88308
6.3516
5.79949
5.22979
4.64527
4.04842
3.44143
2.82623
2.20459
1.57808
0.948185
0.316283
8.51318
8.05249
7.55885
7.03632
6.48908
5.9211
5.33588
4.73648
4.12549
3.50513
2.8773
2.24363
1.6056
0.964548
0.321712
8.74149
8.26685
7.75589
7.2142
6.64726
6.05989
5.45611
4.83923
4.21191
3.57629
2.93416
2.28701
1.63613
0.982686
0.327728
9.01092
8.51746
7.98357
7.41729
6.82582
6.21502
5.5894
4.95239
4.30658
3.65394
2.99602
2.3341
1.66922
1.00232
0.334238
9.32818
8.80844
8.24358
7.6455
7.02365
6.38491
5.73404
5.07432
4.40804
3.73682
3.06187
2.38412
1.70433
1.02314
0.341135
9.70284
9.14448
8.53675
7.8974
7.23833
6.56688
5.88748
5.20277
4.5144
3.82341
3.1305
2.43617
1.74081
1.04476
0.348297
10.1488
9.52982
8.86146
8.16897
7.46532
6.75675
6.04616
5.33484
4.62335
3.91189
3.20051
2.48922
1.77798
1.06678
0.35559
10.6858
9.96442
9.21023
8.45163
7.69717
6.94859
6.20552
5.46705
4.73223
4.00025
3.27042
2.54219
1.8151
1.08877
0.362875
11.3334
10.4317
9.56333
8.73008
7.92307
7.13487
6.36024
5.59555
4.83824
4.08643
3.33871
2.594
1.85144
1.11031
0.370015
10.0402
10.1204
10.2004
10.2801
10.3592
10.4376
10.5152
10.592
10.6679
10.7429
10.8174
10.8921
10.9684
11.0497
11.1453
10.0413
10.1238
10.206
10.2878
10.3691
10.4497
10.5295
10.6083
10.6862
10.7631
10.8392
10.9153
10.9927
11.074
11.1644
10.0424
10.1272
10.2118
10.296
10.3796
10.4624
10.5444
10.6254
10.7051
10.7837
10.8611
10.9376
11.0141
11.0921
11.1737
10.0437
10.1309
10.2179
10.3045
10.3905
10.4757
10.56
10.6432
10.7249
10.8051
10.8835
10.96
11.0345
11.1076
11.1802
10.0449
10.1347
10.2243
10.3134
10.4019
10.4897
10.5764
10.6619
10.7458
10.8278
10.9073
10.9836
11.0559
11.1235
11.1864
10.0463
10.1387
10.2309
10.3227
10.4139
10.5043
10.5937
10.6817
10.768
10.8521
10.9332
11.01
11.0806
11.1427
11.1944
10.0477
10.1429
10.2379
10.3324
10.4264
10.5197
10.6118
10.7027
10.7918
10.8785
10.962
11.0405
11.1112
11.1691
11.2073
10.0491
10.1472
10.2451
10.3426
10.4395
10.5357
10.6309
10.7248
10.8171
10.9072
10.9942
11.0765
11.1507
11.209
11.2338
10.0506
10.1517
10.2525
10.3531
10.4531
10.5524
10.6508
10.7481
10.844
10.938
11.0297
11.1182
11.2012
11.2722
11.3013
10.0521
10.1563
10.2603
10.3639
10.4671
10.5697
10.6715
10.7724
10.8721
10.9705
11.0675
11.1635
11.2601
11.3644
11.5069
10.0537
10.161
10.2682
10.3751
10.4816
10.5876
10.6929
10.7974
10.9011
11.0038
11.1059
11.2083
11.3137
11.43
11.5754
10.0553
10.1659
10.2763
10.3865
10.4964
10.6058
10.7148
10.8231
10.9307
11.0376
11.1441
11.2509
11.3599
11.4753
11.6041
10.0569
10.1708
10.2846
10.3981
10.5115
10.6245
10.7371
10.8492
10.9607
11.0717
11.182
11.2919
11.4015
11.5112
11.6214
10.0586
10.1758
10.2929
10.41
10.5268
10.6434
10.7597
10.8756
10.9911
11.1061
11.2203
11.3331
11.443
11.5467
11.6383
10.0603
10.1809
10.3014
10.4219
10.5422
10.6624
10.7825
10.9023
11.0219
11.1411
11.2595
11.3762
11.4888
11.5906
11.6653
10.062
10.186
10.3099
10.4339
10.5578
10.6816
10.8055
10.9292
11.053
11.1765
11.2998
11.4222
11.5421
11.6533
11.7285
10.0637
10.191
10.3184
10.4458
10.5733
10.7008
10.8284
10.9562
11.0841
11.2122
11.3407
11.4699
11.6014
11.741
11.9157
10.0654
10.1961
10.3269
10.4578
10.5888
10.7199
10.8513
10.9829
11.115
11.2475
11.3809
11.516
11.655
11.8041
11.9791
10.067
10.2012
10.3353
10.4696
10.6041
10.7389
10.8739
11.0094
11.1455
11.2822
11.42
11.5594
11.7016
11.8493
12.0071
10.0687
10.2061
10.3437
10.4814
10.6193
10.7576
10.8963
11.0355
11.1755
11.3162
11.458
11.6008
11.7444
11.8873
12.0263
10.0703
10.211
10.3519
10.4929
10.6342
10.776
10.9182
11.0611
11.2048
11.3495
11.4952
11.6416
11.7875
11.9281
12.0506
10.0719
10.2159
10.3599
10.5042
10.6489
10.794
10.9397
11.0861
11.2335
11.382
11.5318
11.6828
11.8342
11.9813
12.1022
10.0735
10.2206
10.3678
10.5153
10.6632
10.8115
10.9606
11.1104
11.2613
11.4135
11.5674
11.7237
11.8838
12.0527
12.2515
10.075
10.2252
10.3755
10.5261
10.6771
10.8286
10.9809
11.134
11.2882
11.4439
11.6014
11.7619
11.9274
12.1032
12.3019
10.0765
10.2297
10.383
10.5366
10.6906
10.8452
11.0005
11.1568
11.3141
11.4729
11.6334
11.7965
11.9637
12.1377
12.3232
10.078
10.234
10.3902
10.5468
10.7037
10.8613
11.0196
11.1788
11.339
11.5005
11.6635
11.8283
11.9951
12.1643
12.3358
10.0794
10.2382
10.3973
10.5566
10.7164
10.8768
11.0379
11.2
11.363
11.5271
11.6924
11.8586
12.0249
12.1891
12.3473
10.0807
10.2423
10.4041
10.5661
10.7287
10.8918
11.0557
11.2204
11.3861
11.5529
11.7206
11.8888
12.0561
12.2181
12.3647
10.0821
10.2463
10.4106
10.5753
10.7405
10.9063
11.0728
11.2402
11.4085
11.5779
11.7484
11.9197
12.0908
12.2579
12.4038
10.0833
10.25
10.417
10.5842
10.7519
10.9202
11.0893
11.2592
11.4301
11.6022
11.7756
11.9506
12.1283
12.3122
12.5187
10.0845
10.2537
10.4231
10.5927
10.7629
10.9337
11.1051
11.2775
11.4509
11.6255
11.8015
11.9797
12.1614
12.3508
12.5574
10.0857
10.2572
10.4289
10.6009
10.7734
10.9465
11.1204
11.2951
11.4708
11.6477
11.826
12.0062
12.1892
12.3773
12.5738
10.0868
10.2606
10.4345
10.6088
10.7835
10.9589
11.135
11.3119
11.4899
11.6689
11.8491
12.0306
12.2135
12.3978
12.5836
10.0879
10.2638
10.4398
10.6163
10.7932
10.9707
11.1489
11.3281
11.5081
11.6892
11.8713
12.054
12.2367
12.4174
12.5927
10.0889
10.2668
10.4449
10.6234
10.8024
10.9819
11.1623
11.3435
11.5256
11.7088
11.8929
12.0774
12.2612
12.4405
12.6068
10.0899
10.2697
10.4498
10.6302
10.8111
10.9927
11.175
11.3582
11.5424
11.7277
11.9141
12.1014
12.2887
12.4727
12.6392
10.0908
10.2725
10.4544
10.6366
10.8194
11.0028
11.187
11.3722
11.5584
11.7459
11.9347
12.1253
12.3184
12.517
12.7348
10.0917
10.2751
10.4587
10.6427
10.8272
11.0124
11.1984
11.3854
11.5735
11.7629
11.954
12.1473
12.3442
12.548
12.7667
10.0925
10.2775
10.4628
10.6484
10.8346
11.0214
11.2091
11.3978
11.5876
11.7789
11.9718
12.1668
12.3651
12.5685
12.7797
10.0932
10.2798
10.4665
10.6537
10.8414
11.0298
11.2191
11.4093
11.6008
11.7936
11.9879
12.1841
12.3825
12.5834
12.7869
10.0939
10.2819
10.47
10.6586
10.8477
11.0376
11.2283
11.42
11.6129
11.8071
12.0028
12.1998
12.398
12.5963
12.7929
10.0946
10.2838
10.4732
10.6631
10.8535
11.0447
11.2368
11.4298
11.6241
11.8197
12.0166
12.2147
12.4133
12.6104
12.8012
10.0952
10.2855
10.4762
10.6672
10.8588
11.0512
11.2445
11.4388
11.6344
11.8312
12.0295
12.2291
12.4295
12.6289
12.8192
10.0957
10.2871
10.4788
10.6709
10.8636
11.057
11.2514
11.4469
11.6437
11.8418
12.0415
12.2429
12.4464
12.6536
12.8716
10.0961
10.2885
10.4811
10.6741
10.8678
11.0622
11.2576
11.4541
11.6519
11.8512
12.0522
12.2551
12.4608
12.6707
12.8891
10.0965
10.2897
10.4831
10.6769
10.8714
11.0667
11.263
11.4604
11.6591
11.8594
12.0614
12.2655
12.472
12.6819
12.8963
10.0969
10.2907
10.4848
10.6793
10.8745
11.0705
11.2675
11.4657
11.6652
11.8664
12.0692
12.274
12.4809
12.6899
12.9003
10.0971
10.2915
10.4861
10.6812
10.8769
11.0735
11.2711
11.47
11.6702
11.872
12.0756
12.2811
12.4883
12.6966
12.9042
10.0973
10.2921
10.4871
10.6826
10.8788
11.0758
11.2739
11.4732
11.674
11.8764
12.0807
12.2869
12.4948
12.704
12.9109
10.0975
10.2925
10.4878
10.6836
10.8801
11.0774
11.2758
11.4755
11.6767
11.8795
12.0843
12.2913
12.5006
12.7127
12.9298
10.0975
10.2927
10.4881
10.6841
10.8807
11.0782
11.2767
11.4766
11.6781
11.8813
12.0865
12.294
12.5043
12.7178
12.9357
10.0975
10.2927
10.4881
10.684
10.8807
11.0782
11.2768
11.4767
11.6782
11.8815
12.0869
12.2948
12.5056
12.7197
12.9375
10.0975
10.2925
10.4878
10.6835
10.88
11.0774
11.2758
11.4756
11.677
11.8802
12.0856
12.2936
12.5046
12.7191
12.9374
10.0973
10.292
10.487
10.6825
10.8787
11.0758
11.2739
11.4734
11.6745
11.8774
12.0825
12.2901
12.501
12.7158
12.9356
10.0971
10.2914
10.486
10.681
10.8768
11.0734
11.2711
11.4701
11.6707
11.873
12.0775
12.2845
12.4945
12.709
12.9309
10.0968
10.2906
10.4846
10.679
10.8742
11.0702
11.2673
11.4657
11.6655
11.8671
12.0707
12.2765
12.4849
12.6971
12.9181
10.0965
10.2895
10.4828
10.6766
10.871
11.0663
11.2626
11.4601
11.6592
11.8598
12.0624
12.2668
12.4727
12.6788
12.8787
10.0961
10.2883
10.4807
10.6736
10.8672
11.0616
11.2569
11.4535
11.6516
11.8512
12.0526
12.2558
12.4604
12.6648
12.8651
10.0956
10.2868
10.4783
10.6703
10.8628
11.0561
11.2504
11.4459
11.6428
11.8413
12.0416
12.2439
12.448
12.6535
12.8586
10.095
10.2852
10.4756
10.6664
10.8578
11.05
11.2431
11.4373
11.6329
11.8301
12.0292
12.2306
12.4348
12.6423
12.8534
10.0944
10.2834
10.4726
10.6622
10.8523
11.0432
11.2349
11.4277
11.6218
11.8175
12.0151
12.2153
12.4191
12.6286
12.8467
10.0938
10.2814
10.4693
10.6576
10.8463
11.0357
11.2259
11.4172
11.6096
11.8035
11.9992
12.1974
12.3994
12.6088
12.8338
10.0931
10.2793
10.4658
10.6525
10.8398
11.0276
11.2162
11.4058
11.5964
11.7882
11.9815
12.1767
12.3746
12.5782
12.8016
10.0923
10.2771
10.462
10.6472
10.8328
11.019
11.2059
11.3936
11.5822
11.7718
11.9625
12.1541
12.3456
12.5339
12.7042
10.0915
10.2747
10.458
10.6415
10.8255
11.0099
11.1949
11.3807
11.5673
11.7547
11.9428
12.1314
12.3189
12.5019
12.6714
10.0907
10.2721
10.4537
10.6356
10.8177
11.0003
11.1835
11.3672
11.5517
11.737
11.9229
12.1093
12.2953
12.4792
12.6574
10.0898
10.2695
10.4493
10.6294
10.8097
10.9904
11.1715
11.3532
11.5356
11.7187
11.9026
12.0874
12.2732
12.4602
12.6484
10.0889
10.2668
10.4448
10.6229
10.8013
10.9801
11.1592
11.3388
11.5189
11.6998
11.8816
12.0647
12.2503
12.4405
12.6389
10.088
10.264
10.4401
10.6163
10.7927
10.9694
11.1465
11.3239
11.5017
11.6802
11.8595
12.0403
12.2241
12.415
12.6228
10.087
10.2611
10.4353
10.6095
10.784
10.9586
11.1334
11.3086
11.4841
11.66
11.8364
12.0137
12.1929
12.3776
12.5845
10.0861
10.2582
10.4304
10.6026
10.775
10.9475
11.1202
11.2931
11.4661
11.6394
11.8127
11.9858
12.1578
12.3247
12.4699
10.0851
10.2552
10.4254
10.5956
10.7659
10.9363
11.1068
11.2774
11.448
11.6186
11.789
11.9587
12.126
12.287
12.4314
10.0841
10.2522
10.4204
10.5886
10.7568
10.925
11.0933
11.2616
11.4298
11.598
11.7658
11.9331
12.0987
12.2606
12.415
10.0831
10.2492
10.4153
10.5815
10.7476
10.9137
11.0798
11.2458
11.4117
11.5774
11.743
11.9085
12.0739
12.2393
12.4049
10.0821
10.2462
10.4103
10.5744
10.7384
10.9024
11.0663
11.23
11.3936
11.557
11.7203
11.884
12.049
12.2178
12.3945
10.0811
10.2431
10.4052
10.5673
10.7292
10.8911
11.0529
11.2144
11.3756
11.5366
11.6973
11.8584
12.0214
12.1908
12.3774
10.08
10.2401
10.4002
10.5602
10.7201
10.8799
11.0395
11.1989
11.3578
11.5162
11.674
11.8314
11.9893
12.1517
12.3368
10.079
10.2371
10.3952
10.5532
10.7111
10.8688
11.0264
11.1836
11.3403
11.4962
11.651
11.804
11.954
12.0969
12.2149
10.078
10.2341
10.3902
10.5462
10.7021
10.8579
11.0135
11.1687
11.3233
11.477
11.6291
11.7787
11.9236
12.0592
12.1748
10.077
10.2311
10.3852
10.5392
10.6932
10.8471
11.0007
11.1541
11.3069
11.4587
11.609
11.7566
11.8997
12.0352
12.159
10.076
10.2281
10.3802
10.5323
10.6844
10.8364
10.9882
11.1399
11.2911
11.4415
11.5906
11.7376
11.8811
12.0194
12.1513
10.075
10.2251
10.3752
10.5254
10.6755
10.8257
10.9759
11.1259
11.2758
11.4252
11.5737
11.7209
11.8659
12.0079
12.1466
10.074
10.2221
10.3702
10.5184
10.6667
10.8151
10.9635
11.1121
11.2608
11.4094
11.5578
11.7057
11.8528
11.9986
12.1431
10.073
10.2191
10.3652
10.5114
10.6578
10.8043
10.9511
11.0982
11.2457
11.3937
11.5421
11.6911
11.8405
11.9902
12.1401
10.072
10.216
10.3601
10.5043
10.6487
10.7933
10.9384
11.084
11.2303
11.3776
11.526
11.676
11.8278
11.9816
12.137
10.0709
10.2128
10.3548
10.497
10.6394
10.7821
10.9253
11.0693
11.2143
11.3606
11.5089
11.6597
11.8138
11.9718
12.1334
10.0699
10.2096
10.3495
10.4895
10.6298
10.7705
10.9117
11.0539
11.1972
11.3423
11.4899
11.641
11.7971
11.9594
12.1285
10.0688
10.2064
10.344
10.4818
10.6199
10.7584
10.8975
11.0375
11.1789
11.3222
11.4683
11.6189
11.7759
11.9422
12.1207
10.0677
10.203
10.3384
10.474
10.6098
10.7459
10.8827
11.0203
11.1591
11.3
11.4438
11.5922
11.7482
11.9165
12.1059
10.0665
10.1996
10.3327
10.4659
10.5993
10.733
10.8672
11.0021
11.138
11.2757
11.4159
11.5603
11.7117
11.8762
12.071
11.9867
10.8295
9.85471
8.9612
8.11285
7.29312
6.49289
5.70654
4.93034
4.16164
3.39852
2.6395
1.88342
1.1293
0.37631
12.1931
11.0643
10.0631
9.13988
8.26547
7.4234
6.60381
5.80037
5.00882
4.22612
3.45003
2.67882
1.91111
1.14576
0.381774
12.279
11.2104
10.2174
9.28461
8.39557
7.53803
6.70346
5.88591
5.08112
4.28599
3.49813
2.71569
1.93716
1.16128
0.386927
12.3222
11.3038
10.3298
9.3989
8.50375
7.63667
6.79126
5.96254
5.1467
4.34078
3.54245
2.74983
1.96137
1.17573
0.39173
12.3474
11.3663
10.4122
9.48833
8.5924
7.7202
6.86742
6.0302
5.20537
4.39028
3.58278
2.78107
1.9836
1.18903
0.396158
12.3638
11.4101
10.4735
9.55829
8.66451
7.79022
6.93272
6.08923
5.25723
4.43449
3.61908
2.80934
2.0038
1.20115
0.400197
12.3753
11.442
10.52
9.6133
8.72303
7.84853
6.98824
6.14025
5.30263
4.47358
3.65143
2.83468
2.02198
1.21208
0.403846
12.3838
11.4658
10.5557
9.65685
8.77056
7.89694
7.03518
6.18403
5.34207
4.50786
3.68
2.85719
2.03819
1.22186
0.407114
12.3902
11.4841
10.5837
9.69159
8.80925
7.93706
7.0747
6.22138
5.37609
4.5377
3.70505
2.87703
2.05254
1.23054
0.410017
12.3951
11.4983
10.6058
9.7195
8.84083
7.97031
7.1079
6.25313
5.40529
4.56352
3.72688
2.8944
2.06515
1.23819
0.412578
12.399
11.5096
10.6234
9.74209
8.8667
7.99788
7.13574
6.28003
5.43025
4.58575
3.74578
2.90953
2.07617
1.24488
0.414822
12.4021
11.5187
10.6377
9.76046
8.88796
8.02077
7.15908
6.30277
5.45152
4.60482
3.76208
2.92262
2.08574
1.2507
0.416777
12.4046
11.526
10.6493
9.77549
8.90549
8.0398
7.17864
6.32197
5.46959
4.62112
3.77608
2.93391
2.09401
1.25575
0.418473
12.4066
11.5319
10.6587
9.78783
8.91998
8.05563
7.19502
6.33816
5.48492
4.63501
3.78806
2.94361
2.10114
1.2601
0.419937
12.4083
11.5368
10.6665
9.798
8.93199
8.06883
7.20875
6.3518
5.49789
4.64683
3.79829
2.95191
2.10725
1.26384
0.421197
12.4096
11.5408
10.6729
9.80642
8.94196
8.07984
7.22026
6.36329
5.50887
4.65686
3.80701
2.959
2.11249
1.26705
0.422277
12.4108
11.5441
10.6781
9.8134
8.95027
8.08905
7.22992
6.37296
5.51814
4.66536
3.81441
2.96505
2.11695
1.26979
0.423201
12.4117
11.5468
10.6825
9.81921
8.9572
8.09675
7.23802
6.38111
5.52598
4.67257
3.82071
2.97019
2.12076
1.27213
0.423989
12.4125
11.5491
10.6862
9.82406
8.96298
8.1032
7.24484
6.38797
5.5326
4.67867
3.82604
2.97456
2.124
1.27412
0.424661
12.4131
11.551
10.6892
9.8281
8.96783
8.10861
7.25056
6.39375
5.53819
4.68383
3.83057
2.97827
2.12676
1.27582
0.425233
12.4136
11.5526
10.6918
9.83149
8.9719
8.11316
7.25539
6.39863
5.54292
4.6882
3.83441
2.98143
2.1291
1.27726
0.42572
12.4141
11.5539
10.6939
9.83434
8.97532
8.11699
7.25946
6.40276
5.54692
4.69191
3.83767
2.98411
2.13109
1.27849
0.426135
12.4145
11.555
10.6957
9.83674
8.9782
8.12023
7.2629
6.40625
5.55031
4.69506
3.84044
2.98639
2.13279
1.27953
0.426488
12.4148
11.556
10.6972
9.83877
8.98065
8.12297
7.26582
6.40922
5.5532
4.69774
3.8428
2.98833
2.13424
1.28043
0.426789
12.4151
11.5568
10.6985
9.8405
8.98273
8.12531
7.26831
6.41175
5.55566
4.70002
3.84482
2.98999
2.13547
1.28119
0.427047
12.4153
11.5575
10.6997
9.84198
8.98451
8.12731
7.27044
6.41392
5.55777
4.70199
3.84655
2.99142
2.13654
1.28185
0.427269
12.4155
11.558
10.7006
9.84325
8.98605
8.12905
7.27229
6.4158
5.5596
4.70369
3.84805
2.99266
2.13746
1.28242
0.427461
12.4157
11.5586
10.7014
9.84437
8.98739
8.13056
7.2739
6.41744
5.5612
4.70518
3.84936
2.99374
2.13827
1.28291
0.427629
12.4158
11.559
10.7022
9.84536
8.98859
8.1319
7.27533
6.4189
5.56262
4.70649
3.85052
2.99469
2.13898
1.28335
0.427778
12.416
11.5594
10.7029
9.84626
8.98967
8.13311
7.27662
6.42021
5.56389
4.70768
3.85157
2.99555
2.13962
1.28375
0.427911
12.4161
11.5598
10.7035
9.8471
8.99067
8.13424
7.27781
6.42142
5.56506
4.70876
3.85252
2.99634
2.1402
1.28411
0.428033
12.4162
11.5602
10.7041
9.84789
8.99162
8.1353
7.27894
6.42256
5.56617
4.70978
3.85342
2.99707
2.14075
1.28444
0.428146
12.4163
11.5606
10.7047
9.84868
8.99256
8.13635
7.28005
6.42367
5.56724
4.71077
3.85428
2.99778
2.14127
1.28476
0.428255
12.4165
11.561
10.7053
9.84949
8.99352
8.13741
7.28116
6.42478
5.5683
4.71174
3.85513
2.99847
2.14178
1.28508
0.42836
12.4166
11.5614
10.706
9.85035
8.99453
8.13852
7.28231
6.42592
5.56938
4.71273
3.85598
2.99916
2.14229
1.28539
0.428465
12.4168
11.5618
10.7067
9.85129
8.99563
8.13971
7.28353
6.42713
5.57052
4.71376
3.85686
2.99988