/*--------------------------------*- C++ -*----------------------------------*\
| =========                 |                                                 |
| \\      /  F ield         | OpenFOAM: The Open Source CFD Toolbox           |
|  \\    /   O peration     | Version:  5.x                                   |
|   \\  /    A nd           | Web:      www.OpenFOAM.org                      |
|    \\/     M anipulation  |                                                 |
\*---------------------------------------------------------------------------*/
FoamFile
{
    version     2.0;
    format      ascii;
    class       volScalarField;
    location    "7.6";
    object      gradTy;
}
// * * * * * * * * * * * * * * * * * * * * * * * * * * * * * * * * * * * * * //

dimensions      [0 -1 0 1 0 0 0];

internalField   nonuniform List<scalar> 
6300
(
1235.91
1707.04
2176.12
2641.76
3102.59
3557.22
4004.25
4442.3
4869.99
5285.96
5688.91
6077.63
6451
6808.07
7148.07
1.01611
3.05064
5.09165
7.14187
9.20141
11.2666
13.3283
15.3711
17.3709
19.2946
21.0995
22.7348
24.1435
25.2684
26.0574
1.69091
5.07713
8.4758
11.8927
15.3293
18.7811
22.2349
25.666
29.0357
32.2891
35.354
38.1421
40.5538
42.486
43.8446
2.36124
7.09098
11.8415
16.6233
21.4416
26.2933
31.1635
36.0215
40.8161
45.4714
49.8843
53.9249
57.442
60.2757
62.2762
3.02428
9.08387
15.1755
21.317
27.5199
33.7862
40.1035
46.4395
52.7345
58.8946
64.7853
70.2294
75.0118
78.8965
81.6551
3.67617
11.0444
18.4594
25.9487
33.534
41.227
49.0238
56.8971
64.7862
72.5854
80.1311
87.1933
93.4771
98.6407
102.339
4.31205
12.9579
21.6683
30.4836
39.4395
48.5629
57.8661
67.337
76.926
86.5274
95.9574
104.933
113.059
119.847
124.768
4.9261
14.8066
24.7717
34.8772
45.1764
55.7178
66.5389
77.6568
89.051
100.638
112.235
123.517
133.976
142.914
149.513
5.51171
16.5701
27.7342
39.076
50.6698
62.5911
74.913
87.6979
100.98
114.735
128.825
142.921
156.41
168.317
177.347
6.06216
18.2276
30.518
43.0216
55.8343
69.062
82.8217
97.2386
112.434
128.493
145.403
162.928
180.421
196.59
209.375
6.57131
19.7597
33.0877
46.657
60.5822
74.9988
90.0707
105.998
123.019
141.397
161.361
182.961
205.751
228.242
247.243
7.03452
21.1515
35.4155
49.935
64.8369
80.278
96.4614
113.66
132.244
152.71
175.679
201.798
231.373
263.377
293.463
7.44959
22.3959
37.4866
52.8292
68.5506
84.8123
101.834
119.932
139.583
161.515
186.84
217.175
254.557
300.422
351.544
7.81735
23.4952
39.305
55.343
71.7219
88.5839
106.127
124.649
144.636
166.922
192.986
225.499
269.252
332.198
423.283
8.14173
24.4621
40.894
57.5146
74.4079
91.6722
109.436
127.896
147.387
168.547
192.675
222.575
264.742
335.826
485.233
7443.59
7699.84
7943.63
8175.05
8394.33
8601.8
8797.89
8983.12
9158.1
9323.49
9479.99
9628.32
9769.25
9903.53
10031.9
10155.1
10274
10389.1
10501.2
10610.9
10719
10825.9
10932.2
11038.4
11145
11252.4
11360.9
11470.7
11582
11695
11809.6
11926
12043.9
12163.2
12283.9
12405.6
12528.3
12651.5
12775.2
12898.8
13022.2
13145
13266.8
13387.3
13506
13622.6
13736.8
13848.2
13956.5
14061.5
14162.8
14260.3
14353.8
14442.8
14527.3
14606.8
14681.2
14750
14813
14869.9
14920.2
14963.7
14999.9
15028.6
15049.2
15061.4
15064.7
15058.4
15042.1
15015
14976.5
14925.8
14862.1
14784.5
14692.1
14584.1
14459.4
14317.2
14156.3
13975.9
13774.9
13552.4
13307.6
13039.5
12747.5
12431.1
12089.6
11723
11331.2
10914.4
26.4369
26.5079
26.3031
25.831
25.1097
24.1647
23.0268
21.7292
20.3055
18.7877
17.2052
15.5839
13.946
12.3103
10.6922
9.10496
7.55959
6.06611
4.63397
3.27268
1.99226
0.80349
-0.282031
-1.25218
-2.09488
-2.79907
-3.35588
-3.76
-4.01089
-4.11363
-4.07888
-3.92196
-3.66079
-3.31332
-2.89485
-2.41614
-1.88286
-1.29653
-0.656813
0.0356043
0.77624
1.55504
2.35621
3.15979
3.94472
4.69257
5.39083
6.03512
6.62961
7.18587
7.72041
8.25151
8.79602
9.36677
9.97097
10.61
11.2807
11.9776
12.6954
13.432
14.1901
14.9777
15.8076
16.6963
17.6617
18.7211
19.8889
21.175
22.5837
24.114
25.7599
27.5118
29.358
31.2862
33.2838
35.3379
37.4342
39.5553
41.6795
43.7781
45.8149
47.7451
49.5156
51.0672
52.3369
53.2622
53.7859
53.8618
53.4591
52.5665
44.4981
44.6192
44.264
43.4483
42.2053
40.5815
38.632
36.4157
33.9916
31.4151
28.7363
25.9986
23.2389
20.4877
17.7701
15.1068
12.5152
10.0109
7.6088
5.32397
3.17269
1.17291
-0.65563
-2.29176
-3.71389
-4.90162
-5.83804
-6.51235
-6.92242
-7.07665
-6.99441
-6.70436
-6.24057
-5.63713
-4.92252
-4.11556
-3.22417
-2.24735
-1.17989
-0.0186069
1.23185
2.55501
3.92199
5.2947
6.63218
7.8984
9.06914
10.1363
11.1088
12.0097
12.8715
13.7299
14.617
15.5567
16.5613
17.6314
18.7579
19.9273
21.127
22.3505
23.6012
24.8931
26.2501
27.7027
29.2843
31.0271
32.9576
35.0939
37.4436
40.0036
42.7619
45.7002
48.797
52.0308
55.3809
58.8273
62.3487
65.9193
69.5052
73.0611
76.5274
79.8288
82.8745
85.561
87.7768
89.4098
90.3564
90.5316
89.8784
88.3751
63.2394
63.4156
62.8871
61.6802
59.8486
57.4665
54.6203
51.4007
47.8964
44.1893
40.3515
36.4446
32.5193
28.6168
24.77
21.0056
17.3455
13.8091
10.4154
7.18364
4.13575
1.2966
-1.30537
-3.63852
-5.66936
-7.36494
-8.6965
-9.64404
-10.2011
-10.3789
-10.2079
-9.73571
-9.02023
-8.11981
-7.08197
-5.9354
-4.68737
-3.32754
-1.83701
-0.200173
1.58379
3.49286
5.48048
7.48127
9.42321
11.2426
12.8975
14.3748
15.6918
16.8905
18.0285
19.1675
20.3629
21.6538
23.0582
24.5722
26.1741
27.8342
29.5248
31.2304
32.9534
34.7155
36.5555
38.5237
40.6753
43.063
45.7303
48.7058
52.0008
55.6079
59.5049
63.6602
68.0386
72.6076
77.3389
82.2083
87.1919
92.2604
97.3732
102.472
107.476
112.279
116.749
120.731
124.054
126.544
128.036
128.393
127.52
125.38
82.985
83.2234
82.4838
80.8083
78.2813
75.0163
71.1426
66.792
62.0897
57.1479
52.0627
46.9134
41.7634
36.6623
31.6484
26.7512
21.9946
17.3994
12.9859
8.77606
4.79579
1.07639
-2.34449
-5.42285
-8.10978
-10.3546
-12.1101
-13.3401
-14.0281
-14.1856
-13.8574
-13.1194
-12.0684
-10.8026
-9.40026
-7.90367
-6.31395
-4.5984
-2.70736
-0.596207
1.75284
4.31478
7.01711
9.74965
12.3876
14.8208
16.9782
18.8409
20.442
21.8555
23.1804
24.5207
25.9677
27.5839
29.3939
31.3826
33.503
35.6933
37.8973
40.0816
42.2454
44.4218
46.6722
49.0766
51.7223
54.6922
58.0546
61.8536
66.1039
70.79
75.8716
81.294
87.0012
92.9456
99.0929
105.42
111.907
118.532
125.256
132.014
138.709
145.204
151.321
156.843
161.525
165.109
167.344
168.018
166.979
164.166
104.126
104.437
103.425
101.16
97.7736
93.44
88.3488
82.6869
76.625
70.3101
63.8633
57.3804
50.9345
44.5799
38.3563
32.2922
26.4094
20.7263
15.2615
10.0364
5.07879
0.425045
-3.87797
-7.77191
-11.1878
-14.0497
-16.2812
-17.8174
-18.6196
-18.6926
-18.0976
-16.9548
-15.4268
-13.6828
-11.8553
-10.0071
-8.12276
-6.12304
-3.89581
-1.33603
1.61401
4.93312
8.5087
12.1525
15.6452
18.7944
21.4815
23.682
25.4601
26.9463
28.3081
29.7184
31.3265
33.2326
35.4701
38.0008
40.7287
43.5303
46.2957
48.9596
51.5166
54.0189
56.5645
59.2792
62.2992
65.7533
69.7471
74.3482
79.5761
85.3992
91.7436
98.5139
105.618
112.987
120.584
128.395
136.42
144.657
153.083
161.64
170.223
178.667
186.742
194.159
200.572
205.608
208.895
210.102
208.988
205.446
127.153
127.551
126.167
123.121
118.626
112.951
106.374
99.1552
91.522
83.6599
75.7137
67.7918
59.9718
52.3071
44.8325
37.5704
30.5351
23.7378
17.1906
10.9106
4.92349
-0.732005
-6.00104
-10.8097
-15.0641
-18.6526
-21.4537
-23.3517
-24.2615
-24.1616
-23.1269
-21.3451
-19.0962
-16.6837
-14.3403
-12.1628
-10.0982
-7.9758
-5.56362
-2.63837
0.943102
5.18138
9.90114
14.772
19.3962
23.4321
26.6843
29.1302
30.8972
32.2149
33.3645
34.6299
36.2549
38.4026
41.1222
44.3337
47.8462
51.4178
54.8384
57.9898
60.8643
63.5518
66.2112
69.0402
72.2488
76.035
80.5626
85.9377
92.1885
99.2547
107
115.25
123.849
132.699
141.763
151.057
160.625
170.506
180.717
191.226
201.933
212.654
223.108
232.913
241.596
248.621
253.435
255.522
254.488
250.141
152.725
153.227
151.301
147.164
141.176
133.758
125.32
116.219
106.748
97.1304
87.5292
78.0568
68.7863
59.7611
51.0038
42.523
34.3194
26.3907
18.737
11.3649
4.2929
-2.44318
-8.78451
-14.643
-19.8965
-24.3865
-27.9238
-30.306
-31.3542
-30.9737
-29.2289
-26.4051
-22.9985
-19.5821
-16.5838
-14.1529
-12.1544
-10.2431
-7.96755
-4.88294
-0.670902
4.739
11.0785
17.7492
23.9968
29.2008
33.0502
35.5583
36.9832
37.7281
38.2563
39.026
40.4331
42.7514
46.0683
50.2354
54.8807
59.5247
63.7708
67.4204
70.4832
73.1269
75.6152
78.2564
81.3682
85.2507
90.1591
96.2677
103.628
112.134
121.529
131.483
141.722
152.101
162.609
173.326
184.376
195.879
207.921
220.524
233.62
247.024
260.407
273.28
285.003
294.817
301.897
305.432
304.755
299.505
181.777
182.392
179.615
173.867
165.782
156.032
145.215
133.813
122.182
110.575
99.1577
88.03
77.2466
66.829
56.7769
47.0768
37.7081
28.6483
19.8786
11.3881
3.18
-4.72126
-12.2615
-19.3457
-25.8261
-31.4901
-36.0552
-39.1787
-40.5021
-39.7481
-36.8825
-32.3019
-26.9126
-21.8763
-18.0083
-15.5183
-14.0829
-13.033
-11.5348
-8.74938
-4.0082
2.9596
11.7804
21.337
30.1017
36.9211
41.3487
43.5472
44.0493
43.554
42.8013
42.5052
43.2999
45.6633
49.791
55.4496
61.9177
68.2053
73.5628
77.6968
80.706
82.9264
84.7993
86.7951
89.3779
92.9894
98.0272
104.795
113.417
123.732
135.251
147.305
159.391
171.316
183.152
195.115
207.472
220.473
234.314
249.109
264.86
281.42
298.434
315.298
331.155
344.946
355.457
361.402
361.604
355.33
215.734
216.439
212.203
203.93
192.781
179.837
165.949
151.728
137.576
123.741
110.362
97.5016
85.1746
73.3651
62.0382
51.1488
40.6473
30.4843
20.6143
11.0009
1.62191
-7.5224
-16.398
-24.9207
-32.9338
-40.1788
-46.2645
-50.6456
-52.6433
-51.5655
-47.0077
-39.3655
-30.3206
-22.491
-17.4511
-15.368
-15.4591
-16.4713
-16.9589
-15.4354
-10.5553
-1.49183
11.4189
26.0609
39.0035
48.081
52.8524
53.9742
52.5472
49.7455
46.684
44.4082
43.9028
46.029
51.304
59.4924
69.2091
78.2195
85.1107
89.5867
92.0589
93.2199
93.8002
94.4821
95.8994
98.6676
103.397
110.646
120.761
133.589
148.197
163.074
177.282
190.652
203.501
216.327
229.631
243.848
259.322
276.304
294.926
315.151
336.665
358.754
380.267
399.782
415.581
425.625
427.766
420.379
256.996
257.592
250.596
238.124
222.36
204.994
187.159
169.539
152.509
136.249
120.817
106.203
92.3558
79.2047
66.6683
54.6615
43.0989
31.898
20.9808
10.2767
-0.273303
-10.7094
-21.0413
-31.2281
-41.1456
-50.5348
-58.9261
-65.5424
-69.211
-68.3915
-61.5721
-48.4469
-31.9771
-19.0867
-12.6351
-12.0855
-15.5079
-20.6637
-25.2775
-26.9532
-23.1252
-11.4821
8.56522
33.2327
53.4709
65.4416
69.6112
68.0711
63.0244
56.3111
49.4355
43.762
40.7166
41.8608
48.6218
61.3347
77.5171
91.2846
100.136
104.361
105.299
104.349
102.654
101.109
100.475
101.521
105.138
112.368
124.196
140.881
160.752
179.804
196.375
210.736
223.881
236.845
250.472
265.408
282.156
301.129
322.676
347.019
374.061
403.031
432.249
459.961
483.984
501.218
507.637
499.325
310.16
309.67
296.866
277.051
254.236
230.821
208.053
186.494
166.33
147.559
130.092
113.797
98.5324
84.1575
70.5346
57.5332
45.029
32.903
21.0404
9.33078
-2.33186
-14.0455
-25.8923
-37.9218
-50.1164
-62.3255
-74.1415
-84.6814
-92.2389
-93.8548
-85.2145
-62.3425
-28.4776
-6.40945
0.680659
-3.08213
-13.0598
-25.6356
-37.8257
-46.395
-46.9473
-33.5732
-0.941035
46.7827
79.8431
94.0348
94.5913
87.2166
75.9005
63.1099
50.4554
39.3312
31.4973
29.6044
37.3686
58.1802
89.3019
111.428
121.822
123.868
121.256
116.547
111.292
106.423
102.63
100.669
101.675
107.466
120.637
143.582
174.483
200.102
218.649
232.566
244.518
256.402
269.423
284.355
301.777
322.243
346.394
374.994
408.672
446.94
486.388
525.443
562.149
592.373
608.707
601.114
385.874
379.471
353.223
320.289
286.969
255.708
227.201
201.432
178.136
156.989
137.672
119.9
103.424
88.0229
73.5021
59.6857
46.4117
33.5258
20.8776
8.31529
-4.31855
-17.191
-30.4812
-44.3782
-59.0666
-74.6821
-91.1939
-108.114
-123.821
-134.086
-129.35
-92.0676
-7.99183
27.8349
29.623
14.8691
-6.87137
-31.1636
-55.5888
-77.3817
-90.8242
-83.397
-32.181
81.4449
133.383
142.259
130.988
112.034
90.8961
69.7096
49.2683
30.1596
13.72
3.43904
7.32413
40.1758
114.036
148.461
155.522
150.081
140.225
129.53
119.367
110.183
102.141
95.5415
91.3162
91.9332
102.999
134.821
195.812
230.579
247.581
257.218
265.242
274.315
285.612
299.705
317.007
338.037
363.694
395.642
436.662
489.134
541.079
594.293
649.629
703.511
744.215
746.431
515.741
477.834
419.197
364.074
316.726
276.622
242.398
212.802
186.846
163.778
143.023
124.137
106.766
90.6192
75.4539
61.0567
47.2349
33.8065
20.5916
7.40367
-5.96039
-19.7333
-34.1944
-49.6926
-66.6788
-85.7447
-107.654
-133.29
-163.237
-195.912
-220.348
-189.171
81.9741
111.095
82.3863
42.8815
2.99274
-36.4981
-77.1398
-120.39
-164.75
-196.273
-153.289
204.938
248.929
219.492
178.449
139.994
105.961
75.236
46.1627
17.1451
-12.9245
-43.124
-64.4308
-36.8809
195.558
224.895
207.225
182.647
160.403
141.744
126.033
112.297
99.5762
86.9936
73.9843
61.3527
55.4718
84.0543
254.902
286.633
287.113
284.19
284.453
289.02
297.769
310.43
326.862
347.162
371.927
403.219
448.151
532.075
593.932
660.073
739.19
833.607
935.131
996.584
821.211
606.035
480.094
396.651
336.042
289.058
250.924
218.924
191.391
167.228
145.678
126.188
108.339
91.7991
76.2964
61.5965
47.4896
33.778
20.2652
6.74472
-7.01408
-21.2851
-36.4138
-52.8636
-71.295
-92.7114
-118.744
-152.257
-198.719
-269.598
-391.424
-631.824
520.452
277.626
150.693
71.4446
12.2829
-40.1754
-94.9343
-161.796
-257.158
-416.435
-728.343
780.923
470.204
313.431
222.178
161.58
116.26
78.381
42.9747
5.64423
-39.3828
-102.493
-206.539
-408.978
569.541
369.012
268.872
211.848
175.413
149.71
129.849
112.948
96.8082
79.0571
56.1053
21.0486
-41.6856
-171.578
514.315
387.68
331.538
306.566
297.456
297.696
304.283
315.715
331.138
349.849
370.747
391.145
403.477
606.78
640.601
707.147
806.699
953.445
1183.72
1586.94
10428.8
9864.73
9267.78
8639.92
7983.36
7300.55
6594.05
5866.5
5120.57
4358.88
3584.01
2798.47
2004.72
1205.15
402.1
51.0565
48.7663
45.9218
42.6347
39.0254
35.2099
31.2898
27.3466
23.4393
19.6059
15.8649
12.2192
8.65947
5.16709
1.71748
85.8055
81.891
77.0266
71.4147
65.2708
58.7991
52.1755
45.5377
38.9839
32.574
26.3358
20.2701
14.3577
8.56441
2.84624
121.663
115.963
108.876
100.724
91.842
82.5387
73.0737
63.6441
54.3838
45.3704
36.6341
28.1679
19.9369
11.8866
3.94933
159.16
151.416
141.787
130.761
118.83
106.437
93.934
81.5789
69.5354
57.8889
46.662
35.8304
25.3355
15.0955
5.01394
198.936
188.748
176.091
161.697
146.278
130.44
114.643
99.1987
84.2872
69.9857
56.2936
43.1557
30.479
18.1461
6.0249
241.793
228.543
212.127
193.653
174.141
154.399
134.997
116.282
98.4257
81.4702
65.3693
50.0188
35.2781
20.985
6.96449
288.788
271.502
250.219
226.645
202.229
178.017
154.662
132.504
111.66
92.0972
73.6922
56.2704
39.6291
23.551
7.81251
341.371
318.454
290.596
260.473
230.109
200.773
173.127
147.412
123.612
101.563
81.0294
61.7401
43.4158
25.7769
8.54698
401.631
370.333
333.224
294.535
256.952
221.832
189.655
160.401
133.809
109.513
87.1197
66.243
46.5161
27.5931
9.14532
472.724
428.016
377.425
327.482
281.324
239.943
203.252
170.724
141.707
115.557
91.691
69.5943
48.8112
28.9336
9.58632
559.496
491.573
420.97
356.638
300.915
253.358
212.682
177.533
146.733
119.312
94.4908
71.6301
50.1998
29.7431
9.85246
668.772
557.795
458.229
377.174
312.332
259.885
216.578
179.989
148.374
120.467
95.3267
72.2338
50.6133
29.9859
9.93269
804.289
612.591
476.962
381.488
311.344
257.264
213.75
177.468
146.305
118.85
94.113
71.3633
50.0324
29.6541
9.82485
921.706
611.306
455.529
360.462
294.284
244.07
203.685
169.824
140.523
114.511
90.9093
69.0724
48.4979
28.7726
9.5374
8.40766
25.2534
42.1894
59.2718
76.5515
94.0718
111.869
129.979
148.464
167.479
187.448
209.504
236.539
275.854
345.792
8.62586
25.9029
43.253
60.715
78.3104
96.0319
113.825
131.56
148.991
165.689
180.922
193.376
200.143
192.329
134.512
8.82637
26.5012
44.2382
62.0643
79.9803
97.9404
115.819
133.349
150.025
164.912
176.322
181.194
173.869
143.524
69.9001
9.01142
27.0559
45.1608
63.3501
81.6177
99.9036
118.051
135.73
152.298
166.547
176.257
177.479
163.578
124.77
51.2424
9.18129
27.5682
46.0241
64.5802
83.2408
101.961
120.607
138.88
156.18
171.33
182.083
184.262
170.579
130.126
52.6923
9.33414
28.0323
46.8171
65.7366
84.8209
104.068
123.418
142.704
161.551
179.163
193.859
202.057
196.167
161.16
73.5516
9.46615
28.4356
47.5158
66.7773
86.2862
106.101
126.272
146.83
167.776
189.017
210.146
229.629
241.973
228.72
135.725
9.57221
28.7618
48.0877
67.645
87.5371
107.886
128.854
150.684
173.793
198.946
227.572
262.155
305.55
351.653
321.823
9.64684
28.9928
48.4982
68.2788
88.4689
109.239
130.834
153.647
178.388
206.457
240.858
288.556
367.239
527.312
934.175
9.68503
29.1128
48.7169
68.6272
88.996
110.018
131.966
155.27
180.668
209.568
244.906
293.434
372.402
531.579
935.927
9.68303
29.1099
48.7223
68.6561
89.0679
110.15
132.155
155.435
180.514
208.204
239.789
277.167
321.857
365.579
327.769
9.63872
28.9776
48.5038
68.3521
88.6728
109.639
131.455
154.348
178.544
204.131
230.645
255.819
271.977
256.193
148.582
9.55156
28.7149
48.061
67.7188
87.8277
108.538
130.003
152.354
175.605
199.411
222.426
240.727
244.276
210.569
101.027
9.42246
28.3248
47.4008
66.7714
86.5636
106.909
127.935
149.732
172.278
195.238
217.476
235.875
242.443
217.605
117.716
9.25336
27.8135
46.5353
65.5301
84.9138
104.807
125.328
146.587
168.661
191.561
215.19
239.235
262.414
276.755
228.532
9.04698
27.1897
45.4795
64.0175
82.9091
102.266
122.207
142.875
164.467
187.375
212.613
243.191
288.52
379.349
623.259
8.80661
26.4632
44.2505
62.2583
80.5802
99.3165
118.581
138.517
159.356
181.567
206.324
236.899
283.024
375.63
622.017
8.53601
25.6455
42.8678
60.28
77.962
95.999
114.485
133.532
153.29
173.987
195.991
219.804
245.245
265.112
224.797
8.23928
24.749
41.3525
58.1133
75.0961
92.368
109.997
128.05
146.57
165.497
184.399
201.576
211.332
196.383
111.795
7.92078
23.787
39.7274
55.7913
72.0283
88.4872
105.214
122.243
139.564
157.022
174.001
188.5
194.571
176.013
95.3197
7.58502
22.7733
38.0159
53.3484
68.8052
84.4188
100.219
116.23
132.46
148.877
165.323
181.273
194.91
198.79
155.194
7.23651
21.7214
36.2414
50.8184
65.472
80.2194
95.0762
110.063
125.226
140.709
156.988
175.649
202.021
254.533
400.34
6.87965
20.6448
34.4268
48.2343
62.0727
75.9428
89.8418
103.772
117.766
131.985
146.996
164.668
190.975
245.485
396.514
6.51863
19.5562
32.5938
45.6281
58.6505
71.6447
84.5846
97.4337
110.15
122.708
135.156
147.686
160.342
169.407
142.027
6.15727
18.4673
30.7627
43.0294
55.2469
67.3832
79.3893
91.1864
102.642
113.507
123.255
130.616
132.2
118.635
65.7843
5.79895
17.3884
28.951
40.4643
51.8986
63.2111
74.3377
85.1753
95.5416
105.079
113.011
117.556
114.575
95.1438
44.2056
5.44645
16.3277
27.1729
37.9536
48.634
59.1669
69.4856
79.49
89.0161
97.7631
105.118
109.72
108.373
93.5306
48.6491
5.10194
15.292
25.4393
35.5118
45.4712
55.2705
64.8505
74.1358
83.03
91.4125
99.1367
106.012
111.543
112.776
89.4923
4.76696
14.2856
23.7573
33.148
42.4187
51.5254
60.4191
69.0518
77.398
85.5175
93.7432
103.235
117.694
149.046
238.46
4.44254
13.3115
22.1313
30.8668
39.4795
47.9275
56.1678
64.1658
71.9221
79.5475
87.4687
97.0086
112.113
144.993
236.928
4.12923
12.3713
20.5635
28.6705
36.6541
44.473
52.0839
59.4466
66.5359
73.3707
80.0689
86.9158
94.1876
99.9259
84.519
3.82726
11.4655
19.0545
26.5593
33.9423
41.162
48.1716
54.9162
61.3254
67.2874
72.5646
76.5264
77.3254
69.5418
38.7973
3.5365
10.5938
17.6035
24.5321
31.3433
37.9963
44.4423
50.6178
56.4245
61.6784
65.9726
68.3323
66.422
55.1018
25.6098
3.25657
9.75494
16.2086
22.5861
28.8537
34.9734
40.9001
46.5744
51.9066
56.7349
60.7228
63.1023
62.0522
53.2802
27.5104
2.98684
8.94696
14.8661
20.7159
26.4662
32.084
37.5323
42.7678
47.7375
52.374
56.5889
60.2529
63.0437
63.2619
49.7238
2.72644
8.16724
13.5715
18.9144
24.1701
29.3115
34.3115
39.1448
43.7988
48.3049
52.8364
58.0089
65.8206
82.7954
131.596
2.47439
7.41265
12.3193
17.1731
21.9526
26.6367
31.2055
35.6455
39.962
44.2169
48.6377
53.931
62.233
80.2265
130.633
2.22957
6.67981
11.1034
15.4829
19.8009
24.0411
28.1883
32.2312
36.1668
40.0128
43.8321
47.7626
51.914
55.147
46.6138
1.99086
5.96528
9.91793
13.8348
17.7027
21.5093
25.2428
28.8905
32.4329
35.8261
38.9483
41.4396
42.2318
38.2373
21.4094
1.75716
5.26566
8.75692
12.2203
15.6465
19.0275
22.356
25.6219
28.8016
31.8267
34.5013
36.2954
35.8727
30.2389
14.2538
1.52744
4.5778
7.61491
10.6312
13.6211
16.5814
19.5117
22.4123
25.2767
28.0694
30.6647
32.6894
33.1312
29.4279
15.7938
1.30081
3.89892
6.48699
9.06001
11.6156
14.1555
16.6873
19.2268
21.8004
24.4479
27.2231
30.1813
33.2669
35.5123
29.801
1.07653
3.22678
5.36917
7.50037
9.6203
11.7343
13.8565
16.0165
18.2717
20.7366
23.653
27.5832
33.9847
47.1204
81.231
0.854124
2.55989
4.25874
5.94803
7.62846
9.3065
10.9985
12.7389
14.5963
16.7103
19.3773
23.2675
30.024
44.1602
80.0784
0.633367
1.89755
3.15454
4.40127
5.63755
6.86812
8.10602
9.37893
10.7413
12.2984
14.2508
16.9595
20.9365
26.0713
25.9976
0.414301
1.23994
2.05705
2.86118
3.64985
4.4237
5.18811
5.95561
6.74979
7.61058
8.59746
9.76901
11.0432
11.5976
7.97185
0.197206
0.588
0.968143
1.3312
1.67163
1.98487
2.26688
2.51246
2.71058
2.83358
2.81414
2.50542
1.64806
0.0250573
-1.5006
-0.0174693
-0.0568244
-0.109366
-0.183723
-0.288563
-0.433332
-0.630254
-0.899107
-1.27796
-1.84618
-2.77011
-4.37905
-7.21736
-11.6168
-14.1176
-0.229174
-0.692785
-1.17221
-1.67817
-2.22192
-2.8164
-3.47872
-4.23575
-5.13664
-6.2807
-7.88054
-10.4119
-15.0009
-24.5793
-48.081
-0.437324
-1.31807
-2.21716
-3.14709
-4.12099
-5.15353
-6.26275
-7.474
-8.8282
-10.4006
-12.3461
-15.0183
-19.3219
-27.876
-49.3869
-0.641348
-1.93093
-3.24124
-4.58626
-5.98035
-7.43862
-8.97736
-10.6146
-12.37
-14.2636
-16.3091
-18.494
-20.6938
-22.1779
-18.467
-0.840699
-2.52975
-4.24179
-5.99216
-7.79622
-9.66913
-11.6251
-13.6748
-15.8179
-18.0232
-20.1776
-21.9618
-22.5652
-20.0899
-10.6206
-1.03485
-3.11297
-5.21632
-7.36164
-9.56539
-11.8434
-14.2094
-16.6719
-19.2245
-21.8205
-24.3057
-26.2519
-26.5772
-22.8611
-10.95
-1.22328
-3.67903
-6.16235
-8.69145
-11.2842
-13.9579
-16.7284
-19.6084
-22.6033
-25.697
-28.8108
-31.6704
-33.3985
-31.3254
-18.2173
-1.40545
-4.22635
-7.07726
-9.97799
-12.9481
-16.0068
-19.1731
-22.4674
-25.9157
-29.5624
-33.4951
-37.8779
-42.8626
-47.4558
-41.6851
-1.5808
-4.75326
-7.95826
-11.2173
-14.5518
-17.9825
-21.5309
-25.2215
-29.093
-33.2319
-37.8699
-43.6711
-52.6025
-70.7876
-119.045
-1.74875
-5.258
-8.80244
-12.4054
-16.0899
-19.8783
-23.7919
-27.8522
-32.0874
-36.5578
-41.4401
-47.2945
-55.9208
-73.242
-119.984
-1.90871
-5.73876
-9.60675
-13.538
-17.5574
-21.6889
-25.9532
-30.3638
-34.9211
-39.601
-44.339
-48.9969
-53.2058
-55.2716
-44.7544
-2.06004
-6.19364
-10.3679
-14.6104
-18.9486
-23.4093
-28.0149
-32.7762
-37.6726
-42.6072
-47.2972
-51.0151
-51.9834
-46.044
-24.3836
-2.20214
-6.62074
-11.0826
-15.6175
-20.2564
-25.0309
-29.971
-35.0973
-40.4006
-45.7866
-50.9343
-54.9467
-55.5623
-47.7374
-22.8391
-2.33447
-7.01832
-11.7474
-16.5536
-21.4716
-26.5396
-31.8002
-37.2984
-43.0743
-49.135
-55.3639
-61.2413
-65.0067
-61.2911
-35.7269
-2.45663
-7.385
-12.3595
-17.4134
-22.5843
-27.9168
-33.4668
-39.3094
-45.5536
-52.3704
-60.0416
-69.0072
-79.6511
-90.0218
-80.485
-2.56846
-7.7202
-12.9173
-18.1932
-23.5865
-29.145
-34.9327
-41.0446
-47.6388
-55.0164
-63.8245
-75.6129
-94.4909
-132.583
-230.41
-2.67016
-8.02442
-13.4214
-18.8929
-24.4757
-30.2161
-36.1762
-42.4478
-49.1835
-56.6732
-65.5424
-77.3007
-95.994
-133.671
-230.821
-2.76235
-8.29949
-13.8748
-19.5165
-25.2573
-31.137
-37.2061
-43.5316
-50.208
-57.3764
-65.2585
-74.1781
-84.3202
-93.4684
-81.818
-2.84608
-8.54861
-14.283
-20.0727
-25.9443
-31.9287
-38.0606
-44.375
-50.8944
-57.5884
-64.259
-70.2118
-73.3427
-67.7154
-38.3661
-2.92277
-8.77617
-14.6537
-20.5733
-26.5548
-32.6203
-38.7912
-45.0793
-51.463
-57.8209
-63.7627
-68.2103
-68.4524
-58.4408
-27.8215
-2.99417
-8.9875
-14.9963
-21.0323
-27.1089
-33.2412
-39.443
-45.7206
-52.0533
-58.3464
-64.3086
-69.1343
-70.688
-63.4816
-34.6565
-3.06228
-9.18865
-15.3209
-21.4643
-27.6262
-33.816
-40.0452
-46.3268
-52.6748
-59.1062
-65.6484
-72.3362
-79.0123
-83.5403
-69.6111
-3.12932
-9.38627
-15.6387
-21.8849
-28.1259
-34.3656
-40.6137
-46.8902
-53.2423
-59.7936
-66.8919
-75.5521
-88.8347
-116.423
-191.581
-3.19769
-9.58759
-15.9616
-22.3106
-28.6283
-34.9118
-41.1651
-47.4042
-53.6751
-60.1056
-67.0556
-75.564
-88.7295
-116.282
-191.513
-3.27002
-9.80048
-16.3027
-22.7595
-29.156
-35.4814
-41.729
-47.8991
-54.0009
-60.0614
-66.1419
-72.3478
-78.6401
-83.0419
-69.362
-3.34916
-10.0335
-16.6762
-23.2513
-29.7351
-36.107
-42.3496
-48.4443
-54.3588
-60.0077
-65.1462
-69.077
-69.8699
-62.365
-34.0537
-3.43819
-10.2958
-17.0975
-23.8078
-30.3934
-36.8247
-43.0754
-49.1178
-54.9044
-60.3127
-64.9939
-67.9906
-66.8677
-56.1422
-26.3845
-3.54038
-10.5973
-17.5832
-24.4519
-31.1604
-37.6698
-43.9484
-49.9719
-55.7162
-61.1266
-66.0158
-69.77
-70.5392
-63.1408
-34.6975
-3.65923
-10.9486
-18.1507
-25.2085
-32.0669
-38.677
-45.0009
-51.0226
-56.7632
-62.3062
-67.8303
-73.6276
-79.888
-84.7592
-71.4521
-3.79843
-11.3607
-18.8192
-26.1043
-33.1473
-39.8845
-46.2653
-52.2709
-57.9507
-63.5026
-69.4591
-77.1692
-90.208
-119.009
-198.211
-3.9617
-11.8453
-19.6087
-27.1691
-34.4413
-41.3409
-47.7922
-53.7476
-59.2297
-64.4218
-69.8742
-77.0157
-89.5892
-118.267
-197.858
-4.15268
-12.4136
-20.5396
-28.4346
-35.9951
-43.1101
-49.665
-55.5548
-60.7123
-65.1634
-69.12
-73.0948
-77.7933
-82.1796
-70.1723
-4.37454
-13.0759
-21.6311
-29.9329
-37.8592
-45.2693
-52.001
-57.872
-62.6875
-66.2509
-68.3566
-68.6753
-66.2195
-57.4828
-31.6158
-4.62956
-13.8398
-22.899
-31.6922
-40.0824
-47.9006
-54.9357
-60.9233
-65.5338
-68.3528
-68.8367
-66.1853
-59.011
-44.6859
-19.0092
-4.91855
-14.7085
-24.3517
-33.7317
-42.7032
-51.0762
-58.5984
-64.9319
-69.6249
-72.0774
-71.4958
-66.8381
-56.7706
-39.7741
-14.9743
-5.24027
-15.6792
-25.987
-36.055
-45.7396
-54.8429
-63.087
-70.0799
-75.2726
-77.9097
-76.9861
-71.2489
-59.3429
-40.2823
-14.5153
-5.59087
-16.7408
-27.7888
-38.6444
-49.1795
-59.2061
-68.4442
-76.4777
-82.6947
-86.2147
-85.8189
-79.944
-66.8838
-45.448
-16.323
-5.96351
-17.873
-29.724
-41.4559
-52.9722
-64.1164
-74.6372
-84.1359
-91.989
-97.2382
-98.4555
-93.6282
-80.2404
-55.9531
-20.5757
-6.34823
-19.0457
-31.7414
-44.4167
-57.0228
-69.4588
-81.5388
-92.9355
-103.09
-111.06
-115.288
-113.256
-101.165
-74.1586
-28.8376
-6.73211
-20.2193
-33.7726
-47.425
-61.1904
-75.0474
-88.9133
-102.596
-115.704
-127.479
-136.464
-139.866
-132.444
-105.081
-45.6785
-7.09991
-21.3468
-35.7342
-50.354
-65.2932
-80.6283
-96.4132
-112.652
-129.241
-145.833
-161.512
-173.989
-177.566
-158.249
-84.7098
-7.43491
-22.3761
-37.5339
-53.0602
-69.1196
-85.8949
-103.595
-122.462
-142.773
-164.816
-188.78
-214.288
-238.583
-249.062
-190.323
-7.72019
-23.2548
-39.0769
-55.3952
-72.4472
-90.517
-109.964
-131.265
-155.096
-182.462
-214.971
-255.419
-309.188
-387.933
-519.477
650.168
485.157
385.41
316.826
265.109
223.629
188.916
158.947
132.432
108.489
86.4762
65.9026
46.372
27.5495
9.13821
237.632
309.886
295.301
263.502
230.468
199.735
171.788
146.372
123.081
101.519
81.3332
62.2152
43.8927
26.1205
8.67129
104.962
194.914
217.14
211.03
194.226
173.901
152.901
132.319
112.527
93.5916
75.4473
57.9743
41.0307
24.4666
8.13024
55.605
126.971
158.654
165.979
160.426
148.534
133.72
117.715
101.377
85.1131
69.0938
53.3648
37.9044
22.6542
7.53639
33.9161
86.5826
117.08
129.869
131.026
125.193
115.363
103.34
90.1737
76.463
62.5374
48.5679
34.6316
20.7496
6.91113
22.7584
61.588
87.8
101.833
106.479
104.625
98.5268
89.7559
79.3469
67.9609
56.0104
43.7472
31.3205
18.8144
6.2745
16.2442
45.3545
66.9764
80.315
86.4424
87.0021
83.5453
77.308
69.1973
59.8495
49.6995
39.0395
28.0639
16.9024
5.64409
12.0757
34.3204
51.9038
63.8033
70.2709
72.167
70.4932
66.1598
59.9054
52.2941
43.7419
34.5502
24.9359
15.0573
5.03435
9.23115
26.5226
40.7775
51.0626
57.2729
59.8095
59.2867
56.3443
51.5547
45.3911
38.2278
30.3538
21.991
13.3121
4.45633
7.19952
20.8331
32.4071
41.1508
46.825
49.5755
49.7594
47.8105
44.1572
39.1816
33.2065
26.4962
19.2653
11.6896
3.91774
5.69934
16.5734
26.0017
33.3697
38.4066
41.123
41.7122
40.4594
37.677
33.6656
28.6952
22.9997
16.7786
10.2031
3.42326
4.56341
13.3173
21.0266
27.2067
31.5988
34.147
34.9434
34.1699
32.0497
28.815
24.687
19.8678
14.5379
8.85825
2.97502
3.68639
10.7863
17.1131
22.2849
26.071
28.3868
29.2642
28.8149
27.1959
24.584
21.1583
17.0902
12.5397
7.65464
2.57313
2.99878
8.79204
14.0014
18.3249
21.5638
23.625
24.5059
24.2715
23.031
20.9179
18.0753
14.6474
10.7736
6.5873
2.21615
2.45297
7.20303
11.5047
15.1177
17.8739
19.6823
20.5216
20.4265
19.4718
17.7578
15.3986
12.5139
9.22431
5.64822
1.9016
2.01535
5.92527
9.48597
12.5052
14.842
16.4123
17.1858
17.178
16.4395
15.0454
13.0864
10.6615
7.87377
4.82744
1.62632
1.66157
4.88991
7.84309
10.3664
12.3421
13.6952
14.3922
14.4366
13.8622
12.7252
11.0974
9.06069
6.7027
4.11408
1.38678
1.37358
4.04555
6.49861
8.60753
10.2745
11.4335
12.0514
12.1247
11.6753
10.7455
9.39221
7.68287
5.69166
3.49693
1.17933
1.13776
3.35315
5.39298
7.15547
8.55929
9.5475
10.0886
10.1754
9.82189
9.05967
7.9341
6.50063
4.82185
2.96504
1.00038
0.943676
2.7826
4.47984
5.95235
7.13257
7.97174
8.44117
8.53173
8.25207
7.626
6.68964
5.48862
4.07557
2.50797
0.846485
0.783201
2.3104
3.72268
4.95209
5.94255
6.65259
7.05664
7.14497
6.92264
6.40764
5.62883
4.62375
3.43652
2.11605
0.714434
0.649938
1.91795
3.09243
4.11767
4.94715
5.54579
5.8912
5.97381
5.7963
5.37234
4.72504
3.88527
2.88993
1.78045
0.601289
0.538789
1.59041
2.56575
3.4191
4.11193
4.61474
4.90813
4.98316
4.84098
4.49201
3.95481
3.25472
2.42255
1.49318
0.504392
0.445654
1.3158
2.12372
2.83192
3.40858
3.82899
4.07658
4.14322
4.02914
3.7423
3.2976
2.71583
2.02259
1.24715
0.421368
0.367202
1.08438
1.75088
2.33603
2.81364
3.16316
3.37057
3.42868
3.33716
3.1021
2.73548
2.25428
1.67967
1.03605
0.350102
0.300697
0.888136
1.43447
1.91475
2.30755
2.59593
2.76814
2.81796
2.74475
2.55319
2.25284
1.85753
1.38463
0.854303
0.288729
0.243874
0.720402
1.16387
1.55416
1.87391
2.10929
2.2506
2.29257
2.23443
2.07973
1.83607
1.51459
1.12941
0.697009
0.235598
0.19483
0.575599
0.930149
1.24249
1.49877
1.68788
1.80196
1.83661
1.79106
1.66796
1.47328
1.21583
0.906924
0.559833
0.189253