/*--------------------------------*- C++ -*----------------------------------*\
| =========                 |                                                 |
| \\      /  F ield         | OpenFOAM: The Open Source CFD Toolbox           |
|  \\    /   O peration     | Version:  5.x                                   |
|   \\  /    A nd           | Web:      www.OpenFOAM.org                      |
|    \\/     M anipulation  |                                                 |
\*---------------------------------------------------------------------------*/
FoamFile
{
    version     2.0;
    format      ascii;
    class       volScalarField;
    location    "10";
    object      gradTy;
}
// * * * * * * * * * * * * * * * * * * * * * * * * * * * * * * * * * * * * * //

dimensions      [0 -1 0 1 0 0 0];

internalField   nonuniform List<scalar> 
6300
(
1089.53
1268.33
1446.34
1623.03
1797.87
1970.34
2139.89
2306.01
2468.18
2625.88
2778.64
2926
3067.55
3202.94
3331.89
0.388812
1.16695
1.94646
2.72772
3.51014
4.2918
5.0689
5.83523
6.58164
7.29568
7.9615
8.56021
9.07095
9.47267
9.74644
0.647422
1.94333
3.24211
4.5448
5.85096
7.15793
8.45998
9.74733
11.0052
12.2128
13.3434
14.3644
15.239
15.9295
16.4015
0.904951
2.71671
4.5337
6.35823
8.19073
10.0287
11.8654
13.6886
15.4784
17.2065
18.8344
20.3142
21.5903
22.6039
23.3005
1.16059
3.48476
5.81755
8.16342
10.5247
12.9002
15.284
17.6625
20.0128
22.2995
24.4727
26.4668
28.2028
29.5942
30.5575
1.41318
4.24405
7.08809
9.95288
12.8439
15.7631
18.707
21.6639
24.6099
27.5051
30.2888
32.8762
35.1588
37.0113
38.3073
1.6612
4.98997
8.33757
11.7157
15.1343
18.6006
22.1164
25.6751
29.2566
32.8209
36.2997
39.5886
42.5429
44.9827
46.7149
1.90281
5.71687
9.55621
13.4375
17.3766
21.3878
25.4819
29.6622
33.9192
38.2206
42.4987
46.6337
50.4392
53.6594
55.9938
2.13589
6.41824
10.7325
15.1008
19.5459
24.0913
28.7599
33.5714
38.5356
43.6418
48.8386
54.0058
58.9185
63.2193
66.4327
2.3583
7.08739
11.8545
16.6867
21.614
26.6704
31.8938
37.326
43.0083
48.97
55.2055
61.6297
68.0068
73.8636
78.4425
2.56814
7.71825
12.9107
18.1767
23.5523
29.0811
34.8173
40.8289
47.1992
54.022
61.3813
69.2978
77.6125
85.7826
92.6347
2.76405
8.30647
13.8929
19.5564
25.3364
31.2831
37.4637
43.9711
50.9354
58.5348
66.9971
76.5648
87.3593
99.0158
109.939
2.94553
8.85036
14.7974
20.8187
26.9526
33.2497
39.7813
46.6543
54.0342
62.1821
71.5044
82.6017
96.2401
112.977
131.652
3.11315
9.35162
15.6273
21.9674
28.4044
34.9802
41.7558
48.8282
56.3624
64.6522
74.2338
86.0934
102.018
124.994
158.415
3.26847
9.81532
16.3919
23.0184
29.716
36.5092
43.4315
50.538
57.9324
65.8277
74.6817
85.516
100.738
126.561
181.431
3444.03
3541.32
3633.93
3721.93
3805.39
3884.45
3959.28
4030.09
4097.12
4160.62
4220.87
4278.15
4332.76
4384.98
4435.12
4483.47
4530.32
4575.94
4620.62
4664.61
4708.17
4751.52
4794.9
4838.5
4882.5
4927.07
4972.32
5018.38
5065.3
5113.15
5161.94
5211.65
5262.27
5313.73
5365.97
5418.9
5472.44
5526.46
5580.84
5635.46
5690.17
5744.81
5799.2
5853.19
5906.59
5959.23
6010.95
6061.59
6111.02
6159.1
6205.71
6250.72
6294.03
6335.49
6375
6412.41
6447.57
6480.34
6510.56
6538.08
6562.73
6584.34
6602.76
6617.8
6629.27
6636.99
6640.71
6640.21
6635.2
6625.4
6610.5
6590.14
6563.96
6531.58
6492.6
6446.6
6393.17
6331.86
6262.25
6183.88
6096.33
5999.17
5892.01
5774.47
5646.23
5507.04
5356.69
5195.08
5022.19
4838.12
9.86704
9.87315
9.77522
9.57658
9.28408
8.90734
8.45785
7.948
7.39032
6.79672
6.17811
5.54412
4.90299
4.26171
3.62609
3.00105
2.39084
1.79935
1.23033
0.687639
0.175398
-0.30188
-0.739306
-1.13172
-1.47393
-1.76113
-1.98936
-2.15608
-2.26067
-2.30477
-2.29226
-2.22885
-2.1213
-1.97628
-1.79935
-1.59418
-1.36241
-1.10409
-0.818758
-0.506644
-0.169921
0.186578
0.55534
0.926958
1.29157
1.64055
1.96809
2.27212
2.55455
2.82067
3.07802
3.33488
3.5988
3.87536
4.16748
4.47527
4.79672
5.1287
5.46836
5.81431
6.16749
6.53147
6.91224
7.31747
7.75561
8.2348
8.76185
9.34142
9.97564
10.664
11.4036
12.1901
13.0181
13.882
14.7762
15.695
16.6322
17.5805
18.5303
19.4691
20.3809
21.2457
22.0398
22.7365
23.3076
23.7248
23.9625
24
23.8234
23.4278
16.61
16.6208
16.4521
16.1101
15.6073
14.9611
14.1921
13.3224
12.3739
11.3672
10.3208
9.25098
8.17133
7.09322
6.026
4.97745
3.95424
2.96242
2.00789
1.0968
0.235869
-0.567398
-1.30467
-1.96694
-2.54496
-3.0299
-3.41431
-3.69314
-3.86486
-3.93218
-3.90223
-3.78585
-3.59599
-3.34548
-3.04473
-2.70015
-2.3137
-1.88389
-1.40788
-0.884189
-0.315271
0.290842
0.920382
1.5554
2.17674
2.76761
3.31677
3.82046
4.28276
4.71433
5.13007
5.54616
5.97714
6.43344
6.92003
7.43619
7.97681
8.5346
9.10283
9.67787
10.2608
10.8579
11.4802
12.1422
12.8595
13.6473
14.5182
15.4808
16.5386
17.6902
18.93
20.2493
21.6383
23.0871
24.5864
26.1276
27.7016
29.2974
30.9004
32.4909
34.0424
35.5216
36.8876
38.094
39.0906
39.8268
40.2561
40.3404
40.0541
39.3876
23.6095
23.6265
23.3782
22.8747
22.1364
21.191
20.0708
18.8098
17.4408
15.9942
14.4969
12.9717
11.4373
9.90896
8.39903
6.91744
5.47258
4.072
2.72317
1.43406
0.213674
-0.927534
-1.97756
-2.92297
-3.74947
-4.44289
-4.99069
-5.38382
-5.61874
-5.69901
-5.63601
-5.44802
-5.15739
-4.78637
-4.3526
-3.86579
-3.32685
-2.72966
-2.06512
-1.32635
-0.513701
0.361832
1.27798
2.20398
3.10621
3.95514
4.73129
5.42876
6.05555
6.63109
7.18188
7.73627
8.31924
8.94816
9.63021
10.3621
11.1324
11.9257
12.7277
13.5302
14.3338
15.1481
15.9913
16.8872
17.8617
18.94
20.1425
21.4829
22.9663
24.5894
26.3416
28.2079
30.172
32.2189
34.3358
36.5125
38.739
41.0031
43.2877
45.5676
47.8072
49.9591
51.9641
53.7524
55.2471
56.3694
57.0452
57.213
56.8306
55.8817
30.9873
31.0124
30.6698
29.9756
28.9617
27.6705
26.1504
24.4504
22.6171
20.6922
18.7111
16.7034
14.6923
12.6963
10.7294
8.80278
6.92543
5.10544
3.35089
1.67082
0.0760044
-1.42039
-2.80247
-4.05157
-5.14691
-6.06684
-6.79104
-7.30359
-7.59654
-7.67339
-7.55107
-7.25927
-6.83585
-6.31899
-5.73824
-5.10795
-4.42534
-3.67392
-2.83084
-1.87655
-0.804394
0.37255
1.61954
2.88486
4.1105
5.24546
6.25705
7.13675
7.90001
8.5813
9.22628
9.88293
10.5928
11.384
12.2662
13.2304
14.2525
15.3015
16.3492
17.3786
18.3885
19.394
20.4239
21.516
22.7119
24.0508
25.5652
27.276
29.1899
31.2996
33.5857
36.0224
38.5833
41.2462
43.9957
46.8221
49.7184
52.6755
55.6779
58.6983
61.694
64.6041
67.3484
69.8292
71.9353
73.5502
74.5615
74.8734
74.4189
73.1702
38.8902
38.9263
38.4658
37.5351
36.1843
34.4781
32.4873
30.2814
27.9238
25.4691
22.9621
20.4382
17.9241
15.4401
13.0004
10.6158
8.2945
6.04352
3.87034
1.78387
-0.204235
-2.07865
-3.81955
-5.40225
-6.79755
-7.97319
-8.89669
-9.54006
-9.88604
-9.93504
-9.71068
-9.26056
-8.6494
-7.94417
-7.19584
-6.42605
-5.62361
-4.75088
-3.75741
-2.59729
-1.24685
0.281438
1.93364
3.62176
5.24416
6.71219
7.97146
9.0111
9.86116
10.5824
11.2525
11.9514
12.7478
13.687
14.7823
16.0134
17.332
18.6774
19.9953
21.2533
22.4476
23.6027
24.7647
25.9935
27.3538
28.9069
30.7029
32.774
35.1291
37.753
40.6103
43.6554
46.8445
50.1457
53.5417
57.0279
60.6066
64.2792
68.0384
71.8606
75.7001
79.4836
83.108
86.4409
89.3265
91.5956
93.0803
93.6328
93.1459
91.5724
47.5018
47.5529
46.9364
45.6975
43.9167
41.6936
39.1321
36.3292
33.369
30.3202
27.2363
24.1573
21.1117
18.1187
15.1911
12.3369
9.56144
6.86893
4.26433
1.75483
-0.648568
-2.92948
-5.06467
-7.02291
-8.76459
-10.2426
-11.4057
-12.2048
-12.6031
-12.5903
-12.1954
-11.4938
-10.5985
-9.63151
-8.68444
-7.79132
-6.92327
-6.00193
-4.92419
-3.59234
-1.94573
0.0114802
2.19551
4.45268
6.59944
8.47879
10.0014
11.1576
12.007
12.6564
13.2363
13.8787
14.6965
15.7641
17.1021
18.6693
20.3718
22.0917
23.7265
25.2181
26.5619
27.8
29.0081
30.2803
31.7166
33.4114
35.4428
37.8611
40.6794
43.8684
47.3624
51.0785
54.9422
58.9063
62.955
67.0977
71.3569
75.7554
80.3048
84.9948
89.7833
94.5886
99.2833
103.693
107.602
110.766
112.937
113.885
113.434
111.5
57.0679
57.1384
56.3015
54.6384
52.2841
49.395
46.1236
42.603
38.9414
35.2217
31.5038
27.829
24.2239
20.7039
17.2769
13.9457
10.7099
7.5689
4.52269
1.57443
-1.26774
-3.9885
-6.56283
-8.95359
-11.1094
-12.9636
-14.437
-15.4444
-15.9103
-15.7938
-15.1197
-14.0038
-12.6488
-11.2882
-10.0934
-9.11854
-8.29775
-7.47635
-6.45502
-5.03877
-3.09002
-0.58326
2.35382
5.44428
8.3414
10.7607
12.5603
13.7475
14.4422
14.8318
15.1317
15.5553
16.2869
17.4535
19.0932
21.1318
23.3881
25.6299
27.6651
29.3971
30.8295
32.042
33.1603
34.3318
35.7082
37.4326
39.6267
42.3734
45.6966
49.5451
53.7954
58.2895
62.8957
67.5451
72.233
76.9997
81.9061
87.0138
92.3684
97.9861
103.841
109.852
115.868
121.664
126.946
131.367
134.555
136.149
135.855
133.514
67.9359
68.0281
66.8543
64.5726
61.4197
57.6453
53.4719
49.078
44.5963
40.1196
35.7086
31.4001
27.2133
23.1553
19.2252
15.4171
11.7227
8.13301
4.64081
1.24225
-2.06066
-5.25714
-8.32401
-11.2212
-13.8867
-16.2316
-18.1377
-19.4619
-20.0543
-19.7985
-18.6783
-16.8564
-14.7058
-12.7044
-11.1841
-10.2223
-9.6716
-9.23724
-8.55321
-7.25068
-5.03654
-1.79641
2.29244
6.71543
10.7725
13.9359
16.0022
17.0473
17.3178
17.1372
16.8498
16.7889
17.2518
18.4624
20.5108
23.2815
26.4258
29.4662
32.0409
34.0081
35.4142
36.4198
37.2363
38.0887
39.1988
40.7777
43.0151
46.0555
49.9574
54.6429
59.8771
65.3386
70.7861
76.1275
81.3967
86.699
92.164
97.915
104.051
110.634
117.673
125.105
132.766
140.374
147.527
153.739
158.464
161.129
161.219
158.412
80.6362
80.7379
78.9997
75.7586
71.4474
66.4671
61.1346
55.676
50.2404
44.9191
39.7623
34.7925
30.0139
25.4195
20.9949
16.7223
12.582
8.55445
4.62194
0.770311
-3.00869
-6.71411
-10.3311
-13.824
-17.1271
-20.1325
-22.6773
-24.5344
-25.421
-25.0488
-23.2487
-20.1833
-16.549
-13.4293
-11.472
-10.7357
-10.8794
-11.3592
-11.5437
-10.7772
-8.46246
-4.23381
1.74762
8.51111
14.4878
18.6882
20.9116
21.4599
20.8398
19.5934
18.2387
17.2651
17.1368
18.2617
20.8846
24.8898
29.6098
33.9691
37.2879
39.423
40.5716
41.066
41.2566
41.4701
42.0099
43.1702
45.2423
48.4923
53.085
58.9457
65.6263
72.4024
78.8235
84.8081
90.5066
96.1576
102.003
108.255
115.083
122.617
130.931
140.018
149.733
159.731
169.454
178.244
185.328
189.809
190.744
187.423
96.0583
96.0931
93.3048
88.4812
82.4343
75.7927
68.9763
62.2385
55.7181
49.4801
43.5454
37.9082
32.5485
27.4381
22.5453
17.8366
13.2787
8.83899
4.48675
0.194108
-4.06218
-8.29782
-12.516
-16.699
-20.7949
-24.6956
-28.2059
-31.0027
-32.5988
-32.3539
-29.6396
-24.3283
-17.6499
-12.4795
-10.0008
-9.98123
-11.6022
-13.9059
-15.9027
-16.532
-14.6436
-9.19447
0.0771556
11.44
20.7608
26.287
28.2325
27.5546
25.2632
22.2053
19.0787
16.5239
15.2171
15.9039
19.2679
25.4687
33.3124
39.9698
44.2384
46.2573
46.6699
46.1487
45.2428
44.3806
43.9267
44.2488
45.7724
48.9945
54.3854
62.0662
71.2358
79.9753
87.4871
93.8978
99.6818
105.333
111.255
117.76
125.096
133.472
143.072
154.023
166.288
179.475
192.721
205.197
215.936
223.588
226.391
222.624
115.907
115.509
110.536
102.961
94.2737
85.3664
76.7013
68.4853
60.7866
53.6029
46.8984
40.6233
34.723
29.143
23.8301
18.7337
13.8052
8.99785
4.26621
-0.433763
-5.14454
-9.90561
-14.7502
-19.6982
-24.7421
-29.819
-34.7599
-39.1982
-42.4254
-43.2126
-39.768
-30.4404
-16.5776
-7.65269
-4.98743
-6.86312
-11.341
-16.8931
-22.2293
-25.9111
-25.9505
-19.6583
-4.60383
17.3098
32.4981
39.0417
39.3312
35.9725
30.7902
24.916
19.0957
13.9859
10.427
9.69165
13.5663
23.6818
38.7231
49.41
54.4277
55.4041
54.1123
51.7848
49.1654
46.7026
44.7258
43.5965
43.856
46.3732
52.3874
63.0416
77.4631
89.3142
97.7339
103.888
109.046
114.114
119.664
126.067
133.606
142.559
153.263
166.132
181.511
199.129
217.091
234.642
250.981
264.344
271.489
267.986
144.135
141.507
131.51
119.036
106.426
94.5874
83.7757
73.9834
65.1099
57.032
49.63
42.7958
36.434
30.4607
24.8011
19.3873
14.1558
9.04633
3.99899
-1.04697
-6.15514
-11.3936
-16.8357
-22.5595
-28.6414
-35.138
-42.0369
-49.1366
-55.7644
-60.1644
-58.367
-43.0827
-8.39487
6.18747
6.56429
0.00150155
-9.5331
-20.1913
-30.9384
-40.535
-46.375
-42.7402
-19.1629
32.8625
56.6813
60.7998
55.6808
47.0142
37.3114
27.5472
18.0875
9.213
1.56958
-3.16062
-1.12363
14.7996
50.4015
67.0107
70.4332
67.814
63.0427
57.838
52.8596
48.3216
44.3015
40.9414
38.6857
38.7132
43.7044
58.5882
87.3874
103.59
111.239
115.305
118.535
122.195
126.838
132.733
140.074
149.117
160.331
174.617
193.5
218.279
242.041
265.824
290.3
314.041
331.908
332.682
192.481
178.109
156.045
135.303
117.463
102.325
89.3786
78.1552
68.2849
59.4858
51.5423
44.2865
37.5844
31.3259
25.4178
19.7777
14.3308
9.00541
3.73011
-1.57001
-6.97736
-12.5871
-18.5144
-24.9035
-31.9417
-39.8753
-49.0225
-59.752
-72.3083
-86.0372
-96.384
-83.6639
28.7408
40.4838
28.1093
11.146
-6.1064
-23.3601
-41.3024
-60.5663
-80.4405
-94.5369
-74.6854
89.0319
109.232
95.8581
77.1372
59.5469
43.9204
29.7397
16.2369
2.66789
-11.482
-25.7566
-35.8088
-22.4194
89.4282
103.599
95.1368
83.321
72.5958
63.5639
55.9188
49.1938
42.9264
36.6952
30.2274
23.9052
20.7752
34.0955
115.449
130.179
129.898
127.924
127.402
128.854
132.207
137.314
144.085
152.542
162.973
176.474
196.995
238.884
266.954
295.997
330.669
372.185
416.931
443.929
306.11
225.779
178.668
147.382
124.604
106.901
92.496
80.3746
69.914
60.7045
52.4616
44.9774
38.0939
31.685
25.6468
19.8889
14.3298
8.89168
3.4965
-1.93883
-7.50804
-13.3233
-19.5273
-26.3119
-33.9515
-42.8636
-53.7274
-67.7346
-87.1609
-116.777
-167.613
-267.787
210.827
109.507
56.2606
22.7058
-2.6779
-25.5366
-49.7619
-79.7164
-122.823
-195.215
-337.372
351.863
210.123
138.613
96.9621
69.2492
48.4451
30.9548
14.4805
-3.04101
-24.3539
-54.4319
-104.249
-201.417
269.106
172.773
124.666
97.2539
79.7074
67.2899
57.6506
49.405
41.4972
32.7883
21.558
4.49924
-25.8432
-88.3662
239.443
178.379
150.989
138.448
133.419
132.771
135.045
139.494
145.659
153.121
161.187
168.215
169.709
279.381
290.455
318.052
361.167
425.662
527.494
706.301
4623.54
4374.07
4109.91
3831.92
3541.09
3238.52
2925.35
2602.77
2271.96
1934.1
1590.35
1241.82
889.615
534.805
178.441
22.7564
21.7367
20.4693
19.0043
17.3955
15.6947
13.9472
12.1894
10.4477
8.73881
7.07125
5.44625
3.85958
2.30299
0.765479
38.2449
36.5017
34.3342
31.833
29.0943
26.2094
23.2567
20.2978
17.3762
14.5189
11.7382
9.03456
6.39929
3.81715
1.26856
54.2279
51.689
48.531
44.8974
40.9379
36.7906
32.5714
28.368
24.2402
20.2224
16.3282
12.5546
8.88587
5.29778
1.76019
70.9425
67.492
63.2004
58.2851
52.9667
47.4418
41.8685
36.3612
30.9929
25.8016
20.7975
15.9695
11.2919
6.72792
2.23464
88.6734
84.1324
78.4899
72.0727
65.199
58.1388
51.0973
44.2131
37.5668
31.1925
25.0897
19.234
13.584
8.0874
2.68517
107.779
101.871
94.5512
86.3141
77.6151
68.8149
60.1664
51.8249
43.8665
36.3097
29.1337
22.2922
15.7225
9.35242
3.10385
128.732
121.02
111.528
101.016
90.1304
79.3375
68.9275
59.052
49.7624
41.044
32.8417
25.0775
17.661
10.4957
3.48169
152.176
141.947
129.519
116.087
102.551
89.4747
77.1527
65.6923
55.0859
45.2605
36.1099
27.5138
19.3478
11.4872
3.80887
179.036
165.062
148.508
131.257
114.504
98.8524
84.5125
71.4764
59.6268
48.8005
38.8219
29.5191
20.7285
12.296
4.07533
210.713
190.752
168.188
145.924
125.353
106.913
90.5643
76.071
63.1419
51.4905
40.8567
31.0109
21.7501
12.8928
4.27164
249.353
219.041
187.564
158.894
134.067
112.879
94.7575
79.0987
65.3769
53.1608
42.1018
31.9162
22.3676
13.2528
4.39001
297.965
248.484
204.122
168.015
139.134
115.774
96.4846
80.1868
66.1037
53.6715
42.4717
32.1834
22.5506
13.3602
4.42551
358.172
272.8
212.414
169.906
138.675
114.594
95.2159
79.0572
65.1771
52.9477
41.9283
31.7936
22.2905
13.2116
4.37721
410.185
272.122
202.819
160.514
131.059
108.706
90.7243
75.6464
62.5972
51.0115
40.4986
30.7711
21.6055
12.8181
4.24888
3.40233
10.2148
17.0499
23.9203
30.8349
37.7975
44.8056
51.8521
58.9333
66.0735
73.3911
81.2646
90.7372
104.518
129.464
3.51795
10.5602
17.6201
24.7048
31.8129
38.9297
46.0187
53.0094
59.7795
66.1265
71.7228
76.0104
77.8381
73.854
50.9007
3.62908
10.8931
18.1728
25.4722
32.7838
40.08
47.2986
54.3185
60.9176
66.6988
70.9603
72.4617
68.9735
56.3607
27.0915
3.73606
11.2148
18.7113
26.2304
33.7644
41.2828
48.7148
55.9183
62.6222
68.3244
72.112
72.376
66.443
50.4328
20.5823
3.83839
11.5238
19.2335
26.9775
34.7548
42.5442
50.2883
57.8632
65.0206
71.2773
75.7085
76.5919
70.9078
54.1148
21.9295
3.93463
11.8158
19.7314
27.7007
35.7356
43.8357
51.9778
60.0963
68.0425
75.4954
81.7667
85.3661
83.0851
68.4842
31.3827
4.02255
12.0835
20.1916
28.3774
36.6701
45.0968
53.6822
62.4476
71.4046
80.5313
89.6787
98.2208
103.815
98.4768
58.6571
4.09939
12.3181
20.5973
28.9791
37.5103
46.246
55.2601
64.6641
74.6466
85.55
98.009
113.119
132.135
152.412
139.746
4.16229
12.5106
20.9311
29.4763
38.2071
47.2005
56.5657
66.4774
77.247
89.4853
104.496
125.301
159.576
229.219
406.125
4.20866
12.6526
21.1778
29.8439
38.7204
47.895
57.4899
67.693
78.8253
91.4925
106.956
128.124
162.452
231.531
407.058
4.23645
12.7378
21.3261
30.0646
39.0254
48.2962
57.99
68.2615
79.3357
91.5548
105.452
121.804
141.191
159.914
142.886
4.24438
12.7624
21.3697
30.13
39.114
48.4022
58.0869
68.2705
79.0487
90.4489
102.24
113.372
120.387
113.12
65.336
4.23184
12.7248
21.3065
30.0393
38.9903
48.2312
57.8355
67.8647
78.3276
89.0691
99.4816
107.797
109.497
94.4606
45.345
4.19888
12.6252
21.1377
29.7963
38.6642
47.8065
57.2873
67.1556
77.4107
87.9151
98.1767
106.813
110.227
99.4637
54.224
4.14602
12.4653
20.8668
29.4073
38.1462
47.1455
56.4684
66.1758
76.3186
86.927
97.9975
109.453
120.799
128.406
106.996
4.07415
12.248
20.4988
28.8797
37.4464
46.2583
55.3809
64.8917
74.9007
85.6155
97.5482
112.165
133.963
177.495
293.502
3.98447
11.9768
20.0398
28.2222
36.5752
45.1541
54.0222
63.2599
72.9906
83.4556
95.2322
109.888
132.031
176.249
293.117
3.87842
11.6563
19.4975
27.4455
35.546
43.8477
52.4053
61.2839
70.5686
80.3825
90.914
102.408
114.766
124.545
105.901
3.7577
11.2914
18.8804
26.5622
34.3759
42.3622
50.5639
59.0243
67.777
76.8085
85.9249
94.3245
99.2892
92.5771
52.8191
3.62415
10.8879
18.1983
25.5866
33.0849
40.7258
48.5414
56.5598
64.7901
73.1732
81.4312
88.6236
91.9183
83.5547
45.486
3.47976
10.4518
17.4616
24.534
31.6941
38.9667
46.3765
53.9467
61.6953
69.6228
77.6752
85.6271
92.6407
95.1585
74.8901
3.32656
9.98931
16.6808
23.4198
30.2241
37.1113
44.0989
51.208
58.4743
65.9835
73.9868
83.2795
96.4824
122.583
194.231
3.16658
9.50656
15.8667
22.2595
28.6958
35.1851
41.7356
48.3587
55.0829
61.9993
69.4008
78.2141
91.3643
118.376
192.447
3.00178
9.00955
15.0295
21.0682
27.13
33.2154
39.3207
45.4378
51.5566
57.6762
63.8325
70.1347
76.6178
81.4836
68.7437
2.83397
8.50383
14.1788
19.8605
25.5468
31.2308
36.8966
42.5145
48.0282
53.3258
58.1611
61.9276
62.9922
56.8157
31.6688
2.66477
7.99432
13.3232
18.6488
23.9646
29.2578
34.5047
39.6623
44.6485
49.2949
53.2302
55.595
54.3934
45.32
21.1143
2.4955
7.48503
12.4695
17.4434
22.3974
27.316
32.1738
36.9281
41.5035
45.7563
49.3885
51.7375
51.2594
44.3314
23.0751
2.32717
6.97904
11.6229
16.2514
20.8541
25.4155
29.9137
34.317
38.5814
42.6472
46.4363
49.8417
52.603
53.2916
42.3226
2.1605
6.47843
10.7866
15.0769
19.3387
23.5583
27.7186
31.8013
35.7961
39.7289
43.7493
48.3916
55.3845
70.3457
112.733
1.99592
5.98441
9.96243
13.9217
17.8522
21.7416
25.5765
29.3458
33.0526
36.7486
40.6292
45.3075
52.6307
68.3519
111.981
1.83362
5.4975
9.15099
12.7861
16.3935
19.9621
23.4793
26.9328
30.3158
33.6388
36.954
40.3852
44.0435
46.9757
39.8841
1.67361
5.01767
8.35203
11.6694
14.9614
18.2177
21.4255
24.568
27.6198
30.5334
33.197
35.3041
35.959
32.559
18.2562
1.51574
4.54443
7.56462
10.5701
13.5536
16.5063
19.4164
22.2655
25.019
27.6007
29.8255
31.2304
30.6893
25.7127
12.0511
1.35975
4.07698
6.78725
9.48563
12.1667
14.824
17.4491
20.0286
22.5366
24.915
27.0223
28.5072
28.4988
24.8967
13.096
1.20532
3.61423
6.01793
8.41296
10.7959
13.1636
15.5128
17.8407
20.1437
22.4167
24.6504
26.8202
28.8032
29.7733
24.1346
1.05207
3.15501
5.25446
7.34841
9.43548
11.5155
13.591
15.6695
17.7708
19.9449
22.3223
25.2619
29.8099
39.2383
64.777
0.899612
2.69813
4.49465
6.2884
8.0796
9.87036
11.6666
13.4819
15.3469
17.3314
19.603
22.5859
27.4266
37.5144
64.1267
0.747625
2.24254
3.73664
5.22998
6.72374
8.22105
9.72858
11.2595
12.8394
14.5178
16.3892
18.619
21.3986
24.3139
22.0262
0.595848
1.78747
2.97904
4.1711
5.36518
6.56435
7.77398
9.00274
10.2632
11.5698
12.926
14.2696
15.2756
14.7258
8.92814
0.444107
1.33238
2.221
3.11069
4.00291
4.90013
5.80581
6.72366
7.6545
8.58684
9.47105
10.1543
10.2323
8.78165
4.20381
0.292308
0.877024
1.46217
2.04842
2.63703
3.22985
3.82897
4.4353
5.04451
5.63699
6.15529
6.45895
6.25021
5.00879
2.13886
0.140431
0.421343
0.702508
0.984443
1.26813
1.55507
1.84697
2.14477
2.44594
2.73841
2.98832
3.11909
2.98493
2.36656
1.05139
-0.011483
-0.0345269
-0.0577068
-0.0807889
-0.103071
-0.123229
-0.139213
-0.148211
-0.146734
-0.130808
-0.0960579
-0.0370306
0.0556582
0.207919
0.510651
-0.163343
-0.490302
-0.817992
-1.14659
-1.47577
-1.80445
-2.13026
-2.44848
-2.74948
-3.01318
-3.19736
-3.21668
-2.91518
-2.05553
-0.387149
-0.315007
-0.945557
-1.57763
-2.21195
-2.84878
-3.48763
-4.12655
-4.76064
-5.37808
-5.95077
-6.41311
-6.61915
-6.27373
-4.88087
-1.94055
-0.466289
-1.39972
-2.33566
-3.27551
-4.22034
-5.17067
-6.1261
-7.08423
-8.03761
-8.96488
-9.80673
-10.4045
-10.3596
-8.78087
-4.14741
-0.616962
-1.85212
-3.09089
-4.33551
-5.58796
-6.85004
-8.1236
-9.41092
-10.715
-12.0381
-13.3696
-14.6358
-15.5105
-14.802
-8.89681
-0.766763
-2.30193
-3.84198
-5.38995
-6.94873
-8.52125
-10.1113
-11.7257
-13.379
-15.1051
-16.9775
-19.1385
-21.7603
-24.4316
-21.9018
-0.915397
-2.7483
-4.58743
-6.43671
-8.29973
-10.18
-12.0819
-14.013
-15.9921
-18.0698
-20.3846
-23.3207
-27.9749
-37.6724
-63.5684
-1.06254
-3.19025
-5.32571
-7.47372
-9.63849
-11.8235
-14.0317
-16.2665
-18.5364
-20.8695
-23.3595
-26.3092
-30.6863
-39.663
-64.3265
-1.20783
-3.62671
-6.05511
-8.49886
-10.9629
-13.4505
-15.9625
-18.4951
-21.0361
-23.5594
-26.0145
-28.3054
-30.2025
-30.7588
-24.3732
-1.35084
-4.05645
-6.77367
-9.50967
-12.2705
-15.0602
-17.8787
-20.7171
-23.5474
-26.296
-28.7827
-30.5743
-30.6487
-26.6742
-13.8361
-1.49108
-4.47799
-7.47898
-10.5029
-13.5577
-16.6494
-19.7803
-22.9442
-26.1146
-29.2136
-32.0326
-34.0346
-33.9057
-28.7441
-13.6001
-1.62798
-4.88961
-8.16811
-11.4744
-14.8188
-18.2109
-21.6584
-25.1661
-28.7306
-32.3248
-35.8488
-38.9735
-40.6566
-37.7453
-21.7361
-1.76091
-5.28936
-8.83769
-12.419
-16.0464
-19.7332
-23.494
-27.3477
-31.3249
-35.4835
-39.9412
-44.9121
-50.5965
-55.841
-48.9428
-1.88916
-5.67514
-9.48407
-13.3313
-17.2323
-21.2034
-25.2642
-29.4428
-33.7921
-38.4335
-43.6758
-50.3537
-60.8403
-82.3673
-139.333
-2.01204
-6.0448
-10.1036
-14.2057
-18.3688
-22.6108
-26.9518
-31.4183
-36.0555
-40.9649
-46.4119
-53.1488
-63.4149
-84.2805
-140.068
-2.12884
-6.39622
-10.6926
-15.0375
-19.4498
-23.9486
-28.5514
-33.2741
-38.1287
-43.1215
-48.2509
-53.4912
-58.6267
-61.9398
-51.346
-2.23885
-6.72726
-11.2478
-15.8218
-20.4703
-25.2132
-30.0668
-35.0373
-40.1047
-45.1819
-50.011
-53.9046
-55.1022
-49.2545
-26.5798
-2.34136
-7.03579
-11.7654
-16.5538
-21.4245
-26.4002
-31.5
-36.732
-42.0726
-47.4129
-52.4193
-56.1885
-56.4685
-48.2529
-22.9827
-2.43567
-7.31968
-12.2418
-17.2281
-22.3051
-27.5001
-32.8404
-38.3499
-44.0392
-49.8743
-55.6849
-60.8936
-63.7326
-59.0931
-33.7566
-2.5211
-7.57684
-12.6734
-17.8389
-23.103
-28.4983
-34.0622
-39.8418
-45.9032
-52.3512
-59.3666
-67.2423
-76.1881
-84.3043
-73.8187
-2.59707
-7.80541
-13.0566
-18.3806
-23.8091
-29.3784
-35.1331
-41.1367
-47.497
-54.4322
-62.449
-72.8454
-89.2171
-122.431
-209.123
-2.66311
-8.00396
-13.389
-18.849
-24.4166
-30.1286
-36.0299
-42.1826
-48.6901
-55.7601
-63.8771
-74.2966
-90.5475
-123.415
-209.5
-2.7189
-8.17155
-13.669
-19.242
-24.923
-30.7465
-36.7509
-42.9806
-49.491
-56.3592
-63.7039
-71.6959
-80.3355
-87.4406
-75.0508
-2.76431
-8.30778
-13.896
-19.5595
-25.3295
-31.2377
-37.3143
-43.5824
-50.0418
-56.6252
-63.0792
-68.643
-71.1863
-65.001
-36.233
-2.79932
-8.41268
-14.0703
-19.8023
-25.6392
-31.6108
-37.7433
-44.0497
-50.5048
-56.9793
-63.0706
-67.6854
-68.0964
-58.2416
-27.7598
-2.82404
-8.48655
-14.1926
-19.9717
-25.8544
-31.8711
-38.0503
-44.4123
-50.9527
-57.5976
-64.0852
-69.645
-72.1331
-65.8045
-36.673
-2.83864
-8.52994
-14.2635
-20.0686
-25.9757
-32.0175
-38.229
-44.6496
-51.3262
-58.323
-65.7419
-73.7353
-82.29
-89.2006
-76.2893
-2.84344
-8.54368
-14.2844
-20.0939
-26.0027
-32.0448
-38.2612
-44.7075
-51.4755
-58.7533
-66.9974
-77.4331
-93.5857
-126.359
-212.894
-2.83886
-8.52904
-14.257
-20.0496
-25.9361
-31.95
-38.1325
-44.5406
-51.269
-58.5105
-66.7286
-77.1582
-93.3362
-126.177
-212.826
-2.82554
-8.48786
-14.1844
-19.9395
-25.7802
-31.737
-37.8458
-44.1498
-50.7043
-57.5875
-64.9219
-72.8886
-81.5118
-88.6255
-76.0684
-2.80434
-8.42268
-14.0705
-19.7692
-25.5426
-31.4174
-37.4223
-43.5835
-49.9096
-56.3491
-62.6736
-68.1606
-70.7328
-64.7307
-36.2387
-2.77634
-8.33675
-13.9209
-19.5464
-25.2337
-31.0062
-36.8888
-42.9011
-49.0344
-55.1884
-61.0048
-65.4543
-65.9057
-56.4515
-26.9531
-2.74289
-8.23407
-13.7421
-19.2801
-24.8649
-30.5174
-36.264
-42.1332
-48.1431
-54.2604
-60.283
-65.5222
-67.955
-62.0898
-34.6164
-2.70561
-8.11947
-13.5419
-18.9808
-24.448
-29.9622
-35.5526
-41.266
-47.1756
-53.396
-60.1031
-67.5364
-75.7644
-82.7315
-71.278
-2.6664
-7.99866
-13.3298
-18.6611
-23.9978
-29.3529
-34.7547
-40.2611
-45.9906
-52.1917
-59.4169
-68.9962
-84.4467
-116.162
-198.98
-2.62749
-7.87837
-13.1172
-18.337
-23.5339
-28.7102
-33.8828
-39.1
-44.4765
-50.2741
-57.094
-66.376
-81.8309
-114.1
-198.16
-2.59136
-7.76622
-12.9173
-18.0283
-23.0834
-28.0689
-32.9789
-37.8269
-42.6684
-47.6447
-53.0592
-59.4667
-67.5355
-76.0668
-68.5421
-2.56061
-7.67034
-12.7448
-17.7579
-22.6804
-27.4789
-32.117
-36.5571
-40.7651
-44.7094
-48.3328
-51.4014
-52.9166
-49.1809
-28.8928
-2.53778
-7.59873
-12.6144
-17.5499
-22.3627
-26.9995
-31.3913
-35.4474
-39.0436
-41.9953
-43.9899
-44.4132
-41.942
-33.788
-15.2825
-2.52502
-7.55832
-12.5394
-17.4264
-22.1666
-26.6892
-30.8976
-34.6558
-37.7683
-39.9444
-40.7365
-39.4336
-34.9122
-25.5825
-10.0462
-2.52381
-7.55395
-12.5292
-17.4045
-22.1207
-26.5962
-30.7154
-34.3115
-37.1419
-38.8532
-38.9366
-36.6876
-31.2202
-21.6862
-7.97341
-2.53466
-7.58747
-12.5881
-17.4925
-22.2413
-26.7499
-30.8956
-34.4978
-37.2914
-38.8909
-38.7552
-36.1751
-30.3514
-20.691
-7.45179
-2.5569
-7.657
-12.7134
-17.6882
-22.5279
-27.1547
-31.4521
-35.2447
-38.2687
-40.1324
-40.2701
-37.9138
-32.1459
-22.1803
-8.08576
-2.58857
-7.75662
-12.8952
-17.977
-22.9616
-27.7874
-32.3583
-36.5242
-40.0507
-42.571
-43.5156
-42.0206
-36.8545
-26.5363
-10.1618
-2.6265
-7.8765
-13.116
-18.3327
-23.505
-28.5963
-33.5445
-38.2466
-42.5302
-46.1026
-48.4539
-48.6755
-45.1396
-35.0973
-14.9801
-2.66644
-8.00347
-13.3523
-18.7186
-24.1041
-29.5036
-34.9005
-40.2583
-45.5022
-50.4805
-54.8697
-57.9382
-57.9418
-50.6534
-26.6335
-2.70342
-8.12203
-13.5762
-19.0909
-24.6927
-30.4117
-36.2826
-42.3476
-48.6573
-55.266
-62.2009
-69.3277
-75.8062
-77.8265
-58.597
-2.73218
-8.21569
-13.7578
-19.4021
-25.1993
-31.2132
-37.5287
-44.2655
-51.6032
-59.8236
-69.3971
-81.1646
-96.7649
-119.754
-158.59
289.241
215.92
171.573
141.067
118.055
99.5934
84.1402
70.7965
58.9892
48.3259
38.5214
29.3572
20.6573
12.2725
4.07082
105.729
137.919
131.455
117.319
102.624
88.9475
76.5079
65.1922
54.8211
45.2188
36.2285
27.7131
19.5518
11.6353
3.86261
46.7081
86.7547
96.6629
93.9554
86.4836
77.44
68.0929
58.9302
50.1177
41.6854
33.6047
25.8225
18.2758
10.8979
3.62138
24.7478
56.5178
70.6289
73.8977
71.4318
66.1413
59.5481
52.4232
45.149
37.9067
30.7728
23.7678
16.8821
10.0899
3.35663
15.0966
38.5423
52.1222
57.8202
58.3396
55.7455
51.3708
46.0186
40.1568
34.0517
27.8505
21.6295
15.4231
9.24082
3.07787
10.1308
27.4169
39.0877
45.3375
47.408
46.5846
43.871
39.9666
35.3323
30.2626
24.9413
19.4806
13.947
8.37806
2.79404
7.23122
20.1903
29.8166
35.7559
38.4849
38.7351
37.1969
34.4203
30.8093
26.6474
22.1282
17.3819
12.4951
7.52556
2.51295
5.37538
15.2775
23.1051
28.4026
31.2822
32.1266
31.3816
29.4525
26.6681
23.2796
19.4723
15.3803
11.1003
6.70278
2.24105
4.10871
11.805
18.1499
22.7278
25.4919
26.6208
26.3878
25.0778
22.9456
20.202
17.0136
13.5089
9.78694
5.9244
1.98323
3.20382
9.27078
14.4212
18.3119
20.8366
22.06
22.1412
21.2734
19.6472
17.4328
14.7739
11.7881
8.57091
5.20049
1.74292
2.53542
7.37279
11.5669
14.8442
17.0842
18.2918
18.5531
17.995
16.7567
14.9719
12.7609
10.2277
7.46105
4.53697
1.52219
2.02908
5.92134
9.34894
12.0963
14.0484
15.1804
15.5334
15.1886
14.2452
12.8066
10.9713
8.82918
6.46032
3.93631
1.32198
1.6379
4.79238
7.60312
9.90034
11.5816
12.6094
12.9981
12.7973
12.0773
10.9165
9.3946
7.58782
5.56717
3.39826
1.14231
1.33092
3.90201
6.2137
8.13186
9.56833
10.4819
10.8716
10.7664
10.215
9.27681
8.01543
6.4948
4.77682
2.92056
0.982537
1.08694
3.19164
5.09739
6.69764
7.91791
8.71793
9.08846
9.04511
8.62119
7.86129
6.81608
5.53866
4.08236
2.49957
0.841515
0.890946
2.61935
4.1931
5.52712
6.55911
7.25197
7.59252
7.58782
7.26042
6.6437
5.7778
4.7066
3.47562
2.13078
0.717815
0.732076
2.15437
3.45517
4.56619
5.43565
6.03048
6.33614
6.35442
6.10038
5.59896
4.88192
3.98536
2.94786
1.80924
0.609835
0.602255
1.77371
2.84893
3.7729
4.50274
5.00964
5.27914
5.30997
5.11198
4.70381
4.11058
3.3619
2.49024
1.52985
0.515914
0.49537
1.45984
2.34763
3.11434
3.72454
4.15352
4.38776
4.42427
4.26938
3.93704
3.44709
2.82373
2.09417
1.2876
0.434403
0.406713
1.19919
1.93036
2.56437
3.07207
3.43254
3.63355
3.67137
3.54991
3.2796
2.87614
2.35924
1.75153
1.0777
0.36372
0.332597
0.981066
1.58052
2.10204
2.52178
2.8222
2.99259
3.02898
2.9337
2.71455
2.3839
1.95773
1.45476
0.895651
0.302373
0.270087
0.796954
1.28477
1.71033
2.05427
2.30209
2.44459
2.47794
2.40342
2.22685
1.95792
1.60951
1.19693
0.737304
0.248982
0.216811
0.639937
1.03223
1.37524
1.65346
1.85506
1.97232
2.00175
1.94395
1.80322
1.58709
1.30581
0.971738
0.598866
0.20228
0.170818
0.504315
0.813879
1.08512
1.30582
1.46654
1.56098
1.58609
1.54202
1.43189
1.26146
1.03872
0.773465
0.476878
0.161111
0.130471
0.385299
0.622123
0.830057
0.999787
1.12401
1.19775
1.21842
1.18592
1.10241
0.972131
0.80113
0.596928
0.368196
0.124421
0.0943687
0.278774
0.450411
0.601504
0.725329
0.816525
0.871319
0.887654
0.865212
0.805367
0.71105
0.586573
0.437409
0.26995
0.0912473
0.0612716
0.18111
0.292954