/*--------------------------------*- C++ -*----------------------------------*\
| =========                 |                                                 |
| \\      /  F ield         | OpenFOAM: The Open Source CFD Toolbox           |
|  \\    /   O peration     | Version:  5.x                                   |
|   \\  /    A nd           | Web:      www.OpenFOAM.org                      |
|    \\/     M anipulation  |                                                 |
\*---------------------------------------------------------------------------*/
FoamFile
{
    version     2.0;
    format      ascii;
    class       volScalarField;
    location    "10";
    object      gradTx;
}
// * * * * * * * * * * * * * * * * * * * * * * * * * * * * * * * * * * * * * //

dimensions      [0 -1 0 1 0 0 0];

internalField   nonuniform List<scalar> 
6300
(
178.672
178.145
177.09
175.506
173.393
170.75
167.582
163.892
159.693
155.003
149.849
144.271
138.32
132.063
125.578
179.191
178.664
177.61
176.027
173.913
171.269
168.094
164.394
160.177
155.459
150.266
144.636
138.62
132.285
125.711
180.228
179.702
178.65
177.069
174.957
172.309
169.125
165.405
161.154
156.383
151.113
145.38
139.233
132.739
125.984
181.782
181.259
180.211
178.636
176.526
173.878
170.684
166.939
162.642
157.797
152.418
146.531
140.185
133.447
126.411
183.849
183.331
182.292
180.726
178.627
175.984
172.785
169.018
164.672
159.739
154.221
148.136
141.522
134.449
127.017
186.427
185.916
184.89
183.343
181.263
178.637
175.446
171.668
167.279
162.257
156.585
150.262
143.313
135.802
127.843
189.507
189.006
188.001
186.482
184.437
181.847
178.686
174.921
170.513
165.417
159.592
153.006
145.657
137.597
128.949
193.078
192.592
191.616
190.139
188.148
185.619
182.521
178.808
174.425
169.3
163.352
156.505
148.707
139.974
130.434
197.126
196.659
195.721
194.303
192.388
189.952
186.96
183.358
179.071
173.997
168.005
160.946
152.683
143.152
132.455
201.632
201.189
200.298
198.953
197.139
194.833
192.001
188.584
184.496
179.603
173.716
166.585
157.92
147.488
135.287
206.572
206.156
205.321
204.062
202.371
200.232
197.616
194.473
190.715
186.194
180.665
173.748
164.917
153.588
139.427
211.919
211.531
210.757
209.594
208.043
206.098
203.748
200.966
197.689
193.785
188.992
182.816
174.405
162.511
145.874
217.643
217.284
216.57
215.506
214.098
212.359
210.304
207.944
205.279
202.256
198.695
194.11
187.368
176.168
156.861
223.715
223.383
222.725
221.75
220.474
218.927
217.153
215.219
213.216
211.255
209.412
207.552
204.78
197.922
178.166
230.107
229.799
229.186
228.283
227.111
225.711
224.152
222.551
221.103
220.127
220.136
221.894
226.269
232.565
227.445
119.514
113.959
108.425
102.969
97.6441
92.4992
87.5776
82.9164
78.5459
74.4897
70.765
67.3836
64.3521
61.6729
59.345
57.364
55.7231
54.4132
53.4228
52.7384
52.3443
52.2221
52.351
52.7074
53.265
53.9946
54.865
55.843
56.8947
57.9868
59.0871
60.166
61.1973
62.1581
63.0288
63.7922
64.4327
64.9352
65.2848
65.467
65.4681
65.2762
64.8831
64.2849
63.4825
62.4818
61.2924
59.9258
58.3936
56.7059
54.8691
52.886
50.755
48.4714
46.0279
43.4166
40.6298
37.6609
34.5048
31.1572
27.6138
23.8692
19.9152
15.7403
11.3285
6.65963
1.70955
-3.54892
-9.14475
-15.1074
-21.4655
-28.2457
-35.4723
-43.1664
-51.3463
-60.0267
-69.2192
-78.9312
-89.1653
-99.9177
-111.177
-122.92
-135.115
-147.713
-160.651
-173.853
-187.226
-200.667
-214.06
-227.289
119.559
113.923
108.308
102.776
97.3804
92.1731
87.1985
82.494
78.0897
74.0087
70.2674
66.8765
63.8416
61.1643
58.8425
56.8715
55.2439
53.9505
52.9797
52.3181
51.9503
51.8581
52.021
52.4154
53.0148
53.7896
54.7076
55.7342
56.8343
57.9724
59.1152
60.232
61.2961
62.2852
63.1806
63.9666
64.6286
65.1525
65.5232
65.7252
65.7431
65.5633
65.1759
64.5761
63.7654
62.751
61.545
60.1616
58.6153
56.9181
55.0776
53.0967
50.9728
48.6995
46.2677
43.6675
40.8902
37.9289
34.779
31.4377
27.9024
24.1696
20.2326
16.0806
11.6982
7.06423
2.15346
-3.06308
-8.6163
-14.5375
-20.8568
-27.6019
-34.7977
-42.4654
-50.6235
-59.2871
-68.4684
-78.1763
-88.4154
-99.1844
-110.474
-122.266
-134.529
-147.216
-160.266
-173.6
-187.123
-200.726
-214.29
-227.688
119.653
113.848
108.069
102.38
96.8411
91.5077
86.4264
81.6354
77.1644
73.035
69.2619
65.8534
62.8132
60.1406
57.8322
55.8817
54.2811
53.0206
52.0887
51.4725
51.1569
51.1244
51.3552
51.8259
52.5097
53.3761
54.391
55.5174
56.7163
57.9489
59.1782
60.3711
61.5004
62.5445
63.4874
64.3166
65.0208
65.5876
66.0018
66.2457
66.2999
66.1465
65.7716
65.1683
64.3388
63.2936
62.0503
60.6295
59.0519
57.334
55.4862
53.5109
51.4036
49.1538
46.7478
44.1717
41.4139
38.4669
35.3275
31.9961
28.4744
24.7629
20.8584
16.7523
12.4293
7.86712
3.03749
-2.09237
-7.5577
-13.3938
-19.6341
-26.3083
-33.442
-41.0568
-49.1707
-57.7995
-66.9565
-76.6535
-86.8989
-97.6969
-109.045
-120.93
-133.326
-146.191
-159.465
-173.067
-186.896
-200.834
-214.747
-228.496
119.8
113.733
107.696
101.762
96.0015
90.4749
85.2321
80.3122
75.7434
71.545
67.7279
64.2971
61.2523
58.5899
56.3036
54.3854
52.8259
51.6149
50.7409
50.1917
49.9532
50.0095
50.3415
50.9271
51.7393
52.7464
53.9117
55.1936
56.5474
57.9276
59.2908
60.5995
61.8246
62.9467
63.955
64.8438
65.6081
66.2395
66.7229
67.0363
67.1531
67.0461
66.6933
66.0837
65.22
64.1191
62.8084
61.3208
59.688
57.9348
56.0758
54.1132
52.0375
49.8309
47.471
44.9357
42.2083
39.2801
36.151
32.8272
29.3185
25.6329
21.7737
17.7357
13.5043
9.05471
4.35367
-0.638585
-5.96494
-11.6678
-17.7859
-24.352
-31.3924
-38.9277
-46.9748
-55.5488
-64.6647
-74.3378
-84.5833
-95.414
-106.837
-118.852
-131.442
-144.573
-158.187
-172.201
-186.506
-200.968
-215.433
-229.735
120.01
113.571
107.167
100.89
94.8206
89.029
83.5689
78.4793
73.7857
69.5024
65.6348
62.1818
59.1379
56.4948
54.2424
52.3699
50.8665
49.7213
48.9232
48.4611
48.3229
48.495
48.9607
49.6996
50.6858
51.8867
53.2619
54.7637
56.3381
57.9282
59.4793
60.9455
62.2943
63.5102
64.592
65.5475
66.3842
67.1016
67.6857
68.1074
68.3258
68.2966
67.9822
67.3622
66.4402
65.2437
63.8186
62.2186
60.4947
58.6856
56.8124
54.8758
52.8579
50.727
48.4446
45.9743
43.2901
40.3812
37.253
33.9234
30.4158
26.752
22.9453
18.9969
14.8927
10.604
6.08897
1.29626
-3.82984
-9.34349
-15.2919
-21.7118
-28.6289
-36.0602
-44.0183
-52.5157
-61.5678
-71.195
-81.4215
-92.2736
-103.775
-115.941
-128.774
-142.252
-156.325
-170.909
-185.884
-201.091
-216.345
-231.439
120.299
113.352
106.451
99.7122
93.2354
87.1014
81.368
76.0723
71.2336
66.8578
62.9414
59.4745
56.4438
53.8344
51.6314
49.8206
48.3891
47.3254
46.6194
46.2619
46.2438
46.5553
47.1841
48.1137
49.321
50.7735
52.4276
54.227
56.1037
57.9822
59.7877
61.4577
62.9529
64.2639
65.4083
66.4193
67.329
68.1529
68.8797
69.4681
69.852
69.9548
69.7081
69.0729
68.0528
66.6949
65.0779
63.2923
61.4214
59.5264
57.6378
55.753
53.8388
51.839
49.6866
47.3193
44.6937
41.7962
38.6435
35.2743
31.7369
28.0754
24.3202
20.4813
16.546
12.4787
8.2238
3.71103
-1.13659
-6.39282
-12.1185
-18.355
-25.1239
-32.4328
-40.2837
-48.6816
-57.6406
-67.1864
-77.356
-88.1946
-99.7505
-112.067
-125.172
-139.068
-153.721
-169.05
-184.919
-201.139
-217.477
-233.663
120.689
113.062
105.498
98.1519
91.1521
84.5925
78.5328
73.0032
68.011
63.5484
59.5976
56.1362
53.1402
50.5863
48.4533
46.7228
45.3798
44.4123
43.8116
43.5716
43.6879
44.1566
44.9723
46.126
47.6007
49.3677
51.3817
53.5765
55.8641
58.1386
60.2887
62.219
63.874
65.2545
66.4138
67.4342
68.3944
69.3411
70.2701
71.12
71.7802
72.1131
71.9905
71.3348
70.1487
68.5165
66.5773
64.4863
62.3803
60.3552
58.4552
56.6702
54.9405
53.1684
51.2363
49.034
46.4869
43.5771
40.344
36.8661
33.2352
29.5325
25.8143
22.1037
18.3887
14.6229
10.7295
6.60771
2.14502
-2.76603
-8.20909
-14.2307
-20.8405
-28.0237
-35.7597
-44.0377
-52.8662
-62.2769
-72.3239
-83.0795
-94.6273
-107.052
-120.425
-134.79
-150.139
-166.405
-183.439
-201.012
-218.817
-236.49
121.219
112.674
104.225
96.0884
88.4308
81.36
74.9307
69.1565
64.0227
59.4986
55.546
52.1249
49.1974
46.7297
44.6933
43.065
41.8275
40.9689
40.4825
40.3664
40.6226
41.256
42.272
43.6738
45.4573
47.6041
50.073
52.7901
55.641
58.4715
61.1036
63.374
65.1876
66.5607
67.6165
68.5327
69.4762
70.5518
71.7712
73.0422
74.1766
74.9243
75.0375
74.3576
72.8841
70.7772
68.2925
65.6991
63.2199
61.0016
59.1046
57.5052
56.1012
54.7257
53.1729
51.243
48.8006
45.8218
42.3952
38.6768
34.8352
31.0108
27.2964
23.7315
20.3035
16.9503
13.5634
9.99487
6.07208
1.62685
-3.46629
-9.25922
-15.7306
-22.8174
-30.4539
-38.5994
-47.2514
-56.4488
-66.2687
-76.8205
-88.2378
-100.667
-114.247
-129.086
-145.233
-162.647
-181.177
-200.544
-220.338
-240.043
121.946
112.142
102.498
93.3309
84.8601
77.2
70.3824
64.3846
59.1535
54.6232
50.7264
47.4003
44.5901
42.25
40.3434
38.8424
37.7277
36.9876
36.6183
36.6231
37.0124
37.8025
39.0142
40.6702
42.7886
45.3745
48.4048
51.8086
55.4448
59.0873
62.4367
65.184
67.1327
68.321
69.0174
69.5889
70.365
71.5523
73.1952
75.158
77.1268
78.6457
79.2236
78.5199
76.5284
73.5792
70.1615
66.7446
63.6815
61.1826
59.3233
58.0564
57.2184
56.5359
55.6502
54.1878
51.8847
48.7096
44.8647
40.6634
36.409
32.3295
28.5621
25.1611
22.1096
19.3252
16.6584
13.8916
10.7511
6.95257
2.28423
-3.31047
-9.73381
-16.8188
-24.4142
-32.43
-40.8492
-49.7222
-59.1571
-69.3121
-80.3885
-92.6198
-106.25
-121.496
-138.497
-157.275
-177.701
-199.453
-221.979
-244.515
122.969
111.376
100.078
89.5668
80.1179
71.8226
64.65
58.5058
53.2726
48.8334
45.0826
41.9305
39.3036
37.144
35.4075
34.0619
33.0865
32.4706
32.2136
32.3246
32.8234
33.74
35.1151
36.9986
39.4449
42.5029
46.1966
50.4901
55.2371
60.1227
64.6342
68.1411
70.17
70.7867
70.595
70.3477
70.6583
71.8939
74.1551
77.2622
80.7218
83.719
85.2517
84.5336
81.5486
77.0529
72.0262
67.2778
63.3278
60.4401
58.6867
57.9876
58.1094
58.6364
58.9558
58.3411
56.2222
52.5599
47.8454
42.7247
37.7293
33.1974
29.299
26.0864
23.5303
21.5297
19.8968
18.3257
16.377
13.5305
9.36853
3.83155
-2.78388
-10.0847
-17.7682
-25.6786
-33.7922
-42.1844
-51.0062
-60.4744
-70.8729
-82.5546
-95.9232
-111.373
-129.195
-149.523
-172.308
-197.238
-223.599
-250.214
124.461
110.178
96.5226
84.2681
73.7104
64.8247
57.433
51.3115
46.2453
42.0496
38.5744
35.7022
33.3424
31.4272
29.9068
28.7469
27.9262
27.4355
27.2773
27.4664
28.0311
29.0156
30.4824
32.515
35.2183
38.7142
43.1226
48.5162
54.8275
61.6941
68.2753
73.2237
75.2375
74.4134
72.2497
70.3001
69.6167
70.7551
73.8937
78.8555
84.9789
90.8978
94.5175
93.8081
88.7409
81.2877
73.4875
66.6584
61.4416
58.0613
56.5294
56.7341
58.4144
61.0333
63.604
64.658
62.7798
57.9233
51.4092
44.6038
38.3807
33.1515
29.047
26.0652
24.1498
23.204
23.0449
23.3028
23.2951
22.0021
18.4323
12.5263
5.153
-2.79916
-10.7948
-18.6339
-26.3326
-34.0265
-41.9227
-50.2945
-59.5067
-70.0573
-82.5954
-97.8305
-116.281
-138.226
-163.822
-192.954
-224.843
-257.65
126.746
108.072
90.944
76.5222
64.8918
55.673
48.385
42.5959
37.9626
34.2262
31.1963
28.7342
26.7395
25.1402
23.8857
22.942
22.2894
21.9203
21.8397
22.0659
22.633
23.5954
25.0337
27.0639
29.849
33.6097
38.628
45.2186
53.6158
63.6737
74.2648
82.5287
84.3885
79.9655
73.593
68.426
65.9488
66.7333
71.0037
78.7731
89.5268
101.384
110.013
109.354
99.365
86.019
73.5474
63.7146
56.9086
53.0187
51.869
53.3536
57.3655
63.4973
70.4335
75.1945
73.6235
65.6711
55.3904
45.6426
37.5991
31.4849
27.1773
24.5072
23.3721
23.7445
25.5917
28.6613
32.063
33.751
30.8595
23.3331
13.9231
4.54897
-4.04636
-11.7908
-18.8789
-25.5756
-32.1528
-38.9027
-46.2108
-54.695
-65.3809
-79.6539
-98.3296
-121.665
-150.238
-184.692
-224.756
-267.728
130.493
103.733
81.4648
64.7535
52.5973
43.7378
37.1757
32.2139
28.3864
25.3837
22.9989
21.0918
19.566
18.3557
17.4157
16.7171
16.2432
15.9887
15.9594
16.1735
16.6649
17.4888
18.7313
20.5247
23.0734
26.6928
31.8676
39.3176
50.0101
64.8829
83.602
101.052
102.583
88.3215
73.1972
62.6758
57.5808
57.6891
63.072
74.3901
92.4822
116.514
138.879
138.33
114.819
89.4875
69.8046
56.4092
48.1738
44.0278
43.4132
46.3318
53.2613
64.8005
80.3921
94.8461
93.6536
76.7688
58.6022
44.2253
34.0375
27.2153
22.9484
20.7376
20.4225
22.1603
26.377
33.5404
43.2971
52.093
49.9595
36.8512
22.641
10.7754
1.4767
-5.89226
-11.9882
-17.296
-22.133
-26.7058
-31.2193
-36.1603
-42.9986
-55.1344
-73.6647
-97.5573
-128.18
-168.344
-220.473
-282.181
137.21
92.9219
63.9793
46.4217
35.5532
28.4924
23.6601
20.1969
17.621
15.6503
14.1128
12.899
11.9375
11.1808
10.5975
10.1677
9.88026
9.73207
9.72775
9.88095
10.2171
10.7787
11.6346
12.8971
14.7548
17.5351
21.8296
28.7457
40.3825
60.5506
94.7628
142.495
143.513
97.9165
66.1698
49.1092
41.7174
41.0469
46.5912
60.2493
86.8806
134.038
200.736
200.367
132.89
84.8183
57.0048
41.6714
33.5482
29.95
29.868
33.5321
42.5171
60.2655
91.9857
137.025
136.277
89.7091
56.3543
36.774
25.6279
19.2652
15.7576
14.2374
14.5158
17.0056
22.9179
34.6837
55.913
86.1707
84.8613
51.9544
27.9817
13.3048
4.22088
-1.82665
-6.23224
-9.69343
-12.493
-14.5933
-15.6108
-14.8924
-12.9862
-21.4046
-41.2756
-63.7542
-92.3777
-134.763
-202.387
-304.672
150.409
60.009
30.0969
18.4552
13.0242
10.0366
8.17201
6.90147
5.98311
5.29256
4.75972
4.34226
4.01339
3.75571
3.55786
3.41272
3.3164
3.26786
3.26886
3.3245
3.4443
3.6444
3.95168
4.41193
5.10721
6.19594
8.01556
11.3746
18.4679
35.9922
86.45
251.202
251.56
87.5638
37.9918
21.617
16.1735
15.4539
18.4246
27.4243
51.7174
123.42
359.162
359.031
123.011
50.9742
26.2312
16.549
12.4051
10.8076
10.927
13.0691
19.152
35.6083
84.3968
245.131
244.875
83.6191
34.2688
17.1761
10.3289
7.20296
5.70432
5.14672
5.4242
6.9215
11.0289
22.1978
55.5255
165.701
165.26
54.1901
19.9352
7.77975
2.59239
-0.125395
-1.83592
-3.04331
-3.85928
-4.03966
-2.50165
4.66551
31.8942
28.8172
-5.12974
-21.1
-36.7546
-64.8295
-134.379
-343.336
-241.492
-256.44
-270.626
-283.901
-296.152
-307.299
-317.293
-326.114
-333.76
-340.245
-345.594
-349.831
-352.982
-355.07
-356.11
-242.069
-257.193
-271.525
-284.914
-297.245
-308.439
-318.455
-327.275
-334.907
-341.37
-346.691
-350.903
-354.032
-356.104
-357.136
-243.244
-258.727
-273.358
-286.975
-299.462
-310.747
-320.798
-329.613
-337.21
-343.622
-348.886
-353.042
-356.126
-358.164
-359.178
-245.059
-261.104
-276.194
-290.154
-302.868
-314.277
-324.366
-333.156
-340.686
-347.008
-352.176
-356.242
-359.249
-361.235
-362.221
-247.587
-264.424
-280.15
-294.568
-307.569
-319.114
-329.221
-337.944
-345.356
-351.534
-356.554
-360.485
-363.382
-365.29
-366.236
-250.94
-268.846
-285.401
-300.388
-313.712
-325.375
-335.447
-344.031
-351.245
-357.203
-362.008
-365.747
-368.491
-370.292
-371.184
-255.29
-274.608
-292.209
-307.859
-321.502
-333.215
-343.147
-351.475
-358.377
-364.011
-368.512
-371.99
-374.529
-376.189
-377.009
-260.907
-282.074
-300.958
-317.324
-331.211
-342.824
-352.437
-360.331
-366.761
-371.936
-376.025
-379.158
-381.431
-382.911
-383.64
-268.218
-291.812
-312.214
-329.256
-343.18
-354.418
-363.432
-370.64
-376.384
-380.932
-384.479
-387.171
-389.111
-390.368
-390.986
-277.94
-304.73
-326.817
-344.293
-357.824
-368.222
-376.219
-382.398
-387.192
-390.912
-393.772
-395.92
-397.458
-398.45
-398.936
-291.342
-322.34
-346.019
-363.26
-375.586
-384.41
-390.808
-395.526
-399.06
-401.736
-403.76
-405.265
-406.334
-407.021
-407.358
-310.894
-347.255
-371.646
-387.128
-396.835
-403.01
-407.061
-409.82
-411.773
-413.197
-414.252
-415.027
-415.576
-415.928
-416.101
-341.98
-384.129
-406.166
-416.757
-421.6
-423.719
-424.589
-424.906
-424.998
-425.012
-425.005
-424.999
-424.997
-424.999
-425
-398.248
-441.098
-452.114
-452.116
-449.076
-445.66
-442.649
-440.201
-438.288
-436.829
-435.74
-434.948
-434.399
-434.053
-433.886
-520.905
-529.887
-509.06
-490.496
-476.913
-467.178
-460.125
-454.945
-451.108
-448.26
-446.159
-444.637
-443.579
-442.912
-442.589
236.241
235.948
235.366
234.508
233.394
232.065
230.596
229.122
227.889
227.348
228.353
232.631
244.195
274.778
369.395
242.013
241.731
241.169
240.336
239.246
237.931
236.45
234.921
233.571
232.832
233.542
237.325
247.276
268.675
304.811
247.973
247.7
247.153
246.335
245.248
243.903
242.329
240.59
238.82
237.301
236.59
237.728
242.398
252.33
265.433
254.114
253.85
253.319
252.512
251.42
250.026
248.315
246.271
243.888
241.201
238.345
235.669
233.858
233.774
235.268
260.432
260.179
259.666
258.879
257.791
256.362
254.525
252.179
249.159
245.209
239.966
233.003
224.112
214.113
206.254
266.916
266.68
266.197
265.446
264.392
262.971
261.081
258.548
255.066
250.107
242.774
231.669
215.128
192.958
171.897
273.557
273.343
272.904
272.216
271.237
269.897
268.076
265.566
261.991
256.646
248.192
234.102
210.044
171.028
123.031
280.338
280.154
279.775
279.179
278.325
277.148
275.54
273.316
270.136
265.336
257.515
243.45
215.341
155.326
40.9525
287.238
287.091
286.788
286.31
285.626
284.688
283.424
281.722
279.396
276.115
271.166
262.541
242.788
177.369
-120.433
294.232
294.128
293.913
293.575
293.095
292.447
291.604
290.551
289.309
288.043
287.361
289.35
301.94
360.783
654.315
301.289
301.232
301.114
300.929
300.669
300.33
299.923
299.501
299.229
299.557
301.692
308.788
328.961
381.208
490.225
308.377
308.369
308.352
308.325
308.288
308.25
308.242
308.339
308.72
309.807
312.569
319.133
333.698
362.195
401.982
315.462
315.503
315.587
315.716
315.896
316.141
316.48
316.969
317.711
318.883
320.795
323.91
328.751
335.332
341.511
322.508
322.598
322.781
323.061
323.448
323.955
324.603
325.415
326.391
327.435
328.175
327.479
322.584
308.735
285.477
329.482
329.619
329.896
330.321
330.904
331.66
332.604
333.739
335.01
336.188
336.543
333.952
322.626
288.662
213.438
336.35
336.532
336.899
337.461
338.229
339.223
340.462
341.957
343.683
345.501
346.947
346.48
338.379
297.233
89.309
343.083
343.306
343.756
344.444
345.386
346.605
348.132
350.005
352.28
355.061
358.668
364.298
377.068
421.612
631.045
349.652
349.912
350.437
351.24
352.339
353.762
355.55
357.764
360.513
364.036
368.974
377.146
393.679
431.471
508.276
356.029
356.322
356.914
357.818
359.055
360.655
362.662
365.141
368.196
372.015
377.023
384.175
395.515
414.224
439.006
362.193
362.514
363.163
364.153
365.506
367.252
369.435
372.109
375.333
379.159
383.571
388.283
392.223
392.746
387.112
368.122
368.467
369.163
370.224
371.671
373.535
375.857
378.682
382.04
385.883
389.898
392.914
391.291
375.53
331.472
373.802
374.165
374.898
376.013
377.533
379.488
381.918
384.874
388.397
392.475
396.908
400.754
400.166
377.954
245.405
379.219
379.596
380.355
381.51
383.08
385.097
387.604
390.662
394.353
398.81
404.311
411.661
424.045
456.987
596.227
384.363
384.749
385.525
386.704
388.305
390.354
392.896
395.997
399.764
404.407
410.42
419.057
433.634
462.189
515.153
389.228
389.619
390.404
391.594
393.203
395.256
397.789
400.858
404.552
409.04
414.694
422.315
433.502
450.426
471.038
393.811
394.203
394.989
396.178
397.78
399.812
402.299
405.273
408.773
412.851
417.588
423.083
429.374
436.086
441.416
398.111
398.501
399.283
400.461
402.044
404.04
406.46
409.311
412.579
416.191
419.944
423.284
424.939
422.693
415.676
402.128
402.514
403.288
404.451
406.007
407.959
410.309
413.048
416.13
419.422
422.572
424.642
423.202
412.599
385.244
405.866
406.247
407.01
408.154
409.681
411.589
413.878
416.534
419.521
422.737
425.939
428.423
427.814
414.126
335.997
409.328
409.703
410.453
411.578
413.075
414.943
417.179
419.779
422.737
426.049
429.791
434.338
441.497
460.389
541.28
412.516
412.886
413.624
414.729
416.197
418.026
420.215
422.764
425.69
429.051
433.072
438.425
447.018
463.584
494.321
415.437
415.801
416.527
417.613
419.055
420.847
422.988
425.476
428.325
431.581
435.413
440.246
446.989
456.923
468.896
418.092
418.451
419.167
420.237
421.654
423.413
425.507
427.926
430.661
433.699
437.047
440.726
444.731
448.832
451.975
420.487
420.841
421.548
422.604
424.002
425.733
427.787
430.145
432.771
435.587
438.438
440.966
442.391
441.392
437.427
422.623
422.974
423.674
424.719
426.103
427.815
429.844
432.166
434.733
437.437
440.041
441.957
441.722
435.996
420.315
424.503
424.852
425.547
426.586
427.961
429.664
431.684
434.004
436.584
439.342
442.108
444.427
444.852
437.501
392.503
426.129
426.476
427.169
428.204
429.575
431.278
433.305
435.649
438.296
441.23
444.471
448.196
453.369
465.136
512.428
427.501
427.848
428.539
429.573
430.945
432.653
434.694
437.071
439.792
442.889
446.486
450.946
457.292
468.085
486.595
428.621
428.967
429.658
430.693
432.068
433.782
435.837
438.242
441.011
444.188
447.889
452.371
458.114
465.659
473.811
429.487
429.834
430.526
431.562
432.94
434.66
436.726
439.145
441.931
445.108
448.736
452.904
457.672
462.795
466.884
430.101
430.448
431.14
432.178
433.559
435.284
437.357
439.782
442.564
445.702
449.195
453.005
456.971
460.635
462.99
430.462
430.809
431.502
432.541
433.924
435.654
437.731
440.158
442.933
446.034
449.421
452.983
456.464
459.369
460.927
430.569
430.916
431.609
432.649
434.035
435.767
437.848
440.281
443.059
446.154
449.513
453.002
456.343
459.024
460.142
430.424
430.77
431.463
432.503
433.889
435.623
437.71
440.152
442.947
446.076
449.499
453.11
456.668
459.748
461.859
430.025
430.371
431.063
432.101
433.486
435.221
437.312
439.765
442.588
445.78
449.343
453.238
457.311
461.13
463.708
429.373
429.718
430.408
431.443
432.826
434.559
436.649
439.109
441.955
445.214
448.942
453.226
458.117
463.359
467.544
428.47
428.813
429.499
430.53
431.907
433.633
435.717
438.172
441.021
444.306
448.143
452.777
458.664
466.307
474.482
427.316
427.656
428.338
429.363
430.731
432.446
434.515
436.95
439.766
443.001
446.778
451.442
457.978
468.87
487.293
425.912
426.25
426.926
427.941
429.298
430.998
433.047
435.449
438.205
441.307
444.782
448.791
454.253
466.189
513.093
424.262
424.596
425.265
426.269
427.611
429.294
431.321
433.691
436.385
439.341
442.402
445.117
446.018
439.209
395.045
422.368
422.697
423.357
424.347
425.673
427.337
429.344
431.695
434.369
437.288
440.249
442.686
443.125
438.156
423.136
420.234
420.557
421.205
422.179
423.485
425.127
427.117
429.463
432.165
435.192
438.447
441.627
443.974
444.067
440.989
417.862
418.178
418.812
419.767
421.047
422.663
424.63
426.971
429.72
432.925
436.684
441.131
446.375
452.166
456.895
415.259
415.567
416.184
417.114
418.363
419.942
421.871
424.185
426.941
430.261
434.43
440.066
448.383
460.988
476.276
412.431
412.728
413.325
414.224
415.434
416.964
418.834
421.078
423.754
426.993
431.143
437.124
447.398
467.933
506.463
409.384
409.67
410.242
411.106
412.267
413.736
415.526
417.659
420.161
423.08
426.572
431.186
439.275
462.366
563.595
406.127
406.399
406.945
407.768
408.874
410.27
411.968
413.971
416.262
418.757
421.21
422.82
420.72
402.522
303.937
402.67
402.927
403.442
404.219
405.263
406.583
408.186
410.072
412.205
414.45
416.419
417.017
413.332
398.489
363.276
399.023
399.263
399.744
400.47
401.448
402.686
404.197
405.99
408.056
410.322
412.568
414.174
413.68
408.589
398.342
395.198
395.419
395.863
396.533
397.437
398.586
400
401.707
403.751
406.195
409.15
412.774
417.207
422.258
426.471
391.209
391.409
391.812
392.421
393.242
394.29
395.587
397.18
399.155
401.7
405.255
410.8
420.293
436.494
457.705
387.069
387.247
387.606
388.147
388.877
389.807
390.958
392.375
394.148
396.49
399.967
406.068
418.708
447.238
503.846
382.794
382.949
383.26
383.729
384.359
385.157
386.134
387.312
388.73
390.48
392.846
396.782
406.075
438.469
589.474
378.4
378.531
378.793
379.187
379.712
380.37
381.159
382.072
383.068
384.03
384.623
383.761
377.387
347.317
197.455
373.905
374.011
374.223
374.54
374.96
375.479
376.089
376.762
377.416
377.824
377.399
374.556
365.142
339.342
284.218
369.325
369.406
369.568
369.808
370.125
370.513
370.964
371.455
371.919
372.186
371.842
369.902
364.266
351.721
332.865
364.678
364.734
364.846
365.012
365.228
365.492
365.802
366.156
366.547
366.96
367.384
367.8
368.177
368.47
368.58
359.982
360.014
360.076
360.168
360.285
360.427
360.599
360.821
361.145
361.714
362.921
365.714
372.136
385.334
404.532
355.252
355.261
355.275
355.294
355.312
355.329
355.351
355.404
355.559
356.016
357.345
361.094
371.378
398.02
453.978
350.508
350.493
350.461
350.408
350.327
350.215
350.072
349.906
349.75
349.701
350.077
351.923
359.248
390.335
542.441
345.763
345.727
345.65
345.528
345.353
345.113
344.799
344.392
343.854
343.081
341.778
338.937
330.606
298.596
145.753
341.034
340.978
340.86
340.675
340.41
340.052
339.58
338.959
338.109
336.818
334.537
329.75
318.399
290.76
234.008
336.335
336.261
336.107
335.865
335.521
335.058
334.455
333.677
332.656
331.233
329.027
325.112
317.492
303.132
282.998
331.679
331.589
331.405
331.115
330.704
330.152
329.441
328.553
327.471
326.182
324.694
323.035
321.257
319.505
318.149
327.074
326.974
326.766
326.438
325.972
325.346
324.542
323.555
322.417
321.258
320.472
321.028
324.995
335.593
352.502
322.531
322.423
322.2
321.846
321.339
320.653
319.761
318.654
317.365
316.065
315.31
316.641
324.117
347.287
398.738
318.054
317.944
317.715
317.349
316.82
316.092
315.122
313.869
312.308
310.485
308.689
307.977
312.332
339.332
480.843
313.644
313.537
313.314
312.956
312.429
311.689
310.671
309.291
307.423
304.876
301.306
295.783
284.812
251.843
106.489
309.299
309.202
308.999
308.669
308.176
307.468
306.464
305.041
302.997
299.97
295.27
287.363
272.562
242.39
186.193
305.012
304.932
304.763
304.484
304.062
303.442
302.54
301.216
299.241
296.217
291.454
283.719
270.979
251.004
226.997
300.773
300.715
300.593
300.389
300.075
299.604
298.899
297.835
296.203
293.664
289.694
283.543
274.413
262.41
251.254
296.565
296.535
296.47
296.361
296.188
295.919
295.5
294.839
293.785
292.096
289.439
285.426
279.833
273.22
267.889
292.37
292.37
292.369
292.366
292.356
292.328
292.26
292.109
291.796
291.19
290.119
288.396
285.955
283.132
280.945
288.167
288.197
288.261
288.368
288.528
288.756
289.07
289.484
290
290.6
291.244
291.856
292.335
292.592
292.605
283.935
283.992
284.115
284.322
284.642
285.116
285.803
286.779
288.135
289.971
292.383
295.4
298.859
302.215
304.397
279.655
279.733
279.902
280.189
280.639
281.32
282.329
283.803
285.927
288.932
293.093
298.626
305.446
312.643
317.827
275.314
275.403
275.598
275.933
276.467
277.286
278.523
280.369
283.096
287.083
292.841
300.95
311.762
324.458
334.979
270.903
270.992
271.189
271.531
272.086
272.953
274.287
276.315
279.38
283.996
290.949
301.388
316.761
337.776
359.558
266.422
266.498
266.669
266.974
267.479
268.289
269.561
271.534
274.577
279.277
286.627
298.39
317.833
350.549
399.385
261.882
261.931
262.048
262.268
262.652
263.295
264.34
266.003
268.615
272.709
279.231
290.05
309.679
352.117
473.244
-861.359
-638.583
-559.167
-521.094
-498.887
-484.427
-474.41
-467.213
-461.938
-458.039
-455.162
-453.074
-451.621
-450.702
-450.256
-728.321
-637.825
-575.993
-537.876
-513.472
-497.009
-485.421
-477.019
-470.818
-466.206
-462.785
-460.29
-458.548
-457.442
-456.906
-658.319
-617.145
-576.333
-545.119
-522.53
-506.191
-494.206
-485.285
-478.583
-473.533
-469.75
-466.971
-465.019
-463.776
-463.171
-617.102
-596.196
-569.992
-546.359
-527.235
-512.334
-500.846
-491.999
-485.189
-479.967
-476.004
-473.064
-470.985
-469.654
-469.005
-590.598
-578.911
-561.85
-544.45
-528.994
-516.094
-505.637
-497.285
-490.68
-485.513
-481.532
-478.547
-476.417
-475.047
-474.377
-572.403
-565.342
-553.927
-541.177
-528.964
-518.142
-508.952
-501.344
-495.161
-490.222
-486.356
-483.421
-481.309
-479.942
-479.271
-559.308
-554.78
-546.916
-537.517
-527.954
-519.041
-511.152
-504.4
-498.767
-494.172
-490.517
-487.709
-485.669
-484.341
-483.687
-549.552
-546.52
-540.956
-533.954
-526.481
-519.215
-512.548
-506.667
-501.638
-497.456
-494.077
-491.448
-489.522
-488.261
-487.636
-542.097
-540.005
-535.978
-530.702
-524.851
-518.958
-513.381
-508.328
-503.911
-500.169
-497.1
-494.685
-492.901
-491.724
-491.14
-536.29
-534.82
-531.853
-527.835
-523.237
-518.468
-513.834
-509.535
-505.702
-502.399
-499.654
-497.47
-495.843
-494.764
-494.226
-531.701
-530.658
-528.444
-525.356
-521.728
-517.871
-514.036
-510.406
-507.111
-504.23
-501.804
-499.855
-498.39
-497.414
-496.926
-528.034
-527.293
-525.627
-523.238
-520.364
-517.244
-514.081
-511.032
-508.221
-505.729
-503.608
-501.887
-500.585
-499.713
-499.275
-525.076
-524.558
-523.298
-521.44
-519.158
-516.634
-514.03
-511.48
-509.096
-506.958
-505.119
-503.614
-502.468
-501.696
-501.308
-522.675
-522.322
-521.371
-519.922
-518.106
-516.064
-513.924
-511.8
-509.788
-507.965
-506.382
-505.076
-504.076
-503.4
-503.059
-520.715
-520.489
-519.774
-518.645
-517.199
-515.548
-513.792
-512.027
-510.337
-508.791
-507.437
-506.313
-505.446
-504.858
-504.561
-519.11
-518.98
-518.449
-517.572
-516.423
-515.088
-513.652
-512.189
-510.775
-509.469
-508.317
-507.355
-506.609
-506.101
-505.843
-517.79
-517.737
-517.35
-516.673
-515.762
-514.686
-513.513
-512.304
-511.124
-510.026
-509.051
-508.231
-507.593
-507.156
-506.934
-516.704
-516.711
-516.439
-515.921
-515.202
-514.338
-513.382
-512.385
-511.404
-510.484
-509.662
-508.966
-508.422
-508.049
-507.859
-515.81
-515.865
-515.684
-515.295
-514.731
-514.039
-513.262
-512.443
-511.629
-510.861
-510.169
-509.581
-509.119
-508.801
-508.639
-515.075
-515.167
-515.06
-514.774
-514.336
-513.785
-513.156
-512.484
-511.81
-511.17
-510.59
-510.094
-509.702
-509.432
-509.294
-514.472
-514.595
-514.547
-514.343
-514.008
-513.571
-513.063
-512.513
-511.956
-511.422
-510.936
-510.518
-510.187
-509.958
-509.84
-513.98
-514.128
-514.126
-513.99
-513.736
-513.393
-512.984
-512.533
-512.072
-511.628
-511.22
-510.868
-510.588
-510.393
-510.292
-513.583
-513.749
-513.786
-513.702
-513.515
-513.246
-512.917
-512.547
-512.165
-511.794
-511.451
-511.153
-510.914
-510.748
-510.662
-513.266
-513.448
-513.514
-513.472
-513.336
-513.127
-512.861
-512.557
-512.238
-511.925
-511.635
-511.381
-511.177
-511.034
-510.96
-513.02
-513.213
-513.302
-513.292
-513.197
-513.034
-512.817
-512.563
-512.294
-512.027
-511.778
-511.559
-511.382
-511.258
-511.194
-512.836
-513.038
-513.143
-513.157
-513.092
-512.962
-512.783
-512.567
-512.334
-512.103
-511.886
-511.693
-511.537
-511.428
-511.371
-512.709
-512.917
-513.033
-513.063
-513.018
-512.912
-512.758
-512.568
-512.362
-512.156
-511.961
-511.787
-511.646
-511.547
-511.495
-512.634
-512.845
-512.967
-513.007
-512.973
-512.881
-512.742
-512.568
-512.377
-512.186
-512.005
-511.844
-511.712
-511.619
-511.571
-512.61
-512.821
-512.945
-512.987
-512.956