/*--------------------------------*- C++ -*----------------------------------*\
| =========                 |                                                 |
| \\      /  F ield         | OpenFOAM: The Open Source CFD Toolbox           |
|  \\    /   O peration     | Version:  5.x                                   |
|   \\  /    A nd           | Web:      www.OpenFOAM.org                      |
|    \\/     M anipulation  |                                                 |
\*---------------------------------------------------------------------------*/
FoamFile
{
    version     2.0;
    format      ascii;
    class       volScalarField;
    location    "10";
    object      T;
}
// * * * * * * * * * * * * * * * * * * * * * * * * * * * * * * * * * * * * * //

dimensions      [0 0 0 1 0 0 0];

internalField   nonuniform List<scalar> 
6300
(
10.894
12.6794
14.4569
16.2212
17.967
19.6891
21.382
23.0407
24.6599
26.2346
27.7599
29.2315
30.6453
31.9979
33.2866
10.8966
12.6872
14.4699
16.2394
17.9904
19.7177
21.4158
23.0796
24.7037
26.2831
27.8129
29.2884
30.7056
32.0608
33.3513
10.9018
12.7028
14.4958
16.2758
18.0372
19.7749
21.4834
23.1574
24.7915
26.3805
27.9192
29.4027
30.8268
32.1874
33.4815
10.9096
12.7261
14.5347
16.3303
18.1074
19.8608
21.585
23.2745
24.9238
26.5273
28.0797
29.5757
31.0104
32.3794
33.6793
10.9199
12.7571
14.5865
16.4029
18.201
19.9755
21.7207
23.4312
25.1011
26.7246
28.2959
29.809
31.2586
32.6395
33.9475
10.9328
12.7958
14.6511
16.4936
18.3179
20.1188
21.8907
23.6278
25.324
26.9733
28.5692
30.105
31.5744
32.9713
34.2905
10.9482
12.842
14.7283
16.602
18.4579
20.2907
22.0949
23.8645
25.5933
27.2747
28.9016
30.4666
31.9617
33.3797
34.7137
10.966
12.8956
14.8178
16.7279
18.6206
20.4908
22.333
24.1413
25.9092
27.6298
29.2952
30.8968
32.4253
33.8709
35.2248
10.9862
12.9563
14.9194
16.8707
18.8055
20.7185
22.6045
24.4577
26.2717
28.0391
29.7516
31.3992
32.9705
34.4529
35.8336
11.0087
13.0239
15.0325
17.0299
19.0115
20.9727
22.9082
24.8127
26.6799
28.5026
30.272
31.9769
33.6036
35.1353
36.5534
11.0334
13.0981
15.1565
17.2045
19.2377
21.2519
23.2424
25.2042
27.1318
29.0185
30.8557
32.6318
34.3307
35.9302
37.4024
11.0601
13.1783
15.2907
17.3934
19.4826
21.5543
23.6046
25.6293
27.6239
29.583
31.4996
33.3629
35.1559
36.851
38.4061
11.0887
13.2642
15.4344
17.5956
19.7445
21.8776
23.9917
26.0836
28.1505
30.1892
32.1957
34.1631
36.0779
37.9105
39.6012
11.119
13.3553
15.5867
17.8098
20.0216
22.2193
24.4002
26.5623
28.7046
30.8267
32.9297
35.0149
37.0807
39.1105
41.0391
11.1509
13.4512
15.7469
18.0349
20.3126
22.5772
24.8268
27.0602
29.2778
31.4823
33.6803
35.885
38.1182
40.4104
42.7695
34.4076
35.3804
36.3069
37.1875
38.0231
38.8149
39.5647
40.2745
40.9467
41.5836
42.1881
42.763
43.3112
43.8356
44.3391
44.8247
45.2952
45.7534
46.202
46.6438
47.081
47.5162
47.9514
48.3887
48.8298
49.2764
49.7298
50.1908
50.6605
51.1391
51.6269
52.1239
52.6297
53.1438
53.6656
54.1943
54.7289
55.2682
55.8111
56.3563
56.9022
57.4474
57.9902
58.5288
59.0616
59.5868
60.1029
60.6084
61.1017
61.5816
62.0468
62.4961
62.9282
63.342
63.7361
64.1091
64.4597
64.7863
65.0874
65.3614
65.6067
65.8216
66.0045
66.1535
66.2668
66.3423
66.3778
66.3708
66.3187
66.2184
66.0669
65.8607
65.5961
65.2694
64.8767
64.4137
63.8762
63.26
62.5607
61.7739
60.8954
59.921
58.8467
57.6691
56.3849
54.9916
53.4873
51.8711
50.1429
48.3034
34.4731
35.4459
36.3718
37.2511
38.0847
38.8741
39.6209
40.3274
40.9958
41.6289
42.2293
42.8
43.3439
43.864
44.3633
44.8447
45.3112
45.7655
46.2103
46.6485
47.0823
47.5143
47.9466
48.3813
48.8202
49.2649
49.7167
50.1767
50.6456
51.1239
51.6118
52.1092
52.6157
53.1308
53.6538
54.1838
54.7199
55.2609
55.8057
56.353
56.9012
57.4487
57.9939
58.535
59.0702
59.5977
60.116
60.6235
61.1187
61.6004
62.0673
62.5183
62.9523
63.3679
63.7639
64.139
64.4917
64.8205
65.1239
65.4002
65.6478
65.8652
66.0507
66.2024
66.3187
66.3974
66.4364
66.4333
66.3854
66.2897
66.1431
65.9421
65.683
65.3621
64.9753
64.5184
63.9872
63.3772
62.6842
61.9037
61.0311
60.0624
58.9934
57.8203
56.5398
55.1492
53.6464
52.0305
50.301
48.459
34.6049
35.5779
36.5024
37.379
38.2087
38.993
39.7339
40.4335
41.0945
41.7196
42.3117
42.8739
43.4093
43.9208
44.4116
44.8847
45.343
45.7894
46.2266
46.6575
47.0845
47.5101
47.9366
48.366
48.8004
49.2412
49.69
50.1477
50.6153
51.093
51.5811
52.0793
52.5873
53.1043
53.6297
54.1624
54.7016
55.2461
55.7947
56.3461
56.8988
57.4511
58.0013
58.5473
59.0874
59.6196
60.1423
60.6538
61.1528
61.638
62.1084
62.5628
63.0002
63.4195
63.8194
64.1986
64.5556
64.8889
65.1967
65.4777
65.73
65.9522
66.1427
66.2999
66.4219
66.507
66.5531
66.5577
66.5182
66.4317
66.295
66.1045
65.8565
65.5471
65.1722
64.7276
64.2089
63.6116
62.9313
62.1633
61.303
60.3459
59.2875
58.1238
56.851
55.4661
53.9666
52.3511
50.6193
48.772
34.8053
35.7783
36.7008
37.5733
38.3968
39.1733
39.9048
40.5938
41.2433
41.8562
42.4357
42.985
43.5073
44.0059
44.4838
44.9443
45.3902
45.8247
46.2505
46.6704
47.087
47.5029
47.9205
48.342
48.7693
49.2043
49.6484
50.1028
50.5683
51.0453
51.5338
52.0335
52.5438
53.0639
53.5929
54.1298
54.6736
55.2232
55.7776
56.3353
56.8949
57.4545
58.0123
58.5661
59.1137
59.6531
60.1823
60.6999
61.2044
61.6947
62.1699
62.6293
63.0718
63.4966
63.9023
64.2877
64.6513
64.9912
65.3059
65.5937
65.8531
66.0824
66.2803
66.4453
66.5759
66.6703
66.7268
66.7429
66.7161
66.6435
66.5217
66.3471
66.1158
65.8239
65.467
65.0409
64.5412
63.9632
63.3022
62.5535
61.712
60.7728
59.7311
58.5821
57.3216
55.9457
54.4516
52.8373
51.1021
49.2467
35.0771
36.0504
36.97
37.8365
38.6515
39.4169
40.1353
40.8097
41.4433
42.0394
42.6016
43.1334
43.638
44.119
44.5796
45.023
45.4524
45.8708
46.2811
46.6862
47.0888
47.4916
47.897
48.3076
48.7254
49.1523
49.5901
50.04
50.5029
50.979
51.4683
51.9703
52.4841
53.0086
53.5426
54.0851
54.6351
55.1915
55.7534
56.3196
56.8885
57.4584
58.0268
58.5914
59.1495
59.6987
60.2369
60.7624
61.2739
61.7706
62.252
62.7175
63.1666
63.5985
64.012
64.4059
64.7783
65.1274
65.4513
65.7483
66.0167
66.2552
66.4626
66.6376
66.7792
66.8858
66.9559
66.9873
66.9775
66.9235
66.8218
66.6686
66.4599
66.1915
65.8589
65.4578
64.9837
64.4317
63.7971
63.0747
62.2592
61.3451
60.3268
59.1989
57.956
56.5934
55.1075
53.4954
51.756
49.8896
35.425
36.3986
37.3142
38.1728
38.9761
39.7267
40.4278
41.0828
41.6956
42.2701
42.8099
43.3191
43.8012
44.2598
44.6984
45.1203
45.5288
45.9268
46.3175
46.7038
47.0885
47.4745
47.8645
48.2609
48.6664
49.083
49.5126
49.9567
50.4164
50.8918
51.3827
51.8883
52.407
52.9375
53.4781
54.0276
54.5851
55.1498
55.721
56.2978
56.8788
57.462
58.0447
58.6238
59.1959
59.758
60.3075
60.8426
61.3624
61.8663
62.3545
62.8269
63.2837
63.7242
64.1477
64.5524
64.9363
65.2973
65.6329
65.9413
66.2208
66.4703
66.6887
66.8756
67.0301
67.1514
67.2381
67.2884
67.2999
67.2695
67.1934
67.0675
66.8875
66.6488
66.3469
65.9774
65.5356
65.0167
64.4158
63.7274
62.9459
62.0649
61.0781
59.9787
58.7603
57.4167
55.9428
54.3347
52.5905
50.7101
35.8549
36.8289
37.7393
38.5872
39.3752
40.1064
40.785
41.4153
42.0018
42.5488
43.0609
43.5421
43.9965
44.4278
44.8396
45.2353
45.6183
45.9917
46.3585
46.7219
47.0847
47.45
47.8207
48.1995
48.5894
48.9929
49.4122
49.8492
50.3052
50.7803
51.2741
51.7851
52.3111
52.8497
53.3987
53.9566
54.5226
55.0965
55.6783
56.2677
56.8636
57.464
58.0655
58.6638
59.2544
59.833
60.3964
60.9426
61.4711
61.9823
62.477
62.9565
63.4215
63.8722
64.3077
64.7261
65.1249
65.5009
65.8512
66.1733
66.4656
66.7272
66.9579
67.1575
67.3262
67.464
67.57
67.6428
67.6801
67.6785
67.634
67.5417
67.3968
67.1944
66.9297
66.5984
66.1958
65.7173
65.1578
64.5119
63.7732
62.9348
61.989
60.9277
59.7425
58.4254
56.9691
55.368
53.6189
51.7211
36.375
37.3496
38.2529
39.0867
39.8544
40.5606
41.2104
41.8094
42.363
42.8765
43.3547
43.8022
44.2234
44.6222
45.0022
45.3671
45.72
46.0642
46.4028
46.7389
47.0756
47.4159
47.7632
48.1205
48.4911
48.8781
49.2845
49.7126
50.1643
50.64
51.1388
51.6584
52.1951
52.7449
53.3044
53.8718
54.4466
55.0297
55.6225
56.2259
56.8399
57.4622
58.0886
58.7128
59.3279
59.9276
60.5075
61.0658
61.6025
62.1194
62.6192
63.1045
63.5776
64.0395
64.4897
64.9257
65.3437
65.7391
66.1074
66.4457
66.7521
67.0263
67.2689
67.4812
67.6644
67.8196
67.9469
68.0456
68.1135
68.1468
68.1406
68.0891
67.9863
67.8269
67.606
67.3193
66.9627
66.5318
66.0219
65.4273
64.7415
63.9567
63.0638
62.0526
60.9123
59.632
58.2015
56.6124
54.8591
52.9401
36.9963
37.9717
38.8653
39.68
40.4208
41.0943
41.7075
42.2674
42.7806
43.2533
43.691
44.0987
44.481
44.8419
45.1851
45.5143
45.8325
46.1431
46.449
46.7534
47.0594
47.3702
47.6894
48.0205
48.3672
48.7336
49.1235
49.5404
49.987
50.4644
50.9717
51.505
52.0581
52.6239
53.1968
53.7742
54.3566
54.947
55.5492
56.1669
56.8018
57.4523
58.1126
58.7727
59.4212
60.0482
60.6476
61.2176
61.76
62.2789
62.7797
63.2676
63.7473
64.2213
64.6896
65.1488
65.5927
66.0135
66.4045
66.7613
67.0822
67.3681
67.6211
67.8441
68.0404
68.2126
68.3625
68.4903
68.594
68.6694
68.7099
68.7075
68.6547
68.5453
68.3744
68.1384
67.8339
67.4576
67.0052
66.4716
65.85
65.1318
64.3063
63.361
62.2814
61.0527
59.6602
58.091
56.336
54.3914
37.7338
38.7102
39.59
40.3782
41.0828
41.7135
42.2798
42.791
43.2549
43.6788
44.0688
44.4302
44.7677
45.0853
45.3867
45.6754
45.9544
46.2269
46.4956
46.7637
47.0344
47.3108
47.5967
47.8961
48.2133
48.5535
48.9217
49.3234
49.7632
50.244
50.7653
51.3213
51.9009
52.4908
53.0807
53.6673
54.2532
54.845
55.4514
56.0809
56.7391
57.4263
58.1344
58.8471
59.5433
60.2063
60.8275
61.4067
61.9488
62.4622
62.9562
63.4403
63.9226
64.4088
64.8999
65.3914
65.8723
66.3284
66.7483
67.1258
67.4603
67.7547
68.0136
68.243
68.4484
68.6351
68.8072
68.9668
69.1127
69.2397
69.3382
69.3958
69.402
69.3495
69.234
69.0533
68.806
68.4901
68.1029
67.64
67.095
66.4588
65.7191
64.8601
63.8629
62.7068
61.3708
59.835
58.0835
56.1084
38.609
39.5865
40.4453
41.1952
41.8498
42.4237
42.9302
43.3809
43.7854
44.1516
44.4862
44.7946
45.0812
45.3503
45.605
45.8487
46.0842
46.3141
46.5414
46.7688
46.9992
47.2359
47.4828
47.744
48.0247
48.331
48.6699
49.0497
49.4785
49.9635
50.5068
51.1014
51.7272
52.3553
52.9674
53.5595
54.1391
54.7198
55.3183
55.9513
56.6326
57.3677
58.1475
58.9429
59.711
60.422
61.0658
61.6468
62.1768
62.6708
63.1445
63.6129
64.09
64.5865
65.1072
65.6466
66.1849
66.6929
67.1503
67.5497
67.8937
68.1894
68.4462
68.6735
68.8806
69.076
69.2673
69.4601
69.6557
69.8484
70.0224
70.1556
70.2312
70.2414
70.1845
70.0615
69.874
69.6227
69.3069
68.9239
68.4686
67.9322
67.301
66.5556
65.6705
64.6176
63.3667
61.8872
60.1508
58.1398
39.6549
40.6321
41.4561
42.1478
42.7315
43.2293
43.6594
44.0357
44.3693
44.6684
44.9397
45.1884
45.4186
45.634
45.8376
46.0321
46.22
46.4036
46.5854
46.7676
46.9531
47.1448
47.3464
47.5621
47.7974
48.0596
48.3576
48.7034
49.1112
49.597
50.1725
50.8347
51.548
52.2412
52.8807
53.4677
54.0211
54.5669
55.1334
55.7503
56.4463
57.2424
58.136
59.0759
59.9586
60.732
61.3922
61.9578
62.4541
62.9063
63.3378
63.7708
64.227
64.7269
65.2853
65.9007
66.5385
67.1278
67.633
68.051
68.3937
68.6776
68.9185
69.1306
69.3269
69.5201
69.7227
69.9466
70.2004
70.481
70.7629
70.9954
71.1518
71.2274
71.2276
71.16
71.0311
70.8453
70.6048
70.3094
69.9564
69.5393
69.0449
68.4496
67.7173
66.8107
65.6895
64.3068
62.6113
60.5608
40.9272
41.8966
42.656
43.2544
43.7353
44.131
44.4642
44.7506
45.0011
45.2237
45.4242
45.607
45.7757
45.9331
46.0816
46.2234
46.3603
46.4941
46.6267
46.7601
46.8963
47.0378
47.1878
47.35
47.5299
47.7346
47.9747
48.2657
48.63
49.0992
49.7114
50.4926
51.3956
52.2023
52.8676
53.4222
53.9122
54.3819
54.8737
55.4331
56.1136
56.9745
58.0555
59.2891
60.361
61.2028
61.8524
62.3662
62.7926
63.1691
63.5264
63.8927
64.2986
64.7803
65.3786
66.1202
66.9593
67.6811
68.2388
68.6578
68.9759
69.2251
69.4295
69.6076
69.7751
69.948
70.1445
70.3876
70.7035
71.1092
71.5717
71.9418
72.1859
72.3192
72.3655
72.3438
72.2673
72.144
71.979
71.7751
71.5339
71.2548
70.9312
70.5382
70.0123
69.3104
68.3864
67.1741
65.5806
63.4995
42.5376
43.4622
44.0863
44.5285
44.86
45.1211
45.3349
45.5154
45.6715
45.8091
45.9323
46.0443
46.1473
46.2433
46.3337
46.4199
46.5031
46.5846
46.6653
46.7467
46.83
46.917
47.0097
47.1109
47.2246
47.3568
47.5169
47.7206
47.996
48.3937
49.0051
49.973
51.3801
52.3649
53.012
53.4678
53.8305
54.163
54.5146
54.9396
55.5188
56.3876
57.7527
59.7332
61.0922
61.948
62.5058
62.8981
63.2003
63.4572
63.6995
63.955
64.2584
64.6636
65.2628
66.1967
67.5465
68.468
69.0417
69.4073
69.6546
69.8344
69.9757
70.097
70.213
70.3389
70.4964
70.7209
71.0745
71.6528
72.5106
73.0671
73.3765
73.5335
73.5983
73.6039
73.5678
73.5
73.4063
73.2918
73.1631
73.0316
72.9149
72.8152
72.5581
72.1272
71.4955
70.5876
69.2495
67.2145
44.7768
45.4588
45.7769
45.9604
46.0845
46.1775
46.2518
46.3137
46.3668
46.4134
46.455
46.4927
46.5274
46.5596
46.59
46.6189
46.6469
46.6742
46.7013
46.7287
46.7567
46.7861
46.8175
46.852
46.891
46.9371
46.9943
47.0707
47.1839
47.3785
47.7837
48.8193
51.9704
53.012
53.4298
53.6452
53.7901
53.9147
54.0477
54.2218
54.5047
55.0838
56.5617
61.0698
62.5456
63.12
63.3952
63.5571
63.671
63.7639
63.8511
63.946
64.0689
64.2652
64.6624
65.6718
68.7479
69.7531
70.1416
70.3242
70.4278
70.4964
70.5479
70.5915
70.6337
70.6819
70.749
70.8657
71.119
71.7911
73.8807
74.5454
74.7838
74.8777
74.9135
74.9209
74.9114
74.8903
74.8607
74.826
74.7934
74.7843
74.8711
75.3158
75.3514
75.2303
74.9997
74.6178
73.9192
72.3781
46.1598
43.6685
41.031
38.256
35.353
32.3329
29.207
25.9871
22.6848
19.3119
15.8799
12.4
8.88325
5.34035
1.78185
46.3109
43.8129
41.1671
38.3823
35.4688
32.4374
29.3
26.0684
22.7545
19.3702
15.9271
12.4364
8.90904
5.35575
1.78696
46.615
44.1032
41.4404
38.6361
35.7009
32.6468
29.486
26.2308
22.8937
19.4866
16.0213
12.5089
8.96044
5.38641
1.79716
47.0758
44.5429
41.8538
39.019
36.0507
32.9616
29.7651
26.4743
23.102
19.6606
16.1619
12.6171
9.03703
5.43209
1.81234
47.6995
45.137
42.411
39.534
36.5197
33.3826
30.1374
26.7982
23.3785
19.8911
16.3479
12.76
9.13816
5.49237
1.83236
48.4947
45.8927
43.1178
40.1847
37.11
33.9105
30.6025
27.2015
23.7219
20.1766
16.5778
12.9365
9.26287
5.56665
1.85703
49.473
46.8196
43.9808
40.9755
37.8237
34.5454
31.1594
27.6825
24.1299
20.5149
16.8496
13.1447
9.40984
5.65411
1.88606
50.6503
47.9302
45.0088
41.911
38.6623
35.2868
31.8058
28.238
24.5992
20.9028
17.1605
13.3823
9.57732
5.7537
1.91911
52.0476
49.24
46.2114
42.9958
39.6263
36.1322
32.5379
28.8635
25.1251
21.3358
17.5065
13.6462
9.76306
5.86403
1.9557
53.6938
50.7691
47.5992
44.2327
40.7133
37.0763
33.3489
29.5519
25.7009
21.808
17.8827
13.9326
9.96427
5.98344
1.99528
55.6284
52.5413
49.1816
45.6209
41.9164
38.1092
34.2282
30.293
26.3176
22.3118
18.2829
14.2366
10.1776
6.10995
2.0372
57.908
54.5841
50.9629
47.1512
43.2204
39.2145
35.1602
31.0733
26.9638
22.8378
18.6998
14.5528
10.3993
6.24129
2.08072
60.6154
56.9221
52.9328
48.7988
44.5977
40.3668
36.1233
31.875
27.6252
23.375
19.125
14.8749
10.625
6.375
2.125
63.8673
59.5538
55.0454
50.5115
46.0031
41.53
37.0899
32.677
28.2858
23.9113
19.5492
15.1965
10.8503
6.5085
2.16923
67.7789
62.3781
57.1811
52.1969
47.3712
42.6587
38.0276
33.4562
28.9287
24.434
19.9635
15.5108
11.0708
6.63924
2.21255
11.1816
13.5432
15.9005
18.2506
20.5907
22.9184
25.232
27.5304
29.8144
32.0881
34.3614
36.6552
39.014
41.5391
44.5096
11.2104
13.6298
16.045
18.4532
20.8518
23.2381
25.6104
27.9671
30.3088
32.6386
34.9654
37.3094
39.7119
42.2549
45.0854
11.2402
13.7192
16.1942
18.6623
21.1209
23.5673
25.999
28.4139
30.8107
33.1903
35.5568
37.9221
40.3113
42.77
45.3579
11.2709
13.8114
16.3479
18.8778
21.3981
23.9061
26.3987
28.8725
31.3241
33.7502
36.1481
38.5171
40.8615
43.1943
45.537
11.3025
13.9062
16.506
19.0995
21.6836
24.2553
26.8109
29.3458
31.8545
34.329
36.7586
39.1283
41.4187
43.6106
45.701
11.3349
14.0035
16.6685
19.3274
21.9774
24.6152
27.2368
29.8368
32.4078
34.9382
37.4099
39.7936
42.0433
44.0962
45.9025
11.368
14.1031
16.8349
19.5612
22.2792
24.9859
27.6772
30.3474
32.9885
35.5873
38.1214
40.5511
42.8035
44.752
46.224
11.4019
14.2048
17.005
19.8003
22.5886
25.3668
28.1315
30.8776
33.5978
36.2804
38.9046
41.4307
43.7735
45.7375
46.8801
11.4364
14.3084
17.1782
20.0442
22.9044
25.7567
28.5982
31.4252
34.2326
37.0131
39.7549
42.4364
45.0057
47.2922
48.5531
11.4713
14.4134
17.3538
20.2916
23.2253
26.1535
29.0743
31.9856
34.8853
37.7718
40.6462
43.519
46.4332
49.5578
53.6488
11.5065
14.5193
17.5312
20.5416
23.5497
26.5549
29.5563
32.5534
35.5464
38.538
41.5375
44.5718
47.7132
51.151
55.3374
11.5419
14.6256
17.7093
20.7927
23.8758
26.9584
30.0408
33.1233
36.2076
39.2977
42.4037
45.5491
48.7863
52.223
56.0303
11.5773
14.732
17.8873
21.0437
24.2016
27.3616
30.5244
33.6912
36.8638
40.0454
43.2415
46.4613
49.7197
53.0364
56.4263
11.6124
14.8377
18.0644
21.2933
24.5256
27.7623
31.0047
34.2544
37.513
40.7822
44.0617
47.3457
50.6113
53.7974
56.786
11.6472
14.9424
18.2396
21.5403
24.846
28.1584
31.4792
34.8105
38.154
41.5107
44.8778
48.2416
51.5568
54.6941
57.3301
11.6815
15.0455
18.4122
21.7835
25.1614
28.5481
31.9458
35.3573
38.785
42.231
45.695
49.1699
52.6246
55.9375
58.5693
11.7151
15.1465
18.5813
22.0217
25.4701
28.9294
32.4023
35.892
39.4024
42.9376
46.5036
50.111
53.7895
57.6523
62.2218
11.7479
15.2451
18.7462
22.2538
25.771
29.3006
32.8462
36.4116
40.0015
43.6219
47.2822
51.0014
54.8251
58.8749
63.4545
11.7798
15.3408
18.9062
22.4791
26.0626
29.6602
33.2757
36.9134
40.5785
44.2773
48.0188
51.8178
55.7023
59.7281
63.9868
11.8106
15.4333
19.0608
22.6965
26.3439
30.0067
33.6889
37.3954
41.1311
44.902
48.7143
52.5734
56.48
60.4179
64.3349
11.8402
15.5223
19.2095
22.9055
26.614
30.3389
34.0847
37.8561
41.6583
45.4969
49.376
53.2948
57.2343
61.1207
64.7449
11.8686
15.6075
19.3519
23.1054
26.8721
30.6561
34.4619
38.2945
42.1594
46.0624
50.0089
54.0006
58.024
62.0039
65.583
11.8956
15.6888
19.4875
23.2959
27.1177
30.9575
34.8197
38.7095
42.6329
46.5966
50.6091
54.6828
58.8423
63.1637
67.9821
11.9213
15.7659
19.6163
23.4764
27.3504
31.2425
35.1575
39.1004
43.0774
47.0957
51.1656
55.3041
59.5467
63.9768
68.7905
11.9457
15.8389
19.738
23.647
27.5699
31.5111
35.475
39.4668
43.4922
47.5579
51.673
55.8517
60.1193
64.5218
69.1278
11.9686
15.9077
19.8526
23.8074
27.7762
31.763
35.7724
39.809
43.8779
47.9845
52.1349
56.3363
60.5966
64.9237
69.3183
11.9901
15.9722
19.9601
23.9578
27.9693
31.9987
36.0501
40.1279
44.2363
48.3795
52.5602
56.7783
61.0258
65.2771
69.4797
12.0102
16.0324
20.0604
24.0982
28.1495
32.2183
36.3087
40.4245
44.5696
48.7471
52.9581
57.1985
61.4509
65.6626
69.7029
12.0289
16.0885
20.1538
24.2287
28.3169
32.4223
36.5487
40.6998
44.8794
49.0902
53.3341
57.609
61.9026
66.1653
70.1851
12.0462
16.1404
20.2402
24.3494
28.4718
32.6109
36.7706
40.9545
45.1662
49.4092
53.6872
58.0051
62.374
66.835
71.5818
12.0621
16.1882
20.3198
24.4607
28.6144
32.7846
36.9749
41.1889
45.4302
49.7027
54.0112
58.3642
62.7797
67.3045
72.0514
12.0767
16.232
20.3927
24.5625
28.745
32.9436
37.162
41.4034
45.6715
49.9699
54.3031
58.6782
63.108
67.6179
72.2465
12.09
16.2718
20.459
24.6552
28.8638
33.0883
37.332
41.5984
45.8906
50.2116
54.5645
58.9526
63.3791
67.8472
72.3557
12.102
16.3077
20.5188
24.7387
28.9709
33.2187
37.4856
41.7745
46.0885
50.4299
54.8002
59.1987
63.6195
68.0465
72.4473
12.1127
16.3398
20.5722
24.8133
29.0665
33.3353
37.6228
41.9322
46.2662
50.6269
55.0149
59.4277
63.854
68.2621
72.574
12.1221
16.368
20.6191
24.8789
29.1508
33.4381
37.7441
42.0718
46.4242
50.8035
55.211
59.6457
64.0996
68.5427
72.8496
12.1302
16.3924
20.6597
24.9357
29.2238
33.5273
37.8494
42.1934
46.5623
50.9593
55.3869
59.8487
64.3509
68.9161
73.6536
12.1371
16.413
20.694
24.9837
29.2855
33.6026
37.9385
42.2965
46.68
51.0924
55.5378
60.0221
64.5567
69.1679
73.9184
12.1427
16.4297
20.722
25.0229
29.3359
33.6643
38.0115
42.381
46.7763
51.2012
55.6601
60.159
64.7075
69.3213
74.0207
12.147
16.4427
20.7437
25.0533
29.3749
33.7121
38.0681
42.4466
46.851
51.2852
55.7532
60.2599
64.8113
69.4134
74.0672
12.1501
16.452
20.759
25.0748
29.4026
33.7459
38.1083
42.4931
46.9039
51.3444
55.8179
60.3283
64.8781
69.4677
74.0907
12.1519
16.4574
20.768
25.0874
29.4189
33.7659
38.1319
42.5205
46.9351
51.3792
55.8558
60.3676
64.9154
69.4969
74.1028
12.1524
16.459
20.7707
25.0912
29.4237
33.7719
38.1391
42.5288
46.9447
51.39
55.8678
60.3802
64.9278
69.5071
74.1083
12.1517
16.4568
20.7671
25.0861
29.4171
33.7638
38.1296
42.518
46.9327
51.377
55.8542
60.367
64.9164
69.5003
74.1113
12.1497
16.4508
20.7571
25.0721
29.3991
33.7418
38.1036
42.488
46.8989
51.3398
55.8145
60.3266
64.8792
69.4729
74.1018
12.1464
16.441
20.7408
25.0492
29.3697
33.7057
38.0608
42.4387
46.843
51.2778
55.7473
60.2566
64.8118
69.419
74.079
12.1419
16.4275
20.7182
25.0175
29.3288
33.6556
38.0014
42.3699
46.7649
51.1904
55.651
60.1532
64.7066
69.3265
74.0327
12.1362
16.4102
20.6893
24.9769
29.2765
33.5915
37.9254
42.2818
46.6644
51.0772
55.5245
60.0127
64.5533
69.1723
73.9307
12.1291
16.3891
20.6541
24.9276
29.213
33.5136
37.8329
42.1745
46.5419
50.9386
55.3681
59.8343
64.3439
68.9193
73.6677
12.1209
16.3644
20.6128
24.8696
29.1382
33.4219
37.7241
42.0483
46.3979
50.776
55.1847
59.624
64.0871
68.5444
72.8712
12.1114
16.3359
20.5654
24.8031
29.0523
33.3165
37.5991
41.9034
46.233
50.5908
54.9787
59.3958
63.8324
68.2583
72.5956
12.1008
16.3039
20.5119
24.728
28.9555
33.1977
37.458
41.74
46.0473
50.3833
54.7511
59.1523
63.5837
68.0318
72.465
12.0889
16.2683
20.4525
24.6446
28.8478
33.0655
37.3011
41.5581
45.8405
50.1525
54.499
58.8862
63.3216
67.8137
72.365
12.0759
16.2293
20.3873
24.553
28.7295
32.9202
37.1284
41.3576
45.6121
49.8964
54.2173
58.585
63.0186
67.5527
72.2383
12.0618
16.1868
20.3164
24.4533
28.6008
32.762
36.9401
41.1387
45.3617
49.6138
53.9015
58.2366
62.644
67.1846
72.0027
12.0466
16.1411
20.24
24.346
28.4621
32.5913
36.7368
40.9018
45.09
49.3051
53.5516
57.8365
62.1753
66.622
71.4226
12.0303
16.0923
20.1583
24.2311
28.3136
32.4086
36.519
40.648
44.7985
48.9732
53.1736
57.3974
61.63
65.8118
69.6805
12.013
16.0404
20.0716
24.1092
28.1559
32.2145
36.2876
40.3782
44.489
48.6223
52.778
56.9507
61.1184
65.2173
69.0882
11.9948
15.9856
19.9801
23.9805
27.9895
32.0095
36.0432
40.0934
44.163
48.2545
52.3694
56.5059
60.6529
64.7795
68.8247
11.9757
15.9283
19.8841
23.8455
27.8148
31.7943
35.7865
39.7942
43.8206
47.8693
51.9445
56.0523
60.2
64.3964
68.6452
11.9558
15.8684
19.784
23.7046
27.6324
31.5695
35.5182
39.4812
43.4618
47.4643
51.4958
55.5694
59.7118
63.9753
68.4417
11.9351
15.8063
19.6801
23.5584
27.443
31.3359
35.2391
39.1551
43.0866
47.038
51.0165
55.0374
59.1378
63.4115
68.0826
11.9138
15.7421
19.5728
23.4073
27.2473
31.0945
34.9505
38.8172
42.6967
46.5918
50.5063
54.4487
58.442
62.5702
67.2113
11.8918
15.6762
19.4625
23.252
27.0462
30.8463
34.6536
38.4695
42.295
46.1308
49.9756
53.8233
57.6509
61.371
64.5972
11.8694
15.6087
19.3496
23.0932
26.8404
30.5924
34.35
38.1141
41.8852
45.6625
49.4417
53.2104
56.9328
60.5133
63.7197
11.8465
15.54
19.2346
22.9313
26.6308
30.3338
34.0411
37.7531
41.4702
45.1915
48.9139
52.6284
56.3119
59.9137
63.3463
11.8233
15.4702
19.118
22.7672
26.4182
30.0717
33.7281
37.3878
41.0512
44.7187
48.3904
52.0664
55.7464
59.4299
63.1158
11.7999
15.3998
19.0001
22.6013
26.2035
29.807
33.412
37.019
40.6284
44.2419
47.8627
51.5003
55.177
58.943
62.8837
11.7763
15.3288
18.8815
22.4343
25.9873
29.5405
33.0939
36.6476
40.202
43.7587
47.3223
50.9056
54.5442
58.3332
62.5046
11.7526
15.2576
18.7624
22.2668
25.7706
29.2734
32.7749
36.2748
39.773
43.2698
46.767
50.2713
53.8055
57.4563
61.6122
11.7289
15.1864
18.6434
22.0994
25.554
29.0065
32.4562
35.9024
39.3441
42.7795
46.2057
49.6151
52.9844
56.2272
58.9563
11.7052
15.1154
18.5248
21.9327
25.3383
28.7409
32.1393
35.5325
38.9185
42.2946
45.6549
48.9854
52.2499
55.3534
58.0651
11.6818
15.0449
18.407
21.7671
25.1243
28.4775
31.8255
35.1666
38.499
41.8197
45.1237
48.4003
51.6259
54.7501
57.6885
11.6585
14.9751
18.2903
21.6032
24.9126
28.2172
31.5156
34.8061
38.0867
41.3555
44.6103
47.8494
51.071
54.2745
57.4611
11.6355
14.906
18.175
21.4413
24.7037
27.9607
31.2106
34.4516
37.6818
40.8999
44.1069
47.3094
50.5275
53.8093
57.2393
11.6128
14.8378
18.0613
21.2818
24.4982
27.7086
30.9112
34.1038
37.2843
40.4511
43.6056
46.7573
49.9384
53.2397
56.8842
11.5904
14.7707
17.9493
21.125
24.2963
27.4614
30.6181
33.7638
36.8955
40.01
43.1052
46.1838
49.2647
52.4304
56.0514
11.5683
14.7045
17.8391
20.9708
24.0982
27.2194
30.332
33.4328
36.5178
39.5813
42.6153
45.6074
48.531
51.3036
53.5678
11.5466
14.6394
17.7307
20.8193
23.904
26.9829
30.0534
33.1122
36.1542
39.1721
42.1536
45.0775
47.9009
50.5287
52.7487
11.5252
14.5751
17.6238
20.6703
23.7135
26.7516
29.7823
32.8024
35.8067
38.7872
41.731
44.6163
47.4054
50.0359
52.4255
11.5039
14.5115
17.5182
20.5234
23.526
26.5249
29.5181
32.5029
35.4748
38.4269
41.3481
44.2208
47.0189
49.7091
52.2671
11.4829
14.4484
17.4136
20.3778
23.3408
26.3016
29.2591
32.2116
35.1559
38.0873
40.9978
43.8761
46.7064
49.4727
52.1708
11.4619
14.3856
17.3093
20.2329
23.1566
26.0801
29.0031
31.9253
34.8453
37.7612
40.6691
43.5636
46.4371
49.2827
52.0997
11.4408
14.3225
17.2047
20.0878
22.9721
25.8583
28.7472
31.6397
34.5369
37.4397
40.3489
43.2646
46.186
49.1113
52.0379
11.4196
14.2591
17.0994
19.9414
22.7859
25.6342
28.4882
31.3503
34.2238
37.113
40.0232
42.9607
45.9312
48.9378
51.9755
11.3982
14.1949
16.9928
19.793
22.5966
25.4057
28.223
31.0523
33.8991
36.7709
39.6777
42.6327
45.6503
48.7416
51.9031
11.3765
14.1298
16.8845
19.6418
22.4032
25.1711
27.9489
30.7416
33.5563
36.4035
39.298
42.2603
45.317
48.4956
51.8061
11.3544
14.0637
16.7742
19.4874
22.2049
24.9291
27.6639
30.4149
33.1902
36.0025
38.8702
41.8214
44.8979
48.1567
51.6534
11.332
13.9964
16.662
19.3298
22.0015
24.6794
27.3672
30.0706
32.7979
35.5621
38.3835
41.2947
44.3513
47.6513
51.3622
11.3094
13.9283
16.548
19.1692
21.7933
24.4223
27.0592
29.7091
32.3793
35.0814
37.8335
40.666
43.6345
46.8596
50.6768
71.7134
64.7781
58.9417
53.5947
48.5198
43.617
38.8313
34.1288
29.487
24.89
20.3262
15.7868
11.2648
6.75439
2.25073
72.9572
66.195
60.2007
54.6751
49.4432
44.4057
39.503
34.6973
29.9626
25.2809
20.6385
16.0252
11.4327
6.85425
2.28387
73.4755
67.0767
61.1326
55.5501
50.2302
45.0995
40.1064
35.2153
30.4007
25.6437
20.9301
16.2487
11.5906
6.94831
2.31511
73.7357
67.6409
61.8118
56.241
50.8846
45.6963
40.6379
35.6794
30.7979
25.9756
21.1986
16.4556
11.7373
7.03588
2.34422
73.888
68.0187
62.3098
56.7817
51.4208
46.2018
41.0989
36.0891
31.1532
26.2755
21.4429
16.6448
11.872
7.11648
2.37105
73.9873
68.2833
62.6805
57.2047
51.8569
46.6254
41.4941
36.4464
31.4672
26.5432
21.6628
16.8161
11.9944
7.18989
2.39552
74.0568
68.4756
62.9612
57.5373
52.2109
46.9782
41.8301
36.7552
31.7421
26.7798
21.8586
16.9695
12.1044
7.25611
2.41762
74.1078
68.6198
63.1774
57.8006
52.4983
47.271
42.114
37.0201
31.9807
26.9873
22.0316
17.1058
12.2026
7.31532
2.4374
74.1464
68.7303
63.3463
58.0107
52.7323
47.5137
42.3531
37.2461
32.1865
27.1678
22.1832
17.2258
12.2895
7.36783
2.45497
74.1763
68.8165
63.4799
58.1794
52.9232
47.7147
42.5538
37.438
32.3631
27.324
22.3151
17.3309
12.3657
7.41406
2.47046
74.1998
68.8848
63.5867
58.3159
53.0795
47.8813
42.7221
37.6006
32.514
27.4584
22.4294
17.4223
12.4323
7.4545
2.48402
74.2186
68.9394
63.6727
58.4268
53.2079
48.0196
42.863
37.7379
32.6424
27.5735
22.5278
17.5014
12.4901
7.48968
2.49583
74.2336
68.9835
63.7425
58.5175
53.3137
48.1343
42.981
37.8538
32.7514
27.6718
22.6122
17.5695
12.54
7.52011
2.50605
74.2459
69.0193
63.7994
58.5918
53.401
48.2297
43.0797
37.9512
32.8437
27.7555
22.6844
17.6278
12.5829
7.54631
2.51487
74.2558
69.0485
63.846
58.653
53.4731
48.309
43.1622
38.0332
32.9217
27.8264
22.7458
17.6777
12.6196
7.56878
2.52243
74.264
69.0725
63.8844
58.7035
53.5329
48.375
43.2312
38.102
32.9874
27.8865
22.798
17.7202
12.6509
7.58797
2.52889
74.2707
69.0922
63.9159
58.7451
53.5825
48.4299
43.2887
38.1597
33.0427
27.9372
22.8421
17.7561
12.6775
7.6043
2.53439
74.2762
69.1084
63.9419
58.7796
53.6235
48.4755
43.3368
38.2079
33.0891
27.9798
22.8794
17.7866
12.7
7.61813
2.53905
74.2807
69.1217
63.9634
58.808
53.6575
48.5134
43.3767
38.2482
33.1279
28.0156
22.9106
17.8122
12.719
7.62979
2.54299
74.2844
69.1327
63.9811
58.8315
53.6856
48.5448
43.4099
38.2816
33.1602
28.0454
22.9368
17.8336
12.7349
7.63959
2.54629
74.2875
69.1417
63.9956
58.8508
53.7087
48.5706
43.4373
38.3093
33.187
28.0702
22.9586
17.8515
12.7482
7.64776
2.54905
74.29
69.149
64.0074
58.8665
53.7276
48.5918
43.4598
38.3321
33.2091
28.0907
22.9765
17.8663
12.7592
7.65451
2.55133
74.292
69.155
64.017
58.8793
53.743
48.609
43.478
38.3506
33.2271
28.1073
22.9912
17.8783
12.7682
7.66004
2.5532
74.2936
69.1597
64.0246
58.8894
53.7552
48.6227
43.4926
38.3655
33.2415
28.1207
23.003
17.888
12.7754
7.66449
2.55471
74.2948
69.1634
64.0306
58.8974
53.7647
48.6334
43.504
38.3771
33.2528
28.1312
23.0122
17.8956
12.7811
7.66799
2.55589
74.2958
69.1661
64.035
58.9033
53.7718
48.6414
43.5126
38.3858
33.2613
28.1391
23.0192
17.9014
12.7853
7.67063
2.55678
74.2964
69.168
64.0381
58.9074
53.7768
48.647
43.5186
38.3919
33.2672
28.1446
23.0241
17.9054
12.7883
7.67249
2.55741
74.2968
69.1692
64.0399
58.9098
53.7797
48.6503
43.5221
38.3955
33.2708
28.148
23.027
17.9079
12.7902
7.67362
2.55779
74.2969
69.1695
64.0405
58.9106
53.7807
48.6515
43.5234
38.3968
33.2721
28.1492
23.0282
17.9088
12.7909
7.67406
2.55794
74.2968
69.1691
64.0399
58.9098
53.7798
48.6505
43.5224
38.3959
33.2712
28.1484
23.0275
17.9083
12.7905
7.67383
2.55786
74.2964
69.168
64.038
58.9074
53.777
48.6474
43.5191
38.3926
33.268
28.1455
23.025
17.9062
12.789
7.67292
2.55756
74.2957
69.166
64.0349
58.9033
53.7721
48.6419
43.5134
38.3869
33.2626
28.1405
23.0207
17.9027
12.7864
7.67131
2.55701
74.2948
69.1632
64.0304
58.8973
53.7649
48.634
43.5051
38.3786
33.2546
28.1333
23.0143
17.8975
12.7826
7.66897
2.55623
74.2934
69.1594
64.0242
58.8892
53.7553
48.6234
43.494
38.3675
33.244
28.1235
23.0059
17.8906
12.7775
7.66585
2.55517
74.2917
69.1544
64.0162
58.8787
53.7429
48.6097
43.4797
38.3532
33.2304
28.1111
22.995
17.8818
12.771
7.66187
2.55383
74.2896
69.148
64.0061
58.8654
53.7272
48.5924
43.4617
38.3353
33.2134
28.0956
22.9816
17.8709
12.763
7.65695
2.55218
74.2868
69.14
63.9933
58.8487
53.7076
48.571
43.4395
38.3134
33.1926
28.0767
22.9653