/*--------------------------------*- C++ -*----------------------------------*\
| =========                 |                                                 |
| \\      /  F ield         | OpenFOAM: The Open Source CFD Toolbox           |
|  \\    /   O peration     | Version:  5.x                                   |
|   \\  /    A nd           | Web:      www.OpenFOAM.org                      |
|    \\/     M anipulation  |                                                 |
\*---------------------------------------------------------------------------*/
FoamFile
{
    version     2.0;
    format      ascii;
    class       volScalarField;
    location    "15.9";
    object      gradTy;
}
// * * * * * * * * * * * * * * * * * * * * * * * * * * * * * * * * * * * * * //

dimensions      [0 -1 0 1 0 0 0];

internalField   nonuniform List<scalar> 
6300
(
1006.57
1019.68
1032.74
1045.7
1058.52
1071.16
1083.58
1095.75
1107.62
1119.17
1130.35
1141.13
1151.49
1161.4
1170.84
0.0293139
0.0879336
0.146515
0.204997
0.263258
0.321094
0.378174
0.434014
0.487935
0.53904
0.586206
0.628111
0.663306
0.690335
0.707889
0.0488651
0.146592
0.244294
0.341895
0.439228
0.535984
0.631657
0.725475
0.816339
0.902758
0.982833
1.05428
1.11455
1.16103
1.19136
0.0684182
0.205273
0.342165
0.479048
0.615756
0.751936
0.886968
1.01986
1.14916
1.27279
1.38806
1.4916
1.57955
1.64785
1.69273
0.0879479
0.263908
0.440035
0.616362
0.792791
0.969011
1.14439
1.31783
1.4876
1.65115
1.80496
1.94446
2.06416
2.15805
2.22039
0.107412
0.322365
0.537685
0.753548
0.970005
1.18689
1.40371
1.61941
1.83221
2.03921
2.23613
2.41706
2.57449
2.69973
2.78404
0.126743
0.380444
0.634776
0.890117
1.14676
1.40481
1.66409
1.92386
2.18256
2.43727
2.6832
2.91309
3.11692
3.28224
3.39565
0.145855
0.437876
0.730834
1.02536
1.32205
1.62145
1.9239
2.22933
2.53682
2.84403
3.1462
3.43506
3.69774
3.9165
4.07047
0.164649
0.494354
0.825301
1.15839
1.49459
1.83499
2.18068
2.53264
2.89128
3.25571
3.62238
3.98307
4.32231
4.61537
4.82915
0.183031
0.549574
0.917604
1.28826
1.66289
2.04316
2.43113
2.82919
3.23985
3.66502
4.1044
4.55234
4.99286
5.39331
5.70089
0.200924
0.603288
1.00725
1.41411
1.82548
2.24358
2.6714
3.11302
3.57377
4.05997
4.57766
5.12883
5.70326
6.26391
6.72903
0.218297
0.655378
1.09398
1.53539
1.9813
2.4342
2.89776
3.3776
3.88208
4.42326
5.01724
5.68185
6.42721
7.22983
7.97922
0.235177
0.705919
1.17788
1.65211
2.13007
2.61405
3.10775
3.6174
4.1535
4.73357
5.38599
6.1539
7.09367
8.24872
9.54206
0.251663
0.755215
1.25947
1.76503
2.27275
2.78408
3.30167
3.83061
4.38078
4.97131
5.63905
6.45387
7.54462
9.12897
11.4588
0.267916
0.80378
1.33972
1.87573
2.41174
2.94774
3.4841
4.02243
4.56749
5.13166
5.7448
6.4777
7.50171
9.26328
13.0882
1179.06
1186.19
1192.98
1199.45
1205.59
1211.41
1216.94
1222.18
1227.15
1231.88
1236.38
1240.68
1244.8
1248.76
1252.59
1256.3
1259.91
1263.46
1266.97
1270.44
1273.91
1277.38
1280.89
1284.44
1288.05
1291.73
1295.49
1299.35
1303.3
1307.36
1311.52
1315.78
1320.15
1324.61
1329.16
1333.79
1338.5
1343.27
1348.09
1352.95
1357.83
1362.71
1367.58
1372.42
1377.2
1381.91
1386.53
1391.03
1395.39
1399.61
1403.65
1407.51
1411.15
1414.55
1417.7
1420.57
1423.13
1425.35
1427.21
1428.66
1429.69
1430.25
1430.3
1429.82
1428.75
1427.06
1424.7
1421.61
1417.73
1413.01
1407.38
1400.76
1393.07
1384.24
1374.18
1362.8
1350.01
1335.71
1319.81
1302.21
1282.8
1261.5
1238.21
1212.85
1185.34
1155.62
1123.63
1089.36
1052.79
1013.93
0.714405
0.712767
0.703557
0.687035
0.663702
0.634253
0.599513
0.560369
0.517713
0.472394
0.425186
0.376771
0.327733
0.278567
0.229686
0.181444
0.134152
0.0881011
0.0435785
0.000888868
-0.0396345
-0.0776212
-0.112663
-0.144324
-0.172156
-0.195734
-0.21469
-0.22876
-0.237819
-0.241909
-0.241237
-0.23614
-0.227019
-0.214257
-0.198133
-0.178777
-0.156158
-0.130143
-0.10059
-0.067466
-0.0309489
0.00851181
0.050207
0.0932547
0.136748
0.179926
0.222328
0.26388
0.304914
0.3461
0.388319
0.432511
0.479512
0.529928
0.584066
0.641935
0.703323
0.767928
0.835521
0.906087
0.979924
1.05767
1.14027
1.22889
1.3248
1.42921
1.54316
1.66741
1.80239
1.94817
2.1045
2.2709
2.44675
2.63131
2.82378
3.02321
3.22842
3.43783
3.64931
3.86003
4.0663
4.26358
4.44651
4.60912
4.74508
4.84816
4.91271
4.93418
4.90957
4.83779
1.20273
1.20003
1.18428
1.15595
1.11596
1.06557
1.00626
0.939603
0.867158
0.790393
0.710625
0.628999
0.546481
0.463874
0.381842
0.300941
0.221658
0.144445
0.0697551
-0.00192623
-0.070056
-0.134017
-0.193117
-0.246595
-0.29366
-0.333539
-0.365553
-0.389198
-0.404229
-0.410718
-0.409063
-0.39993
-0.384122
-0.362404
-0.335328
-0.30311
-0.265618
-0.222478
-0.17327
-0.117773
-0.0561924
0.0107046
0.0815978
0.154784
0.228478
0.301175
0.371959
0.440687
0.508016
0.575258
0.644135
0.716461
0.79383
0.877367
0.967578
1.06436
1.16714
1.27517
1.38784
1.50498
1.62702
1.75508
1.8909
2.0366
2.1945
2.36686
2.55556
2.76197
2.98683
3.23016
3.49147
3.76982
4.06405
4.37296
4.69525
5.02954
5.37408
5.72652
6.08356
6.44063
6.79167
7.12903
7.44348
7.72456
7.96108
8.14189
8.25674
8.29731
8.25804
8.13687
1.70977
1.70604
1.68307
1.64161
1.58315
1.50969
1.42355
1.32714
1.2228
1.1127
0.998731
0.882508
0.765359
0.64836
0.532376
0.418119
0.306195
0.19717
0.0916159
-0.00983691
-0.106459
-0.197393
-0.28164
-0.358075
-0.425483
-0.482642
-0.528438
-0.56201
-0.58291
-0.591225
-0.587628
-0.573301
-0.549705
-0.518242
-0.479902
-0.435011
-0.383187
-0.323529
-0.254983
-0.176818
-0.0890704
0.00716365
0.109707
0.215598
0.321661
0.425194
0.524561
0.619521
0.711251
0.802073
0.894996
0.993158
1.09928
1.21521
1.34164
1.47815
1.6234
1.77574
1.93374
2.0968
2.26543
2.44134
2.62728
2.82671
3.0434
3.28096
3.54244
3.82999
4.14463
4.48628
4.85389
5.24583
5.66022
6.09529
6.54943
7.02107
7.50834
8.00856
8.51771
9.02986
9.53672
10.0274
10.4884
10.9041
11.2573
11.5305
11.7077
11.7753
11.7244
11.5514
2.24446
2.23977
2.20847
2.15176
2.07194
1.97209
1.85565
1.72611
1.58678
1.44062
1.29015
1.13742
0.984101
0.831469
0.680519
0.532034
0.386664
0.245006
0.107685
-0.0245851
-0.15093
-0.270268
-0.381282
-0.482417
-0.571925
-0.647965
-0.708777
-0.752921
-0.77956
-0.788729
-0.78149
-0.759864
-0.726458
-0.683825
-0.63375
-0.576735
-0.511881
-0.43722
-0.350389
-0.249503
-0.134011
-0.0053037
0.133155
0.276323
0.418644
0.55537
0.683662
0.803161
0.915946
1.02601
1.13846
1.25855
1.39077
1.53807
1.70138
1.87949
2.06963
2.2683
2.47252
2.68077
2.89352
3.11331
3.34438
3.59213
3.86239
4.16077
4.49194
4.85912
5.26368
5.70513
6.18142
6.68963
7.22674
7.79028
8.37851
8.99019
9.62403
10.2778
10.9476
11.6268
12.3051
12.9686
13.5988
14.1737
14.6685
15.0576
15.3163
15.424
15.3664
15.1377
2.81728
2.81174
2.77035
2.69505
2.58948
2.45826
2.30647
2.13904
1.96048
1.77464
1.58469
1.3931
1.20177
1.01208
0.825043
0.6414
0.461727
0.286548
0.116432
-0.0479078
-0.205526
-0.355162
-0.495178
-0.623528
-0.73778
-0.835231
-0.913132
-0.969051
-1.00138
-1.00987
-0.99608
-0.963402
-0.916511
-0.860142
-0.797614
-0.729768
-0.654724
-0.568466
-0.466069
-0.343262
-0.198028
-0.0318626
0.149769
0.338208
0.523621
0.697621
0.855353
0.996391
1.12447
1.24644
1.37083
1.50637
1.66043
1.8378
2.03967
2.26344
2.50345
2.75275
3.00538
3.25812
3.51134
3.76889
4.03734
4.32498
4.64075
4.99319
5.38942
5.83425
6.32946
6.87366
7.46282
8.09161
8.755
9.44951
10.1736
10.9272
11.7107
12.5238
13.3638
14.2245
15.0947
15.9573
16.7884
17.5582
18.2319
18.772
19.1421
19.3105
19.2545
18.9645
3.44149
3.43522
3.3809
3.28182
3.14378
2.97392
2.77964
2.56784
2.34448
2.11442
1.88141
1.64825
1.41691
1.18872
0.964549
0.744924
0.530203
0.320688
0.11676
-0.0810037
-0.271703
-0.453989
-0.625948
-0.785006
-0.927892
-1.05071
-1.14919
-1.21921
-1.25757
-1.26315
-1.23792
-1.18746
-1.12027
-1.04538
-0.969194
-0.893233
-0.81378
-0.723023
-0.61122
-0.469405
-0.292282
-0.0808005
0.156467
0.404328
0.644905
0.863163
1.05094
1.20813
1.34164
1.4632
1.58699
1.72731
1.89635
2.10204
2.34623
2.6238
2.92367
3.23221
3.53786
3.83454
4.1227
4.40854
4.70241
5.01706
5.36604
5.76227
6.21666
6.73654
7.3244
7.97713
8.68685
9.44344
10.2381
11.0658
11.9258
12.8207
13.7545
14.7306
15.7498
16.8082
17.8949
18.9907
20.0659
21.0808
21.9869
22.7307
23.2578
23.5194
23.479
23.1195
4.13458
4.12769
4.05571
3.9245
3.74373
3.52457
3.27787
3.01311
2.73795
2.45823
2.17815
1.90058
1.62732
1.35941
1.09734
0.841235
0.591035
0.346649
0.108085
-0.124392
-0.350106
-0.567792
-0.775392
-0.969861
-1.14698
-1.30131
-1.42633
-1.515
-1.56105
-1.56089
-1.51615
-1.43568
-1.33519
-1.23259
-1.14053
-1.06182
-0.989208
-0.90798
-0.799687
-0.646503
-0.436134
-0.167009
0.147758
0.480777
0.798153
1.07241
1.29038
1.4538
1.57582
1.67655
1.77915
1.90669
2.07926
2.31061
2.60448
2.95178
3.33115
3.71556
4.08299
4.42296
4.73711
5.03634
5.33728
5.65941
6.02295
6.4473
6.94924
7.54062
8.22555
8.99817
9.843
10.7401
11.6732
12.6351
13.6274
14.6578
15.7369
16.8749
18.0789
19.3504
20.6817
22.0531
23.4297
24.7594
25.9752
27.0006
27.7552
28.1628
28.1623
27.7221
4.92128
4.91372
4.81562
4.63835
4.3988
4.11476
3.80205
3.47332
3.13798
2.80256
2.47129
2.1467
1.83004
1.52172
1.22157
0.929078
0.643549
0.364285
0.0907168
-0.177437
-0.439982
-0.696017
-0.943639
-1.17958
-1.39878
-1.59401
-1.75565
-1.87204
-1.93093
-1.92267
-1.84568
-1.71263
-1.553
-1.40449
-1.29253
-1.22149
-1.17692
-1.13178
-1.05266
-0.905817
-0.664472
-0.318833
0.112861
0.579831
1.01356
1.3628
1.60843
1.75912
1.84074
1.88731
1.93547
2.02133
2.17762
2.42921
2.78585
3.23361
3.73142
4.2234
4.66768
5.04858
5.37302
5.66169
5.94169
6.24216
6.59235
7.02063
7.55305
8.20997
9.00044
9.91521
10.9239
11.9846
13.0669
14.1607
15.274
16.4246
17.6343
18.9239
20.3109
21.8062
23.4104
25.108
26.8607
28.6016
30.2376
31.6602
32.752
33.3935
33.4786
32.943
5.83927
5.82995
5.68941
5.44176
5.11783
4.74616
4.34923
3.94307
3.53819
3.141
2.75495
2.38152
2.0209
1.67243
1.33496
1.00708
0.687238
0.373929
0.0657723
-0.238325
-0.538987
-0.836104
-1.12845
-1.41312
-1.6848
-1.93477
-2.14983
-2.3116
-2.39718
-2.38315
-2.25565
-2.02752
-1.75453
-1.52345
-1.3853
-1.34276
-1.36518
-1.40422
-1.40288
-1.30091
-1.04269
-0.594285
0.0274479
0.727021
1.3509
1.80264
2.06344
2.16417
2.15638
2.09603
2.03778
2.03484
2.13905
2.39685
2.83631
3.44365
4.14036
4.80021
5.34389
5.75576
6.06068
6.2998
6.51689
6.75358
7.04956
7.44431
7.97783
8.6873
9.59659
10.6972
11.9301
13.1985
14.4439
15.6585
16.8669
18.1066
19.4167
20.8329
22.3871
24.1053
26.0045
28.0838
30.3088
32.5949
34.8074
36.7961
38.3972
39.4255
39.6887
39.0435
6.95166
6.93496
6.71732
6.35489
5.90545
5.4137
4.90946
4.41066
3.92704
3.4631
3.02016
2.59767
2.19402
1.80707
1.43434
1.07329
0.721346
0.375988
0.03483
-0.304301
-0.643228
-0.98318
-1.3244
-1.66546
-2.00218
-2.32588
-2.62081
-2.86094
-3.00692
-3.00706
-2.81057
-2.40708
-1.89579
-1.50868
-1.34047
-1.37054
-1.52959
-1.7349
-1.89811
-1.92113
-1.69492
-1.11947
-0.170215
0.983037
1.9359
2.51725
2.74874
2.72523
2.54748
2.30143
2.06018
1.89378
1.87904
2.10259
2.64476
3.52467
4.60208
5.54397
6.20955
6.61662
6.84274
6.96924
7.06345
7.17923
7.36413
7.66775
8.14881
8.87647
9.91678
11.2884
12.8844
14.4451
15.8648
17.1647
18.4142
19.6868
21.0454
22.5428
24.2264
26.1429
28.3386
30.849
33.668
36.6936
39.6984
42.4892
44.8664
46.5581
47.2061
46.4592
8.3793
8.32901
7.95345
7.39298
6.75373
6.09903
5.46167
4.85623
4.28739
3.75482
3.25578
2.78654
2.34302
1.92112
1.51684
1.12634
0.745921
0.371965
0.000951271
-0.370578
-0.74598
-1.12841
-1.52054
-1.92401
-2.33826
-2.75832
-3.17063
-3.54573
-3.82656
-3.91402
-3.66348
-2.94178
-1.85815
-1.17866
-1.01006
-1.21258
-1.62735
-2.12615
-2.59514
-2.90016
-2.84997
-2.18289
-0.661618
1.52759
3.05579
3.73552
3.80113
3.50831
3.03684
2.49984
1.97475
1.53427
1.27583
1.34949
1.96678
3.32122
5.25882
6.68545
7.44728
7.73787
7.76804
7.68503
7.57879
7.5052
7.50756
7.63554
7.96452
8.61528
9.75961
11.5564
13.8893
15.8945
17.458
18.7429
19.928
21.1428
22.474
23.984
25.7298
27.7781
30.2191
33.1692
36.7291
40.8216
44.8971
48.7772
52.3221
55.1929
56.7314
56.022
10.4028
10.191
9.45541
8.5442
7.62396
6.75914
5.96773
5.24895
4.59544
3.99819
3.44848
2.93838
2.4609
2.00981
1.57953
1.16495
0.761258
0.363796
-0.0320825
-0.431157
-0.838481
-1.25951
-1.70019
-2.16686
-2.66579
-3.2017
-3.77379
-4.36604
-4.92441
-5.3074
-5.19462
-3.99744
-1.23835
-0.112837
-0.145083
-0.748821
-1.60396
-2.56012
-3.52805
-4.39045
-4.8931
-4.47612
-2.11467
3.02406
5.3975
5.83813
5.36966
4.54865
3.62063
2.68116
1.76761
0.91277
0.194546
-0.186283
0.227444
2.27813
6.65138
8.78424
9.36355
9.23409
8.85629
8.43425
8.04714
7.72185
7.47016
7.31395
7.31696
7.6434
8.6629
11.0526
15.3657
17.98
19.4519
20.4649
21.3986
22.4311
23.6447
25.0857
26.7974
28.8475
31.3665
34.6109
39.0229
44.9736
50.3765
55.5474
60.7481
65.7454
69.4928
69.6515
13.8575
12.8071
11.2099
9.70809
8.41409
7.31324
6.3689
5.54741
4.82218
4.17287
3.58389
3.04306
2.54058
2.06836
1.61947
1.18775
0.767505
0.353244
-0.0605986
-0.479923
-0.911296
-1.36237
-1.84243
-2.36324
-2.94004
-3.59292
-4.34786
-5.23505
-6.2747
-7.41455
-8.28719
-7.30216
1.73378
2.62009
1.54277
0.076914
-1.43512
-2.97711
-4.61287
-6.39873
-8.26038
-9.56931
-7.56702
8.50235
10.5222
9.24955
7.44558
5.74284
4.22066
2.82496
1.47575
0.0944189
-1.37268
-2.86629
-3.86921
-2.10962
11.2698
13.1198
12.3
11.0876
10.0079
9.13281
8.42615
7.83221
7.29497
6.76282
6.2034
5.67327
5.59286
7.7787
19.288
21.7101
22.1062
22.3007
22.7264
23.4579
24.4875
25.797
27.3772
29.2411
31.4685
34.3705
39.1002
49.9136
56.1889
62.2735
69.4657
78.0965
87.4206
93.0394
21.9642
16.2102
12.8265
10.5724
8.92579
7.64171
6.59298
5.70712
4.93946
4.26057
3.64991
3.09245
2.57666
2.09331
1.63469
1.19404
0.765184
0.342149
-0.0811438
-0.511247
-0.955634
-1.42333
-1.92587
-2.47883
-3.10454
-3.83695
-4.73125
-5.88421
-7.48036
-9.90612
-14.0544
-22.1998
16.4414
8.18062
3.79013
0.969228
-1.223
-3.25886
-5.48126
-8.29752
-12.4231
-19.4302
-33.2756
34.2118
20.3877
13.4259
9.37556
6.67695
4.63854
2.90187
1.23022
-0.600276
-2.9015
-6.25264
-11.9436
-23.2297
32.4904
21.2994
15.8019
12.7496
10.8649
9.58875
8.64281
7.86089
7.11249
6.251
5.04775
3.05566
-0.740464
-8.92086
36.2955
28.3575
25.0505
23.803
23.6136
24.0553
24.9268
26.1183
27.548
29.1111
30.5989
31.4978
30.4167
61.3879
62.2751
67.404
76.111
89.448
110.683
148.088
968.703
916.205
860.686
802.319
741.305
677.867
612.242
544.672
475.403
404.677
332.732
259.8
186.109
111.88
37.3288
4.70799
4.50444
4.2474
3.94757
3.61642
3.26502
2.90303
2.53824
2.17631
1.82086
1.47373
1.13526
0.80463
0.48016
0.159606
7.91538
7.56673
7.12652
6.61407
6.04991
5.4535
4.84157
4.22728
3.62002
3.02556
2.44663
1.88341
1.33421
0.795915
0.26452
11.2297
10.7205
10.0778
9.33224
8.51563
7.65748
6.78245
5.90932
5.05092
4.21473
3.40378
2.61753
1.85285
1.10476
0.367073
14.7023
14.0078
13.132
12.1213
11.0228
9.8783
8.72142
7.57661
6.4596
5.37868
4.33621
3.33004
2.35487
1.40318
0.466078
18.3942
17.4759
16.3207
14.9981
13.5758
12.1113
10.6482
9.21603
7.83217
6.50418
5.23231
4.01156
2.83339
1.68699
0.560132
22.3818
21.1807
19.6764
17.9742
16.1707
14.3427
12.5438
10.807
9.14877
7.57354
6.07728
4.65047
3.28014
1.95124
0.64759
26.7653
25.1881
23.2295
21.0512
18.7899
16.5445
14.3768
12.319
10.3822
8.56383
6.85275
5.23288
3.68543
2.19025
0.726574
31.682
29.5766
27.0021
24.2108
21.3931
18.6686
16.0998
13.7097
11.497
9.44665
7.53692
5.74283
4.03843
2.39773
0.795031
37.3283
34.4342
30.9913
27.3968
23.903
20.6369
17.644
14.9228
12.4491
10.1887
8.10534
6.16304
4.32771
2.56718
0.850854
43.9968
39.8399
35.1312
30.4817
26.1844
22.3318
18.9162
15.8884
13.1875
10.7537
8.53257
6.47619
4.54214
2.69241
0.89205
52.1349
45.7965
39.2114
33.2138
28.0205
23.5894
19.8003
16.5268
13.6587
11.1057
8.79494
6.66694
4.67222
2.76824
0.916978
62.3707
51.9993
42.7038
35.1413
29.094
24.2046
20.1685
16.7596
13.8146
11.2154
8.87441
6.72432
4.71152
2.7913
0.924599
75.0341
57.1253
44.4628
35.5529
29.0093
23.966
19.9094
16.5281
13.6244
11.0668
8.76285
6.64434
4.65817
2.76084
0.914701
85.9629
57.004
42.4684
33.5977
27.4238
22.7404
18.9749
15.8186
13.0879
10.6643
8.46576
6.43194
4.51593
2.67914
0.888063
0.282772
0.84819
1.41315
1.97707
2.53894
3.09711
3.64913
4.19172
4.72124
5.23542
5.73822
6.25209
6.84791
7.71828
9.35634
0.296363
0.88888
1.48064
2.07067
2.65723
3.23731
3.80585
4.35476
4.87128
5.33584
5.71858
5.97204
6.00629
5.57724
3.7479
0.310094
0.930078
1.54929
2.16663
2.77997
3.38542
3.97611
4.54015
5.05727
5.49298
5.7886
5.84402
5.48622
4.40848
2.07437
0.323959
0.971793
1.61921
2.26531
2.90812
3.54371
4.16475
4.75799
5.29966
5.74727
6.02527
6.00277
5.46603
4.11201
1.66095
0.337875
1.01378
1.69
2.36624
3.04122
3.71199
4.37257
5.01151
5.60725
6.11916
6.47044
6.51845
6.01329
4.57726
1.85224
0.351676
1.05552
1.76076
2.46798
3.17717
3.88726
4.5953
5.29489
5.97294
6.60245
7.12599
7.41816
7.20678
5.93753
2.72366
0.365126
1.09628
1.8301
2.56829
3.31241
4.06384
4.82376
5.59308
6.3722
7.15919
7.94191
8.66746
9.13467
8.64807
5.14602
0.377942
1.13515
1.89637
2.66444
3.44251
4.23443
5.04553
5.88431
6.76586
7.71875
8.79726
10.096
11.7247
13.4524
12.2835
0.38983
1.17121
1.95785
2.75359
3.56291
4.39157
5.24794
6.14565
7.10978
8.19092
9.49942
11.295
14.2456
20.2679
35.6694
0.400512
1.2036
2.01297
2.83324
3.66979
4.52939
5.42148
6.36067
7.37226
8.505
9.86303
11.6917
14.6331
20.5696
35.7888
0.409754
1.23158
2.06047
2.90153
3.76058
4.64453
5.56217
6.52524
7.55038
8.66244
9.8995
11.3154
12.9401
14.4246
12.6808
0.417377
1.25463
2.09946
2.95727
3.83398
4.73617
5.67117
6.64651
7.66794
8.73287
9.81151
10.7938
11.3441
10.5209
5.97382
0.423257
1.27237
2.12939
2.99983
3.88959
4.80491
5.752
6.73561
7.75509
8.79354
9.79013
10.572
10.7017
9.20295
4.40595
0.427317
1.28461
2.14993
3.02889
3.92736
4.85149
5.80732
6.79963
7.82885
8.88306
9.91758
10.8028
11.1898
10.1752
5.62609
0.429525
1.29123
2.16096
3.04432
3.94721
4.87592
5.83715
6.83785
7.88508
8.986
10.1484
11.3794
12.651
13.6018
11.501
0.429878
1.29224
2.16249
3.04612
3.94902
4.87765
5.83941
6.84357
7.90383
9.04603
10.3313
11.9275
14.3347
19.1471
31.8902
0.428413
1.28774
2.15466
3.03447
3.93288
4.85624
5.81207
6.81015
7.86549
9.00646
10.2981
11.9121
14.3477
19.1845
31.9173
0.425198
1.27795
2.13784
3.00984
3.89931
4.81217
5.75523
6.73677
7.76748
8.86203
10.0408
11.3259
12.6928
13.7383
11.6127
0.420336
1.26317
2.11255
2.97302
3.84942
4.747
5.67152
6.62907
7.62493
8.6589
9.70936
10.6825
11.2607
10.4937
5.96045
0.413962
1.24382
2.07951
2.92507
3.78473
4.66301
5.56472
6.49459
7.45571
8.44412
9.43141
10.313
10.7626
9.86441
5.43836
0.406237
1.22038
2.03958
2.86726
3.70702
4.56264
5.43823
6.33823
7.26736
8.22989
9.22661
10.2433
11.2001
11.6847
9.39578
0.39734
1.19342
1.99369
2.80099
3.6182
4.44831
5.29466
6.16149
7.05565
7.9917
9.00766
10.2151
11.9653
15.4309
24.8131
0.387464
1.16351
1.94289
2.72779
3.52033
4.32258
5.13673
5.96562
6.81468
7.69785
8.65549
9.80964
11.539
15.0678
24.6548
0.376803
1.13125
1.88821
2.64922
3.41564
4.1885
4.96842
5.75558
6.54988
7.35212
8.16665
9.00452
9.86269
10.4972
8.84321
0.365545
1.09724
1.83068
2.56684
3.30639
4.0494
4.79498
5.54041
6.27941
6.99768
7.66139
8.18509
8.34148
7.51574
4.16501
0.353861
1.06198
1.7712
2.48206
3.19467
3.90843
4.6215
5.32957
6.02317
6.68097
7.25317
7.62055
7.5021
6.28752
2.94454
0.341897
1.02592
1.71056
2.39601
3.08206
3.76785
4.45139
5.12866
5.79164
6.42356
6.98699
7.39321
7.42373
6.5372
3.49214
0.329765
0.989407
1.64932
2.30949
2.96958
3.62875
4.28552
4.93754
5.58154
6.21356
6.82979
7.42663
7.98201
8.2857
6.77521
0.317549
0.952682
1.58787
2.22298
2.85766
3.49124
4.12285
4.75188
5.37964
6.01438
6.68588
7.48869
8.71489
11.2939
18.4192
0.305302
0.915898
1.52643
2.13673
2.74643
3.35501
3.96186
4.56698
5.17278
5.78954
6.45063
7.25655
8.50813
11.1446
18.363
0.293053
0.879137
1.46512
2.05083
2.63594
3.2199
3.80199
4.38149
4.95819
5.53378
6.11466
6.71476
7.33945
7.81309
6.59325
0.280812
0.842424
1.40397
1.96532
2.52618
3.086
3.64383
4.19783
4.74424
5.27423
5.76519
6.15573
6.2755
5.65746
3.13352
0.268573
0.805737
1.34293
1.88011
2.41708
2.95344
3.48824
4.01935
4.54158
5.04167
5.48533
5.78459
5.72379
4.82524
2.27308
0.256317
0.76901
1.28187
1.79499
2.30836
2.82188
3.33513
3.84695
4.35417
4.84819
5.3056
5.66337
5.75372
5.14124
2.79732
0.244012
0.732147
1.22062
1.70965
2.19949
2.69045
3.18293
3.67765
4.17585
4.68002
5.19492
5.72776
6.27159
6.6595
5.57896
0.231625
0.695036
1.15894
1.62371
2.0898
2.55788
3.02912
3.50583
3.9933
4.50429
5.07165
5.78439
6.89759
9.19737
15.3586
0.21912
0.657567
1.09664
1.53682
1.97868
2.42308
2.87142
3.32648
3.79432
4.28931
4.84732
5.5628
6.6994
9.05346
15.3042
0.206469
0.619646
1.03355
1.44872
1.86577
2.28548
2.70898
3.13815
3.57641
4.03047
4.51352
5.04863
5.65561
6.20331
5.40216
0.193646
0.581204
0.969567
1.35929
1.75096
2.14519
2.54255
2.94344
3.34745
3.75142
4.14346
4.48443
4.65286
4.28972
2.44664
0.180634
0.54219
0.904614
1.26848
1.63435
2.00267
2.3736
2.74649
3.11842
3.48058
3.80877
4.03993
4.01916
3.40378
1.60924
0.167417
0.502561
0.838638
1.17626
1.516
1.85829
2.20325
2.55013
2.8961
3.23325
3.54135
3.77031
3.79829
3.33662
1.76066
0.15398
0.462274
0.771572
1.08254
1.39583
1.71202
2.03152
2.35436
2.67985
3.00603
3.32881
3.64017
3.91736
4.0432
3.26298
0.140307
0.421279
0.703328
0.987191
1.27362
1.56342
1.85742
2.15668
2.46306
2.78109
3.12413
3.53368
4.14145
5.37889
8.75534
0.126383
0.379526
0.63381
0.890033
1.14906
1.41185
1.67961
1.95402
2.23813
2.53873
2.87317
3.28946
3.92817
5.22902
8.70082
0.112195
0.336974
0.562932
0.790911
1.02185
1.25681
1.49714
1.74457
2.0017
2.27282
2.56531
2.89069
3.25499
3.57143
3.08993
0.0977355
0.293594
0.490637
0.689722
0.891812
1.09803
1.30969
1.52833
1.75552
1.99201
2.23455
2.46483
2.61496
2.4679
1.43614
0.083004
0.249386
0.416914
0.58643
0.758895
0.935436
1.11737
1.30611
1.50282
1.70697
1.91223
2.09458
2.18125
1.97867
1.06047
0.0680107
0.204377
0.341802
0.481078
0.623132
0.769081
0.920284
1.07834
1.24491
1.42113
1.60578
1.79073
1.94836
1.98636
1.52002
0.0527767
0.158627
0.265396
0.373787
0.48465
0.599061
0.718423
0.844619
0.980281
1.12939
1.29907
1.50583
1.79848
2.34424
3.76682
0.0373349
0.112236
0.187857
0.26477
0.343693
0.425587
0.511796
0.604308
0.706292
0.823338
0.966571
1.16126
1.47278
2.09317
3.66615
0.0217317
0.0653423
0.109418
0.15435
0.200664
0.249105
0.300777
0.357401
0.421828
0.499087
0.598315
0.735516
0.932556
1.18051
1.18267
0.00602574
0.018124
0.0303811
0.0429669
0.0561531
0.0703726
0.0863093
0.105059
0.128442
0.159569
0.203671
0.2682
0.356951
0.438525
0.343254
-0.00971302
-0.0292056
-0.048885
-0.0688345
-0.0890771
-0.109556
-0.130118
-0.150506
-0.170331
-0.188965
-0.205168
-0.215948
-0.213681
-0.180667
-0.0855906
-0.0254056
-0.0764052
-0.127963
-0.180432
-0.234142
-0.289424
-0.346666
-0.406464
-0.46993
-0.539186
-0.617772
-0.709154
-0.805668
-0.842956
-0.567285
-0.040967
-0.123216
-0.206407
-0.291163
-0.378113
-0.467927
-0.561432
-0.659868
-0.765502
-0.882918
-1.02148
-1.19878
-1.43877
-1.72256
-1.64543
-0.0563092
-0.169371
-0.283761
-0.400367
-0.520086
-0.64386
-0.772764
-0.908262
-1.05288
-1.21194
-1.39828
-1.64485
-2.04143
-2.85278
-4.95529
-0.0713427
-0.214599
-0.35957
-0.5074
-0.659235
-0.816219
-0.979503
-1.15031
-1.33019
-1.52201
-1.73323
-1.98672
-2.35601
-3.08629
-5.04483
-0.0859784
-0.258634
-0.433388
-0.611644
-0.794796
-0.984186
-1.181
-1.38603
-1.59919
-1.81856
-2.0388
-2.24812
-2.41985
-2.4668
-1.93842
-0.100127
-0.301206
-0.504766
-0.712476
-0.926008
-1.14698
-1.37677
-1.61609
-1.86383
-2.11448
-2.35192
-2.53559
-2.57031
-2.24678
-1.15729
-0.113701
-0.342051
-0.573253
-0.809252
-1.05204
-1.30362
-1.5659
-1.84026
-2.12643
-2.41952
-2.70234
-2.92643
-2.96949
-2.55865
-1.22688
-0.126616
-0.380907
-0.638398
-0.901298
-1.17194
-1.45281
-1.74661
-2.05618
-2.38417
-2.73165
-3.09347
-3.44293
-3.68382
-3.50999
-2.0756
-0.138793
-0.417535
-0.699774
-0.987954
-1.28471
-1.593
-1.91634
-2.25928
-2.62832
-3.03377
-3.49313
-4.03476
-4.68607
-5.33664
-4.81097
-0.150166
-0.451727
-0.757012
-1.06864
-1.38944
-1.72269
-2.07241
-2.44421
-2.84713
-3.2984
-3.83557
-4.55035
-5.68873
-7.98001
-13.8631
-0.160682
-0.483323
-0.809834
-1.14292
-1.48551
-1.84091
-2.21311
-2.60746
-3.03233
-3.50329
-4.05459
-4.77169
-5.89065
-8.1289
-13.9199
-0.170307
-0.512222
-0.858073
-1.21059
-1.57266
-1.94743
-2.33838
-2.74947
-3.18544
-3.65233
-4.15838
-4.71384
-5.31516
-5.81041
-4.9966
-0.179025
-0.538379
-0.901667
-1.27159
-1.65097
-2.04268
-2.4496
-2.87413
-3.31702
-3.77411
-4.22776
-4.62404
-4.81322
-4.40087
-2.44774
-0.186835
-0.561793
-0.940634
-1.32602
-1.72067
-2.12733
-2.54855
-2.98599
-3.43866
-3.89821
-4.3369
-4.67797
-4.72892
-4.06122
-1.94212
-0.193748
-0.582501
-0.975042
-1.37397
-1.78199
-2.20183
-2.63618
-3.08721
-3.55546
-4.03671
-4.51373
-4.93328
-5.14357
-4.7294
-2.66225
-0.199786
-0.600565
-1.00499
-1.4156
-1.83506
-2.26621
-2.71217
-3.17642
-3.66314
-4.17808
-4.73035
-5.33383
-5.99175
-6.5454
-5.64438
-0.204982
-0.616083
-1.03064
-1.45106
-1.87996
-2.32027
-2.77541
-3.24995
-3.75115
-4.29346
-4.91131
-5.69647
-6.91224
-9.37143
-15.8401
-0.209383
-0.629193
-1.05218
-1.4806
-1.91692
-2.36396
-2.82511
-3.3049
-3.81054
-4.35628
-4.97596
-5.75997
-6.96909
-9.41292
-15.8559
-0.213054
-0.640085
-1.06993
-1.50462
-1.9464
-2.39781
-2.86181
-3.34183
-3.84201
-4.36768
-4.9264
-5.52813
-6.16834
-6.67706
-5.69579
-0.216079
-0.649008
-1.0843
-1.5237
-1.96915
-2.42288
-2.88732
-3.36468
-3.85569
-4.35604
-4.84686
-5.26945
-5.45879
-4.97578
-2.76496
-0.218563
-0.656276
-1.0958
-1.53853
-1.9861
-2.44046
-2.9038
-3.37798
-3.86281
-4.35094
-4.81461
-5.17265
-5.21604
-4.47427
-2.13902
-0.220635
-0.662271
-1.10506
-1.54998
-1.9983
-2.45176
-2.91268
-3.38383
-3.86754
-4.36271
-4.85562
-5.29425
-5.51842
-5.07926
-2.86218
-0.222447
-0.667448
-1.11282
-1.55903
-2.00688
-2.45783
-2.91441
-3.38087
-3.86424
-4.37597
-4.93421
-5.56467
-6.28134
-6.9188
-6.0209
-0.224182
-0.672352
-1.11999
-1.5669
-2.01326
-2.45994
-2.90921
-3.36609
-3.84117
-4.35685
-4.96254
-5.77513
-7.09915
-9.8244
-16.9183
-0.226045
-0.677612
-1.12763
-1.57513
-2.01939
-2.4602
-2.89866
-3.33859
-3.78981
-4.27515
-4.84707
-5.63032
-6.94374
-9.69601
-16.8659
-0.228267
-0.683936
-1.13698
-1.58558
-2.02785
-2.46205
-2.88701
-3.30318
-3.71469
-4.13323
-4.58474
-5.11722
-5.78897
-6.4996
-5.84374
-0.231083
-0.692065
-1.14941
-1.60039
-2.04188
-2.47025
-2.88139
-3.27093
-3.63459
-3.96833
-4.26609
-4.5073
-4.60709
-4.25201
-2.48226
-0.234715
-0.702706
-1.16622
-1.62176
-2.06498
-2.49036
-2.89072
-3.25658
-3.5752
-3.82832
-3.98663
-3.99548
-3.74099
-2.98673
-1.33933
-0.239342
-0.716437
-1.18856
-1.65164
-2.10042
-2.5278
-2.92393
-3.27496
-3.56121
-3.75406
-3.81087
-3.66646
-3.22186
-2.34164
-0.912515
-0.245065
-0.733608
-1.21714
-1.6914
-2.15068
-2.58689
-2.98838
-3.33827
-3.612
-3.77419
-3.77473
-3.54585
-3.00515
-2.07767
-0.760617
-0.251883
-0.754245
-1.25212
-1.74154
-2.21691
-2.67002
-3.08861
-3.45437
-3.74018
-3.90649
-3.89783
-3.64169
-3.05697
-2.0842
-0.750492
-0.259669
-0.777981
-1.29295
-1.80139
-2.29856
-2.77707
-3.22545
-3.62593
-3.95124
-4.16023
-4.19267
-3.96561
-3.37821
-2.34132
-0.856516
-0.268161
-0.804021
-1.33827
-1.86904
-2.39311
-2.90497
-3.39547
-3.8496
-4.24298
-4.53645
-4.66762
-4.53967
-4.01151
-2.90942
-1.12101
-0.276968
-0.831162
-1.38598
-1.9413
-2.49607
-3.04765
-3.59068
-4.11534
-4.60401
-5.02526
-5.32238
-5.39152
-5.04326
-3.95408
-1.70047
-0.285588
-0.857849
-1.43331
-2.0139
-2.60121
-3.19618
-3.79857
-4.40598
-5.01172
-5.60012
-6.13532
-6.53309
-6.58942
-5.80727
-3.07659
-0.293449
-0.882295
-1.47704
-2.08179
-2.70098
-3.33949
-4.00289
-4.69766
-5.43132
-6.21178
-7.04352
-7.91161
-8.71766
-9.01353
-6.82927
-0.29995
-0.902625
-1.51378
-2.13962
-2.78729
-3.46546
-4.18533
-4.9622
-5.81824
-6.78763
-7.92632
-9.33306
-11.1998
-13.9419
-18.5501
60.6199
45.2352
35.9305
29.5316
24.7068
20.8378
17.6008
14.8069
12.3357
10.1046
8.05387
6.13749
4.31848
2.56555
0.85099
22.1558
28.8915
27.5289
24.5611
21.479
18.6122
16.0061
13.6366
11.4656
9.45631
7.57559
5.79464
4.08798
2.4327
0.807586
9.7858
18.1713
20.2416
19.6699
18.1016
16.2055
14.247
12.3281
10.4833
8.7186
7.02797
5.40013
3.82178
2.27889
0.757267
5.18382
11.8364
14.789
15.4705
14.9515
13.8419
12.4603
10.968
9.44512
7.92938
6.43668
4.97122
3.53092
2.11028
0.702022
3.16167
8.07097
10.9132
12.1045
12.2115
11.667
10.7502
9.62918
8.40191
7.12409
5.82642
4.5248
3.22636
1.93306
0.643845
2.12146
5.74087
8.18388
9.49146
9.9239
9.75059
9.1818
8.36401
7.39372
6.33252
5.21884
4.07612
2.91822
1.75297
0.584604
1.51421
4.22766
6.24295
7.48602
8.05683
8.10868
7.78622
7.20467
6.4486
5.57733
4.63137
3.63794
2.61514
1.57504
0.525942
1.12567
3.19924
4.83824
5.94734
6.55006
6.72663
6.57047
6.16645
5.58342
4.87396
4.07684
3.22013
2.32405
1.40335
0.469207
0.860577
2.47257
3.80146
4.76025
5.33915
5.57557
5.5268
5.25248
4.80598
4.23141
3.56364
2.82963
2.05004
1.24098
0.41543
0.671282
1.94247
3.02164
3.83692
4.36601
4.6225
4.63969
4.45802
4.11743
3.65354
3.09643
2.47074
1.79648
1.09006
0.365332
0.531544
1.54571
2.42506
3.11228
3.58213
3.83558
3.89063
3.77389
3.51446
3.14037
2.6768
2.14555
1.56524
0.951834
0.319354
0.425775
1.24254
1.96188
2.53858
2.94849
3.18638
3.26084
3.1888
2.99108
2.68931
2.30414
1.85441
1.35697
0.826845
0.277697
0.344158
1.00701
1.59773
2.08066
2.43428
2.65065
2.73275
2.69096
2.53993
2.29614
1.97629
1.59639
1.17137
0.71506
0.240373
0.280216
0.821574
1.30842
1.71253
2.01534
2.20815
2.29067
2.26896
2.15318
1.95577
1.69012
1.36968
1.00749
0.61603
0.207253
0.229518
0.673985
1.07654
1.41472
1.67278
1.8422
1.92096
1.91226
1.82308
1.66277
1.44199
1.17195
0.863925
0.52902
0.178111
0.188934
0.555495
0.889361
1.17253
1.39177
1.5392
1.61195
1.61143
1.54236
1.41174
1.22805
1.00059
0.739016
0.453117
0.152655
0.156199
0.459703
0.737383
0.974709
1.16063
1.28805
1.3538
1.35819
1.30436
1.19755
1.0445
0.852899
0.630993
0.387323
0.130563
0.12964
0.381841
0.613423
0.812583
0.970087
1.0797
1.13825
1.14538
1.10314
1.01546
0.887709
0.726246
0.538077
0.330616
0.111503
0.107996
0.318295
0.51197
0.679377
0.812796
0.906807
0.958398
0.966847
0.93345
0.861181
0.754322
0.618131
0.458553
0.281995
0.095147
0.0903032
0.26629
0.428755
0.569767
0.682863
0.763362
0.808496
0.81736
0.790749
0.730915
0.641296
0.526249
0.390816
0.240517
0.0811826
0.0758182
0.223671
0.360433
0.479538
0.575558
0.644468
0.683772
0.6925
0.671112
0.621327
0.54592
0.448519
0.333399