/*--------------------------------*- C++ -*----------------------------------*\
| =========                 |                                                 |
| \\      /  F ield         | OpenFOAM: The Open Source CFD Toolbox           |
|  \\    /   O peration     | Version:  5.x                                   |
|   \\  /    A nd           | Web:      www.OpenFOAM.org                      |
|    \\/     M anipulation  |                                                 |
\*---------------------------------------------------------------------------*/
FoamFile
{
    version     2.0;
    format      ascii;
    class       volScalarField;
    location    "5.7";
    object      gradTy;
}
// * * * * * * * * * * * * * * * * * * * * * * * * * * * * * * * * * * * * * //

dimensions      [0 -1 0 1 0 0 0];

internalField   nonuniform List<scalar> 
6300
(
1573.36
2718.44
3858.58
4990.48
6110.79
7216.18
8303.24
9368.6
10408.9
11420.7
12400.9
13346.5
14254.6
15122.8
15949.2
2.4124
7.24529
12.1013
16.9917
21.9211
26.8839
31.8613
36.817
41.6936
46.4101
50.8612
54.92
58.4451
61.2928
63.3331
4.01145
12.0494
20.1301
28.2755
36.4968
44.7891
53.125
61.448
69.6654
77.6429
85.2019
92.1232
98.1579
103.048
106.558
5.59533
16.8098
28.0929
39.4818
50.9998
62.6484
74.3989
86.1813
97.8734
109.29
120.176
130.207
139.008
146.177
151.339
7.1552
21.5006
35.9483
50.5569
65.3691
80.4022
95.6365
111
126.351
141.461
155.996
169.515
181.481
191.302
198.408
8.67954
26.0878
43.6408
61.4258
79.514
97.9506
116.74
135.825
155.064
174.198
192.823
210.365
226.086
239.131
248.637
10.1543
30.5287
51.0988
71.9879
93.3062
115.141
137.54
160.488
183.872
207.434
230.72
253.02
273.35
290.481
303.098
11.5627
34.7726
58.2353
82.117
106.577
131.761
157.783
184.705
212.489
240.934
269.586
297.63
323.793
346.328
363.189
12.8859
38.7615
64.9497
91.663
119.118
147.533
177.118
208.05
240.432
274.21
309.042
344.102
377.843
407.824
430.816
14.1047
42.4356
71.1353
100.462
130.693
162.128
195.093
229.93
266.962
306.414
348.251
391.868
435.629
476.287
508.7
15.201
45.7387
76.69
108.352
141.055
175.182
211.185
249.6
291.053
336.215
385.655
439.468
496.492
552.967
600.917
16.1608
48.6259
81.53
115.194
149.986
186.351
224.85
266.216
311.417
361.717
418.664
483.83
557.878
638.136
713.699
16.9761
51.0717
85.6058
120.902
157.335
195.374
235.635
278.98
326.661
380.55
443.43
519.281
613.02
727.96
855.797
17.6473
53.0762
88.9154
125.464
163.07
202.162
243.321
287.388
335.679
390.368
455.201
536.811
646.921
804.838
1031.94
18.1832
54.6678
91.5105
128.964
167.308
206.872
248.082
291.554
338.28
390.02
450.17
525.804
632.968
812.478
1185.34
16667
17289
17880.3
18441
18971.7
19472.9
19945.9
20391.6
20811.6
21207.5
21580.7
21933.1
22266.4
22582.4
22882.7
23169.3
23443.7
23707.6
23962.5
24210.1
24451.7
24688.7
24922.3
25153.7
25383.8
25613.6
25843.8
26074.9
26307.4
26541.6
26777.6
27015.3
27254.7
27495.5
27737.3
27979.9
28222.7
28465.3
28707.2
28947.7
29186.4
29422.4
29655.3
29884.2
30108.4
30327.4
30540.3
30746.7
30946
31137.6
31321
31495.8
31661.6
31817.8
31963.9
32099.4
32223.7
32336.3
32436.3
32523.3
32596.4
32655.1
32698.4
32725.7
32736
32728.5
32702
32655.6
32588
32497.8
32383.5
32243.6
32076.5
31880.4
31653.4
31393.6
31099.2
30768
30398.1
29987.4
29534
29036
28491.5
27899
27256.8
26564
25819.5
25023.1
24174.5
23274.3
64.3722
64.6528
64.2637
63.225
61.5807
59.3935
56.739
53.6991
50.3566
46.7908
43.0742
39.2708
35.4356
31.6145
27.8455
24.16
20.5844
17.1414
13.8521
10.7367
7.81603
5.11212
2.6482
0.448303
-1.46394
-3.06721
-4.34503
-5.28857
-5.89916
-6.19004
-6.1864
-5.92334
-5.44175
-4.78276
-3.9822
-3.06638
-2.0507
-0.941241
0.260995
1.55441
2.93135
4.37447
5.85603
7.34064
8.79073
10.1733
11.4663
12.6621
13.7691
14.8093
15.8138
16.8174
17.8523
18.9439
20.1074
21.3478
22.6616
24.0406
25.4776
26.9697
28.5227
30.1514
31.8791
33.7353
35.7523
37.9612
40.3884
43.0525
45.9625
49.1178
52.5085
56.1178
59.9243
63.9036
68.0291
72.2723
76.6
80.9729
85.3421
89.6463
93.81
97.7426
101.339
104.481
107.047
108.912
109.964
110.111
109.289
107.473
108.344
108.819
108.138
106.336
103.495
99.7298
95.1748
89.9761
84.2789
78.2203
71.9239
65.4975
59.0321
52.6029
46.2711
40.0867
34.0908
28.3191
22.8044
17.5788
12.6761
8.13249
3.98768
0.283614
-2.93728
-5.6355
-7.77915
-9.3494
-10.3459
-10.7906
-10.7286
-10.2252
-9.35716
-8.20192
-6.82569
-5.27467
-3.57196
-1.72096
0.285579
2.45365
4.77627
7.22556
9.75102
12.285
14.754
17.0935
19.2601
21.2399
23.05
24.7341
26.3531
27.9742
29.6588
31.4536
33.3849
35.4575
37.6594
39.9695
42.3682
44.8461
47.4106
50.0877
52.92
55.9623
59.2743
62.9139
66.9295
71.3549
76.2061
81.4802
87.1579
93.2076
99.5906
106.265
113.187
120.312
127.588
134.954
142.334
149.629
156.713
163.436
169.616
175.051
179.523
182.812
184.713
185.056
183.724
180.67
153.963
154.648
153.619
150.939
146.737
141.197
134.532
126.966
118.717
109.987
100.957
91.7772
82.5742
73.4496
64.484
55.7417
47.2748
39.1278
31.3418
23.9579
17.021
10.5811
4.6953
-0.573759
-5.15993
-8.99881
-12.0352
-14.2326
-15.5832
-16.1164
-15.9025
-15.048
-13.682
-11.9352
-9.91688
-7.69752
-5.30296
-2.72102
0.0810699
3.13366
6.44196
9.97008
13.6368
17.3256
20.9069
24.2655
27.3256
30.0645
32.5147
34.7547
36.8917
39.0415
41.3084
43.7687
46.4606
49.383
52.503
55.7725
59.1461
62.5991
66.1376
69.8013
73.6593
77.8012
82.325
87.3251
92.88
99.0438
105.84
113.26
121.27
129.816
138.835
148.266
158.05
168.129
178.441
188.912
199.444
209.907
220.131
229.902
238.958
247
253.694
258.702
261.697
262.403
260.628
256.29
202.014
202.93
201.463
197.714
191.889
184.269
175.17
164.92
153.827
142.169
130.186
118.072
105.986
94.0505
82.3594
70.9848
59.9835
49.4026
39.2862
29.6802
20.6371
12.2196
4.50261
-2.42635
-8.47027
-13.5291
-17.5107
-20.3462
-22.0085
-22.5293
-22.0101
-20.6186
-18.5667
-16.0712
-13.3094
-10.3848
-7.31612
-4.05071
-0.497057
3.43217
7.77746
12.501
17.4764
22.5065
27.3653
31.8523
35.8382
39.2892
42.2665
44.9076
47.3954
49.9234
52.6625
55.733
59.1871
63.0061
67.114
71.4074
75.7915
80.2106
84.6656
89.216
93.9706
99.0705
104.67
110.917
117.933
125.801
134.553
144.17
154.588
165.719
177.464
189.737
202.464
215.585
229.04
242.755
256.626
270.502
284.175
297.368
309.735
320.858
330.266
337.459
341.946
343.295
341.196
335.509
253.453
254.63
252.578
247.463
239.613
229.453
217.452
204.072
189.735
174.806
159.586
144.312
129.167
114.285
99.7656
85.6783
72.0752
58.9979
46.4857
34.5826
23.3437
12.8409
3.16748
-5.56066
-13.2061
-19.6172
-24.6427
-28.1555
-30.0836
-30.4459
-29.3798
-27.1464
-24.0963
-20.5973
-16.943
-13.2863
-9.61964
-5.80268
-1.62343
3.12383
8.56013
14.6603
21.2281
27.9243
34.3492
40.1506
45.1109
49.1852
52.4916
55.2704
57.83
60.4899
63.5275
67.1325
71.3757
76.2002
81.4445
86.8984
92.3729
97.7566
103.042
108.322
113.77
119.605
126.068
133.384
141.743
151.268
162.004
173.907
186.862
200.716
215.313
230.531
246.289
262.537
279.241
296.35
313.775
331.363
348.882
365.998
382.272
397.154
409.998
420.084
426.681
429.12
426.899
419.773
309.482
310.961
308.081
301.132
290.643
277.271
261.704
244.588
226.483
207.851
189.052
170.355
151.956
133.988
116.54
99.6657
83.4017
67.7724
52.8019
38.5229
24.9852
12.2639
0.467424
-10.2572
-19.722
-27.7027
-33.9553
-38.2485
-40.4152
-40.4211
-38.4326
-34.852
-30.2748
-25.3493
-20.5825
-16.2049
-12.1426
-8.07945
-3.57086
1.81999
8.38318
16.1423
24.7903
33.7278
42.2253
49.654
55.6532
60.1808
63.47
65.9425
68.1139
70.5062
73.5685
77.6058
82.7197
88.7815
95.4648
102.351
109.076
115.435
121.416
127.178
133
139.227
146.224
154.34
163.861
174.98
187.759
202.113
217.829
234.627
252.253
270.532
289.388
308.815
328.838
349.469
370.666
392.304
414.144
435.815
456.787
476.362
493.673
507.708
517.377
521.632
519.639
510.959
371.719
373.548
369.427
359.884
345.808
328.236
308.178
286.521
263.989
241.137
218.371
195.973
174.129
152.948
132.491
112.781
93.8217
75.6064
58.1316
41.406
25.462
10.3672
-3.76347
-16.7548
-28.3611
-38.2624
-46.0749
-51.3886
-53.8433
-53.2531
-49.7632
-43.9777
-36.9402
-29.8583
-23.6471
-18.655
-14.6526
-10.9837
-6.77478
-1.15789
6.49826
16.3582
27.9493
40.1778
51.6533
61.2284
68.327
72.9718
75.6364
77.0604
78.0925
79.5704
82.2184
86.5413
92.7109
100.48
109.204
118.047
126.317
133.667
140.116
145.959
151.657
157.747
164.781
173.28
183.687
196.31
211.255
228.366
247.241
267.352
288.254
309.705
331.666
354.235
377.56
401.77
426.919
452.947
479.647
506.632
533.305
558.821
582.057
601.61
615.857
623.13
621.997
611.628
442.465
444.682
438.563
425.145
405.994
382.765
356.937
329.701
301.943
274.29
247.154
220.792
195.343
170.866
147.368
124.819
103.174
82.3789
62.388
43.1703
24.724
7.09075
-9.62547
-25.2365
-39.4445
-51.8181
-61.781
-68.6335
-71.6435
-70.248
-64.3871
-54.8939
-43.6576
-33.1018
-24.9446
-19.6685
-16.6713
-14.6549
-11.9959
-7.06217
1.44994
14.0912
30.2003
47.7216
63.8269
76.3772
84.543
88.6225
89.5969
88.7499
87.4365
86.9572
88.4642
92.8255
100.406
110.81
122.779
134.576
144.888
153.202
159.694
164.953
169.753
174.912
181.233
189.477
200.324
214.3
231.631
252.08
274.872
298.936
323.462
348.139
373.064
398.559
425
452.71
481.897
512.612
544.724
577.883
611.473
644.546
675.728
703.131
724.36
736.714
737.636
725.453
525.246
527.796
518.184
498.638
472.026
441.01
407.698
373.6
339.716
306.664
274.793
244.266
215.128
187.349
160.851
135.532
111.278
87.9729
65.5114
43.8054
22.7975
2.47742
-17.0944
-35.7531
-53.1831
-68.8584
-81.9782
-91.4234
-95.7994
-93.6847
-84.2534
-68.3325
-49.4079
-32.9046
-22.1075
-17.4148
-17.292
-19.2664
-20.508
-18.1358
-9.56141
6.81253
30.3991
57.2849
81.0993
97.8187
106.622
108.723
106.158
101.088
95.556
91.4598
90.5756
94.4492
104.012
118.863
136.574
153.217
166.31
175.334
181.018
184.58
187.302
190.373
194.886
201.892
212.425
227.424
247.484
272.384
300.636
329.815
358.415
386.174
413.6
441.477
470.566
501.477
534.624
570.215
608.242
648.459
690.33
732.936
774.783
813.482
845.584
866.694
872.085
858.109
625.986
628.386
612.073
582.269
544.363
502.53
459.567
417.169
376.271
337.323
300.481
265.726
232.947
201.978
172.63
144.706
118.01
92.3491
67.5447
43.4343
19.881
-3.21168
-25.8752
-48.0351
-69.4435
-89.5728
-107.46
-121.506
-129.294
-127.65
-113.457
-86.09
-51.6662
-24.4863
-10.4769
-8.5781
-14.89
-24.93
-34.22
-38.1362
-31.8003
-10.8492
25.8487
71.2712
108.587
130.657
138.347
135.54
126.322
114.092
101.606
91.3357
85.8348
87.8794
99.9993
122.796
151.904
176.966
193.582
202.27
205.39
205.411
204.343
203.749
204.941
209.223
218.085
233.252
256.356
287.848
325.053
361.513
394.563
424.671
453.467
482.627
513.486
547
583.805
624.279
668.575
716.619
768.092
822.383
878.334
933.289
982.591
1019.26
1034.38
1019.33
756.045
755.881
725.347
677.528
622.32
565.647
510.595
458.555
409.999
364.936
323.15
284.333
248.151
214.265
182.354
152.112
123.25
95.4934
68.5818
42.2653
16.3068
-9.51161
-35.3728
-61.3896
-87.5347
-113.504
-138.46
-160.585
-176.357
-179.67
-161.619
-113.997
-43.4829
2.90597
18.6007
12.0905
-7.11104
-31.6644
-55.6608
-72.8893
-75.075
-51.1774
8.74228
96.9356
158.033
184.206
185.189
171.591
150.826
127.467
104.469
84.3486
70.2338
66.8064
80.6174
117.642
173.061
212.876
232.273
237.221
234.225
227.808
220.702
214.551
210.544
209.957
214.664
227.648
253.146
295.078
350.537
398.108
434.938
465.042
492.793
521.312
552.565
587.764
627.678
672.815
723.485
779.812
841.764
909.403
983.28
1061.2
1137.74
1202.84
1240.05
1227.85
941.719
927.063
863.472
783.389
702.35
626.397
557.251
494.888
438.668
387.799
341.514
299.124
260.024
223.689
189.657
157.514
126.882
97.4083
68.7507
40.571
12.5228
-15.7565
-44.6512
-74.5629
-105.881
-138.893
-173.537
-208.808
-241.357
-262.451
-252.36
-174.869
-0.56411
74.4916
79.646
51.0275
8.36886
-39.2055
-86.8508
-129.307
-155.913
-143.382
-49.0862
161.606
257.755
274.011
253.011
217.945
179.053
140.308
103.175
68.7013
39.2313
20.8985
27.7958
85.9844
216.672
278.17
291.749
283.593
267.964
251.175
235.667
222.243
211.203
203.047
199.305
203.999
226.249
282.803
387.351
450.141
484.964
508.767
530.977
556.022
585.922
621.694
663.985
713.333
770.199
834.851
907.189
987.383
1082.34
1191.02
1309.29
1426.49
1516.81
1526.99
1260.92
1168.65
1025.29
890.576
775.011
677.303
594.107
522.349
459.607
404.042
354.254
309.16
267.903
229.788
194.232
160.734
128.844
98.1451
68.231
38.6884
9.07434
-21.1108
-52.4589
-85.7023
-121.78
-161.919
-207.698
-260.937
-322.835
-390.118
-440.141
-375.138
185.278
246.735
189.324
110.183
30.9308
-46.6378
-125.504
-208.539
-293.094
-353.316
-274.518
391.216
472.514
417.456
341.079
269.803
207.065
150.824
98.0538
45.8506
-7.8051
-61.336
-98.8813
-50.0701
359.91
412.458
382.514
340.715
303.363
272.693
247.622
226.498
207.701
189.775
171.793
155.065
149.946
201.406
484.279
542.43
550.836
554.766
565.054
583.713
610.799
646.205
690.098
742.99
805.664
878.778
961.257
1044.05
1161.61
1306.96
1482.3
1688.79
1908.92
2044.8
2012.67
1483.74
1174.59
970.127
821.909
707.269
614.455
536.791
470.18
411.939
360.21
313.65
271.241
232.185
195.832
161.627
129.082
97.7443
67.1708
36.9051
6.44635
-24.7908
-57.5355
-92.7565
-131.825
-176.818
-231.103
-300.585
-396.541
-542.62
-793.534
-1288.78
1089.61
590.132
330.284
169.493
51.0651
-52.2009
-158.146
-285.572
-465.301
-763.42
-1345.12
1462.39
883.598
591.578
421.785
309.354
225.708
156.334
92.1105
25.0884
-55.0216
-166.587
-349.907
-706.206
1017.83
665.514
490.328
391.417
329.124
286.131
253.881
227.39
202.931
176.574
142.464
89.4023
-7.84082
-213.238
904.781
706.322
623.124
591.577
587.045
599.236
623.657
658.456
703.211
758.516
826.044
909.163
1014.82
1050.59
1200.81
1379.65
1610.36
1931.38
2422.22
3270.86
22228.2
21015.9
19735.9
18391.9
16988.7
15531.2
14024.7
12474.6
10886.5
9265.7
7617.62
5947.44
4260.22
2560.93
854.443
104.404
99.7471
93.9577
87.2607
79.8999
72.1111
64.1016
56.0381
48.0424
40.1927
32.5285
25.0567
17.7587
10.5972
3.52245
175.452
167.496
157.599
146.168
133.639
120.428
106.895
93.3207
79.9081
66.782
54.0009
41.5684
29.4463
17.5658
5.83783
248.75
237.174
222.763
206.162
188.051
169.061
149.721
130.438
111.485
93.0262
75.1251
57.7703
40.8926
24.3818
8.10109
325.375
309.665
290.096
267.649
243.326
218.028
192.481
167.213
142.563
118.709
95.7016
73.495
51.9722
30.968
10.2861
406.629
385.991
360.285
330.99
299.558
267.228
234.946
203.356
172.832
143.536
115.473
88.5343
62.533
37.2318
12.362
494.162
467.364
434.044
396.451
356.671
316.365
276.706
238.416
201.857
167.119
134.113
102.632
72.392
43.0641
14.2923
590.157
555.246
512.063
464.089
414.297
364.846
317.087
271.737
229.047
188.955
151.218
115.482
81.3359
48.3391
16.0357
697.615
651.379
594.853
533.525
471.567
411.617
355.052
302.395
253.628
208.427
166.311
126.734
89.1264
52.9187
17.5469
820.879
757.747
682.392
603.548
526.792
454.966
389.086
329.148
274.633
224.802
178.856
136.009
95.5124
56.6598
18.7794
966.615
876.293
773.383
671.449
577.06
492.336
417.152
350.459
290.937
237.279
188.293
142.926
100.249
59.4261
19.6894
1145.13
1007.4
863.371
731.778
617.64
520.144
436.706
364.582
301.362
245.068
194.098
147.146
103.127
61.1034
20.2408
1371.07
1144.74
940.86
774.618
641.537
533.859
444.927
369.782
304.846
247.519
195.873
148.427
104.002
61.6172
20.4104
1653.18
1259.56
980.645
784.26
639.996
528.795
439.335
364.756
300.704
244.276
193.435
146.677
102.835
60.9497
20.1935
1901.59
1259.62
937.855
741.738
605.357
501.957
418.841
349.183
288.921
235.431
186.902
142.005
99.7045
59.1515
19.6071
18.5739
55.8216
93.3681
131.411
170.147
209.774
250.498
292.569
336.346
382.476
432.327
489.022
559.969
663.235
843.773
18.8517
56.6386
94.6706
133.095
172.03
211.543
251.622
292.119
332.671
372.559
410.437
443.625
465.554
454.751
323.973
19.0713
57.2836
95.6975
134.419
173.502
212.911
252.445
291.62
329.446
364.022
391.782
406.026
393.857
329.558
163.308
19.2417
57.787
96.5076
135.486
174.742
214.182
253.506
292.047
328.466
360.203
382.494
386.755
358.343
275.152
114
19.3689
58.1667
97.1353
136.355
175.848
215.524
255.1
293.936
330.726
362.929
385.711
390.161
360.848
274.878
111.107
19.4539
58.4263
97.5852
137.03
176.818
216.927
257.2
297.233
336.158
372.182
401.645
416.999
402.685
328.62
148.796
19.4937
58.5548
97.833
137.462
177.558
218.206
259.456
301.292
343.589
385.972
427.366
464.421
486.002
455.792
268.263
19.482
58.5307
97.8341
137.565
177.905
219.06
261.296
305.02
350.947
400.432
456.087
522.569
605.266
692.197
630.08
19.411
58.3284
97.5355
137.24
177.679
219.152
262.092
307.21
355.823
410.586
477.277
569.436
721.566
1032.08
1823.85
19.2734
57.9234
96.8887
136.4
176.727
218.217
261.365
306.963
356.416
412.44
480.765
574.635
727.85
1037.73
1826.28
19.0636
57.2981
95.8601
134.989
174.961
216.121
258.924
304.028
352.434
405.733
466.497
538.6
625.314
710.915
638.508
18.7789
56.4438
94.4351
132.988
172.365
212.874
254.875
298.79
345.041
393.826
444.336
492.398
523.53
493.807
287.25
18.4192
55.3612
92.6174
130.41
168.978
208.582
249.488
291.916
335.877
380.707
423.859
457.936
463.985
399.482
191.495
17.9871
54.0586
90.4244
127.289
164.867
203.379
243.033
283.968
326.099
368.737
409.669
442.922
453.418
404.785
217.264
17.4869
52.5499
87.882
123.668
160.101
197.375
235.68
275.179
315.955
357.939
400.797
443.694
483.897
506.522
414.56
16.9242
50.8524
85.0211
119.595
154.744
190.647
227.491
265.494
304.961
346.52
391.886
446.318
526.566
687.814
1123.75
16.3056
48.9863
81.8761
115.118
148.86
183.259
218.491
254.782
292.503
332.446
376.665
431
512.964
678.324
1120.42
15.6383
46.9733
78.484
110.29
142.513
175.285
208.747
243.07
278.492
315.389
354.406
396.48
441.431
476.63
404.222
14.9301
44.837
74.8845
105.167
135.782
166.825
198.396
230.587
263.447
296.849
330.011
359.948
376.655
349.645
199.14
14.1889
42.6017
71.1194
99.8116
128.747
157.993
187.609
217.632
248.019
278.464
307.845
332.593
342.225
308.408
166.118
13.423
40.2923
67.231
94.2838
121.493
148.898
176.532
204.416
232.541
260.81
288.884
315.723
337.955
342.489
264.997
12.6406
37.9337
63.2614
88.6444
114.1
139.64
165.276
191.027
216.955
243.281
270.773
302.041
345.966
433.52
678.104
11.8497
35.5499
59.2517
82.9523
106.643
130.311
153.935
177.51
201.086
224.935
250.031
279.559
323.667
415.487
670.558
11.0578
33.1642
55.2413
77.2644
99.2008
121.007
142.625
163.986
185.022
205.715
226.203
246.942
268.223
284.072
239.165
10.2721
30.798
51.267
71.6345
91.846
111.83
131.489
150.683
169.192
186.63
202.195
213.942
216.545
194.838
108.751
9.499
28.4708
47.3618
66.1114
84.6468
102.876
120.673
137.851
154.101
168.84
180.834
187.285
181.74
150.309
69.5926
8.74392
26.199
43.5541
60.7355
77.6583
94.219
110.283
125.661
140.057
152.951
163.317
168.955
164.907
140.001
71.036
8.01141
23.9964
39.8662
55.538
70.9198
85.9052
100.367
114.149
127.052
138.814
149.081
157.345
162.556
160.285
123.247
7.30506
21.8735
36.3152
50.5412
64.4555
77.9534
90.9218
103.247
114.838
125.712
136.234
147.853
165.397
204.711
320.91
6.62765
19.8383
32.9138
45.7604
58.2797
70.3684
81.9225
92.8519
103.12
112.852
122.622
134.246
153.116
195.74
317.506
5.98124
17.8969
29.6711
41.2067
52.4026
63.1541
73.3565
82.916
91.7747
99.9662
107.72
115.604
124.338
131.807
112.175
5.36737
16.0538
26.5944
36.8891
46.8341
56.321
65.2371
73.4669
80.8928
87.3835
92.7293
96.3723
96.439
86.6914
49.0081
4.78714
14.3122
23.6887
32.8148
41.5843
49.885
57.595
64.577
70.6612
75.5968
78.9217
79.6246
75.3556
60.976
27.7387
4.24121
12.6741
20.9575
28.9889
36.6612
43.8602
50.4596
56.3123
61.2291
64.9304
66.9369
66.332
61.2954
48.358
21.9148
3.72986
11.1403
18.402
25.4134
32.0682
38.2534
43.8448
48.6998
52.6436
55.444
56.7688
56.1203
52.7259
45.1226
28.1671
3.25293
9.7103
16.0215
22.0869
27.8032
33.0612
37.7441
41.7232
44.8556
46.9861
47.9755
47.8204
47.0849
48.3883
61.7715
2.80992
8.38253
13.813
19.0047
23.8585
28.2714
32.1355
35.3385
37.7676
39.3255
39.9825
39.9301
40.0355
43.2752
59.8392
2.39998
7.15436
11.7716
16.1592
20.2228
23.8659
26.9899
29.4959
31.2899
32.2964
32.4888
31.9374
30.8177
28.9201
21.8955
2.02203
6.0224
9.89149
13.5411
16.8822
19.8247
22.2781
24.1531
25.365
25.8395
25.5191
24.3473
22.1486
18.1341
9.49058
1.6748
4.98275
8.16567
11.14
13.8219
16.1274
17.9732
19.2769
19.9589
19.9423
19.1491
17.479
14.7494
10.5701
4.26856
1.35691
4.03118
6.58685
8.94496
11.0269
12.7545
14.0506
14.8393
15.0456
14.5931
13.3974
11.3564
8.3669
4.48827
0.603083
1.06694
3.16337
5.14756
6.9451
8.4823
9.68659
10.4869
10.8137
10.5984
9.76974
8.24329
5.9045
2.614
-1.57776
-4.9165
0.803477
2.375
3.84043
5.1297
6.17376
6.90525
7.25904
7.17278
6.58689
5.44182
3.66517
1.12741
-2.49765
-8.21965
-19.5688
0.565142
1.66191
2.6584
3.48852
4.08753
4.39272
4.34449
3.88769
2.97395
1.56445
-0.371239
-2.87904
-6.13463
-10.9295
-20.629
0.350638
1.02018
1.59481
2.01208
2.21096
2.13268
1.72198
0.929416
-0.283724
-1.93459
-3.99593
-6.34974
-8.68353
-10.2076
-8.42352
0.158761
0.446183
0.643597
0.691784
0.532857
0.110999
-0.626417
-1.72659
-3.22578
-5.13488
-7.40204
-9.81737
-11.7761
-11.7634
-6.66273
-0.011592
-0.0633838
-0.200729
-0.479979
-0.956374
-1.68362
-2.71343
-4.09467
-5.87091
-8.07232
-10.6892
-13.585
-16.2191
-16.8358
-10.6043
-0.161425
-0.511518
-0.943093
-1.5099
-2.26483
-3.25987
-4.54648
-6.17698
-8.20776
-10.7064
-13.7659
-17.5161
-22.0434
-26.6453
-24.9364
-0.291659
-0.900959
-1.58797
-2.40402
-3.39972
-4.62508
-6.13047
-7.96935
-10.2058
-12.9354
-16.3453
-20.887
-27.7932
-40.8131
-72.695
-0.403148
-1.23425
-2.13953
-3.16801
-4.36798
-5.78699
-7.4724
-9.47345
-11.847
-14.6753
-18.1206
-22.594
-29.2716
-41.8483
-73.0719
-0.496694
-1.51377
-2.60171
-3.80734
-5.17672
-6.75469
-8.5844
-10.7066
-13.1581
-15.9695
-19.1633
-22.7483
-26.6282
-29.8995
-26.1335
-0.573058
-1.7418
-2.97824
-4.32723
-5.83292
-7.53798
-9.4821
-11.6984
-14.2047
-16.9807
-19.9151
-22.6767
-24.3842
-22.8129
-12.8559
-0.632966
-1.92047
-3.27263
-4.7325
-6.34285
-8.14538
-10.1791
-12.4759
-15.0492
-17.8645
-20.7681
-23.3171
-24.3959
-21.531
-10.5087
-0.677132
-2.05189
-3.48817
-5.0274
-6.71141
-8.58223
-10.6815
-13.0479
-15.7104
-18.6695
-21.8482
-24.9587
-27.1255
-25.8963
-15.0941
-0.706289
-2.13816
-3.62812
-5.21582
-6.94226
-8.85043
-10.9863
-13.4003
-16.1498
-19.3041
-22.9562
-27.2333
-32.1912
-36.8888
-33.1308
-0.721259
-2.18165
-3.69602
-5.30183
-7.03885
-8.95045
-11.086
-13.5059
-16.2917
-19.5741
-23.6103
-29.0112
-37.4115
-53.7253
-94.5483
-0.723026
-2.18519
-3.69619
-5.29059
-7.00599
-8.8847
-10.9765
-13.3438
-16.0729
-19.3015
-23.2965
-28.6811
-37.1066
-53.5017
-94.4636
-0.712813
-2.15234
-3.63421
-5.18912
-6.85138
-8.66055
-10.6634
-12.9168
-15.4913
-18.4774
-21.9968
-26.2147
-31.2383
-36.177
-32.8558
-0.692157
-2.08762
-3.5173
-5.00692
-6.5864
-8.29132
-10.164
-12.253
-14.6083
-17.2641
-20.1907
-23.1653
-25.4028
-24.5598
-14.5502
-0.662967
-1.99666
-3.35457
-4.75621
-6.22605
-7.79511
-9.50181
-11.3902
-13.5009
-15.8442
-18.3309
-20.6065
-21.6833
-19.2877
-9.49039
-0.627591
-1.88642
-3.15726
-4.45208
-5.78866
-7.193
-8.70109
-10.3588
-12.2161
-14.3069
-16.5978
-18.8596
-20.3538
-19.1374
-10.7992
-0.588886
-1.76535
-2.93913
-4.11288
-5.29616
-6.50872
-7.78434
-9.17481
-10.7528
-12.6124
-14.8654
-17.6233
-20.8845
-23.9125
-21.3054
-0.5503
-1.6437
-2.71682
-3.76101
-4.7753
-5.7707
-6.77613
-7.84697
-9.07797
-10.6261
-12.7631
-16.0142
-21.552
-32.5745
-59.5694
-0.515941
-1.53371
-2.51047
-3.42386
-4.25949
-5.01576
-5.71101
-6.39495
-7.16745
-8.2123
-9.86804
-12.7933
-18.383
-30.1077
-58.5968
-0.490633
-1.44983
-2.34407
-3.13474
-3.79074
-4.29315
-4.64218
-4.86866
-5.05294
-5.35605
-6.07188
-7.69921
-10.9265
-15.9616
-18.0745
-0.479918
-1.40876
-2.24566
-2.93333
-3.42078
-3.66708
-3.64678
-3.35888
-2.84144
-2.19553
-1.62329
-1.47264
-2.19069
-3.81872
-4.10097
-0.490007
-1.42927
-2.24705
-2.86535
-3.21069
-3.21642
-2.82567
-1.9957
-0.704983
1.0329
3.13661
5.37629
7.19791
7.40791
3.99133
-0.527685
-1.53192
-2.38322
-2.98147
-3.22909
-3.03175
-2.29837
-0.939762
1.13504
4.02333
7.81968
12.5337
17.7244
21.1691
15.2622
-0.600171
-1.73859
-2.69142
-3.33574
-3.5494
-3.2104
-2.19453
-0.368758
2.42437
6.39913
11.8824
19.3794
29.4823
41.4416
43.6377
-0.714972
-2.072
-3.21025
-3.98384
-4.24654
-3.85048
-2.64298
-0.457807
2.907
7.74328
14.5631
24.4353
39.9719
68.5159
134.164
-0.879743
-2.55528
-3.97875
-4.98158
-5.39428
-5.04561
-3.76064
-1.35509
2.3808
7.72567
15.1399
25.5775
41.4513
69.8534
134.733
-1.10218
-3.21163
-5.03595
-6.38413
-7.06399
-6.88252
-5.64681
-3.16563
0.749558
6.28614
13.6331
22.9633
34.2526
45.8897
45.5988
-1.38991
-4.06407
-6.42056
-8.24599
-9.32534
-9.4433
-8.38828
-5.96153
-1.99588
3.60381
10.7649
19.006
26.8315
30.2304
19.6123
-1.75045
-5.13528
-8.17084
-10.6214
-12.2481
-12.8107
-12.073
-9.81581
-5.8647
-0.149391
7.16159
15.3525
22.501
24.3199
13.4999
-2.19103
-6.44727
-10.3244
-13.5646
-15.9041
-17.0738
-16.804
-14.8364
-10.9476
-4.99806
2.96098
12.4373
21.8865
27.1991
18.6296
-2.71843
-8.02084
-12.9173
-17.1291
-20.3669
-22.3294
-22.7057
-21.1814
-17.4505
-11.2299
-2.28026
9.55589
24.1592
39.7319
43.6898
-3.33868
-9.87467
-15.9828
-21.3659
-25.71
-28.6801
-29.9195
-29.0501
-25.6718
-19.345
-9.51379
4.76788
25.7748
60.3476
132.193
-4.05658
-12.024
-19.5492
-26.3205
-32.002
-36.2264
-38.5905
-38.653
-35.9311
-29.8822
-19.8262
-4.67579
17.9869
55.1027
130.313
-4.87518
-14.4791
-23.6366
-32.0281
-39.3008
-45.0584
-48.8529
-50.1819
-48.4923
-43.1914
-33.6651
-19.3228
0.178393
23.4261
37.7761
-5.79507
-17.2426
-28.2537
-38.5091
-47.6471
-55.2478
-60.8208
-63.7998
-63.5533
-59.4251
-50.8376
-37.5406
-20.2184
-2.05616
7.6845
-6.81356
-20.3079
-33.3933
-45.7629
-57.0566
-66.8399
-74.5836
-79.6507
-81.3026
-78.7468
-71.2711
-58.544
-41.1879
-21.6807
-4.96414
-7.92388
-23.6558
-39.028
-53.7608
-67.511
-79.8434
-90.1991
-97.8667
-101.967
-101.477
-95.3433
-82.7538
-63.6433
-39.3607
-12.8957
-9.11429
-27.2521
-45.1049
-62.4381
-78.9462
-94.215
-107.676
-118.554
-125.812
-128.12
-123.891
-111.485
-89.6843
-58.5514
-20.3575
-10.3673
-31.0454
-51.5406
-71.6856
-91.2384
-109.838
-126.942
-141.749
-153.088
-159.294
-158.113
-146.732
-122.201
-82.6419
-29.5689
-11.6593
-34.9645
-58.2175
-81.3418
-104.19
-126.494
-147.799
-167.348
-183.922
-195.593
-199.411
-191.106
-165.149
-116.114
-42.9906
-12.9603
-38.9189
-64.9822
-91.1875
-117.514
-143.841
-169.87
-195.008
-218.155
-237.338
-249.122
-247.733
-224.12
-166.311
-65.3403
-14.2346
-42.7995
-71.6465
-100.946
-130.837
-161.389
-192.554
-224.047
-255.135
-284.215
-307.976
-319.786
-306.833
-246.477
-108.321
-15.4423
-46.4833
-77.9948
-110.293
-143.695
-178.509
-215.006
-253.361
-293.504
-334.78
-375.124
-409.03
-422.459
-380.667
-205.805
-16.5409
-49.8394
-83.7951
-118.871
-155.571
-194.456
-236.162
-281.427
-331.08
-385.985
-446.737
-512.487
-576.427
-607.257
-467.695
-17.4889
-52.7382
-88.8157
-126.32
-165.928
-208.438
-254.844
-306.439
-365.002
-433.126
-514.87
-617.192
-753.382
-952.166
-1282.24
1344.05
1000.94
794.184
652.378
545.63
460.118
388.617
326.924
272.364
223.108
177.831
135.518
95.3544
56.6489
18.7903
490.961
639.333
608.656
542.75
474.487
411.079
353.482
301.137
253.191
208.819
167.288
127.96
90.2729
53.7201
17.8334
216.709
402.044
447.571
434.737
399.954
357.989
314.686
272.282
231.527
192.549
155.209
119.258
84.4006
50.3269
16.7234
114.731
261.829
326.998
341.948
330.392
305.815
275.255
242.27
208.619
175.134
142.161
109.793
77.9813
46.6057
15.5041
69.9447
178.498
241.286
267.554
269.861
257.785
237.497
212.712
185.589
157.356
128.688
99.9362
71.257
42.6926
14.2196
46.9176
126.942
180.924
209.789
219.308
215.446
202.854
184.77
163.323
139.873
115.269
90.026
64.4506
38.7148
12.911
33.4797
93.4652
137.999
165.451
178.04
179.162
172.018
159.154
142.441
123.187
102.288
80.3439
57.7534
34.7829
11.6146
24.8833
70.7152
106.932
131.428
144.728
148.612
145.145
136.207
123.318
107.64
90.0302
71.1076
51.3182
30.9871
10.3603
19.0185
54.6401
83.9992
105.174
117.95
123.159
122.068
115.997
106.126
93.4307
78.6806
62.4707
45.2575
27.3956
9.17075
14.8302
42.9119
66.7472
84.7481
96.4237
102.077
102.444
98.4218
90.8928
80.6447
68.3418
54.5284
39.6457
24.0551
8.06191
11.7376
34.131
53.5445
68.7116
79.0758
84.6603
85.8648
83.278
77.5441
69.2826
59.0497
47.3267
34.5241
20.9935
7.04346
9.39566
27.4184
43.2885
56.0078
65.0439
70.2826
71.9151
70.3166
65.9479
59.2871
50.7903
40.8731
29.9068
18.2224
6.11984
7.58718
22.1994
35.219
45.8595
53.6465
58.4065
60.2063
59.2763
55.941
50.5644
43.5154
35.1467
25.7872
15.7408
5.29125
6.16876
18.0856
28.8002
37.6909
44.3491
48.584
50.3909
49.9043
47.3495
43.0014
37.1553
30.107
22.1436
13.5388
4.55476
5.04222
14.8059
23.6469
31.0711
36.733
40.4457
42.1663
41.9668
40.0016
36.4772
31.6286
25.7018
18.9445
11.5996
3.90522
4.13823
12.1664
19.4766
25.674
30.4691
33.6894
35.2736
35.254
33.735
30.8714
26.8493
21.8726
16.1526
9.90286
3.33611
3.40651
10.0249
16.0785
21.2497
25.2976
28.0681
29.4933
29.5811
28.4011
26.0689
22.7321
18.5587
13.7281
8.42585
2.84014
2.80979
8.27539
13.2925
17.6049
21.0123
23.3802
24.6408
24.7876
23.8662
21.9631
19.1952
15.7004
11.6305
7.14542
2.40972
2.31993
6.837
10.9956
14.5879
17.4481
19.4604
20.5609
20.7351
20.0123
18.4571
16.1623
13.2411
9.82093
6.03877
2.03739
1.91527
5.64737
9.09146
12.0788
14.4724
16.1732
17.1235
17.305
16.7357
15.4642
13.564
11.1278
8.26238
5.08416
1.71595
1.57892
4.6576
7.50427
9.98182
11.9772
13.4068
14.2195
14.3958
13.9463
12.9074
11.3375
9.31233
6.9208
4.26133
1.4387
1.29751
3.82883
6.17323
8.21942
9.87452
11.0686
11.757
11.9209
11.5657
10.719
9.42687
7.75102
5.7651
3.55169
1.19945
1.0603
3.1298
5.04917
6.72846
8.09184
9.08126
9.65857
9.80619
9.52638
8.83967
7.78254
6.40487
4.76726
2.9384
0.992581
0.858555
2.53499
4.09177
5.45681
6.56876
7.38
7.85843
7.98819
7.76949
7.21747
6.3607
5.23917
3.90219
2.40629
0.813024
0.685062
2.02328
3.26754
4.36091
5.25453
5.90988
6.30041
6.4122
6.24406
5.80693
5.12274
4.22308
3.14749
1.94179
0.656234
0.533739
1.57686
2.54816
3.40383
4.10585
4.6238
4.93609
5.03073
4.90558
4.56806
4.03452
3.32924
2.48322
1.53278
0.518148
0.399358
1.1804
1.90922
2.55362
3.08523
3.48078
3.72316
3.80215
3.71482
3.46556
3.06578
2.53332
1.89157
1.16844
0.395131
0.277294
0.820333
1.3291
1.782
2.1594
2.44449
2.62409
2.68947
2.6369
2.46793
2.18948
1.81354
1.35664
0.839065
0.283927
0.163307
0.484239
0.788054
1.06319
1.29814
1.48194
1.60486
1.65924
1.64032
1.54681
1.38132
1.15035