/*--------------------------------*- C++ -*----------------------------------*\
| =========                 |                                                 |
| \\      /  F ield         | OpenFOAM: The Open Source CFD Toolbox           |
|  \\    /   O peration     | Version:  5.x                                   |
|   \\  /    A nd           | Web:      www.OpenFOAM.org                      |
|    \\/     M anipulation  |                                                 |
\*---------------------------------------------------------------------------*/
FoamFile
{
    version     2.0;
    format      ascii;
    class       volScalarField;
    location    "5.7";
    object      T;
}
// * * * * * * * * * * * * * * * * * * * * * * * * * * * * * * * * * * * * * //

dimensions      [0 0 0 1 0 0 0];

internalField   nonuniform List<scalar> 
6300
(
15.7256
27.1602
38.5454
49.8481
61.0348
72.0721
82.9262
93.5633
103.95
114.053
123.84
133.282
142.352
151.025
159.282
15.7417
27.2086
38.6262
49.9614
61.181
72.2514
83.1386
93.8086
104.227
114.362
124.179
133.647
142.74
151.431
159.702
15.7738
27.3051
38.7875
50.1879
61.4733
72.6098
83.5634
94.2997
104.784
114.981
124.858
134.381
143.521
152.25
160.548
15.8219
27.4496
39.0288
50.527
61.911
73.1472
84.2011
95.0375
105.621
115.914
125.883
135.49
144.703
153.492
161.833
15.8857
27.6413
39.3493
50.9776
62.4932
73.8628
85.0514
96.0233
106.741
117.167
127.261
136.985
146.301
155.174
163.575
15.965
27.8796
39.7478
51.5381
63.2184
74.7552
86.1138
97.2575
108.148
118.744
129.003
138.88
148.333
157.318
165.801
16.0593
28.1631
40.2221
52.2061
64.0835
75.8218
87.3862
98.7398
109.842
120.651
131.118
141.192
150.823
159.957
168.548
16.1681
28.4901
40.7697
52.9778
65.0845
77.058
88.8646
100.467
111.825
122.892
133.617
143.941
153.8
163.128
171.863
16.2906
28.8585
41.3868
53.8484
66.2151
78.457
90.5419
102.434
114.092
125.469
136.509
147.145
157.298
166.883
175.812
16.4258
29.2654
42.0687
54.8111
67.4669
80.0087
92.407
104.628
116.634
128.377
139.798
150.823
161.357
171.285
180.479
16.5727
29.7072
42.8095
55.8576
68.8289
81.6996
94.4437
107.032
119.431
131.598
143.474
154.982
166.011
176.409
185.986
16.7298
30.1801
43.6025
56.9781
70.288
83.5123
96.6306
109.62
122.455
135.101
147.511
159.612
171.286
182.344
192.498
16.8959
30.6798
44.4401
58.1615
71.8286
85.4266
98.9407
112.357
125.66
138.832
151.848
164.659
177.169
189.172
200.259
17.0693
31.2016
45.3146
59.3962
73.4347
87.4198
101.343
115.2
128.988
142.712
156.379
169.998
183.547
196.903
209.614
17.2488
31.7413
46.2185
60.6708
75.09
89.4698
103.807
118.105
132.373
146.639
160.952
175.395
190.107
205.268
220.898
166.456
172.676
178.59
184.201
189.512
194.532
199.27
203.738
207.949
211.919
215.664
219.2
222.546
225.718
228.734
231.612
234.368
237.018
239.579
242.065
244.491
246.87
249.214
251.535
253.843
256.146
258.452
260.766
263.093
265.436
267.796
270.172
272.565
274.97
277.386
279.809
282.234
284.656
287.071
289.472
291.854
294.21
296.533
298.817
301.055
303.24
305.365
307.425
309.414
311.326
313.157
314.902
316.556
318.115
319.572
320.923
322.162
323.282
324.278
325.143
325.869
326.45
326.878
327.144
327.24
327.158
326.885
326.412
325.726
324.813
323.66
322.249
320.565
318.591
316.307
313.695
310.736
307.41
303.696
299.575
295.028
290.035
284.578
278.642
272.212
265.278
257.83
249.865
241.382
232.386
166.884
173.105
179.016
184.62
189.921
194.927
199.647
204.095
208.284
212.23
215.951
219.462
222.782
225.929
228.92
231.773
234.505
237.133
239.672
242.137
244.544
246.905
249.232
251.539
253.834
256.126
258.424
260.732
263.055
265.396
267.756
270.134
272.529
274.939
277.36
279.789
282.22
284.65
287.073
289.483
291.874
294.239
296.572
298.866
301.114
303.308
305.442
307.509
309.506
311.425
313.263
315.015
316.676
318.241
319.706
321.066
322.313
323.443
324.448
325.323
326.06
326.651
327.091
327.369
327.48
327.412
327.156
326.7
326.033
325.142
324.01
322.624
320.965
319.017
316.761
314.177
311.247
307.95
304.265
300.173
295.653
290.685
285.252
279.337
272.924
266.001
258.56
250.596
242.108
233.1
167.744
173.969
179.875
185.465
190.744
195.72
200.405
204.812
208.956
212.855
216.525
219.986
223.254
226.35
229.291
232.095
234.779
237.361
239.856
242.28
244.647
246.972
249.267
251.544
253.813
256.084
258.365
260.66
262.975
265.312
267.672
270.054
272.456
274.875
277.307
279.747
282.193
284.637
287.076
289.503
291.912
294.297
296.65
298.964
301.231
303.443
305.595
307.678
309.689
311.622
313.474
315.239
316.913
318.493
319.974
321.35
322.615
323.763
324.788
325.682
326.44
327.053
327.515
327.819
327.955
327.917
327.693
327.273
326.645
325.796
324.71
323.371
321.764
319.869
317.668
315.141
312.268
309.029
305.403
301.368
296.904
291.99
286.605
280.732
274.353
267.456
260.029
252.067
243.568
234.536
169.05
175.281
181.179
186.747
191.991
196.921
201.551
205.894
209.97
213.795
217.389
220.772
223.963
226.981
229.846
232.575
235.187
237.699
240.128
242.489
244.797
247.067
249.312
251.545
253.775
256.014
258.268
260.545
262.848
265.18
267.541
269.929
272.342
274.775
277.224
279.683
282.149
284.616
287.078
289.532
291.969
294.384
296.767
299.112
301.409
303.649
305.827
307.934
309.967
311.92
313.79
315.574
317.269
318.87
320.374
321.775
323.066
324.242
325.296
326.22
327.008
327.653
328.149
328.489
328.665
328.67
328.494
328.127
327.558
326.771
325.754
324.488
322.957
321.142
319.025
316.584
313.799
310.649
307.112
303.165
298.787
293.954
288.645
282.838
276.514
269.658
262.255
254.297
245.782
236.713
170.823
177.062
182.948
188.484
193.679
198.544
203.095
207.351
211.33
215.054
218.544
221.821
224.906
227.819
230.581
233.21
235.725
238.143
240.483
242.759
244.987
247.183
249.361
251.532
253.71
255.904
258.124
260.376
262.664
264.99
267.354
269.753
272.182
274.636
277.108
279.593
282.086
284.583
287.077
289.566
292.041
294.497
296.923
299.311
301.649
303.929
306.141
308.28
310.34
312.318
314.211
316.019
317.739
319.369
320.903
322.338
323.665
324.879
325.971
326.934
327.762
328.449
328.988
329.375
329.602
329.663
329.551
329.254
328.762
328.061
327.135
325.968
324.54
322.834
320.829
318.503
315.837
312.808
309.392
305.567
301.307
296.588
291.384
285.672
279.427
272.63
265.263
257.315
248.781
239.661
173.091
179.34
185.208
190.701
195.829
200.607
205.054
209.193
213.046
216.638
219.993
223.133
226.082
228.862
231.493
233.995
236.387
238.687
240.914
243.082
245.21
247.312
249.402
251.496
253.606
255.743
257.918
260.138
262.408
264.729
267.101
269.517
271.971
274.453
276.957
279.476
282.003
284.535
287.068
289.6
292.125
294.634
297.117
299.562
301.956
304.287
306.544
308.72
310.812
312.818
314.738
316.572
318.322
319.985
321.558
323.035
324.409
325.67
326.812
327.824
328.701
329.437
330.028
330.47
330.758
330.888
330.853
330.643
330.249
329.655
328.845
327.802
326.506
324.937
323.074
320.895
318.38
315.504
312.244
308.575
304.47
299.901
294.839
289.255
283.12
276.407
269.094
261.163
252.606
243.423
175.892
182.154
187.999
193.433
198.471
203.133
207.444
211.432
215.125
218.55
221.736
224.707
227.489
230.105
232.576
234.924
237.166
239.323
241.412
243.45
245.454
247.44
249.424
251.421
253.446
255.512
257.631
259.813
262.062
264.381
266.766
269.21
271.7
274.224
276.769
279.328
281.894
284.467
287.045
289.628
292.212
294.79
297.348
299.869
302.336
304.732
307.043
309.263
311.389
313.423
315.368
317.229
319.01
320.711
322.331
323.862
325.294
326.617
327.818
328.889
329.823
330.615
331.264
331.767
332.123
332.331
332.386
332.28
332.002
331.539
330.872
329.982
328.847
327.445
325.754
323.754
321.422
318.735
315.667
312.194
308.284
303.908
299.03
293.615
287.627
281.032
273.797
265.898
257.319
248.057
179.28
185.559
191.37
196.724
201.642
206.152
210.288
214.084
217.576
220.795
223.774
226.54
229.122
231.542
233.824
235.988
238.055
240.043
241.97
243.853
245.71
247.557
249.412
251.291
253.211
255.189
257.239
259.373
261.6
263.921
266.332
268.82
271.365
273.946
276.546
279.151
281.76
284.373
286.997
289.637
292.292
294.956
297.613
300.237
302.801
305.28
307.657
309.924
312.081
314.137
316.1
317.983
319.793
321.537
323.212
324.81
326.318
327.718
328.993
330.133
331.13
331.981
332.688
333.255
333.683
333.975
334.13
334.143
334.004
333.697
333.202
332.495
331.552
330.348
328.862
327.072
324.956
322.493
319.658
316.421
312.753
308.618
303.975
298.782
292.993
286.561
279.441
271.596
262.999
253.642
183.327
189.625
195.388
200.631
205.387
209.698
213.608
217.163
220.405
223.373
226.103
228.627
230.972
233.164
235.226
237.179
239.043
240.836
242.575
244.279
245.964
247.648
249.349
251.086
252.879
254.747
256.71
258.785
260.985
263.316
265.771
268.331
270.961
273.627
276.296
278.955
281.601
284.247
286.909
289.605
292.342
295.117
297.907
300.673
303.369
305.956
308.41
310.723
312.902
314.964
316.93
318.821
320.654
322.442
324.185
325.871
327.478
328.978
330.345
331.563
332.626
333.535
334.297
334.922
335.419
335.797
336.059
336.206
336.227
336.106
335.817
335.329
334.612
333.639
332.388
330.839
328.973
326.77
324.206
321.253
317.877
314.04
309.696
304.791
299.268
293.064
286.114
278.36
269.758
260.289
188.13
194.453
200.141
205.227
209.762
213.807
217.427
220.678
223.615
226.281
228.717
230.956
233.028
234.959
236.771
238.485
240.118
241.69
243.217
244.716
246.204
247.699
249.219
250.786
252.422
254.153
256.003
258
260.167
262.516
265.044
267.722
270.492
273.284
276.047
278.758
281.426
284.08
286.757
289.495
292.321
295.238
298.217
301.191
304.077
306.807
309.347
311.696
313.873
315.912
317.849
319.722
321.563
323.394
325.22
327.027
328.774
330.409
331.891
333.197
334.323
335.28
336.083
336.753
337.308
337.765
338.136
338.429
338.636
338.739
338.699
338.474
338.021
337.311
336.323
335.043
333.456
331.547
329.295
326.674
323.648
320.175
316.205
311.673
306.508
300.624
293.928
286.33
277.752
268.151
193.832
200.181
205.751
210.604
214.828
218.518
221.762
224.635
227.199
229.507
231.599
233.512
235.274
236.911
238.443
239.89
241.268
242.595
243.885
245.155
246.42
247.697
249.007
250.371
251.815
253.37
255.07
256.956
259.069
261.442
264.086
266.964
269.973
272.969
275.854
278.606
281.255
283.862
286.499
289.242
292.151
295.253
298.515
301.818
304.991
307.913
310.542
312.897
315.025
316.986
318.841
320.65
322.466
324.331
326.265
328.248
330.21
332.042
333.671
335.069
336.246
337.226
338.043
338.729
339.317
339.835
340.308
340.754
341.177
341.554
341.83
341.925
341.78
341.362
340.66
339.668
338.384
336.799
334.898
332.657
330.042
327.009
323.502
319.45
314.764
309.334
303.026
295.694
287.2
277.452
200.649
207.02
212.383
216.872
220.649
223.858
226.618
229.022
231.14
233.027
234.726
236.271
237.687
238.999
240.224
241.379
242.479
243.537
244.568
245.585
246.602
247.634
248.702
249.825
251.034
252.361
253.854
255.57
257.581
259.963
262.775
266
269.459
272.795
275.837
278.586
281.128
283.581
286.073
288.733
291.685
295.021
298.734
302.617
306.249
309.42
312.114
314.407
316.4
318.193
319.881
321.548
323.279
325.151
327.22
329.483
331.812
333.948
335.763
337.242
338.431
339.388
340.17
340.828
341.406
341.949
342.498
343.094
343.764
344.496
345.2
345.704
345.912
345.804
345.392
344.695
343.726
342.487
340.972
339.159
337.019
334.508
331.566
328.121
324.074
319.289
313.58
306.715
298.439
288.538
208.952
215.299
220.258
224.154
227.274
229.831
231.974
233.806
235.399
236.805
238.062
239.199
240.237
241.196
242.09
242.932
243.733
244.505
245.257
246
246.746
247.507
248.3
249.143
250.064
251.1
252.301
253.745
255.542
257.849
260.854
264.684
269.104
273.027
276.226
278.848
281.113
283.228
285.386
287.784
290.65
294.23
298.689
303.757
308.152
311.597
314.246
316.329
318.042
319.535
320.93
322.337
323.871
325.667
327.878
330.601
333.671
336.299
338.316
339.814
340.93
341.782
342.457
343.02
343.528
344.034
344.601
345.307
346.24
347.456
348.841
349.888
350.479
350.663
350.515
350.095
349.436
348.555
347.452
346.113
344.512
342.606
340.338
337.638
334.43
330.557
325.78
319.751
312.001
302.008
219.484
225.562
229.652
232.54
234.696
236.386
237.763
238.92
239.913
240.783
241.557
242.253
242.888
243.473
244.017
244.529
245.016
245.486
245.943
246.396
246.852
247.319
247.809
248.334
248.916
249.583
250.383
251.394
252.754
254.714
257.728
262.503
269.447
274.285
277.43
279.607
281.296
282.797
284.336
286.147
288.567
292.154
297.752
305.849
311.404
314.901
317.175
318.766
319.981
321
321.944
322.922
324.064
325.569
327.776
331.202
336.145
339.512
341.598
342.914
343.79
344.412
344.884
345.273
345.63
346.01
346.484
347.174
348.289
350.152
352.947
354.707
355.611
355.979
356.012
355.816
355.445
354.921
354.251
353.426
352.423
351.205
349.71
347.869
345.721
343.11
339.766
335.245
328.775
319.078
234.171
238.672
240.764
241.966
242.774
243.377
243.856
244.253
244.591
244.886
245.147
245.382
245.596
245.792
245.975
246.147
246.31
246.468
246.622
246.774
246.927
247.085
247.25
247.429
247.629
247.861
248.147
248.526
249.085
250.047
252.051
257.181
272.809
277.961
280.013
281.052
281.732
282.296
282.876
283.614
284.788
287.163
293.199
311.581
317.602
319.946
321.068
321.725
322.183
322.552
322.891
323.254
323.714
324.441
325.9
329.6
340.869
344.549
345.966
346.628
346.998
347.236
347.409
347.55
347.682
347.829
348.037
348.409
349.239
351.484
358.526
360.736
361.496
361.758
361.817
361.769
361.652
361.479
361.254
360.973
360.625
360.181
359.563
358.519
357.662
356.697
355.426
353.527
350.18
342.905
221.935
209.828
197.047
183.629
169.621
155.072
140.033
124.559
108.704
92.5228
76.0676
59.3906
42.5429
25.5739
8.53266
222.628
210.491
197.671
184.21
170.153
155.552
140.46
124.933
109.025
92.7912
76.2848
59.5581
42.6616
25.6448
8.55621
224.023
211.823
198.926
185.374
171.219
156.514
141.315
125.68
109.665
93.3267
76.7181
59.8918
42.898
25.7859
8.60311
226.137
213.841
200.823
187.133
172.826
157.96
142.598
126.799
110.623
94.1268
77.3648
60.3894
43.2505
25.9961
8.67296
228.998
216.567
203.381
189.498
174.98
159.895
144.309
128.289
111.895
95.1872
78.2206
61.0472
43.7159
26.2735
8.76513
232.645
220.034
206.625
192.486
177.692
162.321
146.448
130.144
113.474
96.501
79.2789
61.8593
44.2899
26.6154
8.87868
237.131
224.286
210.587
196.118
180.971
165.24
149.008
132.356
115.352
98.0579
80.5301
62.8179
44.9665
27.0181
9.01237
242.528
229.381
215.306
200.415
184.826
168.648
151.982
134.912
117.512
99.8434
81.9611
63.912
45.7378
27.4767
9.16453
248.934
235.391
220.828
205.399
189.257
172.537
155.35
137.791
119.933
101.837
83.5545
65.1275
46.5933
27.9849
9.33308
256.48
242.409
227.203
211.085
194.257
176.881
159.083
140.96
122.584
104.012
85.2874
66.4466
47.5203
28.5351
9.51547
265.351
250.546
234.476
217.47
199.793
181.636
163.132
144.373
125.425
106.333
87.1316
67.8477
48.5035
29.1181
9.70867
275.813
259.935
242.67
224.514
205.798
186.727
167.426
147.969
128.403
108.757
89.0532
69.3052
49.5253
29.7236
9.90926
288.254
270.694
251.743
232.106
212.146
192.039
171.866
151.665
131.452
111.234
91.0135
70.7906
50.566
30.3402
10.1135
303.234
282.829
261.488
240.007
218.629
197.405
176.324
155.365
134.5
113.708
92.9707
72.2737
51.6053
30.956
10.3175
321.318
295.885
271.356
247.791
224.946
202.615
180.653
158.96
137.466
116.12
94.8822
73.7242
52.6227
31.5592
10.5174
17.4177
32.2488
47.0676
61.8667
76.6399
91.3833
106.097
120.787
135.472
150.19
165.014
180.087
195.698
212.496
232.285
17.5737
32.7178
47.8518
62.9697
78.0667
93.14
108.19
123.225
138.261
153.337
168.526
183.972
199.948
216.979
235.996
17.7319
33.1928
48.6455
64.085
79.5071
94.909
110.291
125.656
141.017
156.399
171.854
187.481
203.457
220.075
237.685
17.8916
33.6725
49.4467
65.21
80.9584
96.6885
112.398
128.085
143.752
159.404
175.056
190.739
206.512
222.472
238.718
18.0525
34.1559
50.2539
66.3431
82.4195
98.4787
114.516
130.523
146.491
162.402
178.229
193.927
209.43
224.661
239.585
18.2144
34.642
51.0657
67.4826
83.8892
100.281
116.649
132.984
149.264
165.453
181.485
197.242
212.526
227.053
240.57
18.3768
35.1297
51.8804
68.6269
85.3664
102.094
118.802
135.477
152.094
168.605
184.923
200.877
216.141
230.138
242.065
18.5393
35.6179
52.6962
69.7737
86.8485
103.917
120.974
138.005
154.99
171.886
188.607
204.982
220.627
234.65
245.041
18.7015
36.1052
53.5109
70.9197
88.3315
105.745
123.157
140.561
157.943
175.279
192.525
209.586
226.229
241.674
252.566
18.8628
36.59
54.3218
72.061
89.8098
107.57
125.342
143.126
160.921
178.729
196.562
214.473
232.653
251.851
275.439
19.0227
37.0706
55.1257
73.193
91.277
109.382
127.513
145.677
163.883
182.153
200.537
219.164
238.36
258.97
283.004
19.1805
37.545
55.9195
74.3108
92.7259
111.172
129.657
148.193
166.794
185.491
204.337
223.449
243.075
263.7
286.08
19.3357
38.0113
56.6997
75.4095
94.1497
112.93
131.761
150.657
169.634
188.717
207.943
227.37
247.085
267.2
287.792
19.4875
38.4677
57.4631
76.4843
95.5422
114.648
133.815
153.058
172.392
191.836
211.401
231.082
250.808
270.358
289.272
19.6355
38.9123
58.2067
77.531
96.8975
116.32
135.812
155.389
175.069
194.863
214.771
234.752
254.642
273.946
291.413
19.779
39.3435
58.9278
78.5455
98.2105
117.938
137.743
157.644
177.658
197.802
218.081
238.477
258.873
278.8
296.181
19.9175
39.7598
59.6238
79.5242
99.4766
119.497
139.603
159.814
180.151
200.638
221.302
242.191
263.418
285.41
310.142
20.0507
40.1599
60.2924
80.4641
100.692
120.992
141.385
161.891
182.533
203.342
224.359
245.66
267.422
290.105
314.855
20.1782
40.5427
60.9318
81.3624
101.852
122.419
143.082
163.865
184.793
205.894
227.209
248.799
270.775
293.354
316.879
20.2996
40.9072
61.5405
82.2169
102.955
123.773
144.691
165.734
186.924
208.29
229.859
251.659
273.7
295.933
318.174
20.4147
41.2527
62.1171
83.0259
103.998
125.052
146.209
167.493
188.927
210.535
232.34
254.342
276.479
298.494
319.647
20.5233
41.5788
62.661
83.7883
104.979
126.254
147.634
169.141
190.8
212.637
234.674
256.921
279.332
301.641
322.591
20.6253
41.885
63.1715
84.5033
105.899
127.379
148.964
170.676
192.542
214.59
236.853
259.376
282.245
305.719
330.949
20.7208
42.1712
63.6485
85.1708
106.757
128.426
150.199
172.099
194.151
216.386
238.841
261.58
284.727
308.566
333.767
20.8096
42.4377
64.0922
85.791
107.553
129.396
151.341
173.41
195.626
218.019
240.623
263.492
286.715
310.454
334.935
20.892
42.6846
64.503
86.3647
108.288
130.29
152.391
174.611
196.971
219.496
242.211
265.146
288.336
311.813
335.579
20.968
42.9122
64.8816
86.8929
108.963
131.11
153.352
175.707
198.195
220.833
243.637
266.613
289.745
312.959
336.095
21.0377
43.1212
65.2289
87.377
109.582
131.86
154.229
176.705
199.305
222.045
244.933
267.962
291.084
314.146
336.763
21.1015
43.3121
65.546
87.8185
110.145
132.542
155.025
177.61
200.312
223.146
246.121
269.236
292.454
315.63
338.149
21.1595
43.4858
65.8341
88.2193
110.656
133.159
155.744
178.426
201.219
224.14
247.203
270.426
293.841
317.558
342.111
21.2119
43.6428
66.0946
88.5812
111.117
133.715
156.39
179.157
202.031
225.027
248.165
271.473
295.006
318.893
343.441
21.2592
43.784
66.3286
88.9061
111.53
134.212
156.967
179.808
202.749
225.807
248.999
272.353
295.913
319.755
343.981
21.3014
43.9104
66.5378
89.196
111.897
134.654
157.478
180.382
203.379
226.484
249.71
273.079
296.613
320.337
344.258
21.3389
44.0226
66.7235
89.453
112.223
135.043
157.927
180.884
203.927
227.067
250.314
273.68
297.169
320.771
344.443
21.3721
44.1216
66.8871
89.6792
112.508
135.385
158.319
181.32
204.399
227.566
250.826
274.185
297.635
321.143
344.623
21.4011
44.2082
67.0302
89.8766
112.757
135.681
158.657
181.696
204.804
227.991
251.26
274.615
298.048
321.523
344.913
21.4263
44.2834
67.1541
90.0473
112.972
135.936
158.948
182.015
205.147
228.349
251.626
274.982
298.419
321.95
345.653
21.4479
44.348
67.2604
90.1933
113.155
136.152
159.193
182.285
205.434
228.646
251.927
275.281
298.715
322.244
345.91
21.4663
44.4027
67.3503
90.3166
113.309
136.333
159.397
182.507
205.669
228.887
252.167
275.514
298.933
322.432
346.018
21.4816
44.4483
67.4252
90.419
113.436
136.483
159.564
182.687
205.856
229.077
252.352
275.687
299.084
322.547
346.068
21.4942
44.4857
67.4864
90.5023
113.539
136.602
159.697
182.828
206.001
229.219
252.486
275.805
299.179
322.608
346.089
21.5042
44.5155
67.535
90.5681
113.62
136.695
159.799
182.934
206.107
229.32
252.575
275.876
299.224
322.621
346.078
21.512
44.5384
67.5722
90.618
113.68
136.764
159.872
183.009
206.178
229.382
252.624
275.904
299.222
322.582
346.007
21.5176
44.5551
67.599
90.6536
113.723
136.81
159.92
183.054
206.217
229.411
252.636
275.895
299.182
322.484
345.752
21.5214
44.5661
67.6165
90.6762
113.749
136.837
159.944
183.073
206.227
229.408
252.618
275.856
299.12
322.4
345.663
21.5235
44.5721
67.6256
90.6871
113.76
136.846
159.948
183.069
206.212
229.378
252.57
275.789
299.037
322.314
345.612
21.5241
44.5736
67.6272
90.6877
113.757
136.839
159.934
183.045
206.174
229.323
252.494
275.692
298.924
322.203
345.552
21.5233
44.571
67.6223
90.6791
113.744
136.818
159.903
183.001
206.114
229.244
252.392
275.563
298.767
322.034
345.435
21.5214
44.565
67.6115
90.6625
113.72
136.784
159.858
182.942
206.037
229.144
252.265
275.4
298.556
321.759
345.136
21.5184
44.556
67.5958
90.6391
113.687
136.741
159.801
182.868
205.944
229.028
252.119
275.214
298.304
321.353
344.224
21.5146
44.5445
67.5759
90.6097
113.647
136.688
159.733
182.784
205.839
228.9
251.963
275.024
298.069
321.062
343.918
21.5102
44.5308
67.5524
90.5756
113.601
136.628
159.658
182.69
205.725
228.762
251.8
274.835
297.86
320.855
343.788
21.5051
44.5154
67.5262
90.5376
113.55
136.562
159.575
182.589
205.603
228.617
251.631
274.646
297.662
320.682
343.704
21.4996
44.4988
67.4979
90.4967
113.495
136.492
159.488
182.482
205.474
228.464
251.454
274.447
297.453
320.496
343.613
21.4938
44.4812
67.4681
90.4538
113.438
136.419
159.397
182.371
205.341
228.306
251.267
274.23
297.21
320.25
343.453
21.4878
44.4632
67.4374
90.4098
113.379
136.345
159.305
182.259
205.205
228.143
251.071
273.993
296.917
319.881
343.061
21.4818
44.4449
67.4065
90.3655
113.321
136.27
159.213
182.146
205.069
227.979
250.873
273.746
296.587
319.355
341.877
21.4758
44.4267
67.3758
90.3216
113.263
136.197
159.122
182.036
204.937
227.821
250.683
273.515
296.298
318.99
341.486
21.4699
44.409
67.3459
90.279
113.206
136.126
159.035
181.931
204.811
227.671
250.507
273.309
296.066
318.752
341.329
21.4642
44.3919
67.3172
90.2382
113.153
136.059
158.953
181.832
204.694
227.533
250.346
273.129
295.875
318.58
341.244
21.4589
44.3757
67.29
90.1997
113.103
135.996
158.877
181.741
204.586
227.407
250.201
272.966
295.705
318.43
341.171
21.4538
44.3605
67.2646
90.164
113.056
135.939
158.808
181.659
204.49
227.295
250.07
272.814
295.536
318.262
341.064
21.449
44.3463
67.241
90.1312
113.014
135.887
158.747
181.588
204.407
227.197
249.953
272.672
295.356
318.032
340.816
21.4446
44.3331
67.2193
90.1013
112.977
135.842
158.695
181.529
204.339
227.118
249.857
272.547
295.177
317.719
340.071
21.4404
44.3207
67.1992
90.0741
112.943
135.804
158.652
181.482
204.287
227.06
249.789
272.459
295.05
317.53
339.839
21.4364
44.3089
67.1802
90.049
112.914
135.771
158.617
181.447
204.254
227.028
249.756
272.419
294.994
317.453
339.77
21.4324
44.2973
67.1617
90.0252
112.886
135.743
158.591
181.426
204.24
227.024
249.762
272.434
295.014
317.466
339.771
21.4283
44.2851
67.1428
90.0013
112.86
135.717
158.57
181.414
204.243
227.046
249.808
272.509
295.114
317.576
339.836
21.4236
44.2717
67.122
89.9755
112.832
135.692
158.553
181.41
204.259
227.091
249.892
272.643
295.309
317.819
340.025
21.4183
44.2561
67.0979
89.9457
112.801
135.664
158.534
181.408
204.283
227.152
250.006
272.832
295.606
318.267
340.564
21.4117
44.2372
67.0685
89.9091
112.762
135.628
158.508
181.402
204.307
227.22
250.135
273.051
295.975
318.961
342.261
21.4036
44.2136
67.0316
89.8627
112.711
135.58
158.471
181.386
204.323
227.281
250.258
273.258
296.297
319.431
342.809
21.3934
44.1837
66.9846
89.8027
112.644
135.513
158.414
181.35
204.32
227.324
250.362
273.433
296.546
319.726
343.021
21.3804
44.1458
66.9246
89.7252
112.556
135.422
158.331
181.286
204.289
227.341
250.438
273.575
296.744
319.935
343.136
21.3642
44.0981
66.8484
89.6257
112.44
135.3
158.213
181.186
204.222
227.322
250.481
273.689
296.921
320.131
343.246
21.3439
44.0384
66.7525
89.4991
112.29
135.138
158.051
181.039
204.107
227.258
250.487
273.782
297.109
320.388
343.446
21.3189
43.9644
66.6331
89.3402
112.1
134.928
157.835
180.833
203.931
227.135
250.443
273.848
297.324
320.793
343.975
21.2883
43.8738
66.4861
89.143
111.862
134.66
157.552
180.555
203.679
226.935
250.329
273.861
297.538
321.394
345.65
21.2513
43.764
66.3073
88.9015
111.567
134.324
157.192
180.189
203.332
226.637
250.113
273.77
297.624
321.712
346.146
21.207
43.6325
66.0922
88.6092
111.207
133.909
156.738
179.718
202.871
226.215
249.767
273.539
297.541
321.784
346.279
21.1547
43.4766
65.8364
88.2597
110.773
133.403
156.178
179.125
202.273
225.646
249.266
273.145
297.287
321.678
346.275
21.0935
43.294
65.5356
87.8465
110.256
132.795
155.495
178.391
201.516
224.903
248.58
272.564
296.855
321.423
346.197
21.0226
43.0824
65.1859
87.3637
109.648
132.072
154.675
177.494
200.574
223.955
247.677
271.766
296.226
321.021
346.06
20.9416
42.8398
64.7839
86.8059
108.94
131.225
153.701
176.415
199.419
222.768
246.515
270.706
295.36
320.447
345.857
20.8498
42.5649
64.3269
86.1689
108.127
130.242
152.559
175.132
198.022
221.3
245.041
269.32
294.189
319.644
345.567
20.7472
42.2571
63.8136
85.4502
107.204
129.116
151.237
173.626
196.354
219.508
243.191
267.521
292.607
318.512
345.141
20.6338
41.9163
63.2439
84.6491
106.168
127.844
149.728
171.882
194.386
217.345
240.889
265.191
290.454
316.872
344.478
20.51
41.5437
62.6195
83.7678
105.023
126.426
148.028
169.892
192.101
214.771
238.058
262.191
287.494
314.404
343.335
20.3765
41.1416
61.944
82.8109
103.774
124.869
146.144
167.659
189.495
211.765
234.637
258.374
283.413
310.528
341.048
20.2343
40.7131
61.2229
81.7866
102.43
123.186
144.092
165.201
186.583
208.338
230.613
253.649
277.886
304.283
335.54
339.604
307.01
279.504
254.254
230.254
207.041
184.364
162.066
140.044
118.225
96.5565
74.998
53.518
32.0907
10.6936
345.381
313.579
285.333
259.252
234.522
210.686
187.467
164.691
142.24
120.03
97.9983
76.0986
54.2934
32.5516
10.8465
347.786
317.666
289.648
263.3
238.162
213.893
190.255
167.085
144.264
121.705
99.3447
77.1307
55.0226
32.986
10.9908
348.993
320.28
292.793
266.497
241.188
216.652
192.712
169.229
146.099
123.239
100.585
78.0862
55.7
33.3904
11.1253
349.698
322.03
295.098
268.999
243.668
218.99
194.843
171.123
147.741
124.624
101.714
78.9605
56.3223
33.7628
11.2492
350.158
323.255
296.814
270.956
245.686
220.949
196.67
172.775
149.192
125.862
102.73
79.7518
56.8877
34.102
11.3623
350.48
324.145
298.114
272.495
247.323
222.58
198.224
174.202
150.463
126.956
103.635
80.461
57.3964
34.408
11.4644
350.716
324.812
299.114
273.714
248.653
223.935
199.537
175.427
151.566
127.915
104.435
81.0909
57.8502
34.6817
11.5558
350.895
325.324
299.896
274.686
249.735
225.057
200.643
176.472
152.518
128.75
105.136
81.6461
58.2517
34.9245
11.6371
351.033
325.723
300.514
275.467
250.619
225.987
201.572
177.36
153.335
129.472
105.746
82.1321
58.6045
35.1383
11.7087
351.142
326.039
301.008
276.098
251.343
226.758
202.35
178.113
154.033
130.094
106.275
82.5549
58.9125
35.3254
11.7714
351.229
326.292
301.407
276.612
251.937
227.398
203.003
178.748
154.627
130.627
106.73
82.9209
59.1799
35.4882
11.8261
351.299
326.496
301.73
277.032
252.427
227.93
203.549
179.285
155.132
131.082
107.121
83.2361
59.4109
35.6291
11.8734
351.355
326.662
301.994
277.376
252.831
228.372
204.006
179.736
155.56
131.469
107.455
83.5066
59.6097
35.7505
11.9143
351.402
326.797
302.21
277.66
253.166
228.74
204.389
180.116
155.921
131.798
107.74
83.7379
59.78
35.8547
11.9493
351.439
326.909
302.388
277.894
253.443
229.046
204.709
180.436
156.226
132.077
107.983
83.935
59.9254
35.9438
11.9794
351.471
327
302.534
278.088
253.674
229.301
204.977
180.704
156.483
132.313
108.188
84.1025
60.0492
36.0198
12.0049
351.496
327.076
302.656
278.248
253.865
229.514
205.2
180.929
156.7
132.512
108.361
84.2443
60.1542
36.0843
12.0267
351.517
327.138
302.756
278.381
254.024
229.691
205.387
181.117
156.881
132.679
108.508
84.3641
60.2431
36.1389
12.0451
351.535
327.19
302.839
278.491
254.156
229.838
205.543
181.274
157.033
132.819
108.631
84.465
60.3179
36.1849
12.0606
351.549
327.232
302.907
278.583
254.265
229.96
205.673
181.405
157.16
132.937
108.734
84.5496
60.3808
36.2236
12.0737
351.561
327.267
302.964
278.658
254.355
230.061
205.78
181.514
157.266
133.034
108.82
84.6202
60.4333
36.2559
12.0846
351.571
327.296
303.01
278.72
254.43
230.145
205.869
181.604
157.353
133.115
108.891
84.6788
60.4769
36.2828
12.0937
351.579
327.32
303.048
278.77
254.49
230.213
205.941
181.678
157.424
133.182
108.95
84.727
60.5127
36.3049
12.1012
351.585
327.338
303.078
278.811
254.539
230.268
206
181.737
157.482
133.236
108.997
84.7661
60.5419
36.3229
12.1072
351.59
327.353
303.103
278.843
254.578
230.311
206.046
181.785
157.529
133.279
109.035
84.7973
60.5652
36.3373
12.1121
351.594
327.365
303.121
278.867
254.607
230.345
206.082
181.821
157.564
133.312
109.064
84.8216
60.5833
36.3485
12.1159
351.597
327.373
303.134
278.885
254.629
230.369
206.108
181.848
157.59
133.336
109.086
84.8396
60.5967
36.3568
12.1187
351.599
327.378
303.143
278.897
254.643
230.386
206.126
181.866
157.608
133.353
109.101
84.8518
60.6059
36.3624
12.1206
351.6
327.381
303.147
278.903
254.651
230.394
206.135
181.876
157.618
133.362
109.109
84.8587
60.6111
36.3657
12.1217
351.6
327.381
303.148
278.903
254.651
230.395
206.136
181.877
157.62
133.364
109.111
84.8606
60.6126
36.3666
12.122
351.599
327.378
303.143
278.898
254.645
230.388
206.13
181.871
157.614
133.359
109.107
84.8575
60.6104
36.3653
12.1216
351.597
327.373
303.134
278.886
254.632
230.374
206.115
181.857
157.601
133.347
109.097
84.8494
60.6045
36.3618
12.1204
351.594
327.364
303.121
278.868
254.611
230.351
206.091
181.834
157.579
133.328
109.081
84.8363
60.595
36.356
12.1185
351.59
327.352
303.101
278.843
254.581
230.319
206.059
181.802
157.549
133.301
109.058
84.818
60.5816
36.3478
12.1157
351.584
327.335
303.075
278.809
254.542
230.277
206.015
181.76
157.51
133.266
109.028
84.7941
60.5642
36.3372
12.1122
351.576
327.313
303.04
278.765
254.491
230.222
205.961
181.707