/*--------------------------------*- C++ -*----------------------------------*\
| =========                 |                                                 |
| \\      /  F ield         | OpenFOAM: The Open Source CFD Toolbox           |
|  \\    /   O peration     | Version:  5.x                                   |
|   \\  /    A nd           | Web:      www.OpenFOAM.org                      |
|    \\/     M anipulation  |                                                 |
\*---------------------------------------------------------------------------*/
FoamFile
{
    version     2.0;
    format      ascii;
    class       volScalarField;
    location    "14.7";
    object      gradTy;
}
// * * * * * * * * * * * * * * * * * * * * * * * * * * * * * * * * * * * * * //

dimensions      [0 -1 0 1 0 0 0];

internalField   nonuniform List<scalar> 
6300
(
1010.7
1032.08
1053.35
1074.47
1095.36
1115.96
1136.21
1156.04
1175.4
1194.22
1212.44
1230.02
1246.91
1263.07
1278.46
0.0475768
0.142726
0.237841
0.332834
0.427528
0.521598
0.614516
0.705497
0.793435
0.876865
0.953948
1.02252
1.0802
1.12459
1.15355
0.0792986
0.237906
0.396518
0.55504
0.713224
0.87059
1.02633
1.17919
1.32738
1.46846
1.59934
1.71625
1.81502
1.89137
1.94142
0.111008
0.333076
0.555272
0.777562
0.99971
1.22118
1.44097
1.6575
1.86837
2.07023
2.25863
2.42808
2.57223
2.68442
2.75846
0.142657
0.428104
0.713915
1.0002
1.28684
1.57339
1.85884
2.14142
2.41832
2.68538
2.93681
3.16513
3.36133
3.51556
3.61837
0.174167
0.522753
0.872054
1.22243
1.57403
1.92664
2.2795
2.63094
2.97804
3.31606
3.63801
3.93419
4.19227
4.39798
4.53699
0.205424
0.61667
1.02909
1.4434
1.86014
2.27959
2.7015
3.12473
3.54672
3.96271
4.36485
4.74124
5.07541
5.34694
5.53384
0.236272
0.709383
1.1842
1.66187
2.14348
2.63
3.12209
3.61965
4.12127
4.62307
5.11728
5.59029
6.02099
6.38026
6.63387
0.266541
0.800361
1.33642
1.87633
2.42182
2.97477
3.53708
4.1104
4.69547
5.29084
5.89067
6.48143
7.03771
7.51893
7.87081
0.296065
0.889068
1.48476
2.08515
2.69263
3.31007
3.94093
4.58925
5.2592
5.95393
6.67288
7.40673
8.12916
8.78659
9.29244
0.324706
0.97506
1.62833
2.28682
2.9534
3.63182
4.32718
5.04628
5.79793
6.59253
7.43988
8.34311
9.28527
10.2055
10.9697
0.352396
1.0581
1.76664
2.48033
3.2022
3.93651
4.68952
5.47056
6.29347
7.17808
8.15066
9.24021
10.463
11.78
13.01
0.379164
1.13825
1.89973
2.66557
3.43845
4.22236
5.02365
5.85274
6.72703
7.67533
8.74411
10.0038
11.546
13.4411
15.5619
0.405157
1.21598
2.0284
2.84368
3.66355
4.49068
5.32977
6.18947
7.08626
8.05176
9.14636
10.4843
12.2759
14.8758
18.6938
0.430623
1.29208
2.15414
3.01711
3.88124
4.74688
5.61506
6.48883
7.3765
8.29875
9.3049
10.5109
12.1969
15.0918
21.3605
1291.85
1303.48
1314.56
1325.1
1335.11
1344.6
1353.61
1362.15
1370.26
1377.96
1385.3
1392.3
1399
1405.45
1411.67
1417.71
1423.59
1429.37
1435.06
1440.7
1446.33
1451.98
1457.67
1463.43
1469.28
1475.26
1481.36
1487.61
1494.02
1500.6
1507.34
1514.26
1521.34
1528.57
1535.96
1543.48
1551.13
1558.88
1566.73
1574.64
1582.6
1590.58
1598.56
1606.5
1614.37
1622.15
1629.81
1637.31
1644.63
1651.75
1658.64
1665.27
1671.62
1677.65
1683.34
1688.66
1693.56
1698.02
1701.99
1705.43
1708.32
1710.59
1712.21
1713.13
1713.3
1712.67
1711.18
1708.77
1705.35
1700.87
1695.23
1688.34
1680.12
1670.46
1659.25
1646.4
1631.78
1615.27
1596.77
1576.16
1553.3
1528.1
1500.43
1470.2
1437.3
1401.68
1363.26
1322.02
1277.93
1231.03
1.16449
1.1621
1.14735
1.12066
1.08286
1.03506
0.978617
0.914982
0.845611
0.77189
0.695084
0.616307
0.536515
0.456512
0.376976
0.29848
0.221532
0.1466
0.074151
0.00467391
-0.0612955
-0.123163
-0.180276
-0.231935
-0.27743
-0.316081
-0.347312
-0.37071
-0.386097
-0.393565
-0.393475
-0.386407
-0.373048
-0.354058
-0.329934
-0.300932
-0.267052
-0.228123
-0.183956
-0.134533
-0.0801664
-0.0216024
0.0399987
0.103197
0.166504
0.228656
0.288853
0.346903
0.403248
0.458859
0.515046
0.57321
0.634593
0.700085
0.770104
0.844602
0.923179
1.00528
1.09046
1.17856
1.26991
1.36534
1.46614
1.57395
1.69051
1.81755
1.9565
2.10838
2.27373
2.45255
2.64442
2.84857
3.06405
3.28985
3.52487
3.76793
4.01762
4.27208
4.52882
4.78443
5.03453
5.2736
5.49511
5.69174
5.85574
5.97945
6.05593
6.07959
6.04677
5.95616
1.96049
1.95657
1.93134
1.88557
1.82075
1.73896
1.64258
1.53421
1.41638
1.2915
1.16171
1.02889
0.894615
0.760197
0.626717
0.495083
0.366085
0.240455
0.118925
0.00227537
-0.108621
-0.212775
-0.309075
-0.396307
-0.473207
-0.538546
-0.591248
-0.630527
-0.656024
-0.667893
-0.666825
-0.653954
-0.630641
-0.598196
-0.557585
-0.50924
-0.453034
-0.38844
-0.31485
-0.231967
-0.140164
-0.0407092
0.0642482
0.17194
0.279457
0.384315
0.484948
0.581
0.673366
0.763976
0.8554
0.950365
1.05126
1.15974
1.27651
1.4013
1.53312
1.67068
1.81286
1.95918
2.1101
2.26709
2.43251
2.60937
2.80094
3.01037
3.24031
3.4926
3.76816
4.06688
4.38786
4.72961
5.0904
5.46845
5.86205
6.26943
6.68856
7.1167
7.55
7.98309
8.40872
8.81759
9.19848
9.53856
9.82408
10.0413
10.1777
10.223
10.1704
10.0174
2.78701
2.78162
2.7448
2.6778
2.58303
2.46376
2.32376
2.16699
1.99727
1.81814
1.63269
1.44356
1.25293
1.06254
0.873814
0.687908
0.505809
0.328431
0.156698
-0.0083769
-0.165621
-0.313659
-0.450892
-0.575515
-0.685588
-0.779161
-0.854463
-0.910144
-0.945524
-0.960799
-0.957125
-0.936488
-0.901339
-0.854048
-0.796329
-0.728828
-0.651057
-0.561675
-0.45909
-0.342208
-0.211147
-0.0677055
0.0845923
0.240964
0.396266
0.546083
0.687658
0.820423
0.94603
1.06793
1.19067
1.319
1.45702
1.60749
1.77138
1.94789
2.13483
2.32944
2.5293
2.73318
2.94156
3.15669
3.3824
3.62361
3.88565
4.17366
4.49191
4.84334
5.22922
5.64915
6.10136
6.58322
7.09186
7.62464
8.17933
8.75398
9.34647
9.95382
10.5714
11.1924
11.807
12.4018
12.9605
13.4638
13.8907
14.2195
14.4305
14.5072
14.4384
14.22
3.65865
3.65193
3.60173
3.51003
3.3806
3.21842
3.02914
2.81846
2.59179
2.35396
2.10907
1.86053
1.61101
1.36263
1.11701
0.875414
0.638909
0.40846
0.18507
-0.0301083
-0.235673
-0.429891
-0.610648
-0.77545
-0.921498
-1.04585
-1.14569
-1.21875
-1.26372
-1.28074
-1.2716
-1.23966
-1.18926
-1.12466
-1.0489
-0.962947
-0.865539
-0.753663
-0.62366
-0.47261
-0.299699
-0.107196
0.0993302
0.311785
0.521232
0.719976
0.903307
1.0704
1.22427
1.37094
1.51815
1.67393
1.84511
2.03616
2.24835
2.47972
2.72576
2.98088
3.24019
3.50097
3.76353
4.03129
4.31023
4.60807
4.9332
5.29362
5.69598
6.1447
6.64146
7.18516
7.77238
8.39848
9.05876
9.74944
10.468
11.213
11.9831
12.7763
13.5882
14.4112
15.2336
16.0381
16.8024
17.4994
18.0983
18.5675
18.8768
19.0007
18.9218
18.6331
4.59255
4.58467
4.51823
4.39642
4.22512
4.01193
3.76511
3.49274
3.20217
2.89972
2.59055
2.27872
1.96732
1.65862
1.35427
1.05548
0.763188
0.478234
0.201538
-0.0657561
-0.322131
-0.565565
-0.793428
-1.00244
-1.18869
-1.34785
-1.47552
-1.56782
-1.62221
-1.63837
-1.61891
-1.56945
-1.49766
-1.41138
-1.31617
-1.21361
-1.1009
-0.971811
-0.818604
-0.634565
-0.416544
-0.166966
0.105437
0.386836
0.661502
0.915944
1.14221
1.3393
1.51275
1.673
1.83313
2.0065
2.20444
2.4342
2.69753
2.99025
3.30343
3.62612
3.94877
4.26598
4.57782
4.88956
5.21063
5.55301
5.92968
6.35296
6.83304
7.37662
7.98587
8.65821
9.38713
10.1642
10.9816
11.8338
12.7184
13.6355
14.5863
15.5713
16.5883
17.6307
18.6855
19.7319
20.7409
21.6754
22.4924
23.1454
23.5895
23.7858
23.7067
23.3405
5.61032
5.60153
5.51425
5.35382
5.12972
4.85361
4.53759
4.19293
3.82937
3.45487
3.07556
2.69601
2.31947
1.9481
1.58331
1.22599
0.876696
0.535929
0.204292
-0.11729
-0.427375
-0.7238
-1.00349
-1.26231
-1.49501
-1.69531
-1.85638
-1.97157
-2.03583
-2.04739
-2.00954
-1.93146
-1.82704
-1.71107
-1.59413
-1.479
-1.35998
-1.22481
-1.05809
-0.845613
-0.579003
-0.259791
0.0983889
0.47137
0.830673
1.15225
1.42287
1.64197
1.81998
1.97495
2.12874
2.30338
2.51761
2.7836
3.10406
3.47097
3.86706
4.27106
4.66479
5.03838
5.39186
5.73402
6.07991
6.44816
6.85859
7.33004
7.87822
8.51351
9.23896
10.0493
10.932
11.8714
12.8537
13.8708
14.9213
16.0088
17.1396
18.3195
19.5513
20.8317
22.1486
23.4787
24.7858
26.0202
27.1215
28.0232
28.6582
28.9667
28.904
28.4499
6.74056
6.7311
6.61525
6.40259
6.10891
5.75248
5.35102
4.92002
4.47203
4.01659
3.56057
3.10867
2.66385
2.2278
1.80134
1.38466
0.977682
0.580243
0.192349
-0.185585
-0.552482
-0.906312
-1.24377
-1.55997
-1.84811
-2.09943
-2.30342
-2.4488
-2.52545
-2.52769
-2.45824
-2.33156
-2.17317
-2.0123
-1.86966
-1.75015
-1.6425
-1.52342
-1.36363
-1.13481
-0.817428
-0.408971
0.0697659
0.575323
1.05387
1.46164
1.77741
2.00348
2.16007
2.27829
2.394
2.54288
2.75588
3.05414
3.4433
3.90923
4.41888
4.93035
5.40938
5.83925
6.22172
6.57264
6.91652
7.28208
7.69914
8.1961
8.79741
9.52001
10.3692
11.3355
12.3947
13.5162
14.675
15.8592
17.0702
18.3192
19.6214
20.9923
22.4436
23.9792
25.5918
27.258
28.9343
30.5555
32.0373
33.284
34.1963
34.681
34.6639
34.1073
8.02375
8.01354
7.85534
7.5677
7.17822
6.71599
6.20686
5.67154
5.1254
4.57913
4.03966
3.51113
2.9956
2.49374
2.0053
1.52943
1.06501
0.610907
0.166178
-0.269643
-0.69626
-1.11223
-1.51451
-1.89782
-2.25403
-2.57148
-2.83465
-3.02476
-3.12203
-3.11099
-2.98913
-2.77708
-2.52269
-2.28708
-2.11169
-2.00402
-1.94127
-1.88044
-1.76835
-1.55133
-1.18681
-0.659186
0.00267006
0.7183
1.37908
1.90361
2.26123
2.46512
2.55551
2.58537
2.61163
2.69018
2.87152
3.19387
3.6721
4.28462
4.96812
5.63643
6.22478
6.70841
7.09706
7.42146
7.72197
8.04193
8.42466
8.91197
9.54196
10.3442
11.331
12.4877
13.7677
15.1073
16.4597
17.8087
19.1645
20.5526
22.004
23.5493
25.2141
27.0157
28.9576
31.0224
33.162
35.2912
37.2913
39.0258
40.3498
41.1174
41.2004
40.5219
9.5215
9.50882
9.28161
8.87924
8.35211
7.74688
7.10034
6.43866
5.77907
5.13203
4.50322
3.89508
3.3079
2.74065
2.19146
1.65801
1.13782
0.628417
0.127548
-0.366569
-0.854959
-1.33746
-1.81212
-2.27426
-2.71531
-3.1212
-3.47062
-3.73391
-3.87409
-3.85336
-3.64941
-3.2831
-2.84469
-2.47464
-2.25572
-2.19274
-2.23683
-2.31078
-2.32371
-2.17976
-1.79056
-1.10222
-0.141399
0.940706
1.90093
2.58636
2.96682
3.0906
3.03853
2.89809
2.75443
2.68996
2.78459
3.10963
3.70801
4.55826
5.53966
6.45812
7.19141
7.71477
8.06533
8.30509
8.49983
8.71183
9.00005
9.42284
10.039
10.9028
12.0488
13.4627
15.0551
16.6805
18.2494
19.7486
21.2126
22.695
24.2518
25.9344
27.7879
29.8501
32.1466
34.6792
37.4046
40.2128
42.9277
45.3588
47.3044
48.5397
48.8334
48.0132
11.337
11.3128
10.9599
10.3702
9.63818
8.83691
8.01516
7.20226
6.41414
5.65819
4.93657
4.24842
3.59112
2.96117
2.35458
1.76719
1.19481
0.633348
0.0789311
-0.471982
-1.02235
-1.5742
-2.12792
-2.68123
-3.22738
-3.75235
-4.23074
-4.62045
-4.85794
-4.85967
-4.54361
-3.89303
-3.06837
-2.44471
-2.17534
-2.2274
-2.48954
-2.82917
-3.1052
-3.16158
-2.82529
-1.93788
-0.460401
1.33831
2.81812
3.70794
4.04168
3.96892
3.64837
3.21495
2.78273
2.46015
2.3654
2.63131
3.38072
4.64257
6.20131
7.5459
8.45978
8.96938
9.19258
9.25292
9.2522
9.27132
9.38101
9.65461
10.1786
11.0547
12.3798
14.1801
16.2944
18.3339
20.1389
21.7384
23.2332
24.7295
26.3176
28.0723
30.06
32.346
34.9947
38.0569
41.5269
45.2674
48.9713
52.3897
55.2802
57.3167
58.0688
57.1126
13.6681
13.5894
12.9787
12.0656
11.0235
9.9561
8.91694
7.92989
7.00264
6.13466
5.32151
4.5571
3.83479
3.1479
2.48993
1.85464
1.23597
0.628078
0.0252289
-0.578189
-1.18763
-1.8082
-2.44425
-3.09843
-3.76985
-4.45048
-5.11841
-5.72603
-6.18111
-6.32345
-5.91934
-4.75352
-3.00253
-1.90453
-1.63207
-1.95953
-2.63062
-3.43907
-4.20287
-4.70873
-4.65358
-3.62316
-1.24197
2.19509
4.58473
5.63006
5.70169
5.20387
4.4206
3.52997
2.65305
1.90215
1.42677
1.45662
2.31543
4.29918
7.17113
9.25361
10.31
10.6361
10.554
10.2884
9.97574
9.70009
9.52568
9.52559
9.8108
10.5596
12.0262
14.4451
17.6408
20.3247
22.3238
23.8784
25.251
26.6311
28.1428
29.8739
31.9022
34.3186
37.2467
40.8468
45.2586
50.3739
55.4249
60.1798
64.4843
67.9424
69.7627
68.8347
16.9735
16.6312
15.4323
13.9461
12.4449
11.0342
9.74336
8.57119
7.50565
6.53208
5.63621
4.80515
4.02746
3.29301
2.59271
1.91823
1.26175
0.615689
-0.0274856
-0.675533
-1.33665
-2.01967
-2.73421
-3.49052
-4.29875
-5.16653
-6.09255
-7.05089
-7.95418
-8.57368
-8.39152
-6.45628
-1.99612
-0.175318
-0.224698
-1.19659
-2.57361
-4.11297
-5.67162
-7.06336
-7.88583
-7.25318
-3.54373
4.56026
8.28719
8.95433
8.18167
6.8499
5.34747
3.82537
2.34206
0.947645
-0.239171
-0.911499
-0.369548
2.67693
9.27787
12.4389
13.2118
12.8905
12.1798
11.3916
10.646
9.98315
9.41942
8.98585
8.77555
9.03115
10.3011
13.5916
19.7243
23.3013
25.1484
26.2802
27.258
28.3428
29.6518
31.2472
33.1851
35.5542
38.5307
42.4671
47.9768
55.5724
62.3042
68.6177
74.9064
80.9252
85.4133
85.5205
22.6191
20.9061
18.2989
15.8475
13.7355
11.9391
10.3984
9.05845
7.87577
6.81718
5.85722
4.976
4.15755
3.38866
2.65805
1.95568
1.2723
0.598975
-0.07333
-0.754182
-1.45422
-2.18582
-2.96404
-3.80785
-4.74189
-5.79864
-7.02006
-8.45488
-10.1357
-11.9781
-13.388
-11.7948
2.81092
4.24681
2.51096
0.149641
-2.28289
-4.75911
-7.38065
-10.2376
-13.2133
-15.3137
-12.1737
13.2281
16.3953
14.3514
11.4663
8.74126
6.30227
4.06458
1.90278
-0.306047
-2.64615
-5.02834
-6.66122
-4.06402
16.3376
19.0624
17.6886
15.7052
13.9168
12.4326
11.1967
10.123
9.12528
8.12414
7.06897
6.04163
5.66594
8.64495
25.4871
28.7684
29.0023
28.9027
29.1102
29.7308
30.7475
32.1266
33.846
35.9141
38.4312
41.821
47.6901
62.0134
69.7842
77.0898
85.7152
96.1103
107.37
114.117
35.8693
26.4679
20.9405
17.2596
14.5713
12.4754
10.7641
9.31896
8.06698
6.96007
5.96472
5.05637
4.21621
3.42918
2.68272
1.96583
1.26845
0.580882
-0.106747
-0.805058
-1.52616
-2.28465
-3.09918
-3.99496
-5.00803
-6.19327
-7.63985
-9.50411
-12.0842
-16.0046
-22.7082
-35.8709
26.5826
13.2362
6.14729
1.59852
-1.92901
-5.19565
-8.7502
-13.2405
-19.8006
-30.9196
-52.8601
53.9135
32.0067
20.9596
14.5202
10.2205
6.96714
4.19455
1.53137
-1.37049
-4.99223
-10.2238
-19.0438
-36.443
48.8516
31.5875
23.043
18.2386
15.2155
13.1162
11.5136
10.1533
8.83612
7.34032
5.32242
2.11391
-3.79984
-16.2645
50.7771
38.623
33.3361
31.0826
30.367
30.5481
31.3207
32.5155
34.0043
35.6271
37.0746
37.6039
35.2287
77.8888
77.9329
83.6601
93.9743
110.048
135.825
181.386
1176.38
1112.86
1045.63
974.884
900.882
823.897
744.22
662.15
577.989
492.035
404.582
315.916
226.316
136.053
45.3947
5.79423
5.54178
5.22396
4.8539
4.44571
4.01293
3.56743
3.11871
2.67369
2.23679
1.81023
1.3944
0.988254
0.589721
0.196022
9.74116
9.30883
8.76459
8.1322
7.43686
6.70241
5.94936
5.1938
4.44717
3.71654
3.00516
2.31324
1.63863
0.977492
0.324863
13.819
13.1877
12.3933
11.4734
10.4671
9.41049
8.3338
7.25997
6.20467
5.17702
4.1806
3.21474
2.2755
1.35673
0.450789
18.0904
17.2296
16.1475
14.9009
13.5475
12.1386
10.7153
9.30759
7.93454
6.60624
5.32548
4.08956
2.89186
1.72311
0.57234
22.63
21.4925
20.0656
18.4348
16.6831
14.8808
13.0812
11.3204
9.61962
7.98793
6.42551
4.92613
3.47924
2.07148
0.687788
27.5311
26.0441
24.187
22.0891
19.8688
17.6198
15.4078
13.273
11.2355
9.30028
7.46246
5.7102
4.02748
2.39576
0.795112
32.9163
30.965
28.5486
25.8653
23.0826
20.3212
17.6566
15.1279
12.7486
10.5151
8.41378
6.42469
4.52468
2.68897
0.892007
38.9532
36.3506
33.1767
29.7405
26.2748
22.9256
19.7691
16.8331
14.1154
11.5976
9.25273
7.05001
4.95756
2.9434
0.975957
45.8814
42.3075
38.0668
33.6451
29.3503
25.3373
21.6611
18.3195
15.282
12.5069
9.9493
7.56499
5.3121
3.15109
1.04438
54.0562
48.9301
43.1366
37.4218
32.143
27.4119
23.2183
19.5014
16.186
13.1986
10.4724
7.94843
5.57468
3.30444
1.09483
64.0215
56.2189
48.1267
40.7618
34.3868
28.9484
24.2984
20.2813
16.7617
13.6287
10.793
8.18155
5.73368
3.39714
1.1253
76.5382
63.7968
52.389
43.1115
35.6936
29.696
24.7451
20.5632
16.9503
13.7614
10.8891
8.251
5.78126
3.42508
1.13454
91.9958
70.0394
54.5202
43.6003
35.5794
29.3964
24.4224
20.2758
16.7145
13.5772
10.7509
8.15194
5.71518
3.38735
1.12228
105.276
69.8431
52.0514
41.1892
33.6264
27.8875
23.272
19.4025
16.0542
13.0819
10.3853
7.89053
5.54012
3.2868
1.08949
0.453767
1.36126
2.26851
3.17491
4.07917
4.97904
5.87097
6.75015
7.61127
8.45132
9.27757
10.1275
11.1174
12.5622
15.2674
0.474822
1.42429
2.37303
3.31982
4.2622
5.19568
6.11255
7.00016
7.83844
8.59635
9.2262
9.65177
9.72736
9.05481
6.10255
0.495987
1.4878
2.47885
3.46771
4.45131
5.42373
6.37427
7.28419
8.12122
8.83012
9.31652
9.4188
8.85651
7.13028
3.36305
0.517258
1.5518
2.58614
3.61919
4.64807
5.66681
6.664
7.61863
8.49276
9.21818
9.67334
9.64703
8.79384
6.62278
2.67828
0.5385
1.6159
2.69429
3.77347
4.85176
5.92473
6.98309
8.00875
8.96734
9.79367
10.3642
10.4492
9.64615
7.34666
2.97402
0.55945
1.67929
2.80182
3.9283
5.05902
6.19262
7.32468
8.44524
9.53358
10.5465
11.3918
11.8679
11.5373
9.51006
4.36373
0.579731
1.74078
2.90656
4.08008
5.26417
6.4614
7.67401
8.90388
10.152
11.4156
12.6754
13.8466
14.6064
13.8392
8.24022
0.598897
1.79895
3.00585
4.22444
5.46009
6.71933
8.01113
9.34957
10.7594
12.287
14.0201
16.1107
18.7354
21.5234
19.673
0.616479
1.85232
3.09697
4.35686
5.63949
6.95447
8.31562
9.7454
11.2847
13.0155
15.116
18.0037
22.7503
32.4282
57.144
0.632041
1.89953
3.17744
4.4734
5.7963
7.15739
8.57223
10.0649
11.6767
13.4871
15.6647
18.6052
23.3402
32.889
57.3267
0.645221
1.93946
3.2453
4.57112
5.92648
7.3228
8.77458
10.3012
11.9304
13.7033
15.6833
17.9601
20.5866
23.0093
20.2817
0.655744
1.97129
3.29919
4.64823
6.02807
7.44953
8.92469
10.4662
12.084
13.7754
15.4952
17.0715
17.9739
16.7055
9.51115
0.663432
1.9945
3.33832
4.70384
6.10062
7.53879
9.02853
10.5778
12.1861
13.8275
15.4065
16.6505
16.8684
14.5166
6.95413
0.668182
2.0088
3.36229
4.73763
6.14426
7.59207
9.09078
10.6482
12.265
13.9225
15.5499
16.9416
17.5468
15.9458
8.80375
0.669964
2.01411
3.37102
4.74958
6.15917
7.6098
9.11206
10.6769
12.3154
14.0382
15.8564
17.7786
19.7569
21.2224
17.9208
0.668801
2.01051
3.36464
4.73986
6.14542
7.59147
9.08963
10.6543
12.3069
14.0873
16.0903
18.5763
22.3225
29.809
49.6348
0.664772
1.99823
3.34354
4.70897
6.10341
7.53678
9.02073
10.5705
12.2093
13.9814
15.9884
18.4983
22.2901
29.826
49.6603
0.658011
1.97768
3.30838
4.65782
6.03423
7.44676
8.9059
10.4244
12.0188
13.7121
15.5368
17.5295
19.6572
21.3016
18.0386
0.648703
1.94942
3.26014
4.58783
5.93985
7.3242
8.74962
10.2254
11.7594
13.3513
14.9682
16.4665
17.3594
16.1846
9.2042
0.637081
1.91416
3.20006
4.50084
5.82288
7.17295
8.55819
9.98556
11.4594
12.9729
14.4816
15.8236
16.4969
15.099
8.30561
0.623417
1.87274
3.12956
4.39899
5.68631
6.9971
8.3373
9.71326
11.1315
12.5975
14.1103
15.6446
17.0724
17.7599
14.2247
0.608011
1.82607
3.05024
4.28461
5.53333
6.80068
8.09137
9.41136
10.7703
12.1892
13.7237
15.5393
18.1615
23.3529
37.4452
0.591179
1.77511
2.96376
4.16017
5.36727
6.58788
7.8249
9.08215
10.3673
11.7004
13.1416
14.8736
17.466
22.7641
37.1897
0.573236
1.72085
2.87183
4.02822
5.19172
6.36353
7.54417
8.73339
9.93057
11.1364
12.3572
13.6099
14.8912
15.8364
13.3351
0.554488
1.66421
2.77608
3.89124
5.01027
6.1329
7.25729
8.37887
9.48764
10.5617
11.5503
12.3259
12.5496
11.3015
6.26426
0.535209
1.60604
2.678
3.75148
4.82623
5.90091
6.9722
8.03303
9.06856
10.0462
10.8911
11.425
11.2297
9.39778
4.39553
0.515633
1.54705
2.5788
3.61076
4.64214
5.67115
6.6942
7.70458
8.68945
9.62274
10.4474
11.0302
11.046
9.69548
5.15783
0.495941
1.48778
2.47941
3.47035
4.45961
5.4454
6.42485
7.39367
8.34596
9.27445
10.1715
11.029
11.8109
12.2062
9.93253
0.476267
1.42864
2.38045
3.33104
4.27938
5.22394
6.16273
7.09407
8.01883
8.94779
9.92285
11.0801
12.844
16.5702
26.9232
0.456694
1.36986
2.28227
3.19323
4.1017
5.00635
5.90566
6.79886
7.68862
8.58894
9.54742
10.7096
12.514
16.332
26.8335
0.437268
1.31156
2.18506
3.05707
3.9266
4.79235
5.65269
6.50588
7.35092
8.18952
9.03028
9.89302
10.7855
11.452
9.64209
0.418003
1.25379
2.08885
2.92256
3.75405
4.58202
5.40455
6.21841
7.01751
7.78843
8.49769
9.05553
9.21364
8.2914
4.58538
0.398885
1.19648
1.99353
2.78955
3.58385
4.37538
5.16231
5.94104
6.70352
7.42999
8.07008
8.49543
8.39187
7.06383
3.32352
0.379877
1.13954
1.89889
2.65767
3.41551
4.17184
4.92565
5.67484
6.41439
7.13138
7.7914
8.30247
8.42023
7.5113
4.08017
0.360929
1.08278
1.8046
2.52638
3.24814
3.96996
4.69209
5.4152
6.1408
6.87217
7.61598
8.38247
9.1614
9.71013
8.12089
0.341979
1.02602
1.7103
2.39507
3.08067
3.76777
4.45775
5.15373
5.86309
6.60419
7.42463
8.45368
10.0622
13.3935
22.3368
0.322967
0.969058
1.61564
2.26313
2.9121
3.5635
4.21915
4.88285
5.56322
6.28099
7.08824
8.12228
9.76658
13.1792
22.2559
0.303839
0.911738
1.52032
2.13012
2.74177
3.35621
3.97486
4.60027
5.23727
5.89553
6.5942
7.36692
8.24271
9.03126
7.8582
0.28455
0.853925
1.42413
1.99577
2.56947
3.14592
3.7258
4.30954
4.89644
5.48188
6.04859
6.53982
6.77927
6.24537
3.55987
0.265065
0.795516
1.32693
1.85995
2.3952
2.93318
3.47398
4.01652
4.55652
5.08115
5.55528
5.88744
5.85274
4.95353
2.34081
0.245353
0.736422
1.22858
1.72255
2.219
2.71843
3.22088
3.72518
4.22717
4.71537
5.16043
5.48972
5.52642
4.85152
2.55844
0.225383
0.676556
1.12895
1.58339
2.04068
2.50152
2.96643
3.43537
3.90732
4.37944
4.84588
5.29507
5.69415
5.87315
4.73699
0.205127
0.615829
1.02789
1.44223
1.85984
2.28175
2.70911
3.1434
3.58729
4.04738
4.54319
5.13514
6.01461
7.80797
12.7056
0.184555
0.554149
0.925209
1.29878
1.67599
2.05815
2.44692
2.84471
3.25592
3.69045
4.17365
4.77544
5.7003
7.58689
12.6251
0.163645
0.491441
0.820777
1.15277
1.48866
1.82993
2.17842
2.53662
2.90829
3.29967
3.72165
4.19129
4.71801
5.17705
4.48112
0.142381
0.427653
0.714487
1.00403
1.29757
1.59666
1.90313
2.21914
2.54692
2.88759
3.23648
3.56741
3.78265
3.56916
2.07758
0.12076
0.362774
0.606307
0.852485
1.10261
1.35824
1.62118
1.89342
2.17655
2.46973
2.76373
3.02379
3.14495
2.84876
1.52372
0.098793
0.296834
0.496279
0.698188
0.90382
1.11471
1.33273
1.56011
1.79914
2.05127
2.31448
2.57658
2.79703
2.84277
2.16594
0.0765082
0.229915
0.38453
0.541295
0.701362
0.866206
1.03777
1.21869
1.41261
1.62508
1.86596
2.15824
2.57038
3.33853
5.34636
0.0539513
0.162152
0.271284
0.382101
0.495574
0.613019
0.736303
0.868209
1.01319
1.17913
1.38171
1.65664
2.09647
2.97333
5.19998
0.0311868
0.0937394
0.156863
0.221059
0.287022
0.355768
0.428831
0.508631
0.59921
0.707718
0.84719
1.0405
1.31904
1.67073
1.67545
0.00829781
0.0249296
0.0416976
0.0587871
0.076535
0.0955158
0.116674
0.141557
0.172769
0.214802
0.27527
0.365172
0.490774
0.609067
0.48118
-0.0146162
-0.0439743
-0.0736903
-0.10394
-0.134806
-0.166246
-0.19807
-0.229913
-0.261187
-0.29091
-0.317092
-0.334949
-0.332413
-0.281645
-0.1336
-0.0374423
-0.112628
-0.188704
-0.266234
-0.345741
-0.427735
-0.512793
-0.601768
-0.696211
-0.799068
-0.915221
-1.04922
-1.18908
-1.2399
-0.831121
-0.0600586
-0.180659
-0.302704
-0.427146
-0.554938
-0.687082
-0.82478
-0.969807
-1.12537
-1.29797
-1.50093
-1.75938
-2.10756
-2.51728
-2.39908
-0.0823378
-0.247682
-0.415032
-0.585722
-0.761098
-0.942553
-1.13166
-1.3305
-1.54267
-1.77575
-2.04808
-2.40719
-2.98324
-4.1612
-7.21695
-0.104151
-0.313307
-0.52503
-0.74103
-0.963018
-1.19269
-1.43174
-1.68192
-1.94541
-2.22621
-2.53491
-2.90429
-3.44085
-4.50101
-7.34728
-0.125367
-0.377143
-0.632045
-0.892164
-1.15958
-1.43629
-1.72406
-2.02404
-2.33608
-2.65726
-2.97953
-3.28523
-3.53477
-3.60034
-2.82557
-0.145859
-0.4388
-0.735423
-1.03821
-1.34966
-1.67218
-2.00785
-2.35776
-2.72034
-3.0875
-3.43559
-3.70507
-3.75637
-3.28317
-1.69016
-0.165497
-0.49789
-0.834505
-1.17822
-1.53202
-1.89889
-2.28171
-2.68262
-3.10135
-3.53089
-3.94618
-4.27633
-4.34213
-3.74356
-1.79591
-0.184159
-0.554038
-0.928634
-1.31122
-1.70526
-2.11449
-2.54297
-2.99503
-3.47478
-3.98411
-4.51579
-5.03107
-5.38914
-5.14073
-3.0434
-0.201734
-0.606898
-1.0172
-1.43623
-1.86791
-2.31666
-2.78778
-3.28815
-3.8276
-4.4217
-5.09669
-5.89489
-6.85719
-7.82175
-7.06129
-0.218129
-0.656179
-1.09967
-1.55243
-2.01868
-2.50325
-3.01223
-3.55405
-4.14239
-4.80303
-5.59191
-6.64463
-8.3235
-11.7005
-20.3583
-0.233273
-0.70167
-1.17568
-1.65924
-2.15667
-2.67285
-3.21378
-3.78757
-4.40687
-5.09521
-5.90377
-6.95938
-8.61035
-11.9119
-20.4389
-0.247128
-0.74325
-1.24503
-1.7564
-2.28158
-2.8252
-3.39246
-3.98938
-4.62332
-5.30378
-6.04393
-6.86054
-7.75077
-8.49416
-7.32462
-0.259681
-0.78089
-1.30768
-1.84393
-2.39365
-2.96108
-3.55045
-4.16541
-4.80736
-5.47079
-6.13087
-6.71041
-6.993
-6.40467
-3.57103
-0.270945
-0.814634
-1.36376
-1.92205
-2.49338
-3.08167
-3.69058
-4.32259
-4.97637
-5.64001
-6.2736
-6.76634
-6.83987
-5.87429
-2.80931
-0.280955
-0.844589
-1.41343
-1.99108
-2.58127
-3.18786
-3.8146
-4.46456
-5.13842
-5.82997
-6.51401
-7.11323
-7.4082
-6.8017
-3.82088
-0.289762
-0.870909
-1.45697
-2.05137
-2.65773
-3.27999
-3.92242
-4.58984
-5.28807
-6.02503
-6.81315
-7.67129
-8.60239
-9.37779
-8.06913
-0.297436
-0.893798
-1.49469
-2.1033
-2.72311
-3.35804
-4.01278
-4.69363
-5.41073
-6.18442
-7.06353
-8.17852
-9.90451
-13.4009
-22.6156
-0.304068
-0.913527
-1.52701
-2.14741
-2.77792
-3.42225
-4.08493
-4.77215
-5.49396
-6.2705
-7.14994
-8.26128
-9.97694
-13.4529
-22.6351
-0.309776
-0.93044
-1.55451
-2.18446
-2.82309
-3.47364
-4.13994
-4.82654
-5.53907
-6.28499
-7.07514
-7.9242
-8.82674
-9.54184
-8.13238
-0.314704
-0.944972
-1.57789
-2.21543
-2.85992
-3.51403
-4.18076
-4.86281
-5.56088
-6.26863
-6.95928
-7.54981
-7.80653
-7.10599
-3.94566
-0.319029
-0.957646
-1.59802
-2.24155
-2.89001
-3.54559
-4.21084
-4.88785
-5.57584
-6.26402
-6.9128
-7.40708
-7.45093
-6.37818
-3.04428
-0.322957
-0.969083
-1.61592
-2.2642
-2.91508
-3.57038
-4.23266
-4.90516
-5.59056
-6.28664
-6.97345
-7.57699
-7.87058
-7.22049
-4.0558
-0.326733
-0.980007
-1.63278
-2.28499
-2.93704
-3.59022
-4.24729
-4.91342
-5.59773
-6.31556
-7.09178
-7.96199
-8.94541
-9.80889
-8.50258
-0.330633
-0.991258
-1.65001
-2.30584
-2.95815
-3.60729
-4.25553
-4.90895
-5.5815
-6.30381
-7.14467
-8.26824
-10.1033
-13.9039
-23.8512
-0.334973
-1.00379
-1.66922
-2.32908
-2.9814
-3.62492
-4.26007
-4.89109
-5.5306
-6.20961
-7.00109
-8.08021
-9.89618
-13.73
-23.7796
-0.340091
-1.01865
-1.69227
-2.3575
-3.01069
-3.64827
-4.26737
-4.86721
-5.45214
-6.03717
-6.6576
-7.38029
-8.28752
-9.2394
-8.25967
-0.346328
-1.03691
-1.72113
-2.39422
-3.05075
-3.68439
-4.28793
-4.85358
-5.37349
-5.84004
-6.24297
-6.55206
-6.64768
-6.08999
-3.53093
-0.353997
-1.05957
-1.75766
-2.4424
-3.10664
-3.74132
-4.33472
-4.87161
-5.33177
-5.68696
-5.89336
-5.87192
-5.4614
-4.33028
-1.92907
-0.363334
-1.08742
-1.80341
-2.50475
-3.183
-3.82683
-4.42065
-4.94282
-5.36282
-5.63708
-5.70184
-5.46185
-4.7754
-3.45247
-1.33894
-0.374458
-1.12086
-1.8593
-2.58308
-3.28319
-3.94697
-4.55625
-5.08485
-5.49497
-5.73254
-5.72183
-5.3617
-4.53128
-3.12363
-1.14069
-0.387319
-1.15979
-1.92533
-2.6778
-3.40854
-4.10486
-4.74778
-5.30906
-5.74683
-6.0003
-5.98431
-5.58801
-4.68792
-3.19421
-1.14966
-0.401677
-1.20351
-2.00039
-2.78753
-3.55773
-4.29972
-4.99591
-5.6189
-6.12654
-6.45505
-6.51074
-6.16405
-5.25667
-3.64725
-1.33553
-0.417077
-1.25065
-2.08216
-2.90898
-3.72643
-4.52631
-5.29474
-6.00869
-6.63051
-7.09908
-7.31643
-7.1293
-6.31281
-4.5879
-1.7709
-0.432869
-1.29921
-2.16713
-3.03687
-3.90725
-4.77464
-5.63128
-6.46233
-7.24071
-7.9174
-8.4028
-8.53143
-7.99964
-6.28683
-2.70954
-0.448232
-1.34664
-2.25079
-3.16424
-4.09006
-5.03034
-5.98545
-6.95237
-7.92135
-8.86832
-9.73669
-10.392
-10.5064
-9.2804
-4.92706
-0.462237
-1.39004
-2.32793
-3.28297
-4.26273
-5.27564
-6.33128
-7.4408
-8.61706
-9.87358
-11.2183
-12.6278
-13.9439
-14.4456
-10.9643
-0.473918
-1.42641
-2.39312
-3.38445
-4.41232
-5.49118
-6.63957
-7.88266
-9.25673
-10.8173
-12.6547
-14.9282
-17.9463
-22.3764
-29.8118
74.1963
55.403
44.0264
36.1967
30.2895
25.5504
21.584
18.1595
15.1298
12.3941
9.8791
7.52865
5.29745
3.14719
1.04393
27.1234
35.3866
33.7298
30.1019
26.33
22.8194
19.6267
16.7228
14.0616
11.598
9.29178
7.1076
5.01438
2.98403
0.990619
11.9829
22.2588
24.8016
24.1065
22.1886
19.8674
17.4685
15.1172
12.856
10.6926
8.61956
6.62332
4.68757
2.7952
0.928843
6.34932
14.5008
18.1216
18.9601
18.327
16.9691
15.2771
13.4488
11.5823
9.72415
7.89396
6.09694
4.3306
2.58826
0.861038
3.87333
9.88896
13.3734
14.8353
14.9685
14.3027
13.1801
11.8067
10.3026
8.73624
7.14524
5.54919
3.9569
2.3708
0.789649
2.5994
7.03479
10.0295
11.6332
12.1646
11.9533
11.257
10.2552
9.06613
7.76531
6.39993
4.99877
3.57886
2.14986
0.716969
1.85558
5.18103
7.65137
9.17566
9.87619
9.94059
9.54602
8.83365
7.90711
6.83912
5.67939
4.46131
3.2071
1.9316
0.645009
1.37959
3.92103
5.93015
7.29005
8.02942
8.24647
8.05558
7.5607
6.84621
5.97657
4.99932
3.94888
2.85008
1.72101
0.57542
1.05479
3.03066
4.65969
5.83526
6.54528
6.83553
6.77613
6.44015
5.89298
5.18868
4.37
3.47
2.51404
1.52189
0.509467
0.822845
2.38109
3.70407
4.70368
5.35255
5.6673
5.68866
5.46618
5.04879
4.48014
3.79711
3.02992
2.20311
1.33681
0.448033
0.65161
1.89488
2.97296
3.81559
4.39179
4.70274
4.77045
4.62751
4.30957
3.85099
3.28262
2.6312
1.91958
1.16732
0.391656
0.521996
1.52336
2.40533
3.11247
3.61518
3.90702
3.99848
3.9103
3.66798
3.29802
2.82575
2.27427
1.66423
1.01408
0.340582
0.421977
1.23473
1.95906
2.55127
2.98497
3.25041
3.3512
3.30008
3.11497
2.81607
2.42386
1.95796
1.4367
0.877044
0.294827
0.343621
1.00748
1.60452
2.10013
2.47155
2.70809
2.80939
2.78285
2.64093
2.39888
2.0731
1.68008
1.23583
0.755659
0.254231
0.281498
0.826633
1.32038
1.73519
2.05178
2.25965
2.35632
2.34573
2.2364
2.0398
1.76901
1.43776
1.05989
0.649024
0.218515
0.231774
0.681458
1.09105
1.43846
1.70747
1.8884
1.97771
1.97713
1.89244
1.73222
1.50687
1.22779
0.906839
0.556022
0.187324
0.191676
0.564117
0.90488
1.19614
1.42432
1.58074
1.66149
1.66693
1.60091
1.46985
1.28203
1.04688
0.774519
0.475429
0.160264
0.159152
0.468769
0.753081
0.997604
1.191
1.32561
1.39754
1.40634
1.35451
1.24688
1.09005
0.891801
0.660748
0.405994
0.136926
0.132659
0.390988
0.628904
0.834562
0.998481
1.114
1.17741
1.18783
1.14683
1.05807
0.926805
0.759488
0.563427
0.346493
0.11691
0.111018
0.327378
0.52712
0.700496
0.83956
0.938556
0.994076
1.005
0.972313
0.898764
0.788583
0.647127
0.480593
0.295771
0.0998332
0.0933191
0.275302
0.443639
0.590249
0.708452
0.793292
0.841693
0.852459
0.826153
0.764884
0.67207
0.552171
0.410454
0.252765
0.0853444
0.0788513
0.232701
0.375239
0.499721
0.600504
0.673322
0.715433
0.725648
0.70426
0.652901
0.574356
0.472361
0.3514
0.216513
0.0731239
0.067058
0.197951
0.319373
0.425644
0.511969
0.574668
0.611313
0.620773
0.603171
0.559787
0.492918
0.405714
0.302011
0.186163
0.0628876
0.0575017
0.169776
0.274025
0.365413