/*--------------------------------*- C++ -*----------------------------------*\
| =========                 |                                                 |
| \\      /  F ield         | OpenFOAM: The Open Source CFD Toolbox           |
|  \\    /   O peration     | Version:  5.x                                   |
|   \\  /    A nd           | Web:      www.OpenFOAM.org                      |
|    \\/     M anipulation  |                                                 |
\*---------------------------------------------------------------------------*/
FoamFile
{
    version     2.0;
    format      ascii;
    class       volScalarField;
    location    "14.7";
    object      T;
}
// * * * * * * * * * * * * * * * * * * * * * * * * * * * * * * * * * * * * * //

dimensions      [0 0 0 1 0 0 0];

internalField   nonuniform List<scalar> 
6300
(
10.1069
10.3203
10.5327
10.7436
10.9521
11.1579
11.36
11.5581
11.7513
11.9392
12.1213
12.2968
12.4655
12.6269
12.7808
10.1072
10.3212
10.5343
10.7458
10.955
11.1613
11.3641
11.5628
11.7566
11.9451
12.1276
12.3036
12.4727
12.6344
12.7884
10.1078
10.3231
10.5375
10.7502
10.9607
11.1683
11.3723
11.5722
11.7672
11.9568
12.1403
12.3173
12.4871
12.6494
12.8038
10.1088
10.326
10.5422
10.7569
10.9693
11.1787
11.3846
11.5863
11.7832
11.9744
12.1596
12.3379
12.509
12.6722
12.8273
10.11
10.3298
10.5486
10.7658
10.9807
11.1927
11.4011
11.6053
11.8046
11.9982
12.1855
12.3658
12.5386
12.7031
12.859
10.1116
10.3345
10.5565
10.7769
10.995
11.2102
11.4218
11.6292
11.8315
12.0282
12.2183
12.4012
12.5762
12.7425
12.8996
10.1135
10.3402
10.566
10.7902
11.0122
11.2312
11.4467
11.6579
11.8641
12.0645
12.2583
12.4445
12.6224
12.7911
12.9498
10.1157
10.3469
10.5771
10.8058
11.0322
11.2558
11.4759
11.6917
11.9025
12.1074
12.3056
12.4961
12.6777
12.8495
13.0103
10.1182
10.3544
10.5897
10.8235
11.055
11.2838
11.5092
11.7303
11.9466
12.157
12.3606
12.5563
12.7428
12.9187
13.0824
10.1211
10.3629
10.6038
10.8433
11.0806
11.3153
11.5466
11.7739
11.9964
12.2132
12.4234
12.6257
12.8185
12.9998
13.1677
10.1242
10.3722
10.6194
10.8652
11.1089
11.35
11.588
11.8221
12.0517
12.276
12.4941
12.7045
12.9054
13.0944
13.2683
10.1276
10.3824
10.6364
10.889
11.1397
11.3879
11.6331
11.8748
12.1123
12.3451
12.5722
12.7926
13.0042
13.204
13.3871
10.1312
10.3934
10.6547
10.9148
11.1729
11.4288
11.6818
11.9315
12.1776
12.4196
12.6571
12.8893
13.1147
13.33
13.5285
10.1351
10.4052
10.6744
10.9423
11.2085
11.4724
11.7336
11.9919
12.2469
12.4986
12.7471
12.9926
13.2351
13.4728
13.6983
10.1393
10.4177
10.6953
10.9716
11.2462
11.5186
11.7884
12.0553
12.3193
12.5806
12.84
13.099
13.3602
13.6275
13.9024
12.9147
13.031
13.1418
13.2473
13.3475
13.4426
13.5328
13.6184
13.6997
13.777
13.8506
13.9209
13.9882
14.053
14.1155
14.1761
14.2352
14.2932
14.3503
14.407
14.4635
14.5202
14.5773
14.6351
14.6938
14.7536
14.8148
14.8774
14.9415
15.0073
15.0747
15.1439
15.2146
15.2869
15.3607
15.4358
15.5121
15.5896
15.6679
15.7469
15.8263
15.9059
15.9855
16.0646
16.1432
16.2208
16.2971
16.3719
16.445
16.516
16.5847
16.6508
16.7141
16.7742
16.8308
16.8837
16.9325
16.9768
17.0162
17.0504
17.0789
17.1013
17.1172
17.126
17.1274
17.1207
17.1053
17.0806
17.0459
17.0005
16.9434
16.8739
16.791
16.6936
16.5808
16.4514
16.3044
16.1385
15.9526
15.7456
15.5163
15.2634
14.986
14.683
14.3536
13.9969
13.6125
13.2
12.7593
12.2905
12.9224
13.0387
13.1494
13.2547
13.3546
13.4494
13.5393
13.6245
13.7054
13.7822
13.8553
13.925
13.9918
14.056
14.118
14.1781
14.2367
14.2941
14.3508
14.407
14.4631
14.5194
14.5761
14.6335
14.6919
14.7515
14.8125
14.8749
14.939
15.0047
15.0721
15.1413
15.2121
15.2845
15.3585
15.4338
15.5104
15.5881
15.6667
15.746
15.8258
15.9058
15.9857
16.0653
16.1443
16.2223
16.299
16.3743
16.4477
16.5191
16.5881
16.6546
16.7183
16.7788
16.836
16.8894
16.9387
16.9835
17.0235
17.0583
17.0874
17.1104
17.127
17.1366
17.1387
17.1328
17.1184
17.0947
17.0611
17.0169
16.9611
16.893
16.8114
16.7156
16.6043
16.4765
16.3312
16.167
15.9828
15.7775
15.5498
15.2985
15.0226
14.7209
14.3925
14.0366
13.6527
13.2403
12.7994
12.3301
12.938
13.0542
13.1647
13.2697
13.3691
13.4633
13.5524
13.6367
13.7167
13.7925
13.8645
13.9333
13.999
14.0621
14.123
14.1821
14.2396
14.2961
14.3518
14.4071
14.4623
14.5177
14.5737
14.6304
14.6882
14.7473
14.8078
14.8699
14.9338
14.9994
15.0669
15.1361
15.2071
15.2798
15.3541
15.4298
15.5068
15.585
15.6642
15.7442
15.8247
15.9055
15.9863
16.0667
16.1465
16.2253
16.3029
16.3789
16.4531
16.5252
16.595
16.6623
16.7267
16.7882
16.8462
16.9006
16.951
16.9969
17.038
17.074
17.1043
17.1286
17.1465
17.1575
17.1612
17.157
17.1444
17.1228
17.0914
17.0495
16.9963
16.9309
16.8523
16.7594
16.6513
16.5268
16.3847
16.2239
16.0432
15.8413
15.617
15.3689
15.0959
14.7969
14.4707
14.1165
13.7336
13.3216
12.8802
12.4097
12.9616
13.0778
13.188
13.2924
13.3911
13.4842
13.5722
13.6552
13.7337
13.808
13.8785
13.9456
14.0097
14.0712
14.1305
14.188
14.244
14.299
14.3532
14.4071
14.4609
14.5151
14.5699
14.6256
14.6825
14.7407
14.8006
14.8623
14.9258
14.9913
15.0588
15.1282
15.1995
15.2726
15.3473
15.4236
15.5013
15.5803
15.6604
15.7413
15.823
15.905
15.987
16.0688
16.1499
16.23
16.3087
16.3859
16.4612
16.5343
16.6052
16.6736
16.7393
16.802
16.8615
16.9174
16.9693
17.0169
17.0598
17.0975
17.1296
17.1558
17.1756
17.1887
17.1947
17.193
17.1832
17.1646
17.1365
17.0982
17.0489
16.9875
16.9132
16.8249
16.7215
16.6019
16.4649
16.3093
16.1338
15.9372
15.718
15.4749
15.2065
14.9116
14.589
14.2375
13.8563
13.4448
13.0028
12.5304
12.9937
13.1098
13.2196
13.3232
13.4208
13.5126
13.5989
13.6801
13.7566
13.8288
13.8972
13.9621
14.024
14.0834
14.1405
14.1958
14.2497
14.3027
14.3549
14.4069
14.459
14.5114
14.5646
14.6189
14.6745
14.7317
14.7907
14.8517
14.9149
14.9802
15.0477
15.1174
15.1891
15.2627
15.3381
15.4152
15.4938
15.5738
15.655
15.7373
15.8205
15.9041
15.9879
16.0715
16.1544
16.2363
16.3166
16.3953
16.472
16.5465
16.6188
16.6886
16.7559
16.8203
16.8817
16.9396
16.9937
17.0435
17.0886
17.1286
17.1631
17.1918
17.2142
17.23
17.2389
17.2405
17.2342
17.2196
17.196
17.1625
17.1184
17.0626
16.9941
16.9119
16.8149
16.7018
16.5716
16.423
16.2546
16.0652
15.8531
15.6169
15.3551
15.0661
14.7485
14.4009
14.0222
13.6117
13.169
12.6941
13.0348
13.1508
13.2601
13.3626
13.4587
13.5486
13.6328
13.7116
13.7855
13.8551
13.9207
13.9828
14.0419
14.0985
14.1528
14.2055
14.2568
14.3071
14.3569
14.4065
14.4562
14.5065
14.5577
14.6101
14.664
14.7198
14.7777
14.8379
14.9006
14.9657
15.0334
15.1034
15.1757
15.2501
15.3263
15.4043
15.484
15.5652
15.6479
15.7319
15.817
15.9028
15.989
16.075
16.1603
16.2444
16.3268
16.4073
16.4856
16.5618
16.6356
16.7071
16.7762
16.8428
16.9065
16.967
17.0239
17.0765
17.1246
17.1675
17.2049
17.2364
17.2618
17.2809
17.2934
17.2989
17.2971
17.2875
17.2693
17.2419
17.2043
17.1555
17.0944
17.0199
16.9309
16.8262
16.7046
16.5648
16.4056
16.2254
16.0226
15.7956
15.5426
15.2616
14.9509
14.6088
14.2338
13.8248
13.3812
12.9031
13.0856
13.2015
13.31
13.4112
13.5053
13.5928
13.6742
13.7499
13.8206
13.8868
13.949
14.0077
14.0634
14.1165
14.1676
14.2169
14.265
14.3122
14.359
14.4056
14.4525
14.5001
14.5488
14.5989
14.6507
14.7047
14.7612
14.8204
14.8824
14.9474
15.0154
15.086
15.1591
15.2345
15.3118
15.3909
15.4718
15.5543
15.6386
15.7246
15.8121
15.9008
15.9901
16.0793
16.1677
16.2546
16.3395
16.4221
16.5022
16.58
16.6555
16.7288
16.8
16.869
16.9356
16.9994
17.0597
17.116
17.1676
17.214
17.2547
17.2896
17.3184
17.3411
17.3575
17.3675
17.3709
17.3672
17.3557
17.3357
17.3061
17.2658
17.2137
17.1486
17.0692
16.9745
16.8634
16.7344
16.5864
16.4178
16.2268
16.0116
15.7699
15.4997
15.1984
14.8638
14.494
14.0874
13.6431
13.1609
13.147
13.2629
13.3703
13.4697
13.5613
13.6457
13.7235
13.7954
13.8621
13.9242
13.9822
14.0367
14.0883
14.1374
14.1845
14.23
14.2743
14.3178
14.361
14.4041
14.4477
14.492
14.5376
14.5848
14.6341
14.6859
14.7406
14.7985
14.8599
14.9248
14.9932
15.0648
15.1392
15.2159
15.2945
15.3748
15.4568
15.5407
15.6267
15.715
15.8054
15.8976
15.991
16.0844
16.1769
16.2674
16.3553
16.4401
16.522
16.6013
16.6782
16.7532
16.8266
16.8984
16.9686
17.0364
17.1012
17.162
17.2179
17.2682
17.3127
17.3511
17.3834
17.4099
17.4305
17.4455
17.4547
17.4577
17.4541
17.4429
17.423
17.3929
17.3515
17.2973
17.2293
17.1464
17.0474
16.9312
16.7966
16.642
16.4656
16.2652
16.0383
15.782
15.4934
15.1693
14.807
14.4041
13.9593
13.4721
13.2204
13.3361
13.4423
13.5392
13.6275
13.7078
13.7812
13.8483
13.9101
13.9672
14.0202
14.0699
14.1167
14.1611
14.2036
14.2446
14.2846
14.3238
14.3628
14.4019
14.4415
14.482
14.5239
14.5677
14.6138
14.6628
14.7151
14.7714
14.8319
14.8969
14.9662
15.0394
15.1157
15.1942
15.2744
15.3559
15.4389
15.5239
15.6114
15.7019
15.7958
15.8926
15.9914
16.0908
16.1887
16.2838
16.375
16.4622
16.5454
16.6256
16.7033
16.7796
16.8551
16.9301
17.0045
17.0776
17.1481
17.2146
17.2758
17.3308
17.3791
17.421
17.4567
17.4867
17.5115
17.5315
17.5469
17.5576
17.5631
17.5624
17.554
17.5362
17.5072
17.4658
17.4106
17.3409
17.2558
17.1543
17.0353
16.8974
16.7386
16.5567
16.3486
16.1108
15.8391
15.5295
15.1779
14.7811
14.3364
13.843
13.3075
13.4231
13.5275
13.621
13.7048
13.78
13.8476
13.9089
13.9646
14.0158
14.063
14.107
14.1482
14.1873
14.2246
14.2606
14.2956
14.3301
14.3643
14.3987
14.4338
14.4698
14.5073
14.5469
14.5891
14.6345
14.6839
14.738
14.7974
14.8626
14.9334
15.0093
15.0887
15.1701
15.2522
15.3347
15.418
15.5031
15.5914
15.6839
15.7816
15.8844
15.991
16.0988
16.2045
16.3055
16.4005
16.4894
16.5731
16.653
16.7304
16.807
16.884
16.9623
17.042
17.1221
17.2006
17.2747
17.3424
17.4024
17.4546
17.4995
17.5379
17.5707
17.599
17.6237
17.6455
17.6646
17.6807
17.6927
17.6983
17.6951
17.6807
17.6535
17.6126
17.5574
17.4875
17.4022
17.3009
17.1823
17.0448
16.8857
16.7015
16.4879
16.2392
15.9498
15.614
15.2265
14.7833
14.2825
13.4108
13.5263
13.6279
13.7168
13.7945
13.8628
13.9232
13.9771
14.0257
14.0698
14.1103
14.1478
14.1828
14.2159
14.2474
14.2778
14.3073
14.3364
14.3654
14.3946
14.4244
14.4553
14.4877
14.5222
14.5595
14.6003
14.6457
14.6967
14.7544
14.8198
14.8932
14.9737
15.0588
15.1448
15.2293
15.3121
15.3942
15.4776
15.5649
15.6583
15.76
15.8706
15.9886
16.1096
16.2268
16.3355
16.4344
16.524
16.6062
16.6835
16.7584
16.8334
16.9108
16.9923
17.0786
17.1687
17.2589
17.3438
17.4196
17.485
17.5404
17.5871
17.6267
17.6609
17.6915
17.7199
17.7476
17.7756
17.8041
17.8317
17.8551
17.8698
17.8722
17.8607
17.8349
17.7948
17.7408
17.673
17.591
17.4944
17.3816
17.2503
17.0967
16.915
16.6977
16.4367
16.124
15.7518
15.3131
14.8033
13.5342
13.6494
13.7467
13.8284
13.8976
13.9567
14.0079
14.0529
14.0929
14.1289
14.1617
14.1919
14.2201
14.2465
14.2717
14.2959
14.3195
14.3427
14.3659
14.3893
14.4133
14.4383
14.4648
14.4933
14.5245
14.5594
14.5993
14.6456
14.7003
14.7654
14.8425
14.9314
15.0274
15.1212
15.2087
15.2901
15.3682
15.4465
15.5293
15.6207
15.7251
15.8457
15.9818
16.1256
16.2608
16.3796
16.4813
16.5688
16.6461
16.7173
16.7861
16.8562
16.9313
17.0149
17.1096
17.215
17.3246
17.4256
17.5116
17.5818
17.6385
17.6846
17.7229
17.7561
17.7866
17.8168
17.8491
17.8857
17.9283
17.9763
18.0242
18.0618
18.0835
18.0883
18.0773
18.052
18.0138
17.9637
17.9021
17.8293
17.7447
17.6468
17.5321
17.3932
17.2186
16.9976
16.7196
16.3728
15.9447
15.4248
13.6842
13.7981
13.8875
13.9581
14.015
14.0619
14.1015
14.1357
14.1657
14.1925
14.2167
14.2389
14.2595
14.2788
14.2972
14.3149
14.332
14.349
14.3659
14.383
14.4006
14.4191
14.4388
14.4602
14.4841
14.5113
14.5434
14.5822
14.6308
14.6934
14.7748
14.8786
14.9987
15.1067
15.1967
15.2729
15.3416
15.4089
15.4808
15.5642
15.6669
15.7981
15.9638
16.1535
16.3184
16.4481
16.5484
16.628
16.6946
16.7541
16.8115
16.8715
16.9393
17.0214
17.125
17.2547
17.4023
17.5289
17.6258
17.6978
17.7515
17.7929
17.8262
17.8549
17.882
17.9104
17.9439
17.9868
18.0446
18.1206
18.2079
18.2763
18.3187
18.3383
18.3399
18.3275
18.3037
18.2704
18.2291
18.1807
18.1265
18.0673
18.0019
17.9225
17.8062
17.6403
17.4137
17.1107
16.7083
16.18
13.8737
13.982
14.0553
14.1074
14.1465
14.1774
14.2028
14.2243
14.243
14.2596
14.2744
14.288
14.3006
14.3124
14.3236
14.3343
14.3447
14.355
14.3653
14.3758
14.3866
14.3979
14.4101
14.4235
14.4385
14.4561
14.4774
14.5046
14.5412
14.5939
14.6747
14.8023
14.9874
15.1177
15.2042
15.2662
15.3167
15.3643
15.4158
15.4794
15.5674
15.7006
15.9109
16.2168
16.4266
16.5587
16.6449
16.7058
16.7531
16.7938
16.8329
16.8751
16.9265
16.9967
17.1022
17.2685
17.5101
17.6744
17.7758
17.8396
17.8821
17.9124
17.9358
17.9558
17.975
17.9965
18.0246
18.0663
18.1343
18.2481
18.4187
18.5278
18.5864
18.6139
18.6224
18.6189
18.6068
18.5886
18.5658
18.5403
18.5153
18.4961
18.4916
18.5047
18.4647
18.3699
18.2177
17.9913
17.653
17.1352
14.1365
14.2162
14.2535
14.275
14.2897
14.3007
14.3095
14.3169
14.3232
14.3288
14.3339
14.3384
14.3427
14.3466
14.3504
14.354
14.3575
14.3609
14.3644
14.3679
14.3715
14.3754
14.3795
14.384
14.3892
14.3953
14.403
14.4131
14.4281
14.4538
14.5071
14.6427
15.055
15.1916
15.2469
15.2759
15.2959
15.3137
15.3332
15.3594
15.4026
15.4918
15.7203
16.418
16.6464
16.7352
16.7777
16.8029
16.8207
16.8354
16.8496
16.8653
16.8864
16.9208
16.9917
17.1734
17.7291
17.9101
17.9796
18.0119
18.0299
18.0415
18.0501
18.0574
18.0645
18.0729
18.0852
18.1077
18.1579
18.2935
18.7177
18.8516
18.8987
18.9164
18.9221
18.9221
18.9186
18.913
18.906
18.899
18.8951
18.9037
18.9557
19.1628
19.2018
19.1821
19.128
19.0329
18.8557
18.4623
11.7445
11.1102
10.4389
9.7327
8.99403
8.22561
7.43031
6.6111
5.77097
4.91289
4.03978
3.1545
2.25985
1.35856
0.453292
11.783
11.147
10.4736
9.76498
9.02361
8.25233
7.45408
6.6319
5.78881
4.92782
4.05187
3.16382
2.26646
1.3625
0.454602
11.8604
11.2211
10.5434
9.82978
9.08295
8.30587
7.50166
6.67347
5.82444
4.95762
4.07598
3.18239
2.27962
1.37035
0.457212
11.9778
11.3332
10.6489
9.92762
9.17235
8.38638
7.57307
6.73577
5.87775
5.00215
4.11197
3.21009
2.29923
1.38205
0.4611
12.1368
11.4848
10.7913
10.0593
9.29229
8.49408
7.66834
6.81867
5.94853
5.06116
4.1596
3.24669
2.32513
1.39749
0.466228
12.3396
11.6778
10.9719
10.2256
9.4433
8.62915
7.78738
6.92193
6.03644
5.13428
4.21848
3.29188
2.35707
1.41651
0.472546
12.5894
11.9147
11.1926
10.4279
9.62595
8.79169
7.92996
7.04508
6.14093
5.22092
4.28811
3.34521
2.39471
1.43892
0.479984
12.8903
12.1987
11.4556
10.6674
9.84068
8.98155
8.09553
7.18739
6.26115
5.32028
4.36773
3.40608
2.43762
1.46443
0.488449
13.2477
12.534
11.7636
10.9453
10.0876
9.19812
8.28309
7.34764
6.3959
5.43122
4.45638
3.4737
2.48521
1.49269
0.497824
13.6693
12.9257
12.1191
11.2622
10.3662
9.44006
8.49092
7.52405
6.54346
5.55223
4.55279
3.54708
2.53677
1.52329
0.507968
14.1654
13.3801
12.5249
11.6182
10.6746
9.70486
8.71631
7.71403
6.70154
5.68136
4.65537
3.625
2.59145
1.55572
0.518711
14.7504
13.9043
12.9819
12.0107
11.009
9.9883
8.95528
7.91407
6.86718
5.8162
4.76223
3.70605
2.64826
1.58938
0.529864
15.4458
14.5045
13.4874
12.4334
11.3623
10.2838
9.20228
8.11965
7.03677
5.95394
4.87123
3.78863
2.70612
1.62366
0.541218
16.2812
15.1802
14.0297
12.8729
11.7229
10.5822
9.45018
8.32534
7.20619
6.09143
4.98002
3.87107
2.76389
1.65788
0.552555
17.2857
15.9053
14.5778
13.3054
12.0739
10.8718
9.69073
8.52517
7.37106
6.22548
5.08625
3.95167
2.82043
1.69141
0.563663
10.1434
10.4299
10.7156
11.0001
11.2828
11.5633
11.8411
12.1161
12.3881
12.6576
12.9254
13.1942
13.4691
13.7624
14.107
10.1473
10.4415
10.735
11.0271
11.3175
11.6056
11.891
12.1733
12.4524
12.7285
13.0024
13.2764
13.5554
13.8492
14.1754
10.1513
10.4536
10.7552
11.0554
11.3538
11.6498
11.943
12.2328
12.5188
12.8008
13.0792
13.3551
13.6313
13.9133
14.2087
10.1555
10.4663
10.7763
11.0849
11.3917
11.696
11.9973
12.2947
12.5878
12.8757
13.1577
13.4334
13.703
13.968
14.2315
10.1599
10.4795
10.7983
11.1157
11.4313
11.7443
12.0541
12.3597
12.6603
12.9545
13.2404
13.5158
13.7778
14.0237
14.2533
10.1645
10.4932
10.8212
11.1478
11.4726
11.7948
12.1136
12.4282
12.7372
13.0389
13.3304
13.6075
13.8638
14.0904
14.281
10.1692
10.5075
10.845
11.1812
11.5156
11.8475
12.1761
12.5005
12.8192
13.1302
13.4303
13.7136
13.9701
14.1822
14.326
10.1742
10.5222
10.8696
11.2158
11.5603
11.9025
12.2415
12.5766
12.9064
13.2291
13.5417
13.8383
14.1072
14.3211
14.4184
10.1792
10.5375
10.8951
11.2516
11.6066
11.9595
12.3097
12.6563
12.9985
13.335
13.664
13.9822
14.2824
14.5409
14.6539
10.1844
10.5531
10.9212
11.2884
11.6543
12.0184
12.3801
12.739
13.0945
13.4461
13.7936
14.1384
14.4864
14.8616
15.3708
10.1898
10.5691
10.948
11.3262
11.7032
12.0788
12.4525
12.8241
13.1932
13.5598
13.925
14.2922
14.6714
15.089
15.6094
10.1952
10.5854
10.9753
11.3646
11.7531
12.1404
12.5264
12.9107
13.2934
13.6745
14.055
14.4377
14.8295
15.245
15.7088
10.2007
10.602
11.003
11.4036
11.8037
12.2029
12.6013
12.9985
13.3946
13.7894
14.1833
14.5768
14.9709
15.3674
15.7679
10.2062
10.6187
11.031
11.443
11.8548
12.2661
12.6769
13.087
13.4965
13.9049
14.3118
14.7152
15.1106
15.487
15.8247
10.2118
10.6355
11.0591
11.4826
11.9061
12.3295
12.7528
13.176
13.599
14.0215
14.4425
14.8591
15.2634
15.6332
15.9146
10.2174
10.6522
11.0871
11.5222
11.9574
12.3929
12.8287
13.265
13.7017
14.1389
14.576
15.0115
15.4399
15.8407
16.1234
10.223
10.669
11.1151
11.5616
12.0085
12.456
12.9043
13.3536
13.8041
14.2562
14.7106
15.1687
15.6354
16.13
16.7419
10.2285
10.6855
11.1429
11.6007
12.0591
12.5185
12.9791
13.4412
13.9052
14.3719
14.8425
15.3198
15.8114
16.3378
16.951
10.2339
10.7019
11.1703
11.6392
12.1091
12.5801
13.0527
13.5273
14.0044
14.4848
14.9696
15.4609
15.963
16.4851
17.0425
10.2393
10.718
11.1972
11.6771
12.1581
12.6406
13.1249
13.6116
14.1012
14.5944
15.092
15.5943
16.1007
16.6075
17.1045
10.2446
10.7338
11.2236
11.7142
12.2061
12.6997
13.1953
13.6937
14.1954
14.701
15.2109
15.7246
16.238
16.7367
17.1809
10.2497
10.7492
11.2494
11.7504
12.2529
12.7572
13.2638
13.7735
14.2867
14.8044
15.3272
15.855
16.3853
16.9035
17.3415
10.2547
10.7643
11.2744
11.7857
12.2983
12.813
13.3302
13.8506
14.3749
14.9041
15.4397
15.9836
16.5407
17.1259
17.805
10.2595
10.7788
11.2988
11.8198
12.3424
12.867
13.3943
13.9248
14.4595
14.9994
15.5462
16.1029
16.6764
17.2829
17.9614
10.2642
10.7929
11.3223
11.8528
12.3849
12.9191
13.4559
13.9961
14.5404
15.0897
15.6456
16.2104
16.7889
17.3899
18.0273
10.2688
10.8066
11.345
11.8846
12.4259
12.9692
13.5152
14.0645
14.6176
15.1754
15.7387
16.3083
16.8855
17.4713
18.0658
10.2732
10.8197
11.3669
11.9153
12.4653
13.0174
13.5721
14.13
14.6915
15.2572
15.8271
16.4009
16.976
17.5465
18.1005
10.2774
10.8324
11.388
11.9448
12.5032
13.0637
13.6268
14.1929
14.7625
15.3358
15.9128
16.4922
17.0696
17.6329
18.1517
10.2814
10.8445
11.4083
11.9732
12.5396
13.1082
13.6792
14.2532
14.8306
15.4118
15.9967
16.5847
17.1729
17.7499
18.2661
10.2853
10.8562
11.4277
12.0003
12.5745
13.1508
13.7295
14.3111
14.8961
15.4849
16.0782
16.6768
17.2837
17.9091
18.6004
10.289
10.8673
11.4463
12.0264
12.608
13.1916
13.7777
14.3666
14.9588
15.5549
16.1558
16.7632
17.3814
18.0221
18.7133
10.2926
10.878
11.4641
12.0513
12.64
13.2307
13.8237
14.4196
15.0186
15.6214
16.2287
16.8417
17.4635
18.0999
18.7611
10.296
10.8882
11.4811
12.0751
12.6706
13.268
13.8677
14.4702
15.0757
15.6847
16.2974
16.9141
17.535
18.1603
18.7897
10.2992
10.898
11.4973
12.0978
12.6997
13.3036
13.9098
14.5186
15.1304
15.7453
16.3632
16.9833
17.6033
18.2177
18.8165
10.3023
10.9072
11.5128
12.1194
12.7275
13.3375
13.9498
14.5648
15.1827
15.8036
16.4273
17.0525
17.6753
18.2855
18.8577
10.3053
10.916
11.5274
12.1399
12.7539
13.3698
13.988
14.6088
15.2327
15.8598
16.4901
17.123
17.756
18.3795
18.9519
10.308
10.9243
11.5413
12.1593
12.7788
13.4003
14.0241
14.6507
15.2804
15.9136
16.551
17.1934
17.8431
18.5087
19.23
10.3106
10.9322
11.5543
12.1776
12.8024
13.4291
14.0583
14.6902
15.3254
15.9645
16.6083
17.2584
17.9188
18.5991
19.3228
10.3131
10.9395
11.5666
12.1948
12.8245
13.4562
14.0904
14.7273
15.3677
16.0119
16.6609
17.3161
17.9804
18.6593
19.361
10.3154
10.9464
11.5781
12.2109
12.8452
13.4816
14.1204
14.762
15.407
16.0559
16.7091
17.3674
18.0318
18.7032
19.3822
10.3175
10.9528
11.5887
12.2258
12.8644
13.5051
14.1483
14.7943
15.4436
16.0966
16.7535
17.4143
18.078
18.7418
19.4
10.3195
10.9587
11.5985
12.2396
12.8822
13.5269
14.1741
14.8241
15.4775
16.1344
16.7951
17.4589
18.1239
18.7841
19.4248
10.3213
10.9641
11.6075
12.2522
12.8985
13.5468
14.1977
14.8515
15.5087
16.1696
16.8343
17.5025
18.1729
18.8397
19.4789
10.3229
10.9689
11.6157
12.2636
12.9132
13.5649
14.2192
14.8765
15.5373
16.2019
16.8708
17.5445
18.2241
18.9142
19.6366
10.3243
10.9733
11.623
12.2738
12.9264
13.5811
14.2385
14.899
15.563
16.2311
16.9038
17.5821
18.2679
18.9661
19.6893
10.3256
10.9771
11.6294
12.2828
12.938
13.5954
14.2555
14.9188
15.5857
16.2569
16.9328
17.6143
18.3028
19.0005
19.7112
10.3267
10.9804
11.6349
12.2906
12.948
13.6077
14.2702
14.9359
15.6054
16.2792
16.9578
17.6416
18.3309
19.0256
19.724
10.3276
10.9832
11.6395
12.297
12.9564
13.618
14.2825
14.9503
15.622
16.2981
16.9789
17.6647
18.3552
19.048
19.7366
10.3284
10.9854
11.6431
12.3022
12.9631
13.6263
14.2924
14.9619
15.6354
16.3134
16.9963
17.6845
18.3775
19.073
19.7601
10.3289
10.987
11.6459
12.3061
12.9681
13.6325
14.2998
14.9707
15.6456
16.3251
17.01
17.7007
18.398
19.1036
19.8257
10.3293
10.9881
11.6477
12.3086
12.9713
13.6365
14.3047
14.9764
15.6523
16.3331
17.0194
17.7121
18.4125
19.1226
19.8467
10.3294
10.9886
11.6485
12.3097
12.9729
13.6384
14.307
14.9791
15.6555
16.3369
17.0241
17.718
18.42
19.1315
19.8537
10.3294
10.9885
11.6484
12.3095
12.9726
13.6381
14.3066
14.9788
15.6552
16.3366
17.024
17.7182
18.4207
19.1327
19.8548
10.3292
10.9878
11.6473
12.308
12.9706
13.6356
14.3037
14.9753
15.6512
16.3321
17.0188
17.7125
18.4145
19.1268
19.8514
10.3288
10.9866
11.6452
12.3051
12.9669
13.631
14.2981
14.9687
15.6436
16.3233
17.0087
17.7007
18.4008
19.1121
19.8409
10.3282
10.9848
11.6422
12.3009
12.9614
13.6242
14.2899
14.9591
15.6324
16.3105
16.9938
17.6831
18.3793
19.0848
19.8115
10.3274
10.9825
11.6383
12.2953
12.9542
13.6153
14.2792
14.9466
15.6179
16.2937
16.9746
17.6606
18.3511
19.0427
19.7206
10.3265
10.9796
11.6335
12.2885
12.9453
13.6043
14.2661
14.9311
15.6
16.2733
16.9516
17.6347
18.322
19.0098
19.689
10.3253
10.9762
11.6278
12.2805
12.9348
13.5913
14.2505
14.9128
15.5789
16.2494
16.9249
17.6058
18.2922
18.9827
19.6735
10.324
10.9723
11.6212
12.2712
12.9228
13.5764
14.2326
14.8918
15.5547
16.2219
16.8943
17.573
18.2594
18.9551
19.6608
10.3226
10.9679
11.6138
12.2608
12.9093
13.5597
14.2125
14.8681
15.5273
16.1906
16.8591
17.5346
18.2198
18.9203
19.6436
10.321
10.9631
11.6057
12.2494
12.8944
13.5412
14.1902
14.8419
15.4968
16.1555
16.819
17.4891
18.1696
18.8694
19.6101
10.3192
10.9578
11.5969
12.2369
12.8782
13.5211
14.166
14.8133
15.4635
16.1169
16.7742
17.4363
18.1056
18.7899
19.5259
10.3173
10.9521
11.5874
12.2235
12.8608
13.4995
14.14
14.7827
15.4277
16.0754
16.7258
17.3784
18.0308
18.6744
19.2708
10.3153
10.9461
11.5773
12.2093
12.8422
13.4765
14.1124
14.7502
15.39
16.032
16.6758
17.3203
17.9621
18.5914
19.1853
10.3132
10.9397
11.5667
12.1942
12.8227
13.4524
14.0835
14.7162
15.3507
15.987
16.6251
17.264
17.9017
18.5328
19.1487
10.311
10.9331
11.5555
12.1785
12.8023
13.4272
14.0533
14.6808
15.3099
15.9408
16.5736
17.2085
17.8455
18.4847
19.1257
10.3087
10.9261
11.5439
12.1622
12.7812
13.401
14.022
14.6441
15.2677
15.893
16.5205
17.1513
17.7877
18.4349
19.1019
10.3063
10.919
11.5319
12.1453
12.7593
13.3741
13.9897
14.6064
15.2242
15.8436
16.4651
17.0899
17.722
18.3713
19.0621
10.3039
10.9116
11.5196
12.128
12.7369
13.3464
13.9566
14.5676
15.1796
15.7926
16.407
17.0234
17.6443
18.2786
18.9674
10.3013
10.9041
11.507
12.1103
12.7139
13.3181
13.9228
14.5281
15.1341
15.7405
16.3473
16.9536
17.557
18.148
18.6851
10.2988
10.8964
11.4942
12.0922
12.6906
13.2893
13.8885
14.4881
15.088
15.6881
16.2878
16.8857
17.478
18.0544
18.5902
10.2962
10.8886
11.4811
12.0739
12.6669
13.2602
13.8538
14.4477
15.0418
15.6358
16.2294
16.8216
17.4098
17.9889
18.5496
10.2935
10.8807
11.4679
12.0553
12.6429
13.2308
13.8188
14.407
14.9953
15.5836
16.1718
16.7599
17.3479
17.936
18.5244
10.2909
10.8726
11.4545
12.0365
12.6187
13.2011
13.7836
14.3662
14.9488
15.5314
16.1142
16.6981
17.2857
17.8826
18.4989
10.2882
10.8645
11.441
12.0176
12.5943
13.1713
13.7483
14.3253
14.9022
15.4789
16.0556
16.6336
17.2167
17.8156
18.4568
10.2854
10.8563
11.4273
11.9984
12.5698
13.1413
13.7128
14.2843
14.8555
15.4261
15.996
16.5654
17.1366
17.7191
18.3571
10.2826
10.848
11.4135
11.9791
12.545
13.1111
13.6774
14.2435
14.8091
15.3738
15.9365
16.4958
17.0483
17.5839
18.0593
10.2798
10.8396
11.3995
11.9596
12.5201
13.0808
13.6418
14.2028
14.7633
15.3226
15.8793
16.4307
16.9716
17.4903
17.9608
10.277
10.831
11.3853
11.9398
12.4948
13.0503
13.6062
14.1624
14.7183
15.2732
15.8256
16.3728
16.9102
17.4299
17.9216
10.2741
10.8223
11.3708
11.9197
12.4692
13.0194
13.5704
14.1219
14.6738
15.2253
15.7753
16.3215
16.8608
17.3888
17.902
10.2711
10.8134
11.356
11.8991
12.4431
12.988
13.534
14.0812
14.6294
15.1784
15.7274
16.2749
16.8192
17.3578
17.8895
10.268
10.8042
11.3407
11.878
12.4162
12.9557
13.4967
14.0395
14.5844
15.1314
15.6802
16.2305
16.7813
17.3313
17.8797
10.2648
10.7947
11.325
11.8561
12.3883
12.9222
13.4581
13.9964
14.5378
15.0829
15.632
16.1856
16.7437
17.3057
17.8705
10.2616
10.7848
11.3086
11.8333
12.3594
12.8872
13.4176
13.9511
14.4886
15.0314
15.5805
16.1374
16.7031
17.278
17.8605
10.2581
10.7746
11.2916
11.8096
12.3291
12.8505
13.3748
13.9028
14.4357
14.9753
15.5235
16.0828
16.656
17.2449
17.8482
10.2546
10.764
11.2739
11.7849
12.2973
12.8118
13.3293
13.8509
14.3781
14.913
15.4586
16.0186
16.5979
17.2016
17.831
10.2509
10.753
11.2555
11.759
12.2639
12.771
13.2809
13.7951
14.315
14.8433
15.3834
15.9407
16.5227
17.1401
17.803
10.2471
10.7415
11.2364
11.7321
12.2291
12.728
13.2296
13.735
14.2461
14.7652
15.2963
15.8454
16.4228
17.0469
17.7489
10.2432
10.7298
11.2167
11.7043
12.1929
12.683
13.1754
13.6711
14.1714
14.6788
15.1965
15.7302
16.2903
16.8994
17.6203
18.295
16.5211
15.0296
13.6641
12.3686
11.1176
9.89688
8.6977
7.51425
6.34244
5.17927
4.02245
2.87017
1.72094
0.573455
18.6141
16.8847
15.3527
13.9413
12.6055
11.32
10.0692
8.84351
7.63624
6.44268
5.25935
4.08358
2.91324
1.74654
0.581952
18.747
17.1109
15.5918
14.1658
12.8075
11.4979
10.224
8.97642
7.74861
6.53574
5.33413
4.14091
2.95374
1.77067
0.589965
18.8138
17.2556
15.766
14.3431
12.9754
11.6511
10.3603
9.09547
7.85051
6.62089
5.40301
4.19397
2.99137
1.79313
0.597433
18.8528
17.3526
15.8938
14.4818
13.1129
11.7808
10.4786
9.20056
7.94165
6.69781
5.46569
4.24252
3.02592
1.81381
0.604316
18.8783
17.4205
15.9889
14.5903
13.2248
11.8895
10.58
9.29224
8.02222
6.7665
5.5221
4.28646
3.05731
1.83264
0.610594
18.8962
17.4698
16.061
14.6757
13.3157
11.98
10.6662
9.37148
8.09275
6.82723
5.57236
4.32583
3.08557
1.84964
0.616265
18.9093
17.5068
16.1164
14.7432
13.3894
12.0551
10.7391
9.43947
8.154
6.88048
5.61676
4.36081
3.11077
1.86484
0.621344
18.9192
17.5352
16.1598
14.7972
13.4495
12.1174
10.8005
9.49749
8.20686
6.92684
5.65568
4.39165
3.13307
1.87832
0.625855
18.9268
17.5573
16.1941
14.8405
13.4985
12.1691
10.852
9.54681
8.25222
6.96696
5.68959
4.41865
3.15267
1.8902
0.629835
18.9329
17.5749
16.2215
14.8756
13.5387
12.2119
10.8953
9.5886
8.291
7.00151
5.71897
4.44215
3.16979
1.9006
0.633323
18.9377
17.5889
16.2437
14.9041
13.5717
12.2474
10.9316
9.62393
8.32405
7.03114
5.7443
4.4625
3.18466
1.90966
0.636362
18.9416
17.6002
16.2616
14.9274
13.599
12.277
10.9619
9.65377
8.35213
7.05648
5.76606
4.48005
3.19752
1.9175
0.638999
18.9447
17.6095
16.2763
14.9466
13.6215
12.3016
10.9874
9.67893
8.37596
7.07808
5.7847
4.49513
3.2086
1.92427
0.641276
18.9473
17.617
16.2884
14.9624
13.6401
12.3221
11.0088
9.70015
8.39615
7.09646
5.80061
4.50805
3.21812
1.9301
0.643236
18.9494
17.6233
16.2983
14.9755
13.6557
12.3393
11.0267
9.71803
8.41324
7.11207
5.81418
4.5191
3.22627
1.93509
0.644918
18.9512
17.6284
16.3065
14.9864
13.6686
12.3536
11.0417
9.7331
8.42769
7.12533
5.82573
4.52852
3.23323
1.93936
0.646358
18.9526
17.6327
16.3134
14.9955
13.6794
12.3656
11.0544
9.74581
8.43992
7.13657
5.83555
4.53654
3.23918
1.94302
0.647589
18.9538
17.6362
16.3191
15.003
13.6885
12.3757
11.065
9.75654
8.45027
7.14611
5.8439
4.54338
3.24425
1.94613
0.64864
18.9548
17.6392
16.3239
15.0094
13.696
12.3842
11.074
9.76561
8.45903
7.15421
5.851
4.5492
3.24857
1.94879
0.649538
18.9557
17.6417
16.3279
15.0147
13.7024
12.3913
11.0816
9.77329
8.46647
7.16109
5.85704
4.55417
3.25226
1.95106
0.650304
18.9564
17.6438
16.3313
15.0192
13.7079
12.3974
11.088
9.77982
8.4728
7.16695
5.8622
4.55841
3.25541
1.953
0.65096
18.957
17.6455
16.3341
15.023
13.7125
12.4026
11.0935
9.78539
8.47821
7.17197
5.86661
4.56204
3.25811
1.95467
0.651523
18.9575
17.6471
16.3366
15.0263
13.7164
12.407
11.0982
9.79016
8.48285
7.17628
5.87041
4.56517
3.26044
1.95611
0.652008
18.9579
17.6484
16.3387
15.0291
13.7198
12.4108
11.1023
9.7943
8.48688
7.18002
5.87371
4.56788
3.26246
1.95735
0.652429
18.9583
17.6495
16.3406
15.0316
13.7227
12.4141
11.1058
9.79791
8.49039
7.18329
5.87659
4.57026
3.26423
1.95844
0.652798
18.9587
17.6505
16.3422
15.0338
13.7254
12.4171
11.109
9.80111
8.49351
7.18619
5.87914
4.57236
3.2658
1.95941
0.653125
18.959
17.6514
16.3437
15.0357
13.7278
12.4198
11.1118
9.804
8.49632
7.1888
5.88145
4.57426
3.26722
1.96028
0.65342
18.9593
17.6523
16.345
15.0376
13.7299
12.4222
11.1144
9.80667
8.49891
7.1912
5.88356
4.576
3.26851
1.96108
0.65369
18.9595
17.6531
16.3463
15.0393
13.732
12.4246
11.1169
9.80918
8.50135
7.19346
5.88555
4.57764
3.26973
1.96183
0.653943
18.9598
17.6539
16.3476
15.041
13.7341
12.4268
11.1193
9.81163
8.50372
7.19565
5.88747
4.57921
3.2709
1.96255
0.654187
18.9601
17.6547
16.3489
15.0428
13.7362
12.4292
11.1218
9.81408
8.50608
7.19783
5.88938
4.58077
3.27206
1.96326
0.654426
18.9604
17.6556
16.3503
15.0446
13.7383
12.4316
11.1243
9.81661
8.50851
7.20006
5.89132
4.58236
3.27323
1.96398
0.654668
18.9607
17.6565
16.3518
15.0466
13.7407
12.4341
11.127
9.81929
8.51106
7.20239
5.89334
4.584
3.27444
1.96472
0.654918
18.9611
17.6576
16.3535
15.0488
13.7433
12.437
11.13
9.82221
8.51382
7.20488
5.89549
4.58574
3.27572
1.96551
0.655181
18.9615
17.6588
16.3555
15.0513
13.7463
12.4402
11.1332
9.82543
8.51685
7.2076
5.89782
4.58762
3.27709