/*--------------------------------*- C++ -*----------------------------------*\
| =========                 |                                                 |
| \\      /  F ield         | OpenFOAM: The Open Source CFD Toolbox           |
|  \\    /   O peration     | Version:  5.x                                   |
|   \\  /    A nd           | Web:      www.OpenFOAM.org                      |
|    \\/     M anipulation  |                                                 |
\*---------------------------------------------------------------------------*/
FoamFile
{
    version     2.0;
    format      ascii;
    class       volScalarField;
    location    "2.7";
    object      T;
}
// * * * * * * * * * * * * * * * * * * * * * * * * * * * * * * * * * * * * * //

dimensions      [0 0 0 1 0 0 0];

internalField   nonuniform List<scalar> 
6300
(
36.4958
89.4127
142.105
194.422
246.211
297.317
347.586
396.859
444.979
491.791
537.141
580.887
622.894
663.046
701.246
36.5686
89.6314
142.471
194.936
246.875
298.134
348.556
397.983
446.256
493.216
538.707
582.582
624.704
664.95
703.219
36.7138
90.0677
143.2
195.962
248.202
299.766
350.496
400.233
448.813
496.072
541.85
585.989
628.343
668.781
707.192
36.9306
90.7194
144.29
197.497
250.188
302.21
353.405
403.61
452.657
500.375
546.592
591.138
633.852
674.588
713.221
37.2178
91.583
145.736
199.532
252.824
305.459
357.278
408.115
457.797
506.142
552.964
598.076
641.294
682.449
721.394
37.5736
92.6528
147.527
202.057
256.099
309.502
362.107
413.747
464.24
513.394
561.006
606.863
650.752
692.469
731.834
37.9953
93.9214
149.653
205.057
259.994
314.32
367.877
420.495
471.988
522.152
570.761
617.573
662.334
704.789
744.71
38.4794
95.3783
152.096
208.508
264.483
319.884
374.558
428.337
481.031
532.426
582.272
630.291
676.172
719.593
760.246
39.0215
97.01
154.834
212.38
269.529
326.152
382.107
437.232
491.34
544.208
595.568
645.099
692.421
737.112
778.744
39.6159
98.7998
157.839
216.635
275.081
333.064
390.457
447.112
502.852
557.459
610.65
662.067
711.25
757.636
800.607
40.2559
100.727
161.078
221.223
281.077
340.543
399.517
457.875
515.463
572.082
627.463
681.223
732.822
781.522
826.395
40.9338
102.77
164.509
226.088
287.439
348.49
409.165
469.373
529.003
587.904
645.85
702.488
757.24
809.176
856.901
41.6414
104.901
168.091
231.165
294.08
356.789
419.249
481.416
543.235
604.636
665.499
725.588
784.42
840.981
893.283
42.3699
107.095
171.776
236.387
300.904
365.31
429.598
493.77
557.846
621.864
685.871
749.894
813.812
876.983
937.179
43.1108
109.325
175.52
241.685
307.817
373.924
440.03
506.183
572.475
639.056
706.179
774.249
843.891
915.895
990.229
734.407
763.119
790.385
816.207
840.601
863.596
885.233
905.563
924.644
942.542
959.328
975.074
989.856
1003.75
1016.83
1029.17
1040.85
1051.93
1062.47
1072.56
1082.23
1091.56
1100.58
1109.36
1117.92
1126.32
1134.57
1142.71
1150.75
1158.72
1166.62
1174.45
1182.22
1189.93
1197.57
1205.13
1212.61
1219.98
1227.25
1234.39
1241.39
1248.23
1254.9
1261.38
1267.65
1273.7
1279.5
1285.04
1290.31
1295.29
1299.97
1304.33
1308.35
1312.03
1315.35
1318.29
1320.83
1322.95
1324.62
1325.83
1326.55
1326.76
1326.42
1325.51
1323.98
1321.82
1318.97
1315.39
1311.05
1305.87
1299.82
1292.82
1284.83
1275.75
1265.54
1254.11
1241.38
1227.27
1211.7
1194.6
1175.87
1155.45
1133.25
1109.21
1083.27
1055.37
1025.48
993.578
959.659
923.736
736.419
765.145
792.406
818.202
842.553
865.487
887.05
907.293
926.279
944.075
960.753
976.39
991.062
1004.85
1017.82
1030.06
1041.63
1052.61
1063.07
1073.06
1082.66
1091.91
1100.86
1109.58
1118.09
1126.43
1134.65
1142.76
1150.78
1158.73
1166.62
1174.45
1182.23
1189.95
1197.6
1205.17
1212.66
1220.05
1227.34
1234.5
1241.52
1248.38
1255.08
1261.58
1267.88
1273.95
1279.78
1285.34
1290.63
1295.63
1300.33
1304.71
1308.76
1312.46
1315.8
1318.77
1321.33
1323.48
1325.19
1326.44
1327.2
1327.44
1327.15
1326.28
1324.81
1322.7
1319.92
1316.41
1312.14
1307.04
1301.07
1294.17
1286.27
1277.31
1267.2
1255.88
1243.26
1229.27
1213.83
1196.84
1178.23
1157.92
1135.82
1111.87
1086
1058.15
1028.3
996.407
962.473
926.508
740.471
769.228
796.477
822.221
846.481
869.292
890.702
910.769
929.56
947.147
963.609
979.024
993.473
1007.04
1019.79
1031.82
1043.19
1053.98
1064.25
1074.07
1083.5
1092.6
1101.42
1110.01
1118.41
1126.66
1134.8
1142.85
1150.82
1158.75
1166.62
1174.45
1182.24
1189.97
1197.64
1205.24
1212.76
1220.19
1227.51
1234.71
1241.78
1248.7
1255.44
1262
1268.35
1274.46
1280.34
1285.94
1291.27
1296.31
1301.05
1305.47
1309.56
1313.31
1316.7
1319.72
1322.34
1324.55
1326.33
1327.65
1328.48
1328.81
1328.6
1327.83
1326.46
1324.47
1321.8
1318.43
1314.31
1309.37
1303.58
1296.86
1289.16
1280.4
1270.51
1259.42
1247.04
1233.29
1218.08
1201.33
1182.96
1162.87
1140.97
1117.2
1091.48
1063.76
1033.97
1002.1
968.14
932.091
746.622
775.425
802.655
828.316
852.434
875.051
896.222
916.015
934.504
951.771
967.9
982.977
997.087
1010.31
1022.74
1034.45
1045.51
1056
1066
1075.55
1084.74
1093.61
1102.22
1110.62
1118.86
1126.97
1134.99
1142.95
1150.86
1158.74
1166.6
1174.43
1182.23
1189.99
1197.7
1205.34
1212.91
1220.39
1227.77
1235.04
1242.17
1249.16
1255.99
1262.62
1269.05
1275.24
1281.18
1286.85
1292.24
1297.34
1302.13
1306.6
1310.76
1314.57
1318.04
1321.14
1323.85
1326.16
1328.03
1329.45
1330.4
1330.85
1330.77
1330.13
1328.92
1327.09
1324.61
1321.44
1317.54
1312.85
1307.31
1300.88
1293.47
1285.03
1275.47
1264.72
1252.69
1239.3
1224.46
1208.08
1190.06
1170.32
1148.74
1125.26
1099.78
1072.24
1042.57
1010.74
976.735
940.559
754.966
783.833
811.032
836.572
860.486
882.826
903.661
923.069
941.139
957.963
973.635
988.249
1001.9
1014.67
1026.65
1037.93
1048.58
1058.68
1068.29
1077.49
1086.35
1094.91
1103.24
1111.39
1119.41
1127.33
1135.2
1143.03
1150.86
1158.69
1166.53
1174.37
1182.19
1189.99
1197.75
1205.46
1213.09
1220.64
1228.1
1235.45
1242.68
1249.78
1256.71
1263.45
1269.98
1276.28
1282.31
1288.07
1293.53
1298.7
1303.56
1308.11
1312.34
1316.24
1319.81
1323.01
1325.84
1328.27
1330.28
1331.85
1332.94
1333.54
1333.63
1333.17
1332.16
1330.55
1328.31
1325.41
1321.8
1317.43
1312.25
1306.19
1299.18
1291.16
1282.04
1271.75
1260.2
1247.31
1232.97
1217.09
1199.57
1180.3
1159.18
1136.11
1110.97
1083.69
1054.2
1022.44
988.38
952.03
765.636
794.585
821.736
847.107
870.74
892.705
913.086
931.983
949.499
965.742
980.821
994.838
1007.89
1020.09
1031.51
1042.24
1052.36
1061.96
1071.1
1079.86
1088.29
1096.47
1104.44
1112.27
1120
1127.69
1135.36
1143.04
1150.77
1158.55
1166.37
1174.23
1182.1
1189.97
1197.8
1205.59
1213.3
1220.94
1228.49
1235.95
1243.3
1250.53
1257.6
1264.5
1271.17
1277.6
1283.75
1289.61
1295.16
1300.41
1305.35
1309.98
1314.3
1318.3
1321.99
1325.33
1328.31
1330.9
1333.08
1334.82
1336.09
1336.88
1337.16
1336.93
1336.15
1334.8
1332.87
1330.3
1327.06
1323.09
1318.35
1312.76
1306.26
1298.77
1290.21
1280.51
1269.57
1257.3
1243.6
1228.37
1211.5
1192.87
1172.35
1149.82
1125.16
1098.26
1069.02
1037.36
1003.25
966.677
778.814
807.865
834.946
860.081
883.334
904.797
924.582
942.814
959.621
975.129
989.462
1002.74
1015.06
1026.54
1037.27
1047.34
1056.83
1065.83
1074.39
1082.61
1090.53
1098.23
1105.77
1113.21
1120.59
1127.98
1135.41
1142.91
1150.53
1158.25
1166.08
1173.98
1181.94
1189.9
1197.84
1205.72
1213.53
1221.27
1228.93
1236.51
1244.01
1251.41
1258.67
1265.76
1272.62
1279.22
1285.52
1291.49
1297.14
1302.46
1307.48
1312.19
1316.61
1320.73
1324.56
1328.07
1331.24
1334.03
1336.41
1338.35
1339.83
1340.84
1341.35
1341.36
1340.86
1339.82
1338.23
1336.05
1333.25
1329.78
1325.57
1320.55
1314.66
1307.82
1299.94
1290.94
1280.74
1269.24
1256.34
1241.93
1225.88
1208.06
1188.32
1166.52
1142.5
1116.11
1087.23
1055.74
1021.58
984.735
794.746
823.924
850.895
875.702
898.439
919.237
938.248
955.63
971.542
986.136
999.554
1011.93
1023.37
1034
1043.91
1053.2
1061.94
1070.22
1078.12
1085.69
1093.01
1100.15
1107.17
1114.13
1121.1
1128.12
1135.26
1142.55
1150.03
1157.71
1165.58
1173.58
1181.68
1189.79
1197.87
1205.87
1213.78
1221.61
1229.38
1237.1
1244.77
1252.39
1259.9
1267.25
1274.37
1281.18
1287.65
1293.75
1299.49
1304.88
1309.95
1314.73
1319.24
1323.5
1327.5
1331.21
1334.61
1337.64
1340.27
1342.45
1344.17
1345.41
1346.16
1346.44
1346.23
1345.53
1344.33
1342.61
1340.32
1337.42
1333.84
1329.51
1324.34
1318.25
1311.17
1303.02
1293.69
1283.12
1271.17
1257.75
1242.72
1225.91
1207.18
1186.32
1163.16
1137.48
1109.11
1077.89
1043.71
1006.53
813.768
843.098
869.897
894.239
916.271
936.185
954.189
970.491
985.29
998.764
1011.08
1022.38
1032.78
1042.42
1051.38
1059.76
1067.64
1075.1
1082.22
1089.05
1095.68
1102.16
1108.57
1114.97
1121.43
1128.02
1134.8
1141.84
1149.17
1156.83
1164.78
1172.97
1181.3
1189.65
1197.92
1206.06
1214.06
1221.96
1229.81
1237.66
1245.53
1253.42
1261.27
1268.99
1276.45
1283.54
1290.21
1296.44
1302.23
1307.65
1312.74
1317.55
1322.14
1326.53
1330.74
1334.71
1338.41
1341.75
1344.67
1347.12
1349.09
1350.57
1351.57
1352.11
1352.2
1351.86
1351.09
1349.87
1348.18
1345.94
1343.1
1339.56
1335.23
1330.03
1323.86
1316.67
1308.36
1298.85
1288.04
1275.8
1262
1246.46
1228.99
1209.37
1187.34
1162.64
1135.01
1104.21
1070.07
1032.49
836.345
865.857
892.374
916.036
937.087
955.814
972.509
987.447
1000.87
1012.99
1023.99
1034.03
1043.23
1051.72
1059.6
1066.95
1073.86
1080.4
1086.63
1092.64
1098.47
1104.2
1109.9
1115.64
1121.5
1127.55
1133.89
1140.61
1147.77
1155.42
1163.56
1172.08
1180.81
1189.52
1198.06
1206.35
1214.4
1222.3
1230.16
1238.09
1246.17
1254.41
1262.75
1271
1278.96
1286.43
1293.32
1299.64
1305.44
1310.8
1315.82
1320.6
1325.23
1329.75
1334.2
1338.52
1342.62
1346.36
1349.64
1352.4
1354.62
1356.32
1357.54
1358.32
1358.7
1358.72
1358.39
1357.72
1356.69
1355.24
1353.27
1350.66
1347.29
1343.07
1337.94
1331.82
1324.65
1316.36
1306.86
1296.01
1283.69
1269.69
1253.81
1235.78
1215.27
1191.93
1165.39
1135.28
1101.28
1063.24
863.147
892.864
918.896
941.527
961.179
978.297
993.289
1006.51
1018.25
1028.76
1038.22
1046.8
1054.64
1061.84
1068.5
1074.71
1080.54
1086.05
1091.31
1096.38
1101.33
1106.21
1111.1
1116.06
1121.19
1126.59
1132.37
1138.65
1145.58
1153.25
1161.69
1170.8
1180.24
1189.57
1198.48
1206.89
1214.87
1222.61
1230.32
1238.22
1246.47
1255.18
1264.24
1273.36
1282.07
1290.04
1297.17
1303.51
1309.18
1314.34
1319.15
1323.78
1328.36
1332.99
1337.74
1342.55
1347.24
1351.54
1355.26
1358.34
1360.79
1362.66
1364.04
1365.01
1365.63
1365.97
1366.08
1366
1365.72
1365.19
1364.26
1362.74
1360.46
1357.34
1353.33
1348.38
1342.47
1335.53
1327.5
1318.26
1307.67
1295.55
1281.65
1265.65
1247.18
1225.75
1200.84
1171.85
1138.25
1099.67
895.207
925.113
950.245
971.239
988.851
1003.77
1016.55
1027.63
1037.34
1045.95
1053.64
1060.57
1066.88
1072.65
1077.98
1082.94
1087.58
1091.98
1096.18
1100.23
1104.2
1108.13
1112.09
1116.16
1120.42
1125
1130.03
1135.69
1142.23
1149.86
1158.79
1168.94
1179.76
1190.14
1199.54
1207.94
1215.6
1222.87
1230.12
1237.73
1246.05
1255.33
1265.57
1276.22
1286.14
1294.77
1302.07
1308.24
1313.55
1318.28
1322.66
1326.93
1331.3
1335.98
1341.09
1346.64
1352.31
1357.45
1361.72
1365.09
1367.67
1369.61
1371.04
1372.09
1372.85
1373.44
1373.94
1374.45
1375.01
1375.61
1376.01
1375.8
1374.75
1372.8
1369.95
1366.23
1361.65
1356.18
1349.78
1342.35
1333.77
1323.87
1312.4
1299.01
1283.24
1264.5
1242.05
1214.98
1182.3
1143.16
934.279
964.171
987.484
1005.75
1020.33
1032.24
1042.18
1050.64
1057.95
1064.37
1070.07
1075.18
1079.8
1084.03
1087.92
1091.53
1094.91
1098.11
1101.17
1104.13
1107.03
1109.92
1112.85
1115.89
1119.12
1122.66
1126.68
1131.41
1137.2
1144.54
1154.02
1166.03
1179.84
1192.05
1201.94
1209.97
1216.8
1223.07
1229.32
1236.14
1244.14
1254.02
1266.22
1280.03
1291.98
1301.33
1308.5
1314.1
1318.67
1322.61
1326.24
1329.84
1333.72
1338.22
1343.72
1350.47
1358.06
1364.5
1369.36
1372.88
1375.39
1377.19
1378.5
1379.47
1380.24
1380.93
1381.7
1382.71
1384.16
1386.2
1388.53
1389.98
1390.24
1389.44
1387.73
1385.23
1382
1378.08
1373.43
1368
1361.69
1354.36
1345.8
1335.69
1323.47
1308.49
1289.82
1266.11
1235.54
1196.08
983.906
1012.63
1031.92
1045.49
1055.59
1063.47
1069.87
1075.22
1079.78
1083.76
1087.26
1090.4
1093.22
1095.8
1098.17
1100.37
1102.43
1104.37
1106.23
1108.04
1109.8
1111.57
1113.38
1115.26
1117.29
1119.56
1122.22
1125.51
1129.86
1136.07
1145.53
1160.46
1182.13
1197.19
1206.94
1213.63
1218.74
1223.18
1227.63
1232.74
1239.44
1249.26
1264.48
1286.41
1301.46
1310.93
1317.08
1321.36
1324.61
1327.3
1329.76
1332.26
1335.15
1338.92
1344.44
1353
1365.36
1373.73
1378.85
1382.01
1384.03
1385.39
1386.34
1387.04
1387.63
1388.22
1388.99
1390.22
1392.38
1396.25
1402.23
1405.74
1407.18
1407.29
1406.53
1405.16
1403.27
1400.92
1398.1
1394.8
1390.96
1386.51
1381.35
1375.29
1367.59
1357.71
1344.74
1327
1301.51
1263.24
1053.27
1074.61
1084.5
1090.16
1093.96
1096.77
1099
1100.83
1102.39
1103.74
1104.92
1105.98
1106.93
1107.8
1108.59
1109.33
1110.02
1110.67
1111.3
1111.9
1112.5
1113.09
1113.7
1114.34
1115.04
1115.83
1116.77
1118
1119.78
1122.81
1129.08
1145.09
1193.84
1209.9
1216.27
1219.48
1221.54
1223.21
1224.88
1226.95
1230.18
1236.64
1252.97
1302.61
1318.88
1325.22
1328.25
1330.02
1331.25
1332.22
1333.1
1334.03
1335.2
1337.02
1340.68
1349.97
1378.3
1387.53
1391.05
1392.67
1393.54
1394.07
1394.42
1394.68
1394.91
1395.16
1395.53
1396.27
1398.06
1403.14
1419.41
1424.36
1425.91
1426.28
1426.13
1425.71
1425.1
1424.32
1423.38
1422.27
1421
1419.57
1418.11
1417.14
1414.75
1411.29
1406.41
1398.97
1385.79
1357.08
882.048
833.805
782.914
729.526
673.815
615.972
556.202
494.716
431.727
367.449
302.09
235.856
168.946
101.558
33.8845
884.747
836.388
785.352
731.794
675.895
617.852
557.875
496.18
432.984
368.502
302.943
236.513
169.412
101.836
33.9769
890.179
841.585
790.252
736.349
680.067
621.619
561.224
499.109
435.495
370.602
304.643
237.822
170.34
102.39
34.161
898.414
849.456
797.663
743.224
686.354
627.284
566.252
503.497
439.252
373.741
307.181
239.776
171.724
103.216
34.4352
909.564
860.096
807.66
752.475
694.788
634.862
572.959
509.337
444.24
377.902
310.539
242.358
173.551
104.305
34.7971
923.786
873.637
820.343
764.168
705.409
644.368
581.342
516.611
450.437
383.058
314.693
245.546
175.805
105.648
35.2431
941.296
890.258
835.843
778.388
718.257
655.809
591.384
525.29
457.803
389.169
319.605
249.31
178.463
107.229
35.7682
962.383
910.187
854.32
795.226
733.367
669.178
603.051
535.322
466.282
396.179
325.225
253.607
181.492
109.031
36.366
987.437
933.718
875.958
814.768
750.75
684.436
616.272
546.624
475.789
404.009
331.483
258.382
184.853
111.027
37.0283
1016.99
961.22
900.956
837.076
770.372
701.489
630.929
559.071
486.205
412.553
338.292
263.566
188.496
113.19
37.745
1051.77
993.145
929.503
862.145
792.114
720.167
646.835
572.484
497.368
421.675
345.54
269.073
192.361
115.481
38.5045
1092.83
1030.02
961.694
889.821
815.71
740.176
663.712
586.616
509.073
431.205
353.095
274.803
196.378
117.862
39.2932
1141.73
1072.31
997.362
919.667
840.667
761.059
681.169
601.149
521.064
440.945
360.804
280.645
200.471
120.287
40.0965
1200.68
1120.06
1035.7
950.748
866.167
782.164
698.706
615.7
533.051
450.674
368.502
286.479
204.56
122.71
40.899
1271.9
1171.47
1074.55
981.384
891.025
802.664
715.735
629.847
544.723
460.165
376.024
292.186
208.563
125.084
41.6856
43.7942
111.382
178.968
246.556
314.158
381.797
449.52
517.403
585.58
654.276
723.878
795.083
869.242
949.369
1043.89
44.4144
113.247
182.092
250.963
319.88
388.878
458.012
527.373
597.105
667.45
738.819
811.931
888.098
969.754
1061.17
45.0303
115.098
185.19
255.324
325.53
395.844
466.325
537.057
608.174
679.88
752.511
826.617
903.098
983.314
1068.77
45.6393
116.928
188.248
259.625
331.087
402.675
474.439
546.449
618.802
691.633
765.141
839.612
915.458
993.185
1073.12
46.2393
118.73
191.259
263.852
336.542
409.363
482.358
555.575
629.066
702.883
777.062
851.611
926.465
1001.47
1076.42
46.829
120.501
194.215
268
341.888
415.91
490.1
564.483
639.073
713.843
788.689
863.353
937.32
1009.75
1079.78
47.4071
122.237
197.112
272.064
347.123
422.321
497.682
573.22
648.923
724.716
800.402
875.536
949.192
1019.65
1084.46
47.9728
123.935
199.946
276.039
352.245
428.596
505.115
581.814
658.676
735.625
812.459
888.701
963.236
1033.43
1093.33
48.5251
125.593
202.713
279.921
357.25
434.733
512.399
590.266
668.337
746.577
824.886
903.007
980.245
1054.3
1115.33
49.0633
127.209
205.41
283.705
362.13
440.722
519.517
598.548
677.845
757.443
837.402
917.879
999.42
1084.15
1181.76
49.5866
128.78
208.032
287.384
366.876
446.548
526.445
606.614
687.11
768.022
849.515
931.968
1016.33
1105.01
1203.77
50.0941
130.303
210.575
290.952
371.477
452.197
533.159
614.421
696.053
778.158
860.918
944.686
1030.18
1118.81
1212.71
50.585
131.777
213.034
294.402
375.925
457.653
539.639
621.941
704.631
787.8
871.578
956.156
1041.81
1128.89
1217.62
51.0588
133.199
215.407
297.729
380.212
462.908
545.871
629.161
712.841
796.98
881.64
966.829
1052.39
1137.78
1221.74
51.5149
134.568
217.69
300.929
384.333
467.955
551.85
636.077
720.696
805.759
891.288
977.192
1063.05
1147.58
1227.48
51.9529
135.882
219.881
303.998
388.283
472.788
557.57
642.689
728.205
814.174
900.632
987.534
1074.59
1160.55
1239.99
52.3726
137.141
221.98
306.936
392.061
477.406
563.03
648.993
735.362
822.209
909.621
997.724
1086.82
1177.99
1276.33
52.774
138.345
223.985
309.742
395.665
481.807
568.225
654.982
742.15
829.811
918.085
1007.18
1097.55
1190.38
1288.64
53.1573
139.494
225.899
312.417
399.097
485.991
573.156
660.654
748.556
836.946
925.934
1015.69
1106.51
1198.96
1293.93
53.523
140.59
227.722
314.963
402.36
489.963
577.827
666.012
754.586
843.622
933.204
1023.41
1114.28
1205.72
1297.29
53.8716
141.635
229.459
317.386
405.46
493.729
582.245
671.067
760.256
849.878
939.993
1030.62
1121.6
1212.34
1301.02
54.2039
142.63
231.113
319.69
408.404
497.298
586.422
675.832
765.586
855.748
946.382
1037.52
1129.04
1220.32
1308.29
54.5211
143.58
232.689
321.884
411.202
500.683
590.373
680.323
770.592
861.248
952.376
1044.09
1136.6
1230.54
1328.7
54.8244
144.488
234.195
323.977
413.865
503.897
594.112
684.558
775.29
866.377
957.914
1050.05
1143.1
1237.76
1335.65
55.1154
145.358
235.637
325.978
416.408
506.957
597.661
688.56
779.703
871.149
962.984
1055.34
1148.43
1242.66
1338.6
55.3957
146.196
237.025
327.901
418.847
509.885
601.044
692.358
783.863
875.606
967.646
1060.05
1152.91
1246.32
1340.29
55.6673
147.008
238.368
329.76
421.199
512.703
604.291
695.987
787.818
879.814
972.002
1064.4
1156.95
1249.51
1341.7
55.9322
147.8
239.677
331.569
423.486
515.435
607.431
699.486
791.618
883.842
976.167
1068.57
1160.94
1252.9
1343.53
56.1927
148.578
240.962
333.345
425.727
518.11
610.498
702.897
795.314
887.755
980.227
1072.71
1165.14
1257.16
1347.26
56.451
149.349
242.236
335.104
427.946
520.755
613.528
706.26
798.95
891.601
984.225
1076.85
1169.56
1262.68
1357.68
56.7096
150.122
243.511
336.864
430.165
523.4
616.554
709.615
802.572
895.421
988.172
1080.86
1173.63
1266.84
1361.37
56.9708
150.902
244.8
338.643
432.409
526.073
619.612
713.005
806.228
899.264
992.107
1084.77
1177.34
1270
1363.11
57.2372
151.697
246.115
340.459
434.7
528.805
622.742
716.476
809.971
903.193
996.111
1088.7
1180.93
1272.8
1364.33
57.511
152.516
247.467
342.329
437.063
531.628
625.981
720.075
813.862
907.288
1000.3
1092.81
1184.7
1275.76
1365.65
57.7945
153.363
248.869
344.271
439.521
534.57
629.366
723.851
817.961
911.627
1004.77
1097.29
1189
1279.48
1367.73
58.0897
154.246
250.332
346.3
442.095
537.661
632.936
727.849
822.325
916.28
1009.63
1102.27
1194.08
1284.67
1372.34
58.3984
155.17
251.865
348.43
444.805
540.927
636.723
732.114
827.008
921.308
1014.92
1107.78
1199.94
1291.83
1385.48
58.7222
156.14
253.476
350.673
447.668
544.391
640.76
736.685
832.06
926.764
1020.68
1113.72
1205.92
1297.71
1390.35
59.0621
157.159
255.171
353.04
450.698
548.071
645.073
741.601
837.533
932.72
1027
1120.18
1212.13
1302.93
1393.04
59.4186
158.228
256.953
355.534
453.902
551.981
649.681
746.892
843.478
939.261
1034.01
1127.43
1219.09
1308.54
1395.52
59.7917
159.348
258.823
358.156
457.283
556.126
654.595
752.579
849.935
946.469
1041.91
1135.83
1227.52
1315.8
1399.06
60.181
160.518
260.778
360.905
460.837
560.501
659.813
758.664
856.918
954.388
1050.8
1145.72
1238.25
1326.47
1405.98
60.5853
161.733
262.812
363.77
464.553
565.094
665.316
765.124
864.4
962.989
1060.69
1157.19
1251.91
1343.11
1423.32
61.0028
162.989
264.916
366.74
468.413
569.879
671.073
771.915
872.313
972.157
1071.35
1169.85
1267.96
1367.3
1475.63
61.4312
164.278
267.078
369.795
472.392
574.824
677.039
778.976
880.564
981.729
1082.42
1182.72
1283.09
1385.18
1493.5
61.8678
165.592
269.283
372.916
476.462
579.89
683.164
786.24
889.064
991.576
1093.72
1195.48
1296.96
1398.65
1501.73
62.3095
166.922
271.516
376.077
480.589
585.035
689.393
793.638
897.734
1001.63
1105.23
1208.36
1310.61
1411.07
1508.14
62.7529
168.258
273.759
379.254
484.739
590.211
695.666
801.099
906.497
1011.83
1117.01
1221.8
1325.43
1425.78
1517.42
63.1945
169.588
275.993
382.418
488.873
595.369
701.921
808.544
915.26
1022.09
1129.02
1235.97
1342.46
1446.47
1538.71
63.6307
170.901
278.199
385.543
492.955
600.46
708.09
815.885
923.9
1032.21
1140.96
1250.39
1361.13
1475.28
1601.99
64.058
172.188
280.359
388.602
496.948
605.435
714.11
823.033
932.286
1041.99
1152.37
1263.84
1377.37
1495.28
1622.97
64.4732
173.438
282.457
391.57
500.818
610.25
719.924
829.913
940.31
1051.25
1162.96
1275.81
1390.51
1508.41
1631.47
64.8732
174.642
284.477
394.425
504.536
614.868
725.485
836.467
947.91
1059.93
1172.7
1286.41
1401.37
1517.88
1636.1
65.2554
175.792
286.404
397.147
508.077
619.257
730.759
842.663
955.06
1068.05
1181.71
1296.1
1411.07
1526.09
1639.93
65.6174
176.88
288.229
399.721
511.42
623.394
735.718
848.476
961.754
1075.64
1190.18
1305.32
1420.68
1535.03
1645.22
65.9572
177.902
289.939
402.132
514.547
627.258
740.342
853.887
967.983
1082.72
1198.17
1314.32
1430.92
1546.8
1656.79
66.2732
178.852
291.528
404.369
517.446
630.832
744.612
858.876
973.721
1089.26
1205.61
1322.95
1441.6
1562.57
1690.58
66.5642
179.726
292.99
406.425
520.104
634.105
748.512
863.42
978.933
1095.18
1212.32
1330.62
1450.59
1573.4
1701.79
66.8291
180.522
294.319
408.292
522.514
637.066
752.031
867.504
983.592
1100.42
1218.16
1337.06
1457.53
1580.28
1706.25
67.0674
181.237
295.513
409.967
524.673
639.709
755.162
871.121
987.69
1104.98
1223.15
1342.35
1462.84
1584.85
1708.48
67.2787
181.871
296.57
411.447
526.576
642.035
757.906
874.276
991.238
1108.89
1227.35
1346.7
1467.01
1588.22
1709.97
67.4628
182.424
297.49
412.734
528.227
644.046
760.269
876.979
994.26
1112.2
1230.87
1350.31
1470.5
1591.14
1711.46
67.6199
182.895
298.274
413.828
529.627
645.746
762.26
879.246
996.781
1114.94
1233.79
1353.36
1473.6
1594.22
1714.03
67.7502
183.285
298.922
414.732
530.782
647.143
763.889
881.091
998.823
1117.15
1236.15
1355.88
1476.37
1597.79
1720.9
67.8541
183.596
299.439
415.449
531.695
648.244
765.165
882.528
1000.4
1118.86
1237.96
1357.79
1478.45
1600.1
1723.17
67.9321
183.829
299.825
415.984
532.373
649.056
766.1
883.57
1001.53
1120.05
1239.21
1359.07
1479.75
1601.37
1724.01
67.9845
183.986
300.083
416.341
532.822
649.588
766.703
884.229
1002.23
1120.76
1239.9
1359.73
1480.34
1601.85
1724.25
68.0119
184.067
300.217
416.524
533.047
649.849
766.987
884.519
1002.5
1120.99
1240.06
1359.77
1480.24
1601.63
1724.07
68.0148
184.075
300.229
416.536
533.055
649.845
766.961
884.456
1002.38
1120.78
1239.71
1359.23
1479.44
1600.6
1723.24
67.9933
184.011
300.12
416.381
532.851
649.585
766.637
884.053
1001.88
1120.14
1238.89
1358.13
1477.93
1598.46
1720.75
67.9478
183.874
299.892
416.061
532.437
649.075
766.024
883.327
1001.02
1119.13
1237.66
1356.59
1475.83
1595.03
1712.91
67.8783
183.666
299.546
415.578
531.818
648.319
765.128
882.288
999.827
1117.76
1236.1
1354.78
1473.68
1592.44
1710.25
67.7845
183.385
299.08
414.93
530.991
647.317
763.955
880.943
998.31
1116.07
1234.23
1352.75
1471.56
1590.44
1709.04
67.6661
183.031
298.493
414.116
529.956
646.069
762.501
879.292
996.47
1114.05
1232.05
1350.47
1469.3
1588.55
1708.17
67.5221
182.601
297.782
413.13
528.707
644.568
760.763
877.331
994.301
1111.69
1229.52
1347.83
1466.69
1586.33
1707.1
67.3516
182.091
296.939
411.965
527.234
642.805
758.73
875.049
991.791
1108.97
1226.61
1344.73
1463.47
1583.26
1705.18
67.1531
181.498
295.96
410.612
525.526
640.765
756.386
872.431
988.927
1105.88
1223.29
1341.13
1459.46
1578.62
1700.51
66.9247
180.816
294.834
409.058
523.566
638.43
753.711
869.457
985.696
1102.43
1219.61
1337.14
1454.79
1572
1686.59
66.6644
180.039
293.55
407.287
521.334
635.774
750.676
866.099
982.076
1098.6
1215.62
1332.99
1450.37
1567.12
1681.85
66.3695
179.158
292.096
405.279
518.805
632.765
747.245
862.315
978.024
1094.38
1211.34
1328.75
1446.33
1563.56
1679.77
66.0375
178.166
290.456
403.014
515.949
629.365
743.366
858.044
973.473
1089.69
1206.68
1324.34
1442.44
1560.63
1678.51
65.6654
177.054
288.616
400.469
512.732
625.528
738.981
853.21
968.325
1084.41
1201.5
1319.55
1438.42
1557.84
1677.46
65.2506
175.813
286.56
397.618
509.12
621.204
734.02
847.719
962.457
1078.37
1195.58
1314.13
1433.95
1554.84
1676.38
64.7906
174.436
284.274
394.44
505.078
616.343
728.409
841.466
955.72
1071.39
1188.68
1307.76
1428.68
1551.29
1675.12
64.2836
172.916
281.747
390.915
500.574
610.895
722.074
834.339
947.954
1063.22
1180.47
1300.04
1422.16
1546.82
1673.5
63.7287
171.251
278.971
387.03
495.586
604.821
714.949
826.234
938.994
1053.62
1170.6
1290.48
1413.79
1540.86
1671.27
63.126
169.441
275.946
382.781
490.103
598.095
706.987
817.062
928.687
1042.34
1158.66
1278.46
1402.76
1532.51
1667.91
62.4772
167.489
272.679
378.175
484.128
590.717
698.168
806.773
916.924
1029.16
1144.24
1263.27
1387.85
1520.15
1662.22
61.7856
165.408
269.185
373.234
477.687
582.71
688.512
795.371
903.668
1013.94
1127.01
1244.16
1367.53
1500.93
1650.92
61.0561
163.21
265.49
367.992
470.827
574.133
678.089
782.932
888.991
996.741
1106.9
1220.66
1340.16
1470.12
1623.83
1343.97
1215.29
1106.63
1006.83
911.918
820.087
730.342
642.07
554.867
468.451
382.614
297.2
212.087
127.176
42.3793
1366.74
1241.17
1129.59
1026.51
928.724
834.435
742.558
652.405
563.513
475.555
388.29
301.534
215.14
128.991
42.9816
1376.22
1257.27
1146.59
1042.45
943.056
847.063
753.537
661.83
571.482
482.154
393.592
305.598
218.012
130.702
43.5499
1380.97
1267.57
1158.97
1055.04
954.977
857.932
763.213
670.277
578.711
488.195
398.479
309.363
220.682
132.295
44.0797
1383.75
1274.47
1168.06
1064.9
964.747
867.14
771.609
677.738
585.18
493.655
402.929
312.809
223.134
133.763
44.5683
1385.57
1279.29
1174.82
1072.61
972.699
874.862
778.811
684.249
590.903
498.533
406.935
315.93
225.364
135.101
45.0142
1386.83
1282.8
1179.94
1078.68
979.155
881.296
784.939
689.88
595.915
502.849
410.507
318.729
227.372
136.309
45.4173
1387.77
1285.43
1183.89
1083.49
984.402
886.64
790.122
694.716
600.272
506.637
413.665
321.217
229.165
137.39
45.7787
1388.47
1287.45
1186.97
1087.33
988.676
891.074
794.491
698.846
604.034
509.938
416.437
323.413
230.754
138.351
46.1
1389.02
1289.03
1189.42
1090.41
992.17
894.753
798.165
702.361
607.268
512.799
418.855
325.339
232.152
139.198
46.3839
1389.45
1290.28
1191.37
1092.91
995.036
897.809
801.253
705.345
610.038
515.267
420.954
327.018
233.375
139.941
46.6332
1389.79
1291.29
1192.96
1094.95
997.398
900.353
803.847
707.874
612.404
517.389
422.768
328.476
234.441
140.59
46.8511
1390.07
1292.1
1194.24
1096.63
999.351
902.474
806.028
710.016
614.421
519.209
424.333
329.738
235.366
141.155
47.0407
1390.3
1292.76
1195.3
1098.01
1000.97
904.248
807.864
711.832
616.141
520.768
425.679
330.828
236.167
141.644
47.2053
1390.48
1293.31
1196.17
1099.16
1002.33
905.736
809.414
713.372
617.607
522.104
426.836
331.767
236.859
142.068
47.348
1390.64
1293.77
1196.9
1100.11
1003.46
906.989
810.725
714.681
618.859
523.249
427.831
332.578
237.457
142.435
47.4715
1390.77
1294.15
1197.51
1100.92
1004.42
908.051
811.84
715.799
619.932
524.233
428.689
333.278
237.975
142.753
47.5787
1390.88
1294.47
1198.02
1101.6
1005.23
908.955
812.793
716.757
620.855
525.083
429.431
333.885
238.425
143.029
47.6719
1390.97
1294.74
1198.46
1102.18
1005.93
909.732
813.614
717.586
621.655
525.821
430.078
334.415
238.818
143.271
47.7534
1391.05
1294.97
1198.84
1102.68
1006.53
910.407
814.329
718.309
622.354
526.467
430.645
334.881
239.164
143.484
47.8253
1391.12
1295.18
1199.17
1103.13
1007.06
911.002
814.96
718.948
622.974
527.041
431.15
335.295
239.472
143.673
47.8894
1391.18
1295.36
1199.47
1103.52
1007.54
911.535
815.527
719.523
623.532
527.559
431.605
335.67
239.751
143.845
47.9474
1391.24
1295.53
1199.74
1103.88
1007.97
912.023
816.046
720.051
624.045
528.036
432.025
336.016
240.008
144.004
48.001
1391.29
1295.69
1200
1104.22
1008.38
912.483
816.535
720.548
624.529
528.485
432.421
336.342
240.251
144.153
48.0516
1391.34
1295.84
1200.24
1104.55
1008.78
912.927
817.008
721.029
624.997
528.919
432.804
336.657
240.486
144.298
48.1006
1391.39
1295.99
1200.49
1104.88
1009.17
913.37
817.48
721.508
625.463
529.352
433.185
336.971
240.72
144.443
48.1493
1391.45
1296.15
1200.74
1105.22
1009.58
913.826
817.965
722.001
625.941
529.797
433.577
337.294
240.96
144.591
48.1993
1391.5
1296.32
1201.01
1105.58
1010.01
914.308
818.478
722.521
626.447
530.265
433.989
337.632
241.212
144.746
48.2517
1391.57
1296.5
1201.3
1105.97
1010.48
914.834
819.035
723.086
626.993
530.771
434.433
337.998
241.484
144.913
48.3082
1391.64
1296.71
1201.63
1106.4
1011
915.418
819.654
723.71
627.597
531.329
434.922
338.399
241.782
145.096
48.37
1391.72
1296.94
1202.01
1106.9
1011.6
916.081
820.353
724.415
628.276
531.955
435.47
338.847
242.114
145.301
48.4389
1391.81
1297.21
1202.44
1107.48
1012.28
916.843
821.155
725.22
629.05
532.665
436.09
339.354
242.489
145.531
48.5166
1391.92
1297.53
1202.96
1108.15
1013.08
917.729
822.084
726.149
629.94
533.48
436.8
339.932
242.916
145.793
48.6048
1392.05
1297.91
1203.56
1108.95
1014.03
918.771
823.17
727.23
630.971
534.421
437.615
340.595
243.405
146.092
48.7056
1392.2
1298.37
1204.29
1109.91
1015.15
920.003
824.448
728.495
632.171
535.511
438.557
341.358
243.966
146.435
48.821
1392.39
1298.93
1205.18
1111.06
1016.5
921.468
825.957
729.981
633.572
536.776
439.645
342.236
244.61
146.828
48.9532
1392.63
1299.61
1206.26
1112.45
1018.12
923.217
827.746
731.728
635.209
538.246
440.903