/*--------------------------------*- C++ -*----------------------------------*\
| =========                 |                                                 |
| \\      /  F ield         | OpenFOAM: The Open Source CFD Toolbox           |
|  \\    /   O peration     | Version:  5.x                                   |
|   \\  /    A nd           | Web:      www.OpenFOAM.org                      |
|    \\/     M anipulation  |                                                 |
\*---------------------------------------------------------------------------*/
FoamFile
{
    version     2.0;
    format      ascii;
    class       volScalarField;
    location    "19.9";
    object      gradTx;
}
// * * * * * * * * * * * * * * * * * * * * * * * * * * * * * * * * * * * * * //

dimensions      [0 -1 0 1 0 0 0];

internalField   nonuniform List<scalar> 
6300
(
2.74534
2.73696
2.72022
2.69512
2.66169
2.61998
2.57007
2.51212
2.44636
2.37312
2.29289
2.20631
2.11421
2.01763
1.91778
2.75361
2.74523
2.72847
2.70335
2.66987
2.62807
2.57802
2.51984
2.45374
2.38003
2.29915
2.21173
2.1186
2.02081
1.9196
2.77015
2.76176
2.74499
2.71982
2.68626
2.6443
2.59399
2.53538
2.46864
2.39399
2.31185
2.22277
2.12758
2.02733
1.92334
2.79496
2.78658
2.7698
2.74459
2.71094
2.66879
2.61814
2.55896
2.49133
2.41537
2.33138
2.23984
2.14152
2.0375
1.9292
2.82805
2.81968
2.80292
2.77771
2.744
2.7017
2.6507
2.59091
2.52224
2.44469
2.35836
2.26361
2.16109
2.05187
1.93753
2.86941
2.86107
2.84437
2.81923
2.78555
2.74319
2.69196
2.63162
2.56194
2.48267
2.39368
2.29506
2.18725
2.07129
1.94889
2.91899
2.91072
2.89414
2.86917
2.83567
2.79344
2.74221
2.68159
2.61112
2.53028
2.43855
2.33559
2.22148
2.09704
1.96417
2.97673
2.96856
2.95219
2.92753
2.89441
2.8526
2.80173
2.74129
2.67057
2.58868
2.49456
2.3872
2.26596
2.13117
1.98475
3.04251
3.0345
3.01843
2.99423
2.96174
2.9207
2.87072
2.81117
2.74111
2.6592
2.56371
2.45259
2.32392
2.17685
2.01294
3.11619
3.10836
3.09268
3.0691
3.03749
2.99764
2.94918
2.89145
2.82338
2.74322
2.64842
2.53544
2.4002
2.2393
2.05271
3.19757
3.18996
3.17473
3.15187
3.12135
3.08308
3.03679
2.98198
2.91763
2.8418
2.7512
2.64048
2.50206
2.32735
2.11136
3.28645
3.27904
3.26427
3.24218
3.21287
3.1764
3.13282
3.08196
3.02324
2.95507
2.874
2.77311
2.6401
2.45657
2.20363
3.38259
3.37537
3.361
3.3396
3.3114
3.27673
3.23601
3.18971
3.13818
3.08115
3.01652
2.93773
2.82856
2.65509
2.36272
3.48582
3.47872
3.46461
3.44369
3.41629
3.383
3.34466
3.30258
3.25852
3.21472
3.17307
3.1326
3.08115
2.9724
2.67492
3.59601
3.58894
3.5749
3.55411
3.52697
3.49418
3.45696
3.4173
3.37851
3.34599
3.3283
3.33828
3.39088
3.47835
3.40455
1.8246
1.7394
1.65467
1.57125
1.48994
1.41149
1.33654
1.26563
1.19923
1.13767
1.08122
1.03004
0.984215
0.943783
0.90871
0.878918
0.854286
0.834656
0.819828
0.809568
0.803597
0.801592
0.80318
0.807934
0.815373
0.824958
0.836103
0.848177
0.860521
0.872462
0.883331
0.892477
0.899276
0.903133
0.903473
0.899729
0.891324
0.877657
0.858095
0.831983
0.798653
0.757453
0.707769
0.649047
0.580796
0.502584
0.414004
0.314637
0.204005
0.0815261
-0.0535202
-0.202009
-0.364976
-0.543598
-0.739177
-0.953107
-1.18686
-1.44195
-1.72
-2.02268
-2.35182
-2.70941
-3.09764
-3.51897
-3.97611
-4.47207
-5.0101
-5.59369
-6.22649
-6.91233
-7.65508
-8.45862
-9.32679
-10.2633
-11.2716
-12.3549
-13.516
-14.757
-16.079
-17.4825
-18.9662
-20.5274
-22.1615
-23.8616
-25.6189
-27.422
-29.2574
-31.11
-32.9631
-34.7993
1.82508
1.73865
1.6527
1.56813
1.48577
1.40639
1.33065
1.2591
1.1922
1.13028
1.07358
1.02227
0.976413
0.936025
0.901066
0.871448
0.847047
0.827701
0.813215
0.803355
0.797849
0.796381
0.798582
0.80403
0.812241
0.822672
0.834723
0.847746
0.861057
0.87396
0.885765
0.895808
0.903463
0.908145
0.909302
0.906388
0.898847
0.886088
0.867472
0.842319
0.809929
0.769612
0.720726
0.662708
0.595081
0.517454
0.429478
0.330801
0.221008
0.0995655
-0.0342186
-0.181218
-0.342485
-0.519234
-0.712803
-0.924618
-1.15616
-1.40896
-1.68457
-1.98463
-2.3109
-2.66531
-3.05001
-3.46742
-3.92025
-4.41152
-4.94453
-5.52282
-6.15015
-6.8304
-7.56754
-8.36556
-9.22839
-10.1598
-11.1636
-12.243
-13.401
-14.6401
-15.9618
-17.3669
-18.8545
-20.4224
-22.0662
-23.7793
-25.5528
-27.3752
-29.2327
-31.1092
-32.9873
-34.8486
1.8261
1.73713
1.64869
1.56176
1.47726
1.39599
1.31865
1.24582
1.17793
1.11531
1.05816
1.00661
0.960696
0.920413
0.885692
0.85643
0.832492
0.813715
0.799904
0.790837
0.786253
0.78585
0.789274
0.79611
0.805875
0.818015
0.831906
0.846857
0.862138
0.876996
0.890692
0.902532
0.911883
0.918188
0.920941
0.919658
0.913834
0.9029
0.886207
0.863022
0.832564
0.794054
0.746779
0.690146
0.623712
0.547169
0.460304
0.362915
0.25473
0.135322
0.0040582
-0.139933
-0.297754
-0.4707
-0.660203
-0.867769
-1.09492
-1.34315
-1.61396
-1.90888
-2.2295
-2.57764
-2.95532
-3.3649
-3.80907
-4.2909
-4.81377
-5.38136
-5.9976
-6.66655
-7.39236
-8.17918
-9.03116
-9.95232
-10.9466
-12.0178
-13.1692
-14.4041
-15.7246
-17.1323
-18.6273
-20.2081
-21.871
-23.61
-25.4163
-27.2779
-29.1803
-31.1059
-33.0355
-34.9484
1.8277
1.73477
1.64244
1.55184
1.46401
1.37985
1.30011
1.22537
1.15604
1.0924
1.03463
0.982774
0.936836
0.89675
0.862417
0.833707
0.81047
0.792538
0.779726
0.771825
0.768599
0.769772
0.775014
0.783932
0.796049
0.810798
0.827517
0.845452
0.863783
0.881659
0.898247
0.912788
0.92464
0.933293
0.938338
0.939414
0.936121
0.927949
0.914231
0.894139
0.866733
0.831056
0.786246
0.731639
0.666837
0.591689
0.506224
0.410516
0.304551
0.188092
0.0606043
-0.0787919
-0.231298
-0.398376
-0.581647
-0.782773
-1.00336
-1.24488
-1.5087
-1.79614
-2.10854
-2.44746
-2.81473
-3.21259
-3.64371
-4.1112
-4.61862
-5.16988
-5.76917
-6.42084
-7.12931
-7.899
-8.73428
-9.63949
-10.6189
-11.6768
-12.8174
-14.0446
-15.3618
-16.7719
-18.2765
-19.8753
-21.5661
-23.3438
-25.1998
-27.1219
-29.0941
-31.0968
-33.1075
-35.1019
1.83002
1.73146
1.63362
1.53786
1.44541
1.3573
1.27432
1.19706
1.12589
1.06102
1.00252
0.950382
0.904507
0.864767
0.831009
0.803068
0.780774
0.763956
0.75244
0.746047
0.744576
0.747797
0.755427
0.76711
0.782394
0.800706
0.821336
0.843435
0.866043
0.888133
0.908702
0.926868
0.941958
0.953542
0.961401
0.965407
0.965379
0.96093
0.951378
0.935729
0.912755
0.881153
0.83976
0.787757
0.724799
0.651008
0.566833
0.472831
0.369422
0.256688
0.134241
0.00117176
-0.143914
-0.30279
-0.477431
-0.669808
-0.881693
-1.11454
-1.36949
-1.64748
-1.94944
-2.27648
-2.63014
-3.01243
-3.42599
-3.87403
-4.36037
-4.88926
-5.46533
-6.09335
-6.77812
-7.52437
-8.33672
-9.21977
-10.1782
-11.2169
-12.3409
-13.5554
-14.8654
-16.2756
-17.7897
-19.41
-21.1362
-22.9647
-24.8881
-26.8937
-28.964
-31.0761
-33.2027
-35.3138
1.83325
1.72704
1.62173
1.51905
1.4205
1.32728
1.24024
1.15993
1.08662
1.02041
0.961227
0.908926
0.863302
0.824132
0.791189
0.764262
0.743157
0.727702
0.717746
0.713146
0.713764
0.719438
0.729966
0.745067
0.764343
0.787238
0.812998
0.840646
0.869004
0.896751
0.922572
0.945332
0.964273
0.979106
0.989958
0.997159
1.00095
1.0012
0.997246
0.987809
0.971141
0.945289
0.908491
0.85959
0.798303
0.725219
0.641536
0.548634
0.447664
0.339212
0.223113
0.0983823
-0.0367294
-0.184556
-0.347728
-0.528801
-0.72989
-0.952424
-1.19715
-1.46436
-1.75424
-2.06724
-2.40435
-2.76729
-3.15864
-3.58176
-4.04085
-4.54074
-5.08669
-5.68414
-6.33842
-7.05456
-7.83734
-8.69149
-9.62195
-10.6341
-11.7341
-12.9285
-14.2245
-15.6295
-17.1502
-18.7922
-20.5586
-22.449
-24.4576
-26.5724
-28.7737
-31.0343
-33.32
-35.5918
1.8377
1.72125
1.60599
1.49423
1.38787
1.28831
1.19642
1.11265
1.03709
0.969626
0.90998
0.857814
0.812768
0.774493
0.742673
0.717039
0.697371
0.6835
0.675304
0.672702
0.675637
0.684058
0.697887
0.716976
0.741044
0.769609
0.801901
0.836797
0.8728
0.908103
0.940803
0.969251
0.992456
1.01035
1.02372
1.03377
1.04156
1.04748
1.05095
1.05024
1.0427
1.02513
0.994593
0.949203
0.888734
0.814637
0.729455
0.636002
0.536622
0.432691
0.324359
0.210484
0.0887083
-0.0442799
-0.192301
-0.359025
-0.547252
-0.758396
-0.992482
-1.24864
-1.52579
-1.8233
-2.14138
-2.48131
-2.84555
-3.23773
-3.66262
-4.12591
-4.63392
-5.19314
-5.80964
-6.48878
-7.2352
-8.05333
-8.94799
-9.92493
-10.9912
-12.1553
-13.4269
-14.8167
-16.3359
-17.9951
-19.8026
-21.7629
-23.8743
-26.1263
-28.498
-30.9563
-33.457
-35.9472
1.84389
1.71367
1.58517
1.46159
1.34542
1.23824
1.14087
1.05349
0.97587
0.907539
0.84792
0.796412
0.752447
0.715523
0.685217
0.661194
0.643207
0.631094
0.624777
0.624252
0.629579
0.640858
0.658202
0.68168
0.711236
0.746576
0.787015
0.831317
0.877563
0.92316
0.965114
1.00067
1.02824
1.04807
1.06222
1.07359
1.0848
1.09726
1.11061
1.12248
1.12862
1.12358
1.10203
1.06047
0.998734
0.919961
0.829232
0.731853
0.632082
0.532453
0.433536
0.333905
0.230238
0.117589
-0.00999254
-0.158336
-0.331661
-0.531377
-0.756077
-1.00272
-1.26807
-1.54979
-1.84698
-2.16035
-2.49225
-2.84664
-3.22911
-3.64669
-4.10744
-4.61965
-5.19069
-5.82612
-6.5298
-7.30496
-8.15552
-9.08709
-10.1075
-11.2272
-12.4588
-13.8176
-15.3202
-16.9843
-18.8263
-20.8592
-23.0882
-25.5079
-28.0973
-30.8172
-33.6088
-36.3973
1.85263
1.70356
1.55719
1.41825
1.28996
1.17403
1.07091
0.980249
0.901235
0.832872
0.774145
0.724113
0.681955
0.646992
0.618684
0.596629
0.580555
0.570314
0.565882
0.567349
0.574919
0.588895
0.609655
0.637601
0.673068
0.716165
0.766531
0.823
0.883223
0.943423
0.99859
1.04356
1.0751
1.09393
1.10468
1.1136
1.12618
1.14569
1.17235
1.2029
1.23058
1.24577
1.2382
1.20074
1.13321
1.04244
0.938529
0.8311
0.727292
0.631147
0.543692
0.463086
0.384649
0.300906
0.20216
0.0782761
-0.0781152
-0.268429
-0.488126
-0.729889
-0.986798
-1.25403
-1.52931
-1.81274
-2.10657
-2.41516
-2.74509
-3.10533
-3.50688
-3.96147
-4.47903
-5.06519
-5.72147
-6.44801
-7.24638
-8.12125
-9.08098
-10.1378
-11.3078
-12.6112
-14.0718
-15.7171
-17.5753
-19.6728
-22.0278
-24.6449
-27.5085
-30.5746
-33.7649
-36.9686
1.8653
1.68949
1.51846
1.35949
1.21667
1.09133
0.982988
0.890211
0.811237
0.744303
0.68782
0.640443
0.601073
0.568849
0.54312
0.523425
0.509476
0.501145
0.498465
0.501633
0.51101
0.527137
0.550731
0.582663
0.623883
0.675256
0.737227
0.809239
0.888879
0.970892
1.0467
1.10576
1.14021
1.15138
1.14973
1.14826
1.15753
1.1838
1.22844
1.28742
1.35046
1.40069
1.41735
1.38423
1.30109
1.18379
1.05282
0.925075
0.811418
0.717288
0.643942
0.589096
0.546649
0.505773
0.450458
0.361643
0.224224
0.0367773
-0.188452
-0.435304
-0.690704
-0.946726
-1.19994
-1.45018
-1.69968
-1.95296
-2.21745
-2.5045
-2.82997
-3.21264
-3.66859
-4.20332
-4.812
-5.48763
-6.22709
-7.0332
-7.9146
-8.88534
-9.96478
-11.1782
-12.5577
-14.143
-15.9799
-18.1155
-20.5896
-23.4269
-26.628
-30.1532
-33.9018
-37.7032
1.8844
1.66846
1.46228
1.27738
1.11812
0.984094
0.872599
0.78027
0.703881
0.640661
0.588361
0.545217
0.509877
0.481329
0.458844
0.441926
0.430283
0.423814
0.422608
0.426951
0.437357
0.454604
0.479778
0.514322
0.560049
0.619058
0.693431
0.784459
0.891078
1.00725
1.11889
1.20333
1.23879
1.22723
1.19447
1.16737
1.16436
1.1954
1.2638
1.36605
1.48875
1.60385
1.66813
1.63965
1.51809
1.34476
1.16237
0.998679
0.867358
0.773449
0.717507
0.697208
0.706339
0.731377
0.746933
0.714938
0.598541
0.39633
0.142297
-0.128474
-0.393784
-0.643508
-0.874889
-1.08871
-1.28737
-1.47466
-1.65736
-1.84838
-2.07073
-2.35834
-2.74472
-3.23501
-3.80615
-4.43536
-5.11186
-5.83672
-6.61958
-7.47634
-8.42878
-9.50596
-10.7473
-12.2067
-13.9543
-16.0707
-18.6285
-21.6851
-25.2808
-29.4097
-33.9627
-38.6714
1.91468
1.63329
1.37538
1.15826
0.983141
0.844308
0.73453
0.647318
0.577523
0.521267
0.475695
0.438732
0.408877
0.385059
0.366532
0.35281
0.343619
0.338887
0.338739
0.343519
0.353835
0.370634
0.39531
0.429857
0.477064
0.540711
0.625623
0.737194
0.879477
1.05012
1.23017
1.37139
1.40502
1.33355
1.23102
1.15176
1.12207
1.15312
1.25036
1.41518
1.63788
1.88013
2.0524
2.02903
1.80956
1.5187
1.24495
1.02558
0.869341
0.77487
0.73969
0.762889
0.843065
0.970573
1.11181
1.1897
1.09635
0.830441
0.497101
0.170437
-0.119378
-0.36677
-0.575166
-0.749131
-0.891444
-1.003
-1.08532
-1.14718
-1.21757
-1.36185
-1.67127
-2.15029
-2.71673
-3.315
-3.92702
-4.55677
-5.21816
-5.92957
-6.71314
-7.59726
-8.62302
-9.85536
-11.3975
-13.3902
-15.9492
-19.1667
-23.1658
-28.0556
-33.7991
-39.9986
1.96616
1.56425
1.22979
0.978722
0.795981
0.66272
0.563966
0.489273
0.431654
0.386468
0.350615
0.321994
0.299167
0.281153
0.267287
0.257151
0.25052
0.247345
0.247759
0.252099
0.260962
0.275306
0.29661
0.327141
0.370385
0.431721
0.519399
0.645671
0.827001
1.07938
1.39731
1.69432
1.72252
1.48454
1.23404
1.06474
0.992271
1.0155
1.13956
1.38089
1.7588
2.2571
2.71829
2.70069
2.20375
1.66795
1.24923
0.961533
0.782351
0.690874
0.677763
0.746475
0.911574
1.18993
1.56784
1.91094
1.84257
1.36157
0.84226
0.416281
0.093927
-0.146207
-0.325047
-0.455154
-0.539837
-0.573479
-0.542797
-0.433714
-0.258086
-0.127607
-0.353674
-0.939735
-1.58147
-2.17483
-2.71663
-3.23125
-3.74468
-4.27892
-4.85268
-5.48462
-6.20119
-7.05792
-8.1919
-9.89405
-12.3216
-15.523
-19.7679
-25.4722
-32.9787
-41.9284
2.0617
1.39804
0.964064
0.700636
0.537461
0.431375
0.358719
0.306621
0.267862
0.238218
0.215109
0.196898
0.182517
0.171259
0.162661
0.156435
0.152432
0.150625
0.151116
0.154153
0.160185
0.169944
0.184611
0.206106
0.237639
0.284779
0.357578
0.474836
0.672171
1.01422
1.5945
2.40429
2.42326
1.65351
1.12008
0.838192
0.724614
0.732653
0.85982
1.14988
1.70625
2.6874
4.07354
4.06251
2.65382
1.6485
1.06473
0.741157
0.569012
0.493987
0.497973
0.591219
0.816941
1.26584
2.07393
3.22464
3.18286
1.94781
1.05293
0.512825
0.188775
-0.0139469
-0.145133
-0.226614
-0.261755
-0.236615
-0.113209
0.183872
0.766358
1.62
1.48226
0.350932
-0.51593
-1.10894
-1.54543
-1.90745
-2.24125
-2.57136
-2.90842
-3.25013
-3.57754
-3.86126
-4.16814
-5.35339
-7.57957
-10.3765
-14.2683
-20.2935
-30.0796
-44.9812
2.25504
0.900878
0.452718
0.278208
0.196733
0.151875
0.123854
0.104748
0.0909341
0.0805485
0.0725413
0.0662788
0.0613606
0.0575276
0.0546123
0.0525117
0.0511734
0.0505893
0.0507973
0.05189
0.0540342
0.0575082
0.0627722
0.0706076
0.0824108
0.100873
0.131722
0.188669
0.308922
0.60597
1.46112
4.25295
4.25966
1.48209
0.643883
0.36925
0.2818
0.27822
0.34547
0.535341
1.04196
2.53441
7.44056
7.43679
2.52289
1.02201
0.505497
0.302691
0.21579
0.183297
0.18962
0.245163
0.400886
0.824455
2.08656
6.25538
6.24132
2.0441
0.752704
0.298219
0.108882
0.0152787
-0.0368137
-0.064819
-0.0704979
-0.0412784
0.0662537
0.390423
1.40027
4.7951
4.74882
1.26069
0.155251
-0.268483
-0.481468
-0.624301
-0.743146
-0.853789
-0.957495
-1.03624
-1.0168
-0.631288
1.12044
0.686178
-2.01571
-3.65343
-5.69654
-9.69889
-19.8145
-50.3216
-36.7767
-38.8632
-40.8478
-42.7087
-44.4285
-45.9953
-47.4015
-48.6434
-49.7206
-50.6347
-51.3887
-51.9862
-52.4306
-52.7251
-52.8717
-36.8523
-38.9649
-40.9715
-42.8494
-44.5815
-46.1558
-47.5655
-48.8079
-49.8834
-50.7946
-51.545
-52.139
-52.5804
-52.8727
-53.0182
-37.0064
-39.1724
-41.2236
-43.1359
-44.8919
-46.4806
-47.8966
-49.1391
-50.2105
-51.1149
-51.8576
-52.444
-52.8791
-53.1668
-53.3099
-37.2451
-39.4945
-41.6143
-43.5785
-45.3694
-46.9778
-48.401
-49.6413
-50.7042
-51.5966
-52.3263
-52.9003
-53.3249
-53.6052
-53.7444
-37.5788
-39.9458
-42.1607
-44.1941
-46.0293
-47.66
-49.0881
-50.3207
-51.368
-52.241
-52.9503
-53.5056
-53.9149
-54.1844
-54.318
-38.0235
-40.5492
-42.8882
-45.0079
-46.8935
-48.5446
-49.9704
-51.1853
-52.206
-53.0487
-53.7281
-54.2567
-54.6446
-54.8991
-55.0251
-38.6039
-41.339
-43.8348
-46.0555
-47.9921
-49.6543
-51.0632
-52.244
-53.2218
-54.0195
-54.6565
-55.1484
-55.5073
-55.742
-55.8579
-39.3583
-42.3681
-45.0564
-47.3872
-49.3647
-51.0172
-52.3841
-53.5053
-54.4174
-55.1507
-55.7296
-56.1728
-56.4941
-56.7033
-56.8064
-40.3482
-43.7183
-46.6354
-49.0722
-51.0619
-52.6657
-53.9503
-54.9758
-55.7916
-56.4361
-56.9382
-57.3188
-57.5929
-57.7704
-57.8577
-41.6758
-45.5216
-48.6944
-51.2039
-53.1447
-54.6333
-55.7755
-56.6557
-57.3368
-57.8638
-58.268
-58.5712
-58.7878
-58.9275
-58.9961
-43.5243
-47.9975
-51.4164
-53.9041
-55.6794
-56.9469
-57.8624
-58.5346
-59.0361
-59.414
-59.6987
-59.9097
-60.0594
-60.1556
-60.2026
-46.2505
-51.5274
-55.0695
-57.3163
-58.7217
-59.612
-60.1921
-60.584
-60.8587
-61.0571
-61.2028
-61.3092
-61.3843
-61.4324
-61.456
-50.6367
-56.7919
-60.0176
-61.5699
-62.2792
-62.5869
-62.7097
-62.7504
-62.7575
-62.7529
-62.7459
-62.7399
-62.7359
-62.7336
-62.7326
-58.6712
-64.9859
-66.6386
-66.6663
-66.238
-65.7465
-65.3087
-64.9502
-64.6679
-64.4508
-64.2876
-64.1684
-64.0855
-64.0332
-64.0079
-76.3659
-77.8417
-74.8841
-72.2184
-70.26
-68.8518
-67.828
-67.0736
-66.5127
-66.0947
-65.7851
-65.5604
-65.4041
-65.3054
-65.2576
3.70337
3.69624
3.68207
3.66102
3.63347
3.60007
3.56203
3.52157
3.48265
3.45259
3.44509
3.4876
3.64272
4.08987
5.50882
3.8058
3.79858
3.78416
3.76265
3.73426
3.69946
3.65917
3.6152
3.57108
3.53369
3.51639
3.54507
3.66887
3.97079
4.50399
3.91315
3.90579
3.89107
3.86895
3.83943
3.8026
3.75879
3.70885
3.65474
3.60071
3.55562
3.53642
3.57126
3.691
3.87079
4.02548
4.01802
4.00302
3.98029
3.94957
3.9105
3.8626
3.80532
3.73822
3.66139
3.57673
3.49019
3.41462
3.36938
3.36383
4.14288
4.13537
4.12021
4.09708
4.06544
4.02446
3.97284
3.90853
3.82832
3.72737
3.59906
3.43627
3.23682
3.02011
2.8544
4.26537
4.25792
4.24283
4.21967
4.18771
4.14574
4.09182
4.02267
3.93266
3.81219
3.64529
3.40769
3.07091
2.63538
2.23129
4.3929
4.38566
4.37094
4.34827
4.31683
4.27526
4.22132
4.15118
4.058
3.92909
3.74062
3.4479
2.97344
2.22878
1.32898
4.52534
4.51845
4.50444
4.48286
4.4529
4.41329
4.362
4.2956
4.20794
4.08716
3.90837
3.61422
3.06346
1.92991
-0.196764
4.66243
4.65604
4.64309
4.62315
4.59557
4.55937
4.51312
4.45468
4.38068
4.28528
4.15623
3.95866
3.55804
2.32073
-3.19789
4.8038
4.79807
4.78645
4.76862
4.74413
4.71236
4.67264
4.62446
4.56807
4.50655
4.45166
4.44402
4.63349
5.68469
11.0878
4.94902
4.94404
4.93398
4.91861
4.89764
4.8708
4.83799
4.79982
4.75884
4.72294
4.71428
4.7924
5.11035
6.02634
8.0098
5.09754
5.0934
5.08505
5.07235
5.05514
5.03331
5.007
4.97702
4.94585
4.92016
4.91662
4.97415
5.17169
5.62657
6.311
5.24879
5.24554
5.23901
5.2291
5.21573
5.19885
5.17849
5.15494
5.12885
5.10172
5.07651
5.05856
5.05412
5.06728
5.08936
5.40212
5.39981
5.39515
5.38812
5.37866
5.36672
5.35214
5.3345
5.31236
5.28166
5.23136
5.13347
4.92413
4.50172
3.88494
5.55691
5.55553
5.55279
5.54868
5.54321
5.53633
5.52785
5.51704
5.50158
5.47494
5.41925
5.28565
4.94187
4.07109
2.25413
5.71247
5.71205
5.71122
5.71005
5.70861
5.70697
5.70512
5.70268
5.6983
5.68811
5.66124
5.58365
5.32538
4.29748
-0.636478
5.86816
5.86867
5.86973
5.87147
5.87403
5.87768
5.88271
5.88952
5.89879
5.91253
5.93847
6.00699
6.24313
7.23637
12.1376
6.02332
6.02473
6.02762
6.03215
6.03859
6.04734
6.059
6.07453
6.0959
6.12815
6.18612
6.31379
6.63486
7.46121
9.2286
6.17733
6.17958
6.18418
6.19135
6.20141
6.21489
6.23252
6.25535
6.28516
6.32557
6.38534
6.48617
6.67544
7.0324
7.54922
6.32958
6.33261
6.33879
6.34837
6.36174
6.37948
6.40233
6.43118
6.46678
6.5092
6.55601
6.59698
6.59929
6.49247
6.23107
6.47953
6.48326
6.49086
6.5026
6.51891
6.54042
6.56791
6.60217
6.64338
6.68943
6.73074
6.73446
6.59868
6.05977
4.73379
6.6267
6.63104
6.63987
6.65348
6.67233
6.69711
6.72871
6.76817
6.8163
6.87259
6.93156
6.96865
6.87772
6.17358
2.31809
6.77064
6.77551
6.78538
6.80055
6.8215
6.84896
6.88397
6.928
6.98324
7.0535
7.14758
7.29158
7.5823
8.47576
12.4541
6.911
6.91629
6.92701
6.94343
6.96602
6.99547
7.03287
7.07988
7.1394
7.21749
7.32892
7.51247
7.86801
8.6355
10.1288
7.04747
7.0531
7.06448
7.08185
7.10562
7.13637
7.17501
7.2229
7.28233
7.35789
7.46019
7.61375
7.86732
8.29106
8.84321
7.17981
7.1857
7.19759
7.21566
7.24021
7.27169
7.31065
7.35775
7.41371
7.47932
7.55583
7.6454
7.74813
7.85731
7.94379
7.30783
7.31393
7.3262
7.34477
7.36985
7.4017
7.44053
7.48629
7.53804
7.59275
7.64242
7.66773
7.62415
7.43918
7.10717
7.4314
7.43766
7.45022
7.46917
7.49465
7.52676
7.56552
7.61048
7.65997
7.70924
7.74593
7.73772
7.59801
7.12307
6.04274
7.55039
7.55678
7.56958
7.58886
7.61468
7.6471
7.68611
7.73135
7.78168
7.83403
7.88064
7.89885
7.80433
7.22729
4.23089
7.66471
7.67121
7.68424
7.7038
7.72996
7.76276
7.80227
7.84852
7.9016
7.96234
8.03509
8.13809
8.34539
9.01152
12.0556
7.77428
7.78089
7.79412
7.81397
7.84047
7.87366
7.91366
7.96075
8.01583
8.08186
8.16853
8.30471
8.56747
9.14427
10.2826
7.87902
7.88574
7.89918
7.91933
7.94617
7.97972
8.02002
8.06727
8.12206
8.18657
8.26758
8.38326
8.57108
8.8869
9.30317
7.97884
7.98568
7.99935
8.01982
8.04705
8.08097
8.12147
8.16835
8.22117
8.27934
8.34257
8.41153
8.48545
8.55963
8.61586
8.07367
8.08064
8.09457
8.11542
8.14311
8.17753
8.21841
8.26512
8.31616
8.36812
8.41357
8.43617
8.39926
8.24469
7.97064
8.1634
8.17052
8.18476
8.20605
8.23434
8.26949
8.31119
8.35869
8.41011
8.46095
8.50045
8.50192
8.39443
8.0126
7.13819
8.24792
8.25522
8.26979
8.29162
8.32064
8.35677
8.39984
8.44935
8.50407
8.56114
8.61378
8.64313
8.57972
8.12248
5.7016
8.32713
8.33461
8.34956
8.37197
8.40182
8.43913
8.48391
8.53618
8.59599
8.66391
8.74329
8.84857
9.03813
9.59591
12.0711
8.40088
8.40855
8.4239
8.44693
8.47766
8.51618
8.56268
8.61759
8.68185
8.75821
8.85483
8.99528
9.24045
9.73762
10.6786
8.46904
8.47691
8.49267
8.51631
8.5479
8.58755
8.63552
8.69229
8.75891
8.8379
8.93594
9.06908
9.26736
9.57098
9.94286
8.53146
8.53954
8.5557
8.57996
8.61237
8.65303
8.70214
8.75997
8.82694
8.90385
8.99267
9.09743
9.22072
9.35676
9.46867
8.58801
8.59629
8.61286
8.63773
8.67093
8.71253
8.7626
8.8211
8.88764
8.96102
9.03835
9.1127
9.16481
9.15917
9.0755
8.63853
8.64702
8.664
8.68947
8.72347
8.76602
8.81709
8.87644
8.94316
9.0149
9.08612
9.14319
9.14861
9.01564
8.62755
8.6829
8.69159
8.70898
8.73507
8.7699
8.81346
8.86573
8.92644
8.99475
9.06863
9.14373
9.20936
9.22808
9.04917
7.91343
8.72095
8.72985
8.74765
8.77439
8.81007
8.85474
8.90841
8.97097
9.04202
9.12096
9.20794
9.30788
9.44438
9.74705
10.95
8.75254
8.76165
8.77988
8.80725
8.84381
8.88964
8.94481
9.00938
9.08337
9.16715
9.26319
9.3808
9.54485
9.81954
10.2894
8.77754
8.78684
8.80548
8.83349
8.87093
8.91792
8.97458
9.04106
9.11746
9.20427
9.30348
9.42126
9.56807
9.75633
9.95858
8.79578
8.80529
8.82432
8.85295
8.89124
8.93935
8.99743
9.06562
9.14389
9.2322
9.3309
9.44135
9.56208
9.68325
9.77164
8.80715
8.81684
8.83624
8.86544
8.90455
8.95373
9.01317
9.08295
9.1629
9.25237
9.35016
9.45408
9.55534
9.63279
9.64956
8.81151
8.82136
8.8411
8.87082
8.91068
8.96086
9.02161
9.09302
9.17485
9.26619
9.36521
9.46843
9.56472
9.62432
9.54262
8.80875
8.81873
8.83875
8.86892
8.90943
8.96054
9.02253
9.09563
9.17973
9.27411
9.37736
9.48737
9.59915
9.71385
9.89629
8.79878
8.80886
8.82909
8.85961
8.90064
8.95252
9.01563
9.09039
9.177
9.27531
9.38484
9.50486
9.6311
9.75618
9.86633
8.78152
8.79165
8.81201
8.84275
8.88414
8.93656
9.00054
9.07671
9.16569
9.26815
9.38505
9.5178
9.66342
9.80873
9.91641
8.75693
8.76708
8.78746
8.81826
8.85978
8.91245
8.97689
9.05391
9.14456
9.25037
9.37429
9.5216
9.6955
9.88725
10.0448
8.72501
8.73511
8.75541
8.78609
8.82748
8.88002
8.94439
9.02145
9.11242
9.21945
9.34731
9.50671
9.71474
9.98935
10.2862
8.68579
8.69578
8.71587
8.74625
8.78723
8.83927
8.90297
8.9791
9.06866
9.17347
9.29847
9.45781
9.6873
10.0758
10.7373
8.63934
8.64917
8.66893
8.69881
8.73912
8.79028
8.85281
8.92722
9.01384
9.11291
9.22579
9.35999
9.54896
9.97267
11.6513
8.58577
8.59538
8.61468
8.64388
8.68328
8.73328
8.79431
8.86664
8.94989
9.04219
9.13836
9.22392
9.24715
8.99788
7.41763
8.52526
8.53457
8.55329
8.58163
8.61989
8.66848
8.72786
8.79826
8.87919
8.9682
9.05831
9.13091
9.13415
8.94723
8.40699
8.45799
8.46695
8.48497
8.51225
8.54913
8.59607
8.65364
8.72236
8.80241
8.89288
8.99046
9.08586
9.15274
9.14183
9.02469
8.38422
8.39276
8.40994
8.43597
8.4712
8.51616
8.57156
8.6384
8.71792
8.81203
8.92418
9.0604
9.22491
9.41005
9.56454
8.30424
8.31229
8.32849
8.35305
8.38633
8.42885
8.48146
8.54541
8.62283
8.71808
8.8412
9.01509
9.28231
9.69943
10.2152
8.21839
8.22588
8.24098
8.26385
8.29484
8.33443
8.38338
8.44285
8.51491
8.60421
8.723
8.90475
9.23516
9.92016
11.2274
8.12704
8.13393
8.14779
8.16879
8.19719
8.23338
8.27788
8.33134
8.39456
8.46928
8.56111
8.69098
8.94131
9.70861
13.151
8.03064
8.03687
8.04939
8.06834
8.09394
8.12644
8.16608
8.21283
8.26578
8.32191
8.37285
8.39334
8.28803
7.6392
4.26237
7.92964
7.93516
7.94626
7.96305
7.98571
8.01441
8.04924
8.08981
8.13434
8.17758
8.20577
8.18285
8.01175
7.46414
6.23831
7.82452
7.8293
7.83891
7.85346
7.87309
7.898
7.92832
7.96383
8.00333
8.04316
8.07422
8.07507
7.99651
7.75994
7.36633
7.71581
7.71982
7.72789
7.74011
7.75664
7.77772
7.80368
7.83489
7.87164
7.91428
7.9637
8.02223
8.09056
8.16469
8.22434
7.60404
7.60725
7.61372
7.62353
7.63683
7.65393
7.67532
7.70189
7.73542
7.78013
7.8469
7.9624
8.18017
8.57937
9.1271
7.48977
7.49217
7.49698
7.50429
7.51422
7.52704
7.54326
7.56387
7.591
7.6301
7.69629
7.83136
8.14337
8.89076
10.4135
7.37357
7.37513
7.37827
7.383
7.38941
7.39767
7.40806
7.42112
7.43783
7.46072
7.49788
7.57725
7.80379
8.66357
12.7607
7.25602
7.25675
7.25819
7.26033
7.26316
7.26669
7.27092
7.27565
7.27993
7.28091
7.27022
7.22073
7.02406
6.18809
2.10156
7.1377
7.1376
7.13738
7.13695
7.13623
7.1351
7.13334
7.13029
7.12392
7.10865
7.06954
6.96622
6.6879
5.96983
4.46254
7.01918
7.0183
7.01646
7.01355
7.00941
7.00385
6.99658
6.98703
6.97365
6.95244
6.91349
6.83305
6.65672
6.29956
5.77991
6.90102
6.89939
6.89604
6.89079
6.88341
6.87365
6.86131
6.84624
6.8284
6.80804
6.7863
6.76629
6.75073
6.74201
6.73955
6.78374
6.78143
6.7767
6.7693
6.75889
6.74514
6.72785
6.7072
6.68449
6.66405
6.65798
6.69625
6.83958
7.18002
7.70057
6.6678
6.66491
6.65898
6.64967
6.63652
6.61898
6.59662
6.56939
6.5386
6.50958
6.49889
6.55307
6.79116
7.49284
9.02616
6.5536
6.55026
6.54337
6.5325
6.51701
6.49607
6.46869
6.43387
6.39108
6.34185
6.29481
6.28201
6.42042
7.22801
11.4196
6.44148
6.43783
6.43028
6.41832
6.40113
6.37752
6.34583
6.30371
6.24764
6.17212
6.06699
5.90575
5.58459
4.61302
0.317327
6.33164
6.32786
6.32003
6.30757
6.28953
6.26446
6.23014
6.18305
6.11731
6.02244
5.87819
5.64036
5.20007
4.30637
2.6445
6.22418
6.22047
6.21276
6.20049
6.18266
6.15773
6.12323
6.07517
6.00681
5.90658
5.75441
5.51539
5.13006
4.53311
3.82049
6.11907
6.1156
6.10844
6.09706
6.08056
6.05752
6.02564
5.9812
5.91805
5.82631
5.691
5.49186
5.20664
4.84009
4.50448
6.01611
6.01307
6.00682
5.99697
5.98285
5.96335
5.93671
5.90005
5.84875
5.77581
5.67197
5.52794
5.33934
5.12551
4.95828
5.91503
5.91254
5.90749
5.89966
5.8887
5.87403
5.85465
5.8289
5.7941
5.74629
5.68086
5.59481
5.4892
5.37848
5.2988
5.81544
5.81357
5.80985
5.80432
5.79698
5.78787
5.77692
5.76387
5.7481
5.72852
5.70411
5.67509
5.64224
5.60979
5.58685
5.71691
5.71565
5.71327
5.71002
5.70635
5.70289
5.70056
5.70057
5.70436
5.71364
5.7306
5.75784
5.79465
5.8344
5.86182
5.61902
5.6183
5.61708
5.61584
5.6154
5.61701
5.62251
5.63448
5.65642
5.69295
5.74996
5.83379
5.94467
6.06744
6.15867
5.52142
5.52107
5.52068
5.52091
5.52289
5.52834
5.53987
5.56128
5.59797
5.65757
5.75072
5.89076
6.08606
6.32226
6.52171
5.42384
5.42365
5.42365
5.42459
5.42781
5.43534
5.4503
5.47731
5.52323
5.59843
5.71896
5.90919
6.19869
6.60248
7.02607
5.32617
5.3259
5.32575
5.32652
5.32958
5.33708
5.35226
5.38002
5.42778
5.50735
5.63882
5.85853
6.23157
6.86882
7.82738
5.22847
5.22786
5.22701
5.22667
5.22813
5.23338
5.24541
5.26867
5.30987
5.37978
5.49746
5.70122
6.0806
6.9119
9.29711
-126.059
-93.6899
-82.1742
-76.6593
-73.4424
-71.3454
-69.89
-68.8424
-68.0726
-67.502
-67.08
-66.7733
-66.5597
-66.4246
-66.3591
-106.779
-93.6159
-84.6341
-79.1004
-75.5578
-73.1663
-71.481
-70.2573
-69.3524
-68.6779
-68.1768
-67.8112
-67.5556
-67.3935
-67.3148
-96.6426
-90.6383
-84.6988
-80.1589
-76.8737
-74.4964
-72.751
-71.4506
-70.472
-69.7334
-69.1795
-68.7724
-68.4863
-68.3042
-68.2156
-90.6795
-87.6154
-83.7911
-80.3459
-77.5591
-75.3873
-73.7116
-72.4201
-71.4248
-70.6606
-70.08
-69.6493
-69.3446
-69.1497
-69.0546
-86.8476
-85.1201
-82.6197
-80.0755
-77.8174
-75.9331
-74.405
-73.1837
-72.2171
-71.46
-70.8764
-70.4386
-70.1264
-69.9256
-69.8274
-84.2187
-83.1614
-81.4783
-79.6062
-77.8161
-76.2311
-74.8849
-73.7702
-72.8637
-72.1389
-71.5713
-71.1404
-70.8305
-70.6301
-70.5317
-82.3274
-81.637
-80.4676
-79.0798
-77.6725
-76.3626
-75.2037
-74.2119
-73.384
-72.7085
-72.171
-71.7581
-71.4585
-71.2635
-71.1674
-80.9188
-80.4449
-79.6081
-78.5668
-77.4613
-76.3889
-75.4059
-74.5394
-73.7986
-73.1821
-72.6841
-72.2969
-72.0135
-71.8279
-71.7362
-79.8426
-79.5047
-78.8903
-78.0984
-77.227
-76.3527
-75.5268
-74.7796
-74.1265
-73.5734
-73.1199
-72.7635
-72.5003
-72.327
-72.241
-79.0044
-78.7562
-78.2952
-77.685
-76.9945
-76.2825
-75.5925
-74.954
-74.3851
-73.8952
-73.4883
-73.165
-72.9244
-72.7651
-72.6858
-78.3418
-78.1554
-77.8031
-77.3274
-76.777
-76.1966
-75.6221
-75.0799
-74.5886
-74.1594
-73.7985
-73.509
-73.2919
-73.1474
-73.0752
-77.812
-77.6695
-77.3964
-77.0216
-76.5802
-76.1063
-75.6286
-75.1704
-74.7489
-74.3759
-74.059
-73.8024
-73.6087
-73.4792
-73.4143
-77.3846
-77.2742
-77.0598
-76.7618
-76.4059
-76.018
-75.6212
-75.2351
-74.8754
-74.5535
-74.2773
-74.0519
-73.8808
-73.7658
-73.7081
-77.0372
-76.9507
-76.7809
-76.5422
-76.2537
-75.9356
-75.6059
-75.2813
-74.9755
-74.6992
-74.46
-74.2636
-74.1136
-74.0125
-73.9616
-76.7531
-76.6849
-76.5494
-76.3569
-76.1222
-75.8606
-75.5867
-75.3142
-75.055
-74.8189
-74.613
-74.4429
-74.3123
-74.2239
-74.1794
-76.5198
-76.4657
-76.3569
-76.201
-76.0092
-75.7938
-75.5661
-75.3376
-75.1185
-74.9174
-74.741
-74.5944
-74.4814
-74.4047
-74.366
-76.3274
-76.2844
-76.1966
-76.0698
-75.9127
-75.735
-75.5457
-75.3542
-75.1694
-74.9986
-74.848
-74.7223
-74.6251
-74.5589
-74.5254
-76.1681
-76.1339
-76.0629
-75.9594
-75.8305
-75.6837
-75.5263
-75.366
-75.2103
-75.0658
-74.9377
-74.8303
-74.747
-74.6901
-74.6613
-76.036
-76.0088
-75.9513
-75.8667
-75.7607
-75.6394
-75.5085
-75.3744
-75.2435
-75.1214
-75.0127
-74.9213
-74.8502
-74.8016
-74.7769
-75.9261
-75.9046
-75.8579
-75.7888
-75.7016
-75.6012
-75.4924
-75.3803
-75.2704
-75.1675
-75.0756
-74.9981
-74.9376
-74.8962
-74.8751
-75.8345
-75.8176
-75.7798
-75.7232
-75.6515
-75.5685
-75.4781
-75.3846
-75.2924
-75.2059
-75.1283
-75.0627
-75.0115
-74.9763
-74.9584
-75.758
-75.7449
-75.7144
-75.6681
-75.6091
-75.5406