/*--------------------------------*- C++ -*----------------------------------*\
| =========                 |                                                 |
| \\      /  F ield         | OpenFOAM: The Open Source CFD Toolbox           |
|  \\    /   O peration     | Version:  5.x                                   |
|   \\  /    A nd           | Web:      www.OpenFOAM.org                      |
|    \\/     M anipulation  |                                                 |
\*---------------------------------------------------------------------------*/
FoamFile
{
    version     2.0;
    format      ascii;
    class       volScalarField;
    location    "17.7";
    object      T;
}
// * * * * * * * * * * * * * * * * * * * * * * * * * * * * * * * * * * * * * //

dimensions      [0 0 0 1 0 0 0];

internalField   nonuniform List<scalar> 
6300
(
10.0322
10.0966
10.1606
10.2242
10.2871
10.3491
10.41
10.4697
10.5279
10.5846
10.6394
10.6923
10.7431
10.7917
10.838
10.0323
10.0969
10.1611
10.2249
10.2879
10.3501
10.4113
10.4711
10.5295
10.5863
10.6413
10.6943
10.7452
10.7939
10.8403
10.0325
10.0974
10.1621
10.2262
10.2897
10.3523
10.4138
10.474
10.5328
10.5899
10.6452
10.6985
10.7496
10.7985
10.8449
10.0328
10.0983
10.1635
10.2282
10.2923
10.3554
10.4175
10.4783
10.5376
10.5952
10.651
10.7047
10.7562
10.8054
10.852
10.0332
10.0995
10.1655
10.2309
10.2958
10.3597
10.4225
10.484
10.5441
10.6024
10.6588
10.7132
10.7652
10.8147
10.8616
10.0337
10.1009
10.1679
10.2343
10.3001
10.365
10.4288
10.4913
10.5523
10.6115
10.6688
10.7239
10.7766
10.8266
10.8739
10.0342
10.1026
10.1708
10.2384
10.3053
10.3714
10.4364
10.5
10.5622
10.6225
10.6809
10.737
10.7905
10.8413
10.889
10.0349
10.1047
10.1741
10.2431
10.3114
10.3789
10.4452
10.5103
10.5738
10.6355
10.6952
10.7526
10.8073
10.859
10.9073
10.0357
10.107
10.178
10.2485
10.3184
10.3874
10.4553
10.522
10.5872
10.6506
10.7119
10.7708
10.827
10.8799
10.9291
10.0366
10.1096
10.1823
10.2546
10.3262
10.397
10.4667
10.5353
10.6023
10.6676
10.7309
10.7918
10.8499
10.9044
10.9549
10.0375
10.1124
10.1871
10.2613
10.3348
10.4076
10.4794
10.55
10.6192
10.6867
10.7524
10.8157
10.8762
10.933
10.9853
10.0385
10.1155
10.1923
10.2686
10.3442
10.4192
10.4931
10.566
10.6376
10.7077
10.7761
10.8424
10.906
10.9661
11.0211
10.0397
10.1189
10.1979
10.2765
10.3544
10.4317
10.508
10.5833
10.6575
10.7304
10.8019
10.8717
10.9395
11.0042
11.0638
10.0409
10.1225
10.2039
10.2849
10.3653
10.445
10.5239
10.6018
10.6786
10.7544
10.8292
10.9031
10.9759
11.0473
11.115
10.0422
10.1264
10.2104
10.294
10.377
10.4593
10.5407
10.6212
10.7008
10.7795
10.8575
10.9353
11.0138
11.094
11.1765
10.8783
10.9132
10.9466
10.9783
11.0084
11.037
11.0642
11.0899
11.1143
11.1375
11.1596
11.1807
11.2009
11.2203
11.239
11.2571
11.2748
11.2921
11.3092
11.3261
11.3429
11.3598
11.3767
11.3939
11.4113
11.429
11.4471
11.4656
11.4845
11.5039
11.5237
11.5439
11.5646
11.5856
11.607
11.6287
11.6507
11.6728
11.6951
11.7173
11.7396
11.7616
11.7834
11.8048
11.8257
11.8459
11.8654
11.884
11.9016
11.9181
11.9332
11.947
11.9591
11.9695
11.978
11.9845
11.9886
11.9902
11.9891
11.985
11.9777
11.9668
11.9522
11.9335
11.9103
11.8824
11.8492
11.8104
11.7656
11.7141
11.6555
11.5893
11.5147
11.4311
11.3379
11.2343
11.1197
10.9931
10.8539
10.7012
10.5343
10.3524
10.1547
9.94066
9.70959
9.461
9.19452
8.9099
8.60707
8.2861
10.8806
10.9156
10.9489
10.9806
11.0106
11.0391
11.0661
11.0917
11.116
11.1391
11.161
11.1819
11.202
11.2212
11.2397
11.2577
11.2753
11.2924
11.3093
11.3261
11.3428
11.3596
11.3764
11.3935
11.4108
11.4285
11.4465
11.4649
11.4838
11.5032
11.523
11.5433
11.564
11.5851
11.6065
11.6283
11.6503
11.6726
11.695
11.7174
11.7397
11.7619
11.7839
11.8055
11.8265
11.847
11.8666
11.8854
11.9032
11.9198
11.9352
11.9491
11.9615
11.9722
11.981
11.9877
11.9921
11.9941
11.9933
11.9896
11.9826
11.9722
11.958
11.9398
11.9171
11.8897
11.8572
11.8191
11.7749
11.7243
11.6665
11.6012
11.5275
11.4449
11.3528
11.2503
11.1367
11.0112
10.8731
10.7216
10.5558
10.3749
10.1783
9.96508
9.73473
9.48669
9.22056
8.93606
8.6331
8.31177
10.8853
10.9203
10.9535
10.9851
11.015
11.0433
11.0701
11.0954
11.1194
11.1422
11.1638
11.1844
11.2041
11.223
11.2413
11.259
11.2762
11.293
11.3097
11.3262
11.3426
11.3591
11.3758
11.3926
11.4098
11.4273
11.4452
11.4636
11.4824
11.5018
11.5216
11.5419
11.5627
11.5839
11.6055
11.6274
11.6497
11.6721
11.6947
11.7174
11.74
11.7626
11.7848
11.8068
11.8282
11.849
11.869
11.8882
11.9063
11.9234
11.9391
11.9535
11.9663
11.9775
11.9868
11.9941
11.9991
12.0017
12.0017
11.9987
11.9925
11.9829
11.9696
11.9523
11.9307
11.9044
11.8731
11.8363
11.7936
11.7445
11.6884
11.6248
11.5531
11.4725
11.3824
11.282
11.1707
11.0475
10.9117
10.7625
10.5989
10.4202
10.2255
10.0141
9.78525
9.53836
9.27295
8.98871
8.68552
8.36345
10.8924
10.9274
10.9606
10.992
11.0216
11.0496
11.0761
11.101
11.1246
11.1469
11.1681
11.1882
11.2074
11.2258
11.2436
11.2608
11.2775
11.294
11.3102
11.3262
11.3423
11.3584
11.3747
11.3913
11.4082
11.4255
11.4432
11.4615
11.4802
11.4996
11.5194
11.5398
11.5607
11.5821
11.6039
11.6261
11.6486
11.6713
11.6943
11.7174
11.7405
11.7635
11.7863
11.8087
11.8307
11.852
11.8726
11.8923
11.911
11.9286
11.9449
11.9599
11.9735
11.9854
11.9955
12.0036
12.0096
12.0132
12.0141
12.0122
12.0072
11.9989
11.9869
11.971
11.9509
11.9263
11.8968
11.862
11.8215
11.7747
11.7211
11.6602
11.5912
11.5136
11.4267
11.3296
11.2216
11.1018
10.9695
10.8238
10.6637
10.4883
10.2968
10.0882
9.86167
9.6166
9.35237
9.06859
8.76507
8.44186
10.9021
10.9371
10.9701
11.0013
11.0306
11.0582
11.0841
11.1085
11.1315
11.1532
11.1737
11.1932
11.2118
11.2295
11.2466
11.2632
11.2793
11.2952
11.3108
11.3263
11.3418
11.3574
11.3733
11.3894
11.4059
11.4229
11.4404
11.4585
11.4772
11.4965
11.5164
11.537
11.558
11.5796
11.6017
11.6242
11.647
11.6702
11.6936
11.7172
11.7409
11.7646
11.7881
11.8113
11.834
11.8561
11.8774
11.8978
11.9172
11.9355
11.9526
11.9684
11.9829
11.9957
12.0069
12.0162
12.0234
12.0283
12.0306
12.0302
12.0267
12.0199
12.0096
11.9956
11.9775
11.9551
11.928
11.8958
11.8582
11.8145
11.7643
11.7069
11.6418
11.5682
11.4854
11.3927
11.2892
11.1742
11.0467
10.9058
10.7504
10.5797
10.3925
10.1879
9.96477
9.72234
9.45986
9.17681
8.87289
8.54813
10.9146
10.9495
10.9823
11.0132
11.0421
11.0691
11.0944
11.1181
11.1403
11.1612
11.1808
11.1995
11.2172
11.2342
11.2504
11.2662
11.2815
11.2966
11.3115
11.3263
11.3411
11.3561
11.3713
11.3869
11.403
11.4196
11.4368
11.4546
11.4732
11.4925
11.5125
11.5332
11.5546
11.5765
11.5989
11.6217
11.645
11.6687
11.6926
11.7169
11.7414
11.7659
11.7903
11.8145
11.8382
11.8612
11.8834
11.9047
11.925
11.9441
11.9621
11.9789
11.9944
12.0084
12.0209
12.0317
12.0405
12.047
12.0511
12.0524
12.0508
12.046
12.0378
12.0259
12.0103
11.9906
11.9664
11.9375
11.9034
11.8637
11.8177
11.7648
11.7044
11.6359
11.5584
11.4712
11.3735
11.2644
11.143
11.0083
10.8593
10.6947
10.5133
10.3141
10.0956
9.85688
9.59691
9.31498
9.01066
8.68391
10.9299
10.9648
10.9974
11.0278
11.0561
11.0824
11.1069
11.1297
11.1509
11.1708
11.1894
11.207
11.2237
11.2397
11.255
11.2697
11.2841
11.2982
11.3122
11.3261
11.3401
11.3543
11.3688
11.3838
11.3992
11.4153
11.4321
11.4497
11.4681
11.4874
11.5076
11.5285
11.5502
11.5725
11.5953
11.6186
11.6423
11.6665
11.6912
11.7162
11.7416
11.7672
11.7928
11.8182
11.8432
11.8674
11.8907
11.913
11.9342
11.9543
11.9733
11.9911
12.0078
12.0233
12.0374
12.0499
12.0606
12.0692
12.0753
12.0788
12.0793
12.0768
12.071
12.0617
12.0489
12.0323
12.0116
11.9866
11.9568
11.9217
11.8808
11.8334
11.7788
11.7163
11.6452
11.5647
11.474
11.3722
11.2584
11.1315
10.9904
10.8337
10.6599
10.4678
10.2556
10.0219
9.76552
9.48531
9.18066
8.85142
10.9485
10.9833
11.0156
11.0455
11.0731
11.0984
11.1218
11.1434
11.1635
11.1821
11.1995
11.2159
11.2313
11.2461
11.2602
11.2738
11.287
11.3001
11.313
11.3258
11.3389
11.3521
11.3657
11.3798
11.3945
11.4099
11.4262
11.4434
11.4617
11.4811
11.5014
11.5227
11.5449
11.5676
11.5909
11.6147
11.639
11.6638
11.6891
11.715
11.7415
11.7685
11.7956
11.8226
11.8491
11.8748
11.8994
11.9228
11.945
11.966
11.986
12.0049
12.023
12.0401
12.0561
12.0708
12.0838
12.0948
12.1034
12.1093
12.1123
12.1122
12.109
12.1026
12.0928
12.0797
12.063
12.0425
12.0177
11.9881
11.9532
11.9123
11.8645
11.8091
11.7455
11.6728
11.5904
11.4973
11.3926
11.2752
11.1438
10.997
10.8331
10.6502
10.4463
10.2197
9.96831
9.69076
9.386
9.0537
10.9706
11.0055
11.0374
11.0665
11.093
11.1172
11.1392
11.1594
11.178
11.1951
11.211
11.2259
11.24
11.2533
11.266
11.2783
11.2903
11.302
11.3137
11.3253
11.3372
11.3493
11.3618
11.3748
11.3886
11.4032
11.4189
11.4357
11.4538
11.4732
11.4939
11.5157
11.5385
11.562
11.5859
11.6101
11.6348
11.6601
11.6861
11.7129
11.7407
11.7694
11.7985
11.8277
11.8562
11.8837
11.9097
11.9343
11.9574
11.9792
12
12.02
12.0394
12.0583
12.0766
12.0939
12.1098
12.1238
12.1353
12.1439
12.1496
12.1521
12.1516
12.1481
12.1416
12.1322
12.1198
12.1043
12.0853
12.0622
12.0343
12.0008
11.9609
11.9137
11.8586
11.795
11.722
11.639
11.545
11.4389
11.3194
11.1849
11.0334
10.8626
10.6699
10.4529
10.2087
9.9353
9.63092
9.29491
10.9969
11.0317
11.0631
11.0912
11.1164
11.139
11.1593
11.1777
11.1945
11.2098
11.224
11.2372
11.2496
11.2613
11.2725
11.2832
11.2937
11.304
11.3143
11.3246
11.335
11.3458
11.357
11.3688
11.3814
11.395
11.4098
11.426
11.4438
11.4633
11.4846
11.5073
11.5312
11.5556
11.5802
11.6049
11.6298
11.6553
11.6817
11.7094
11.7387
11.7694
11.8013
11.8335
11.8648
11.8945
11.9222
11.9478
11.9715
11.9938
12.0151
12.0359
12.0566
12.0774
12.0983
12.1189
12.1386
12.1562
12.1711
12.1828
12.1912
12.1963
12.1984
12.1977
12.1945
12.1889
12.1811
12.1711
12.1586
12.143
12.1233
12.0986
12.0676
12.0296
11.9841
11.9304
11.868
11.7963
11.7146
11.6218
11.5166
11.3972
11.2614
11.1063
10.9287
10.7249
10.4912
10.2243
9.92131
9.58082
11.0281
11.0629
11.0934
11.1201
11.1435
11.164
11.1821
11.1983
11.2129
11.2262
11.2383
11.2496
11.2601
11.27
11.2795
11.2885
11.2974
11.3061
11.3148
11.3235
11.3324
11.3416
11.3513
11.3617
11.3728
11.3851
11.3987
11.414
11.4313
11.451
11.4731
11.4973
11.523
11.5489
11.5743
11.5992
11.6239
11.649
11.6753
11.7036
11.7343
11.7679
11.8037
11.8403
11.8757
11.9083
11.9376
11.9638
11.9876
12.0096
12.0308
12.0518
12.0734
12.0962
12.1203
12.1454
12.17
12.1925
12.2115
12.2264
12.2374
12.2448
12.2491
12.2509
12.2506
12.2487
12.2456
12.2415
12.2363
12.2295
12.2197
12.2051
12.1843
12.1564
12.1211
12.0782
12.0273
11.9681
11.9001
11.8225
11.734
11.633
11.517
11.3824
11.225
11.0398
10.8216
10.5652
10.2656
9.91982
11.0654
11.1
11.1292
11.1538
11.1746
11.1923
11.2077
11.2212
11.2333
11.2441
11.2539
11.263
11.2714
11.2794
11.2869
11.2942
11.3012
11.3082
11.3151
11.3221
11.3293
11.3368
11.3447
11.3532
11.3626
11.3731
11.385
11.399
11.4154
11.4351
11.4584
11.4853
11.5143
11.5427
11.5691
11.5937
11.6173
11.641
11.6662
11.694
11.726
11.7629
11.8048
11.849
11.8905
11.9266
11.9573
11.9833
12.0061
12.0267
12.0466
12.0668
12.0886
12.113
12.1409
12.1722
12.2046
12.2338
12.2575
12.2756
12.2886
12.2976
12.3034
12.3069
12.3089
12.3101
12.3113
12.3132
12.3163
12.3202
12.3228
12.3205
12.311
12.2938
12.2692
12.2373
12.1984
12.1525
12.0994
12.0387
11.9694
11.8904
11.7991
11.6915
11.5613
11.4021
11.207
10.968
10.6764
10.3248
11.1106
11.1448
11.1717
11.1929
11.21
11.2241
11.236
11.2463
11.2553
11.2633
11.2706
11.2772
11.2834
11.2892
11.2947
11.3
11.3052
11.3102
11.3153
11.3204
11.3257
11.3312
11.3371
11.3435
11.3507
11.3589
11.3685
11.3802
11.3949
11.4138
11.4385
11.47
11.5065
11.5393
11.5666
11.5897
11.6105
11.631
11.653
11.6785
11.7102
11.7509
11.8025
11.8616
11.9128
11.9529
11.9835
12.0075
12.0274
12.045
12.0618
12.0795
12.0998
12.1247
12.1567
12.1973
12.2437
12.2828
12.3117
12.3319
12.3456
12.3548
12.3609
12.3651
12.3683
12.3715
12.3759
12.3832
12.395
12.4125
12.4331
12.4461
12.4487
12.442
12.4274
12.4064
12.3795
12.3472
12.3096
12.2669
12.2189
12.1653
12.1047
12.0329
11.9391
11.816
11.6556
11.4467
11.1733
10.8175
11.1677
11.2002
11.2222
11.2379
11.2496
11.2589
11.2666
11.273
11.2786
11.2836
11.2881
11.2921
11.2959
11.2994
11.3028
11.306
11.3091
11.3122
11.3153
11.3184
11.3217
11.3251
11.3287
11.3327
11.3372
11.3425
11.349
11.3571
11.3682
11.3842
11.4088
11.4476
11.504
11.5437
11.57
11.5888
11.6042
11.6187
11.6345
11.6541
11.6815
11.7231
11.7892
11.8855
11.9513
11.9925
12.0191
12.0377
12.052
12.0641
12.0758
12.0884
12.1042
12.1261
12.1599
12.214
12.2933
12.3465
12.3783
12.3974
12.409
12.4164
12.4212
12.4246
12.4276
12.431
12.4365
12.4464
12.4654
12.5001
12.5545
12.5864
12.5997
12.6012
12.5951
12.5837
12.5682
12.5493
12.5273
12.5027
12.4764
12.45
12.4264
12.4058
12.3591
12.2834
12.1739
12.0179
11.789
11.4421
11.2468
11.2707
11.2819
11.2884
11.2928
11.2961
11.2987
11.301
11.3029
11.3046
11.3061
11.3074
11.3087
11.3099
11.311
11.3121
11.3131
11.3142
11.3152
11.3163
11.3174
11.3185
11.3197
11.3211
11.3227
11.3245
11.3268
11.3299
11.3344
11.3422
11.3584
11.3998
11.5256
11.5673
11.5841
11.5929
11.599
11.6045
11.6105
11.6186
11.6321
11.6602
11.7323
11.9531
12.0252
12.0531
12.0663
12.0741
12.0794
12.0839
12.0881
12.0929
12.0995
12.1105
12.1338
12.1943
12.3805
12.4407
12.4633
12.4734
12.4785
12.4815
12.4834
12.4847
12.486
12.4875
12.4904
12.4968
12.5129
12.5592
12.7081
12.7535
12.7678
12.7712
12.7702
12.7668
12.7618
12.7556
12.7485
12.7408
12.7337
12.7307
12.7437
12.8162
12.8208
12.7992
12.7593
12.6938
12.5747
12.3127
7.91338
7.48172
7.02605
6.54774
6.04836
5.52965
4.99347
4.44174
3.87641
3.29941
2.71262
2.11792
1.51712
0.911994
0.304284
7.93838
7.50565
7.04864
6.56876
6.06763
5.54706
5.00897
4.45531
3.88805
3.30915
2.72052
2.12401
1.52143
0.914568
0.30514
7.98868
7.55379
7.09405
6.61096
6.10629
5.58196
5.04
4.48243
3.91131
3.32861
2.73626
2.13613
1.53003
0.919696
0.306844
8.06498
7.62673
7.16273
6.67468
6.16455
5.63445
5.08657
4.52308
3.9461
3.35767
2.75976
2.15422
1.54284
0.927336
0.309383
8.16831
7.72536
7.25539
6.76042
6.24272
5.70468
5.14872
4.57718
3.9923
3.3962
2.79086
2.17812
1.55975
0.93742
0.312734
8.30018
7.85093
7.373
6.86884
6.34117
5.79278
5.22639
4.64457
4.0497
3.44395
2.82932
2.20764
1.58062
0.94985
0.316862
8.46263
8.00512
7.51678
7.00071
6.46029
5.89883
5.31945
4.72498
4.11793
3.50054
2.8748
2.24249
1.60522
0.96449
0.321722
8.65837
8.19008
7.6882
7.15689
6.60039
6.02276
5.42756
4.81792
4.19646
3.56546
2.92683
2.28227
1.63326
0.981164
0.327255
8.89107
8.40855
7.88901
7.33817
6.76159
6.16419
5.55008
4.92262
4.28452
3.63797
2.98478
2.32647
1.66437
0.999646
0.333384
9.16567
8.66396
8.12104
7.54512
6.94354
6.32227
5.6859
5.03793
4.38098
3.71708
3.04781
2.37445
1.69809
1.01966
0.340018
9.48901
8.96049
8.386
7.77766
7.14513
6.49538
5.83328
5.16217
4.48436
3.80154
3.1149
2.42542
1.73385
1.04086
0.347046
9.87084
9.30292
8.68473
8.03435
7.36387
6.6808
5.98962
5.29305
4.59274
3.88976
3.18483
2.47845
1.77103
1.06289
0.354343
10.3253
9.69555
9.01558
8.31104
7.59515
6.87425
6.1513
5.42761
4.70374
3.97991
3.25616
2.5325
1.8089
1.08533
0.361774
10.8724
10.1383
9.37091
8.59902
7.83136
7.0697
6.31367
5.56231
4.81468
4.06994
3.32739
2.58647
1.84671
1.10773
0.369196
11.5321
10.6144
9.73062
8.88269
8.0615
7.25948
6.47129
5.69323
4.92268
4.15774
3.39696
2.63926
1.88374
1.12968
0.37647
10.0434
10.1302
10.2167
10.3027
10.3883
10.473
10.557
10.6399
10.7219
10.8031
10.8836
10.9643
11.0468
11.1347
11.2381
10.0446
10.1338
10.2227
10.3111
10.399
10.4861
10.5724
10.6576
10.7417
10.8249
10.9072
10.9894
11.0731
11.161
11.2587
10.0459
10.1375
10.2289
10.3199
10.4103
10.4999
10.5885
10.676
10.7622
10.8471
10.9308
11.0136
11.0963
11.1806
11.2688
10.0472
10.1415
10.2355
10.3291
10.4221
10.5142
10.6053
10.6952
10.7836
10.8703
10.955
11.0377
11.1183
11.1974
11.2758
10.0486
10.1456
10.2424
10.3388
10.4344
10.5293
10.6231
10.7155
10.8062
10.8948
10.9807
11.0632
11.1415
11.2145
11.2825
10.05
10.1499
10.2496
10.3488
10.4474
10.5451
10.6417
10.7369
10.8302
10.9211
11.0087
11.0917
11.1681
11.2352
11.2911
10.0515
10.1544
10.2571
10.3593
10.4609
10.5617
10.6613
10.7595
10.8558
10.9496
11.0399
11.1248
11.2012
11.2637
11.3051
10.0531
10.1591
10.2649
10.3703
10.475
10.579
10.6819
10.7834
10.8832
10.9806
11.0747
11.1637
11.2439
11.3069
11.3337
10.0547
10.1639
10.273
10.3816
10.4897
10.597
10.7034
10.8086
10.9122
11.0139
11.113
11.2086
11.2985
11.3752
11.4067
10.0563
10.1689
10.2813
10.3933
10.5049
10.6157
10.7258
10.8348
10.9426
11.0489
11.1538
11.2576
11.3621
11.4748
11.6288
10.058
10.174
10.2898
10.4054
10.5205
10.635
10.7488
10.8618
10.9739
11.0849
11.1953
11.306
11.42
11.5457
11.7029
10.0598
10.1793
10.2986
10.4177
10.5364
10.6547
10.7725
10.8895
11.0058
11.1214
11.2365
11.352
11.4698
11.5946
11.7339
10.0615
10.1846
10.3075
10.4303
10.5527
10.6749
10.7965
10.9177
11.0383
11.1582
11.2775
11.3963
11.5148
11.6334
11.7526
10.0633
10.19
10.3166
10.443
10.5693
10.6953
10.8209
10.9463
11.0711
11.1954
11.3188
11.4408
11.5596
11.6718
11.7708
10.0652
10.1955
10.3257
10.4559
10.5859
10.7158
10.8456
10.9751
11.1043
11.2331
11.3611
11.4873
11.6091
11.7192
11.8001
10.067
10.2009
10.3349
10.4688
10.6027
10.7365
10.8704
11.0041
11.1378
11.2714
11.4046
11.537
11.6666
11.7868
11.8682
10.0688
10.2064
10.3441
10.4817
10.6195
10.7573
10.8951
11.0332
11.1714
11.3099
11.4487
11.5885
11.7306
11.8814
12.0703
10.0706
10.2119
10.3532
10.4946
10.6362
10.7779
10.9198
11.0621
11.2047
11.348
11.4922
11.6382
11.7885
11.9496
12.1387
10.0724
10.2173
10.3623
10.5074
10.6527
10.7983
10.9442
11.0907
11.2377
11.3855
11.5344
11.685
11.8387
11.9983
12.1689
10.0742
10.2227
10.3713
10.5201
10.6691
10.8185
10.9683
11.1188
11.27
11.4221
11.5753
11.7296
11.8848
12.0393
12.1896
10.076
10.228
10.3801
10.5325
10.6852
10.8383
10.992
11.1464
11.3016
11.4579
11.6154
11.7736
11.9313
12.0832
12.2158
10.0777
10.2332
10.3888
10.5447
10.701
10.8577
11.0151
11.1733
11.3325
11.493
11.6548
11.818
11.9816
12.1406
12.2714
10.0794
10.2383
10.3973
10.5566
10.7164
10.8767
11.0377
11.1995
11.3626
11.527
11.6933
11.8621
12.0351
12.2175
12.4322
10.0811
10.2432
10.4056
10.5683
10.7314
10.8951
11.0595
11.225
11.3916
11.5597
11.7299
11.9032
12.082
12.2719
12.4865
10.0827
10.2481
10.4137
10.5796
10.746
10.913
11.0807
11.2495
11.4195
11.5909
11.7644
11.9406
12.1211
12.3091
12.5094
10.0842
10.2528
10.4215
10.5906
10.7601
10.9303
11.1012
11.2732
11.4463
11.6207
11.7968
11.9748
12.155
12.3377
12.523
10.0857
10.2573
10.4291
10.6012
10.7738
10.947
11.121
11.296
11.4721
11.6494
11.8279
12.0074
12.1871
12.3645
12.5354
10.0872
10.2617
10.4364
10.6115
10.787
10.9632
11.1402
11.3181
11.497
11.6771
11.8583
12.04
12.2206
12.3957
12.5541
10.0886
10.2659
10.4435
10.6214
10.7998
10.9788
11.1586
11.3393
11.5211
11.7041
11.8882
12.0732
12.258
12.4384
12.5961
10.09
10.27
10.4503
10.6309
10.812
10.9938
11.1764
11.3598
11.5444
11.7302
11.9174
12.1065
12.2983
12.4969
12.7197
10.0913
10.274
10.4569
10.6401
10.8239
11.0083
11.1934
11.3796
11.5668
11.7553
11.9454
12.1377
12.334
12.5383
12.7613
10.0926
10.2778
10.4632
10.6489
10.8352
11.0221
11.2098
11.3985
11.5882
11.7792
11.9717
12.1662
12.3639
12.5669
12.7789
10.0938
10.2814
10.4692
10.6574
10.8461
11.0354
11.2256
11.4166
11.6088
11.802
11.9966
12.1926
12.39
12.589
12.7894
10.0949
10.2848
10.475
10.6655
10.8565
11.0482
11.2406
11.434
11.6284
11.8239
12.0205
12.2178
12.4149
12.61
12.7993
10.096
10.2881
10.4805
10.6732
10.8664
11.0603
11.255
11.4507
11.6473
11.8451
12.0438
12.243
12.4413
12.6349
12.8145
10.0971
10.2913
10.4857
10.6805
10.8758
11.0719
11.2687
11.4665
11.6654
11.8655
12.0667
12.2688
12.4709
12.6696
12.8493
10.0981
10.2942
10.4906
10.6875
10.8848
11.0828
11.2817
11.4816
11.6827
11.885
12.0888
12.2945
12.5029
12.7173
12.9523
10.099
10.297
10.4953
10.694
10.8932
11.0932
11.294
11.4959
11.6989
11.9034
12.1097
12.3183
12.5307
12.7506
12.9866
10.0999
10.2997
10.4997
10.7001
10.9012
11.1029
11.3055
11.5092
11.7142
11.9206
12.1288
12.3394
12.5533
12.7727
13.0006
10.1007
10.3021
10.5038
10.7059
10.9086
11.112
11.3163
11.5217
11.7284
11.9365
12.1463
12.358
12.572
12.7888
13.0084
10.1014
10.3044
10.5076
10.7112
10.9154
11.1204
11.3263
11.5333
11.7415
11.9512
12.1623
12.375
12.5888
12.8028
13.0149
10.1021
10.3065
10.5111
10.7161
10.9217
11.1281
11.3355
11.5439
11.7536
11.9647
12.1773
12.391
12.6053
12.8181
13.0238
10.1028
10.3084
10.5142
10.7205
10.9274
11.1352
11.3438
11.5537
11.7648
11.9773
12.1913
12.4067
12.623
12.8381
13.0433
10.1033
10.3101
10.5171
10.7245
10.9326
11.1415
11.3514
11.5625
11.7749
11.9887
12.2043
12.4216
12.6413
12.8649
13.1001
10.1038
10.3116
10.5196
10.7281
10.9372
11.1472
11.3581
11.5703
11.7839
11.999
12.2159
12.435
12.6569
12.8834
13.1191
10.1043
10.3129
10.5218
10.7311
10.9412
11.1521
11.364
11.5771
11.7917
12.008
12.226
12.4462
12.6691
12.8956
13.1269
10.1046
10.314
10.5236
10.7337
10.9445
11.1562
11.3689
11.583
11.7984
12.0156
12.2346
12.4556
12.6789
12.9043
13.1313
10.1049
10.3149
10.5251
10.7358
10.9473
11.1596
11.373
11.5877
11.8039
12.0218
12.2416
12.4634
12.687
12.9118
13.1355
10.1051
10.3155
10.5262
10.7374
10.9493
11.1622
11.3761
11.5914
11.8082
12.0268
12.2473
12.4698
12.6943
12.9199
13.1431
10.1053
10.316
10.527
10.7385
10.9508
11.1639
11.3782
11.5939
11.8112
12.0303
12.2514
12.4748
12.7007
12.9297
13.1642
10.1054
10.3163
10.5274
10.7391
10.9515
11.1649
11.3794
11.5953
11.8129
12.0323
12.2539
12.478
12.705
12.9355
13.1709
10.1054
10.3163
10.5275
10.7392
10.9516
11.165
11.3796
11.5956
11.8132
12.0328
12.2546
12.4791
12.7067
12.9378
13.1729
10.1053
10.3161
10.5271
10.7387
10.951
11.1643
11.3787
11.5946
11.8121
12.0316
12.2535
12.478
12.7058
12.9374
13.1729
10.1052
10.3157
10.5264
10.7377
10.9497
11.1627
11.3768
11.5924
11.8096
12.0288
12.2503
12.4746
12.7022
12.9341
13.1711
10.105
10.315
10.5253
10.7362
10.9478
11.1603
11.374
11.589
11.8057
12.0244
12.2453
12.4688
12.6956
12.9271
13.1663
10.1047
10.3141
10.5239
10.7342
10.9451
11.157
11.3701
11.5845
11.8005
12.0183
12.2383
12.4606
12.6857
12.9147
13.1529
10.1043
10.3131
10.5221
10.7316
10.9418
11.1529
11.3652
11.5787
11.7939
12.0108
12.2296
12.4505
12.673
12.8957
13.112
10.1039
10.3118
10.5199
10.7286
10.9379
11.148
11.3593
11.5719
11.786
12.0018
12.2195
12.4391
12.6601
12.8811
13.0979
10.1034
10.3103
10.5174
10.725
10.9333
11.1424
11.3525
11.5639
11.7768
11.9914
12.208
12.4266
12.6472
12.8693
13.0911
10.1028
10.3086
10.5146
10.721
10.9281
11.136
11.3448
11.5549
11.7664
11.9797
12.1949
12.4126
12.6333
12.8576
13.0857
10.1022
10.3067
10.5114
10.7166
10.9223
11.1288
11.3363
11.5448
11.7548
11.9665
12.1801
12.3966
12.6169
12.8432
13.0786
10.1015
10.3046
10.508
10.7117
10.916
11.121
11.3268
11.5338
11.742
11.9517
12.1634
12.3777
12.5961
12.8223
13.065
10.1008
10.3024
10.5043
10.7065
10.9092
11.1125
11.3167
11.5218
11.7281
11.9357
12.1448
12.3559
12.5699
12.7901
13.031
10.1
10.3
10.5003
10.7008
10.9018
11.1034
11.3058
11.509
11.7132
11.9184
12.1248
12.3321
12.5394
12.7432
12.9281
10.0991
10.2975
10.496
10.6949
10.8941
11.0938
11.2943
11.4954
11.6974
11.9004
12.1041
12.3082
12.5113
12.7095
12.8936
10.0983
10.2949
10.4916
10.6886
10.8859
11.0838
11.2822
11.4812
11.6811
11.8817
12.0831
12.2849
12.4864
12.6855
12.8787
10.0973
10.2921
10.487
10.6821
10.8775
11.0733
11.2696
11.4665
11.6641
11.8624
12.0616
12.2618
12.4631
12.6656
12.8692
10.0964
10.2892
10.4821
10.6753
10.8687
11.0624
11.2566
11.4512
11.6465
11.8425
12.0395
12.2379
12.4389
12.6448
12.8592
10.0954
10.2863
10.4772
10.6683
10.8596
11.0512
11.2432
11.4355
11.6284
11.8219
12.0163
12.2122
12.4113
12.6179
12.8423
10.0944
10.2832
10.4721
10.6611
10.8503
11.0398
11.2294
11.4194
11.6098
11.8006
11.9919
12.1842
12.3784
12.5785
12.8019
10.0934
10.2801
10.467
10.6539
10.8409
11.0281
11.2155
11.403
11.5908
11.7788
11.9669
12.1548
12.3414
12.5229
12.6813
10.0923
10.277
10.4617
10.6465
10.8313
11.0163
11.2013
11.3865
11.5717
11.7569
11.9419
12.1262
12.308
12.4831
12.6408
10.0913
10.2738
10.4564
10.639
10.8216
11.0043
11.1871
11.3698
11.5525
11.7351
11.9175
12.0991
12.2792
12.4552
12.6235
10.0902
10.2706
10.4511
10.6315
10.8119
10.9924
11.1728
11.3531
11.5333
11.7135
11.8934
12.0732
12.253
12.4328
12.6128
10.0891
10.2674
10.4457
10.624
10.8022
10.9804
11.1585
11.3364
11.5142
11.6918
11.8694
12.0473
12.2267
12.4101
12.6019
10.0881
10.2642
10.4403
10.6164
10.7925
10.9684
11.1443
11.3199
11.4952
11.6702
11.8451
12.0203
12.1976
12.3816
12.5839
10.087
10.261
10.435
10.6089
10.7828
10.9566
11.1301
11.3034
11.4763
11.6487
11.8205
11.9918
12.1637
12.3404
12.541
10.0859
10.2578
10.4297
10.6015
10.7732
10.9448
11.1162
11.2872
11.4578
11.6275
11.7961
11.9629
12.1265
12.2825
12.4124
10.0849
10.2546
10.4243
10.594
10.7637
10.9332
11.1024
11.2714
11.4397
11.6071
11.7729
11.9361
12.0944
12.2427
12.3701
10.0838
10.2514
10.419
10.5866
10.7542
10.9216
11.0889
11.2559
11.4223
11.5877
11.7516
11.9127
12.0691
12.2174
12.3535
10.0827
10.2482
10.4137
10.5792
10.7447
10.9102
11.0756
11.2407
11.4055
11.5694
11.7321
11.8925
12.0493
12.2006
12.3453
10.0817
10.245
10.4084
10.5718
10.7353
10.8988
11.0624
11.2259
11.3891
11.552
11.7141
11.8747
12.0331
12.1884
12.3403
10.0806
10.2418
10.4031
10.5644
10.7258
10.8874
11.0492
11.2111
11.3731
11.5351
11.697
11.8585
12.0191
12.1786
12.3366
10.0795
10.2385
10.3976
10.5569
10.7162
10.8759
11.0358
11.1961
11.3569
11.5183
11.6802
11.8428
12.0059
12.1695
12.3334
10.0784
10.2352
10.3921
10.5492
10.7065
10.8641
11.0222
11.1809
11.3404
11.501
11.6629
11.8266
11.9923
12.1603
12.33
10.0773
10.2318
10.3865
10.5413
10.6964
10.852
11.0081
11.165
11.323
11.4826
11.6444
11.809
11.9772
12.1496
12.3261
10.0761
10.2284
10.3807
10.5333
10.6861
10.8394
10.9934
11.1483
11.3046
11.4628
11.6238
11.7887
11.959
12.1362
12.3208
10.0749
10.2248
10.3748
10.525
10.6754
10.8264
10.978
11.1306
11.2847
11.441
11.6005
11.7647
11.936
12.1175
12.3124
10.0737
10.2212
10.3687
10.5165
10.6644
10.8129
10.9619
11.1119
11.2633
11.4169
11.5738
11.7357
11.9058
12.0896
12.2962
10.0725
10.2175
10.3626
10.5077
10.6531
10.7989
10.9451
11.0921
11.2404
11.3905
11.5435
11.701
11.8662
12.0457
12.2581
12.1974
11.0195
10.0274
9.11812
8.25484
7.4207
6.60643
5.80631
5.01651
4.23437
3.4579
2.68562
1.91632
1.14903
0.382884
12.4076
11.2586
10.2397
9.30015
8.41031
7.55342
6.71943
5.90189
5.09647
4.30006
3.51038
2.72568
1.94454
1.1658
0.38845
12.4951
11.4074
10.3969
9.44757
8.54284
7.6702
6.82095
5.98904
5.17013
4.36105
3.55939
2.76324
1.97108
1.18161
0.393701
12.5391
11.5026
10.5114
9.564
8.65305
7.77068
6.91039
6.06711
5.23694
4.41687
3.60454
2.79802
1.99574
1.19633
0.398594
12.5648
11.5663
10.5953
9.65509
8.74335
7.85578
6.98798
6.13604
5.2967
4.4673
3.64563
2.82984
2.01838
1.20988
0.403105
12.5815
11.6109
10.6578
9.72636
8.81681
7.92711
7.0545
6.19617
5.34954
4.51234
3.68261
2.85865
2.03896
1.22223
0.40722
12.5932
11.6433
10.7051
9.7824
8.87643
7.98651
7.11106
6.24815
5.3958
4.55216
3.71556
2.88446
2.05748
1.23337
0.410938
12.6018
11.6676
10.7415
9.82676
8.92484
8.03582
7.15888
6.29274
5.43597
4.58708
3.74467
2.90739
2.074
1.24333
0.414267
12.6083
11.6863
10.77
9.86215
8.96425
8.0767
7.19914
6.3308
5.47063
4.61748
3.77019
2.92761
2.08863
1.25217
0.417225
12.6134
11.7008
10.7925
9.89059
8.99643
8.11057
7.23296
6.36314
5.50038
4.64379
3.79243
2.94531
2.10147
1.25996
0.419833
12.6173
11.7123
10.8105
9.91359
9.02278
8.13866
7.26133
6.39055
5.52581
4.66644
3.81168
2.96072
2.1127
1.26678
0.42212
12.6205
11.7215
10.825
9.93231
9.04444
8.16198
7.28511
6.41372
5.54747
4.68587
3.82829
2.97406
2.12244
1.27271
0.424112
12.623
11.729
10.8368
9.94762
9.0623
8.18136
7.30503
6.43328
5.56588
4.70247
3.84255
2.98556
2.13087
1.27785
0.42584
12.6251
11.735
10.8464
9.96019
9.07706
8.19749
7.32172
6.44977
5.5815
4.71663
3.85476
2.99544
2.13813
1.28229
0.427331
12.6268
11.74
10.8543
9.97056
9.0893
8.21094
7.33571
6.46367
5.59472
4.72866
3.86519
3.0039
2.14436
1.2861
0.428615
12.6282
11.744
10.8608
9.97914
9.09946
8.22216
7.34744
6.47537
5.6059
4.73888
3.87406
3.01113
2.1497
1.28937
0.429715
12.6293
11.7474
10.8662
9.98625
9.10792
8.23154
7.35728
6.48523
5.61536
4.74755
3.88161
3.01728
2.15425
1.29216
0.430657
12.6303
11.7502
10.8707
9.99217
9.11498
8.23938
7.36554
6.49353
5.62334
4.75489
3.88803
3.02253
2.15813
1.29455
0.43146
12.631
11.7525
10.8744
9.99711
9.12088
8.24596
7.37248
6.50052
5.63009
4.76111
3.89347
3.02698
2.16143
1.29658
0.432145
12.6317
11.7544
10.8775
10.0012
9.12582
8.25148
7.37832
6.50642
5.63579
4.76638
3.89808
3.03077
2.16424
1.29831
0.432729
12.6322
11.756
10.8801
10.0047
9.12997
8.25612
7.38324
6.5114
5.64061
4.77084
3.902
3.03398
2.16663
1.29978
0.433225
12.6327
11.7574
10.8823
10.0076
9.13346
8.26003
7.38739
6.51561
5.64469
4.77462
3.90532
3.03672
2.16867
1.30103
0.433648
12.6331
11.7585
10.8841
10.01
9.13641
8.26333
7.39091
6.51918
5.64815
4.77783
3.90815
3.03904
2.1704
1.3021
0.434008
12.6334
11.7595
10.8857
10.0121
9.1389
8.26614
7.39389
6.52221
5.6511
4.78057
3.91056
3.04103
2.17187
1.30301
0.434316
12.6337
11.7603
10.887
10.0139
9.14103
8.26853
7.39644
6.5248
5.65362
4.78291
3.91263
3.04273
2.17314
1.30379
0.43458
12.6339
11.761
10.8882
10.0154
9.14285
8.27058
7.39862
6.52702
5.65579
4.78492
3.9144
3.04419
2.17423
1.30446
0.434808
12.6341
11.7616
10.8891
10.0167
9.14443
8.27236
7.40052
6.52895
5.65767
4.78667
3.91594
3.04546
2.17518
1.30505
0.435005
12.6343
11.7622
10.89
10.0179
9.14582
8.27391
7.40218
6.53064
5.65931
4.7882
3.91729
3.04657
2.17601
1.30556
0.435178
12.6345
11.7626
10.8908
10.0189
9.14705
8.2753
7.40366
6.53214
5.66077
4.78956
3.91849
3.04756
2.17674
1.30601
0.435331
12.6346
11.7631
10.8915
10.0198
9.14818
8.27656
7.405
6.5335
5.6621
4.79079
3.91957
3.04845
2.17741
1.30642
0.435469
12.6348
11.7635
10.8921
10.0207
9.14922
8.27773
7.40624
6.53476
5.66332
4.79192
3.92057
3.04927
2.17802
1.3068
0.435596
12.6349
11.7639
10.8928
10.0215
9.15022
8.27885
7.40743
6.53596
5.66448
4.79299
3.92151
3.05004
2.17859
1.30715
0.435715
12.635
11.7643
10.8934
10.0224
9.15122
8.27996
7.40859
6.53713
5.6656
4.79403
3.92242
3.05078
2.17914
1.30749
0.435829
12.6352
11.7647
10.894
10.0232
9.15224
8.28109
7.40977
6.53831
5.66673
4.79506
3.92332
3.05152
2.17968
1.30782
0.435941
12.6353
11.7651
10.8947
10.0241
9.15332
8.28227
7.411
6.53954
5.6679
4.79612
3.92423
3.05226
2.18023
1.30815
0.436054
12.6355
11.7656
10.8955
10.0252
9.15451
8.28356
7.41233
6.54084
5.66912
4.79722
3.92518
3.05303
2.18079
1.3085