/*--------------------------------*- C++ -*----------------------------------*\
| =========                 |                                                 |
| \\      /  F ield         | OpenFOAM: The Open Source CFD Toolbox           |
|  \\    /   O peration     | Version:  5.x                                   |
|   \\  /    A nd           | Web:      www.OpenFOAM.org                      |
|    \\/     M anipulation  |                                                 |
\*---------------------------------------------------------------------------*/
FoamFile
{
    version     2.0;
    format      ascii;
    class       volScalarField;
    location    "1.5";
    object      gradTx;
}
// * * * * * * * * * * * * * * * * * * * * * * * * * * * * * * * * * * * * * //

dimensions      [0 -1 0 1 0 0 0];

internalField   nonuniform List<scalar> 
2048
(
-0.00073474
-0.00205182
-0.00289906
-0.00295914
-0.00191315
0.000563183
0.00477134
0.0109781
0.0193973
0.0301723
0.0433637
0.0589421
0.076781
0.0966475
0.118187
0.140906
0.164153
0.187117
0.20884
0.228271
0.244348
0.256116
0.26285
0.264169
0.260091
0.25104
0.237771
0.22126
0.202575
0.18275
0.162699
0.14316
0.124681
0.107621
0.0921832
0.0784402
0.0663717
0.0558928
0.0468791
0.0391859
0.0326621
0.0271595
0.0225388
0.0186728
0.015448
0.0127648
0.0105366
0.00868925
0.00715958
0.00589409
0.00484776
0.00398278
0.00326752
0.00267555
0.00218482
0.0017769
0.00143639
0.00115041
0.000908097
0.000700266
0.000518987
0.000357305
0.000209072
6.87984e-05
-0.00229925
-0.00645097
-0.00922101
-0.00966558
-0.00683611
0.000234075
0.0124529
0.0306253
0.0553969
0.0872009
0.126223
0.172382
0.225311
0.284336
0.348422
0.416123
0.48552
0.554199
0.619289
0.67761
0.725929
0.761317
0.781544
0.785424
0.773021
0.745638
0.705602
0.65591
0.599814
0.540449
0.480561
0.422348
0.367419
0.316819
0.271119
0.230507
0.194899
0.164024
0.137496
0.114878
0.0957143
0.0795621
0.0660071
0.054672
0.0452211
0.0373601
0.0308342
0.0254252
0.0209473
0.0172434
0.0141814
0.0116504
0.00955774
0.00782596
0.00639043
0.00519721
0.00420122
0.00336474
0.00265604
0.00204822
0.00151808
0.00104515
0.000611197
0.000200912
-0.00413925
-0.0116976
-0.0170203
-0.0185592
-0.0147465
-0.00397127
0.0152979
0.0444256
0.0845083
0.136282
0.200067
0.275746
0.362745
0.459997
0.565865
0.678034
0.793392
0.907958
1.01693
1.11488
1.19625
1.25591
1.28994
1.29622
1.27487
1.22819
1.16029
1.07641
0.982169
0.882916
0.783267
0.686854
0.596275
0.513171
0.438386
0.372145
0.314232
0.264141
0.221197
0.18465
0.153734
0.127711
0.105897
0.087673
0.0724906
0.0598708
0.0494002
0.0407257
0.0335471
0.0276113
0.0227055
0.0186515
0.0153001
0.0125272
0.0102289
0.0083187
0.00672439
0.00538548
0.00425118
0.00327844
0.00243021
0.0016735
0.000977728
0.000320674
-0.0064092
-0.0182578
-0.0270862
-0.0307692
-0.0271208
-0.0138626
0.0112036
0.0500512
0.104268
0.174917
0.262465
0.366772
0.48709
0.622031
0.769457
0.926304
1.08837
1.25014
1.40481
1.54453
1.66105
1.74664
1.79532
1.80382
1.77232
1.70436
1.60619
1.48572
1.35129
1.2107
1.07052
0.935775
0.809966
0.695195
0.59244
0.501838
0.422944
0.354942
0.296819
0.24748
0.205834
0.170846
0.141562
0.117129
0.0967969
0.0799118
0.0659133
0.0543233
0.0447371
0.0368141
0.0302683
0.0248607
0.0203916
0.0166946
0.013631
0.0110851
0.0089604
0.00717622
0.00566475
0.00436862
0.00323868
0.00223135
0.00130272
0.000426148
-0.00920865
-0.0264387
-0.0399543
-0.0470861
-0.0450254
-0.0307835
-0.00142307
0.0457176
0.11278
0.201185
0.311548
0.443705
0.596766
0.769101
0.958209
1.16044
1.37066
1.58188
1.78523
1.97011
2.12511
2.2393
2.30404
2.31457
2.27112
2.17883
2.04672
1.88598
1.7082
1.52392
1.34178
1.16818
1.00735
0.861673
0.732082
0.618465
0.52002
0.435532
0.363584
0.302702
0.251451
0.208489
0.172601
0.142707
0.117862
0.0972526
0.0801823
0.0660599
0.0543868
0.0447441
0.0367811
0.0302052
0.0247723
0.0202792
0.0165567
0.0134639
0.010883
0.00871596
0.00688026
0.005306
0.00393371
0.00271175
0.00158246
0.000516311
-0.0125895
-0.0364079
-0.0559382
-0.0680102
-0.0691852
-0.0557011
-0.0237752
0.0300598
0.108588
0.213616
0.345892
0.505199
0.690515
0.900059
1.13114
1.37975
1.64004
1.90372
2.15972
2.39441
2.59252
2.73907
2.82191
2.83426
2.77641
2.65564
2.48458
2.27863
2.05329
1.82224
1.59628
1.38306
1.18736
1.01158
0.856392
0.72123
0.60479
0.505353
0.421036
0.349945
0.290283
0.2404
0.19882
0.164248
0.135558
0.11179
0.0921238
0.0758681
0.0624413
0.0513567
0.0422076
0.0346554
0.0284182
0.0232615
0.0189902
0.0154421
0.0124818
0.00999643
0.00789124
0.00608566
0.00451159
0.00311185
0.00181523
0.000590716
-0.0165609
-0.0482068
-0.0751527
-0.0937866
-0.100034
-0.0892744
-0.0567307
0.00203666
0.090575
0.211107
0.364453
0.550266
0.76737
1.01392
1.28726
1.58333
1.89589
2.21557
2.52915
2.81953
3.06681
3.25074
3.35446
3.3684
3.29292
3.13823
2.9218
2.66441
2.38635
2.10485
1.83293
1.5793
1.34897
1.14407
0.964689
0.809612
0.67687
0.564134
0.468987
0.389084
0.32225
0.266528
0.220191
0.181738
0.149881
0.123524
0.101741
0.0837524
0.068906
0.0566573
0.046553
0.038216
0.0313334
0.025645
0.0209346
0.0170224
0.0137589
0.0110193
0.00869903
0.00670864
0.00497311
0.00343198
0.00200109
0.00064941
-0.0210921
-0.0617611
-0.0975304
-0.124431
-0.13775
-0.131906
-0.100921
-0.039149
0.0578886
0.192851
0.366514
0.578247
0.826641
1.10988
1.42558
1.77006
2.13715
2.51677
2.89368
3.24697
3.55105
3.77888
3.90719
3.9225
3.82521
3.62963
3.35977
3.04337
2.70655
2.3705
2.05041
1.75572
1.49125
1.25844
1.05651
0.883341
0.736133
0.611848
0.507476
0.420196
0.347451
0.286979
0.236817
0.195276
0.160919
0.132535
0.109104
0.0897737
0.0738328
0.0606901
0.0498543
0.0409181
0.0335438
0.0274511
0.0224074
0.0182193
0.014726
0.0117941
0.00931099
0.00718055
0.00532238
0.00367477
0.00214139
0.000692833
-0.0261158
-0.0768887
-0.122835
-0.159744
-0.182286
-0.183782
-0.156788
-0.0941192
0.00987175
0.158291
0.351665
0.588807
0.86793
1.18731
1.54516
1.93866
2.36235
2.80604
3.25277
3.67752
4.0479
4.328
4.48579
4.50222
4.37776
4.13244
3.79921
3.41483
3.01243
2.61753
2.24718
1.91109
1.61332
1.35417
1.13162
0.942376
0.782677
0.648677
0.536732
0.443526
0.366126
0.301981
0.248907
0.205047
0.168836
0.138964
0.114333
0.094034
0.0773078
0.0635271
0.0521718
0.0428118
0.0350909
0.0287142
0.0234369
0.0190557
0.0154018
0.0123355
0.00973879
0.00751027
0.0055659
0.00384447
0.00223839
0.000721719
-0.0315306
-0.0933067
-0.150669
-0.199329
-0.233376
-0.244901
-0.224633
-0.163386
-0.0540002
0.107075
0.319779
0.581946
0.891154
1.24582
1.64511
2.0877
2.56965
3.08148
3.6051
4.11129
4.55958
4.90263
5.09633
5.11363
4.95509
4.64888
4.24017
3.77739
3.30196
2.84385
2.42153
2.04418
1.71446
1.43094
1.18997
0.986897
0.816804
0.674985
0.557136
0.45945
0.378629
0.311855
0.256745
0.2113
0.173846
0.142993
0.117584
0.0966642
0.0794408
0.06526
0.0535818
0.0439602
0.0360269
0.0294772
0.0240583
0.0195604
0.0158096
0.0126621
0.00999705
0.00770895
0.00571184
0.00394643
0.002295
0.00073703
-0.0372048
-0.110641
-0.180485
-0.24259
-0.290555
-0.315093
-0.304659
-0.247415
-0.134182
0.0390186
0.27101
0.558005
0.896571
1.28529
1.7247
2.21571
2.75687
3.34056
3.94851
4.54756
5.08788
5.50742
5.74546
5.7634
5.56185
5.18069
4.6819
4.12881
3.57246
3.04707
2.57166
2.15387
1.79411
1.48863
1.23179
1.01728
0.838993
0.691287
0.569199
0.468446
0.385394
0.316986
0.26067
0.214326
0.176198
0.144834
0.119035
0.0978135
0.0803563
0.0659925
0.0541702
0.0444345
0.0364105
0.0297882
0.024311
0.0197654
0.0159752
0.0127949
0.0101021
0.00778906
0.00576935
0.0039867
0.00231462
0.000739936
-0.04298
-0.128434
-0.211597
-0.288745
-0.353151
-0.394031
-0.397009
-0.346693
-0.231125
-0.0459305
0.205786
0.517688
0.884808
1.30592
1.78339
2.3212
2.92155
3.58014
4.27997
4.98466
5.63398
6.14721
6.44072
6.45904
6.20288
5.72909
5.12274
4.46603
3.82069
3.22455
2.69575
2.23917
1.85193
1.52738
1.25746
1.03411
0.849878
0.69822
0.573525
0.471069
0.386917
0.317808
0.261054
0.214445
0.176162
0.144713
0.118875
0.0976409
0.0801866
0.0658344
0.054028
0.0443098
0.0363034
0.0296981
0.0242364
0.0197047
0.015926
0.0127555
0.0100711
0.00776369
0.00574815
0.00397176
0.002301
0.000731826
-0.0486774
-0.146163
-0.243191
-0.336824
-0.420279
-0.481226
-0.501797
-0.461797
-0.345348
-0.147724
0.124816
0.462072
0.856881
1.30824
1.82088
2.40276
3.06106
3.79653
4.59548
5.41983
6.19834
6.82704
7.19074
7.20922
6.88325
6.29455
5.55992
4.78502
4.0429
3.37347
2.79212
2.29931
1.88787
1.54755
1.26763
1.03811
0.850224
0.696519
0.57079
0.467922
0.383724
0.314776
0.258288
0.211986
0.174016
0.142865
0.117299
0.096308
0.0790658
0.0648968
0.0532468
0.0436616
0.0357678
0.0292577
0.0238763
0.0194119
0.0156894
0.0125658
0.0099212
0.00764605
0.00565811
0.00390832
0.00225826
0.000714328
-0.0541046
-0.163253
-0.274346
-0.385682
-0.490835
-0.576013
-0.619128
-0.593475
-0.477519
-0.266241
0.0290986
0.392628
0.814201
1.29314
1.83717
2.45917
3.17269
3.98555
4.89005
5.84899
6.78045
7.55214
8.00565
8.02408
7.60822
6.87662
5.98943
5.08084
4.23488
3.49101
2.85927
2.33385
1.90213
1.54977
1.26311
1.03017
0.840896
0.686989
0.561716
0.459637
0.376363
0.308356
0.252764
0.20728
0.170037
0.13952
0.1145
0.0939742
0.0771259
0.0632884
0.0519165
0.0425639
0.0348645
0.0285169
0.0232714
0.0189202
0.0152919
0.0122472
0.00966933
0.00744905
0.00550903
0.00380322
0.00219082
0.000689307
-0.0590635
-0.179103
-0.30406
-0.434005
-0.563469
-0.677517
-0.749109
-0.742737
-0.628549
-0.401302
-0.0800547
0.311224
0.758569
1.26189
1.83261
2.48947
3.25377
4.14265
5.1577
6.26653
7.37848
8.32788
8.89751
8.91567
8.38321
7.47354
6.40574
5.34758
4.3921
3.57444
2.89601
2.34266
1.89527
1.53492
1.2449
1.01131
0.822837
0.670476
0.547047
0.446856
0.365378
0.29901
0.24487
0.20065
0.164494
0.134902
0.110662
0.0907923
0.074493
0.0611135
0.0501228
0.0410872
0.0336513
0.027523
0.0224601
0.018261
0.014759
0.0118199
0.00933146
0.00718502
0.00531046
0.00366329
0.00210332
0.000658787
-0.0633604
-0.193108
-0.331282
-0.480329
-0.636575
-0.784607
-0.891842
-0.910955
-0.799697
-0.552675
-0.200984
0.220133
0.692146
1.2161
1.8079
2.49306
3.30188
4.26308
5.39152
6.66513
7.98886
9.15957
9.88085
9.89856
9.21357
8.0818
6.80161
5.57841
4.50988
3.62133
2.90158
2.32604
1.86815
1.5041
1.21416
0.982597
0.797037
0.647849
0.527528
0.430212
0.351305
0.287183
0.234978
0.192406
0.157642
0.12922
0.10596
0.086906
0.0712855
0.0584693
0.0479458
0.0392972
0.0321821
0.0263201
0.0214785
0.0174634
0.0141141
0.0113027
0.00892257
0.00686556
0.00507146
0.0034953
0.00200043
0.000624797
-0.0668156
-0.204693
-0.354949
-0.52307
-0.708265
-0.89582
-1.04739
-1.1
-0.992707
-0.720052
-0.331627
0.122032
0.617409
1.15764
1.7641
2.46977
3.31496
4.3421
5.58377
7.03552
8.6057
10.0521
10.9734
10.9905
10.1043
8.69561
7.1679
5.76573
4.58364
3.62969
2.87575
2.28473
1.82193
1.45861
1.17216
0.945204
0.764506
0.619975
0.503893
0.410319
0.334652
0.273298
0.223436
0.182835
0.14972
0.122672
0.100554
0.082448
0.0676123
0.0554456
0.045459
0.0372543
0.0305065
0.0249486
0.0203596
0.0165543
0.0133789
0.010713
0.00845647
0.00650137
0.00480054
0.00330578
0.00188654
0.000589106
-0.0692733
-0.213338
-0.374038
-0.560563
-0.776361
-1.00927
-1.2157
-1.31239
-1.20997
-0.902994
-0.469448
0.0199816
0.537084
1.08866
1.70262
2.41994
3.29152
4.37529
5.7261
7.36633
9.22009
11.0096
12.197
12.2134
11.0595
9.30617
7.4934
5.90138
4.60909
3.59815
2.81886
2.21989
1.75808
1.39992
1.12023
0.900306
0.726251
0.587699
0.476843
0.387758
0.315899
0.25775
0.21057
0.172204
0.140945
0.115437
0.0945921
0.0775389
0.0635726
0.0521235
0.042729
0.0350131
0.028669
0.0234452
0.0191332
0.0155577
0.0125728
0.0100664
0.00794572
0.00610223
0.00450542
0.00310087
0.00176543
0.000552923
-0.0706111
-0.218613
-0.387613
-0.591119
-0.838395
-1.12252
-1.39651
-1.55148
-1.4547
-1.10081
-0.611338
-0.0826007
0.454048
1.01143
1.62515
2.34441
3.23076
4.35876
5.80991
7.64411
9.81928
12.0341
13.579
13.5944
12.0813
9.90084
7.76479
5.97694
4.58257
3.52613
2.73187
2.1331
1.67829
1.32962
1.05978
0.849082
0.683255
0.551829
0.447043
0.363071
0.295489
0.240901
0.196675
0.160753
0.131515
0.107675
0.088206
0.0722867
0.0592548
0.0485755
0.0398153
0.0326222
0.0267095
0.0218422
0.0178256
0.0144952
0.0117133
0.00937678
0.00740158
0.00567695
0.00419291
0.00288604
0.00163989
0.000516622
-0.0707471
-0.2202
-0.394882
-0.613095
-0.891634
-1.23248
-1.58909
-1.82174
-1.73124
-1.3124
-0.753507
-0.181997
0.371224
0.928269
1.53364
2.24456
3.13272
4.28955
5.82674
7.85341
10.3858
13.1247
15.1535
15.1679
13.1689
10.4622
7.96679
5.98415
4.50137
3.41392
2.61637
2.02631
1.58445
1.24937
0.992193
0.792685
0.636454
0.513127
0.415108
0.336756
0.273825
0.223076
0.182015
0.1487
0.121606
0.0995302
0.0815128
0.0667872
0.0547373
0.0448657
0.0367703
0.0301246
0.0246631
0.0201683
0.0164602
0.0133857
0.0108155
0.00865641
0.00683402
0.00523341
0.00386879
0.00266591
0.00151154
0.000479623
-0.0696448
-0.217917
-0.395246
-0.624979
-0.933135
-1.33523
-1.792
-2.12904
-2.04531
-1.5359
-0.89136
-0.274273
0.291452
0.841449
1.43017
2.1223
2.99837
4.16587
5.76887
7.97713
10.8963
14.275
16.9638
16.9771
14.3159
10.9672
8.08245
5.9155
4.36397
3.26279
2.47457
1.90179
1.47858
1.16085
0.91885
0.732214
0.586729
0.472293
0.381597
0.309262
0.251268
0.204567
0.166826
0.136233
0.111373
0.0911287
0.074615
0.0611241
0.0500882
0.0410499
0.0336396
0.0275575
0.0225602
0.0184485
0.0150573
0.0122456
0.00989294
0.00791596
0.00625171
0.0047786
0.0035377
0.00244401
0.00138085
0.000440529
-0.0673159
-0.211729
-0.388343
-0.62549
-0.959844
-1.4259
-2.0026
-2.48106
-2.40451
-1.7683
-1.01938
-0.355406
0.21735
0.75308
1.31695
1.97996
2.82961
3.9874
5.62986
7.99718
11.321
15.4705
19.0649
19.0771
15.508
11.3859
8.09385
5.76479
4.17034
3.07501
2.30918
1.76204
1.36276
1.06574
0.841065
0.668702
0.534887
0.429965
0.347016
0.28099
0.228136
0.18563
0.151313
0.123519
0.100949
0.0825793
0.0676013
0.0553695
0.0453665
0.0371762
0.0304624
0.024953
0.0204271
0.0167041
0.0136343
0.0110892
0.00895701
0.00716465
0.00566205
0.00431861
0.00320318
0.00222262
0.00124757
0.000397573
-0.0638184
-0.20175
-0.374084
-0.613679
-0.968744
-1.4986
-2.21642
-2.88787
-2.81875
-2.00478
-1.13106
-0.421452
0.151176
0.665025
1.19614
1.82026
2.62928
3.75548
5.4053
7.89545
11.6227
16.684
21.5272
21.5382
16.7179
11.6815
7.98302
5.5278
3.92209
2.8538
2.12339
1.60972
1.23909
0.965638
0.760071
0.603097
0.481663
0.386711
0.311808
0.252289
0.20471
0.166487
0.135655
0.110702
0.09045
0.0739753
0.0605475
0.0495849
0.0406223
0.0332854
0.0272722
0.0223384
0.018286
0.0149532
0.0122059
0.00992835
0.00801753
0.00641031
0.00507121
0.00385871
0.0028678
0.00200288
0.00111138
0.000349349
-0.0592534
-0.188237
-0.352669
-0.589027
-0.957056
-1.54637
-2.42625
-3.36251
-3.301
-2.23783
-1.21888
-0.468766
0.0946969
0.578831
1.06988
1.64617
2.40105
3.47317
5.09343
7.65516
11.7571
17.8698
24.4405
24.4504
17.8999
11.8094
7.73332
5.20297
3.62258
2.6032
1.92067
1.44754
1.10959
0.862075
0.677005
0.536253
0.427706
0.343033
0.276363
0.223464
0.181226
0.147327
0.120003
0.0979022
0.079974
0.0653957
0.0535173
0.0438224
0.0358978
0.0294118
0.0240968
0.0197365
0.0161555
0.013211
0.0107845
0.00877315
0.00708276
0.00565961
0.00448417
0.00340333
0.00253341
0.00178491
0.000972678
0.000295632
-0.0537572
-0.171575
-0.324581
-0.551528
-0.922491
-1.56131
-2.62094
-3.92188
-3.86805
-2.456
-1.27442
-0.494273
0.0490796
0.495679
0.94013
1.46082
2.14928
3.14526
4.69566
7.26257
11.673
18.9553
27.9202
27.9289
18.9816
11.7189
7.33113
4.79192
3.27687
2.32796
1.70468
1.27815
0.976195
0.756441
0.592888
0.468931
0.373586
0.299363
0.241013
0.194773
0.157889
0.12831
0.104483
0.0852213
0.0696023
0.056906
0.0465639
0.0381248
0.031228
0.025584
0.0209596
0.0171661
0.0140511
0.0114903
0.00938042
0.00763189
0.00615954
0.00491813
0.00390481
0.00295608
0.00220147
0.0015682
0.000833277
0.000238046
-0.0474929
-0.152245
-0.290566
-0.501746
-0.863548
-1.53489
-2.78379
-4.58777
-4.54162
-2.64234
-1.28872
-0.495767
0.0148152
0.416377
0.808688
1.26737
1.87878
2.77811
4.21703
6.70892
11.315
19.8306
32.1138
32.1212
19.8533
11.3544
6.76783
4.29984
2.89156
2.03327
1.47912
1.10414
0.840692
0.649997
0.508624
0.401788
0.319792
0.256069
0.206039
0.166433
0.134867
0.109569
0.0892017
0.0727431
0.0594019
0.0485602
0.0397308
0.0325274
0.0266414
0.0218251
0.0178793
0.0146428
0.0119854
0.00980114
0.00800195
0.0065113
0.00525347
0.00419055
0.00333604
0.00251967
0.00187347
0.00135211
0.000696582
0.00018022
-0.0406391
-0.130797
-0.251588
-0.440832
-0.779822
-1.45855
-2.89044
-5.38811
-5.34957
-2.77228
-1.25283
-0.472228
-0.0083093
0.341363
0.67713
1.06887
1.59467
2.37931
3.66625
5.99259
10.6271
20.3347
37.2095
37.2157
20.3536
10.6599
6.04187
3.7356
2.47448
1.72459
1.24759
0.927874
0.704686
0.543848
0.424993
0.335386
0.266736
0.213458
0.171673
0.138623
0.112298
0.091212
0.074243
0.0605351
0.0494268
0.0404016
0.033053
0.0270585
0.0221608
0.0181538
0.0148712
0.0121788
0.00996841
0.0081518
0.00665578
0.00541678
0.00436897
0.00348075
0.00277999
0.00209596
0.00155123
0.00113631
0.00056702
0.000127202
-0.0333793
-0.107815
-0.208764
-0.370483
-0.672295
-1.32465
-2.90626
-6.3585
-6.32743
-2.81101
-1.15876
-0.424113
-0.0211839
0.270757
0.546804
0.868218
1.30206
1.95735
3.05553
5.12099
9.55904
20.2373
43.4462
43.4512
20.2526
9.58555
5.16076
3.11154
2.03432
1.40734
1.01347
0.751517
0.569589
0.43895
0.342656
0.270195
0.214759
0.171782
0.138105
0.111485
0.0902931
0.0733253
0.0596751
0.0486511
0.0397197
0.0324644
0.0265578
0.0217401
0.0178043
0.0145845
0.011947
0.00978377
0.00800791
0.00654866
0.00534715
0.00435252
0.00350951
0.00279185
0.00223815
0.00168592
0.00123712
0.000921154
0.000448623
8.40214e-05
-0.0258909
-0.0838821
-0.163301
-0.292864
-0.543559
-1.12789
-2.78308
-7.54396
-7.52021
-2.71023
-1.00096
-0.353576
-0.0252884
0.204416
0.418825
0.668032
1.00589
1.5211
2.40001
4.11211
8.0764
19.2178
51.1258
51.1296
19.2295
8.09669
4.14256
2.44293
1.58013
1.08675
0.779845
0.576959
0.43661
0.336101
0.262159
0.206597
0.164135
0.131242
0.105484
0.0851328
0.0689383
0.0559757
0.0455502
0.0371323
0.0303133
0.0247747
0.0202662
0.0165892
0.0135855
0.0111283
0.00911561
0.00746493
0.00610989
0.00499658
0.00408005
0.00332172
0.00267764
0.00212636
0.00171167
0.00128973
0.000934024
0.000707775
0.000343029
5.36882e-05
-0.0183371
-0.0595524
-0.116413
-0.210456
-0.3979
-0.867343
-2.45533
-9.00106
-8.98439
-2.40422
-0.778279
-0.26455
-0.0225475
0.142012
0.294091
0.47061
0.710674
1.07935
1.71684
2.9951
6.1734
16.839
60.6266
60.6292
16.8472
6.18764
3.01647
1.74698
1.12084
0.767563
0.549403
0.405809
0.306755
0.235955
0.183941
0.144895
0.115077
0.0919933
0.0739237
0.0596525
0.0482992
0.0392136
0.0319075
0.0260092
0.0212317
0.0173518
0.0141936
0.011618
0.00951421
0.00779327
0.00638366
0.0052276
0.00427864
0.00349906
0.00285735
0.00232672
0.00187516
0.00148613
0.00120146
0.000906921
0.000645058
0.000497929
0.000247616
3.5269e-05
-0.0108603
-0.0353291
-0.0692569
-0.125881
-0.241181
-0.549031
-1.83541
-10.8001
-10.7903
-1.80531
-0.49657
-0.162618
-0.015138
0.0831091
0.173303
0.277895
0.420422
0.640301
1.02393
1.80949
3.89076
12.5165
72.4189
72.4205
12.5213
3.89915
1.82208
1.04169
0.664766
0.453988
0.324431
0.23939
0.180832
0.139028
0.108342
0.0853213
0.0677497
0.0541509
0.0435092
0.0351062
0.0284225
0.0230745
0.0187745
0.0153033
0.0124919
0.0102088
0.00835056
0.00683516
0.00559736
0.00458485
0.00375553
0.00307538
0.00251709
0.0020585
0.00168105
0.00136913
0.00110325
0.000872416
0.000708366
0.000536567
0.000373074
0.000293626
0.000154963
2.31488e-05
-0.00358021
-0.0116526
-0.0228734
-0.0416847
-0.0804313
-0.18932
-0.808517
-13.0279
-13.0246
-0.798621
-0.172074
-0.0546016
-0.00526893
0.027238
0.0569843
0.0914634
0.138492
0.2112
0.338608
0.602478
1.33798
5.48427
87.082
87.0825
5.48585
1.34074
0.606616
0.344448
0.219246
0.149535
0.106781
0.0787537
0.0594704
0.0457118
0.0356166
0.0280452
0.0222673
0.0177965
0.0142983
0.0115364
0.0093397
0.00758212
0.00616903
0.00502834
0.00410453
0.00335433
0.00274372
0.00224579
0.00183908
0.0015064
0.00123391
0.00101044
0.000827
0.000676342
0.000552349
0.000449959
0.000362556
0.000285911
0.000233276
0.000177608
0.00011995
9.68047e-05
5.52448e-05
8.89761e-06
)
;

boundaryField
{
    left
    {
        type            calculated;
        value           uniform 0;
    }
    right
    {
        type            calculated;
        value           uniform 0;
    }
    interface
    {
        type            calculated;
        value           nonuniform List<scalar> 
64
(
-0.00358021
-0.0116526
-0.0228734
-0.0416847
-0.0804313
-0.18932
-0.808517
-13.0279
-13.0246
-0.798621
-0.172074
-0.0546016
-0.00526893
0.027238
0.0569843
0.0914634
0.138492
0.2112
0.338608
0.602478
1.33798
5.48427
87.082
87.0825
5.48585
1.34074
0.606616
0.344448
0.219246
0.149535
0.106781
0.0787537
0.0594704
0.0457118
0.0356166
0.0280452
0.0222673
0.0177965
0.0142983
0.0115364
0.0093397
0.00758212
0.00616903
0.00502834
0.00410453
0.00335433
0.00274372
0.00224579
0.00183908
0.0015064
0.00123391
0.00101044
0.000827
0.000676342
0.000552349
0.000449959
0.000362556
0.000285911
0.000233276
0.000177608
0.00011995
9.68047e-05
5.52448e-05
8.89761e-06
)
;
    }
    bottom
    {
        type            calculated;
        value           nonuniform List<scalar> 
64
(
-0.00073474
-0.00205182
-0.00289906
-0.00295914
-0.00191315
0.000563183
0.00477134
0.0109781
0.0193973
0.0301723
0.0433637
0.0589421
0.076781
0.0966475
0.118187
0.140906
0.164153
0.187117
0.20884
0.228271
0.244348
0.256116
0.26285
0.264169
0.260091
0.25104
0.237771
0.22126
0.202575
0.18275
0.162699
0.14316
0.124681
0.107621
0.0921832
0.0784402
0.0663717
0.0558928
0.0468791
0.0391859
0.0326621
0.0271595
0.0225388
0.0186728
0.015448
0.0127648
0.0105366
0.00868925
0.00715958
0.00589409
0.00484776
0.00398278
0.00326752
0.00267555
0.00218482
0.0017769
0.00143639
0.00115041
0.000908097
0.000700266
0.000518987
0.000357305
0.000209072
6.87984e-05
)
;
    }
    defaultFaces
    {
        type            empty;
    }
}


// ************************************************************************* //
