/*--------------------------------*- C++ -*----------------------------------*\
| =========                 |                                                 |
| \\      /  F ield         | OpenFOAM: The Open Source CFD Toolbox           |
|  \\    /   O peration     | Version:  5.x                                   |
|   \\  /    A nd           | Web:      www.OpenFOAM.org                      |
|    \\/     M anipulation  |                                                 |
\*---------------------------------------------------------------------------*/
FoamFile
{
    version     2.0;
    format      ascii;
    class       volScalarField;
    location    "1.5";
    object      gradTy;
}
// * * * * * * * * * * * * * * * * * * * * * * * * * * * * * * * * * * * * * //

dimensions      [0 -1 0 1 0 0 0];

internalField   nonuniform List<scalar> 
2048
(
-16.1203
-16.1236
-16.1297
-16.137
-16.1435
-16.1466
-16.1427
-16.1277
-16.097
-16.0455
-15.9679
-15.859
-15.7136
-15.5269
-15.2948
-15.0139
-14.6823
-14.2996
-13.8673
-13.3891
-12.8713
-12.3223
-11.7526
-11.1739
-10.5985
-10.038
-9.50267
-9.00077
-8.53823
-8.11856
-7.74309
-7.41132
-7.12135
-6.87029
-6.65471
-6.47087
-6.31505
-6.18363
-6.07327
-5.98093
-5.90389
-5.83979
-5.78657
-5.74245
-5.70593
-5.67575
-5.65083
-5.63027
-5.61332
-5.59937
-5.58789
-5.57845
-5.5707
-5.56435
-5.55915
-5.55492
-5.55149
-5.54872
-5.54652
-5.5448
-5.5435
-5.54256
-5.54196
-5.54166
-16.1171
-16.1209
-16.128
-16.137
-16.1458
-16.1517
-16.1511
-16.1399
-16.1132
-16.066
-15.9927
-15.888
-15.7465
-15.5631
-15.3336
-15.0543
-14.7231
-14.3391
-13.9037
-13.4205
-12.8958
-12.3383
-11.7591
-11.1706
-10.5857
-10.0169
-9.47485
-8.96815
-8.50275
-8.08199
-7.70692
-7.37668
-7.08902
-6.84075
-6.62816
-6.44735
-6.29443
-6.16572
-6.05782
-5.96766
-5.89255
-5.83011
-5.77831
-5.73541
-5.69992
-5.67061
-5.64641
-5.62646
-5.61001
-5.59648
-5.58534
-5.57619
-5.56868
-5.56252
-5.55749
-5.55338
-5.55006
-5.54738
-5.54524
-5.54358
-5.54232
-5.54141
-5.54082
-5.54053
-16.1105
-16.1154
-16.1246
-16.1367
-16.1498
-16.161
-16.1667
-16.1626
-16.1438
-16.1048
-16.0398
-15.943
-15.8089
-15.6321
-15.4077
-15.1318
-14.8014
-14.4152
-13.9741
-13.4813
-12.9433
-12.3695
-11.7717
-11.164
-10.5607
-9.97573
-9.4208
-8.905
-8.4343
-8.0117
-7.63764
-7.31055
-7.02749
-6.78468
-6.57791
-6.40292
-6.25557
-6.13202
-6.02878
-5.94277
-5.87127
-5.81197
-5.76286
-5.72223
-5.68868
-5.66098
-5.63814
-5.61932
-5.60382
-5.59107
-5.58058
-5.57196
-5.56489
-5.55909
-5.55436
-5.5505
-5.54736
-5.54484
-5.54284
-5.54127
-5.54008
-5.53923
-5.53867
-5.53841
-16.1004
-16.1067
-16.1188
-16.1353
-16.1544
-16.1731
-16.1879
-16.1942
-16.1866
-16.1593
-16.1062
-16.021
-15.8977
-15.7304
-15.5138
-15.2429
-14.9142
-14.5254
-14.0765
-13.5702
-13.013
-12.4151
-11.7901
-11.1539
-10.5236
-9.91496
-9.34143
-8.81277
-8.33492
-7.91024
-7.53819
-7.21613
-6.94009
-6.70538
-6.50713
-6.34055
-6.20118
-6.08496
-5.98832
-5.90814
-5.84173
-5.7868
-5.74143
-5.70398
-5.6731
-5.64765
-5.62668
-5.60943
-5.59523
-5.58356
-5.57396
-5.56608
-5.55962
-5.55432
-5.54999
-5.54647
-5.54361
-5.5413
-5.53947
-5.53804
-5.53695
-5.53617
-5.53566
-5.53542
-16.0863
-16.0944
-16.11
-16.132
-16.1585
-16.1869
-16.2132
-16.2327
-16.2395
-16.2274
-16.1896
-16.1193
-16.01
-15.8553
-15.6489
-15.3854
-15.0597
-14.6683
-14.21
-13.6868
-13.1049
-12.4754
-11.814
-11.1401
-10.4738
-9.83412
-9.2366
-8.69188
-8.20567
-7.77931
-7.41084
-7.09608
-6.82968
-6.60581
-6.41871
-6.263
-6.13381
-6.02687
-5.93852
-5.86561
-5.8055
-5.75598
-5.71522
-5.68166
-5.65406
-5.63135
-5.61268
-5.59734
-5.58472
-5.57436
-5.56585
-5.55886
-5.55314
-5.54845
-5.54461
-5.54149
-5.53896
-5.53692
-5.5353
-5.53403
-5.53307
-5.53238
-5.53193
-5.53172
-16.0678
-16.0779
-16.0975
-16.1258
-16.1612
-16.2008
-16.241
-16.2764
-16.3007
-16.307
-16.2877
-16.2355
-16.1433
-16.004
-15.8109
-15.5571
-15.2363
-14.8432
-14.3748
-13.8317
-13.2196
-12.5508
-11.8438
-11.1219
-10.4102
-9.73198
-9.10534
-8.54195
-8.04694
-7.62008
-7.2574
-6.95271
-6.69887
-6.48869
-6.31536
-6.17284
-6.05586
-5.95993
-5.8813
-5.81688
-5.76408
-5.7208
-5.68533
-5.65623
-5.63237
-5.61279
-5.59673
-5.58354
-5.57273
-5.56385
-5.55656
-5.55059
-5.5457
-5.54169
-5.53842
-5.53575
-5.53359
-5.53185
-5.53047
-5.52938
-5.52856
-5.52797
-5.52759
-5.52741
-16.0445
-16.0566
-16.0806
-16.1159
-16.161
-16.2136
-16.2697
-16.3237
-16.3685
-16.3962
-16.3986
-16.3674
-16.2952
-16.1744
-15.9974
-15.7562
-15.4429
-15.0498
-14.5714
-14.0061
-13.3589
-12.6427
-11.8796
-11.0986
-10.3314
-9.60661
-8.94596
-8.36197
-7.85863
-7.43338
-7.07947
-6.78815
-6.55014
-6.3566
-6.19965
-6.07253
-5.96958
-5.88615
-5.81848
-5.76352
-5.71883
-5.68244
-5.65277
-5.62855
-5.60877
-5.59259
-5.57935
-5.56852
-5.55964
-5.55236
-5.54641
-5.54152
-5.53753
-5.53426
-5.53159
-5.52941
-5.52765
-5.52623
-5.5251
-5.52422
-5.52355
-5.52307
-5.52275
-5.52261
-16.0161
-16.0303
-16.0588
-16.1013
-16.157
-16.2238
-16.2979
-16.373
-16.4413
-16.4936
-16.5204
-16.5131
-16.4637
-16.3642
-16.2064
-15.9813
-15.6786
-15.2881
-14.8009
-14.2121
-13.5248
-12.7527
-11.9221
-11.0694
-10.235
-9.45537
-8.75612
-8.15048
-7.64038
-7.21987
-6.87857
-6.6045
-6.38586
-6.21204
-6.07402
-5.96435
-5.87707
-5.80743
-5.7517
-5.70699
-5.671
-5.64195
-5.61845
-5.5994
-5.58391
-5.57131
-5.56104
-5.55266
-5.54581
-5.54021
-5.53563
-5.53189
-5.52882
-5.52632
-5.52428
-5.52261
-5.52126
-5.52018
-5.51932
-5.51864
-5.51813
-5.51776
-5.51752
-5.51741
-15.9823
-15.9985
-16.0314
-16.0812
-16.148
-16.2302
-16.324
-16.423
-16.5177
-16.5975
-16.6517
-16.6708
-16.6466
-16.5711
-16.4358
-16.2304
-15.9425
-15.5584
-15.0648
-14.4523
-13.7205
-12.8833
-11.972
-11.0329
-10.1185
-9.27488
-8.5329
-7.90565
-7.39169
-6.98025
-6.65627
-6.40388
-6.20844
-6.05748
-5.94083
-5.8505
-5.78029
-5.72548
-5.68247
-5.64855
-5.62168
-5.60028
-5.58317
-5.56944
-5.55837
-5.54944
-5.54219
-5.53632
-5.53154
-5.52764
-5.52447
-5.52188
-5.51976
-5.51804
-5.51663
-5.51548
-5.51455
-5.51381
-5.51321
-5.51275
-5.51239
-5.51214
-5.51197
-5.51191
-15.9431
-15.9612
-15.998
-16.055
-16.1329
-16.2313
-16.3468
-16.4722
-16.5966
-16.7071
-16.7912
-16.8389
-16.8419
-16.7929
-16.6833
-16.5017
-16.2335
-15.8608
-15.3648
-14.7296
-13.9497
-13.0377
-12.0306
-10.9877
-9.97812
-9.06098
-8.2728
-7.62543
-7.11206
-6.71536
-6.41433
-6.18856
-6.02034
-5.89532
-5.80236
-5.73302
-5.68105
-5.64187
-5.61212
-5.58937
-5.57184
-5.55824
-5.54761
-5.53925
-5.53264
-5.52738
-5.52317
-5.5198
-5.51708
-5.51488
-5.51311
-5.51166
-5.51049
-5.50954
-5.50876
-5.50813
-5.50762
-5.50721
-5.50688
-5.50662
-5.50643
-5.50629
-5.5062
-5.50617
-15.8988
-15.9182
-15.9585
-16.0219
-16.1107
-16.2258
-16.3647
-16.5194
-16.677
-16.8213
-16.9378
-17.0158
-17.0477
-17.0272
-16.9462
-16.7929
-16.55
-16.1952
-15.7027
-15.048
-14.2173
-13.2201
-12.0994
-10.932
-9.80953
-8.80859
-7.97182
-7.30767
-6.80121
-6.42632
-6.15474
-5.96095
-5.82406
-5.72798
-5.66077
-5.61382
-5.58099
-5.558
-5.54184
-5.53042
-5.52232
-5.51653
-5.51236
-5.50933
-5.50712
-5.50548
-5.50427
-5.50335
-5.50266
-5.50212
-5.50171
-5.50139
-5.50114
-5.50094
-5.50078
-5.50065
-5.50055
-5.50046
-5.50039
-5.50034
-5.5003
-5.50028
-5.50026
-5.50027
-15.8495
-15.8699
-15.9127
-15.9815
-16.0804
-16.2124
-16.3762
-16.5635
-16.7581
-16.9397
-17.0909
-17.2003
-17.2621
-17.2716
-17.222
-17.1014
-16.8903
-16.5614
-16.0803
-15.4114
-14.5291
-13.4358
-12.1806
-10.8632
-9.60711
-8.51165
-7.62548
-6.95028
-6.45918
-6.11465
-5.87983
-5.72366
-5.62216
-5.55778
-5.51813
-5.49466
-5.4816
-5.4751
-5.47264
-5.47255
-5.4738
-5.47571
-5.47788
-5.48007
-5.48215
-5.48404
-5.48572
-5.48718
-5.48844
-5.48951
-5.49042
-5.49118
-5.49182
-5.49234
-5.49277
-5.49313
-5.49341
-5.49364
-5.49382
-5.49397
-5.49408
-5.49417
-5.49422
-5.49427
-15.796
-15.8167
-15.8607
-15.9333
-16.041
-16.1895
-16.3798
-16.6032
-16.8394
-17.0621
-17.2499
-17.3914
-17.483
-17.5233
-17.5075
-17.4241
-17.252
-16.9582
-16.4991
-15.8245
-14.8919
-13.6916
-12.2772
-10.7784
-9.36384
-8.16295
-7.22898
-6.5514
-6.08652
-5.78236
-5.59226
-5.47948
-5.41725
-5.38702
-5.37635
-5.37713
-5.38417
-5.39424
-5.40538
-5.41646
-5.42685
-5.43626
-5.44457
-5.45179
-5.45799
-5.46326
-5.46771
-5.47145
-5.47457
-5.47718
-5.47934
-5.48113
-5.4826
-5.48382
-5.48481
-5.48562
-5.48628
-5.48681
-5.48723
-5.48756
-5.48782
-5.48801
-5.48813
-5.48821
-15.7387
-15.7589
-15.8027
-15.8772
-15.9917
-16.1558
-16.3737
-16.6373
-16.9209
-17.1889
-17.4148
-17.5879
-17.7087
-17.7797
-17.7995
-17.7578
-17.632
-17.3843
-16.9603
-16.2921
-15.3141
-13.9962
-12.3929
-10.6734
-9.07084
-7.75407
-6.77726
-6.10967
-5.68445
-5.43205
-5.29508
-5.23134
-5.21191
-5.21786
-5.23721
-5.26264
-5.28982
-5.31629
-5.34077
-5.36271
-5.38194
-5.39854
-5.41273
-5.42474
-5.43486
-5.44333
-5.4504
-5.45628
-5.46116
-5.46521
-5.46855
-5.4713
-5.47357
-5.47543
-5.47695
-5.47819
-5.4792
-5.48001
-5.48066
-5.48116
-5.48155
-5.48184
-5.48203
-5.48214
-15.6786
-15.6974
-15.7392
-15.813
-15.9316
-16.1095
-16.3561
-16.6647
-17.0026
-17.3208
-17.5859
-17.7893
-17.9372
-18.038
-18.0945
-18.0985
-18.0268
-17.8372
-17.4641
-16.8189
-15.8051
-14.3607
-12.5333
-10.5428
-8.71691
-7.27531
-6.26532
-5.62443
-5.25502
-5.06692
-4.99164
-4.98227
-5.00867
-5.05231
-5.10228
-5.15242
-5.19949
-5.24197
-5.27937
-5.31172
-5.33939
-5.36283
-5.38256
-5.39909
-5.41289
-5.42436
-5.43388
-5.44177
-5.44829
-5.45367
-5.45811
-5.46177
-5.46477
-5.46723
-5.46925
-5.47089
-5.47222
-5.47329
-5.47414
-5.47481
-5.47533
-5.4757
-5.47596
-5.47609
-15.6164
-15.6329
-15.6708
-15.741
-15.86
-16.0488
-16.3245
-16.6838
-17.0853
-17.4594
-17.764
-17.9949
-18.1667
-18.2955
-18.389
-18.4421
-18.4322
-18.3136
-18.01
-17.4094
-16.3758
-14.7991
-12.7058
-10.3789
-8.28787
-6.71562
-5.68851
-5.09605
-4.80124
-4.69078
-4.68558
-4.73534
-4.80994
-4.89222
-4.97293
-5.04747
-5.11393
-5.17185
-5.22158
-5.26383
-5.29945
-5.3293
-5.35423
-5.37497
-5.39218
-5.40644
-5.41823
-5.42797
-5.436
-5.44263
-5.44808
-5.45256
-5.45624
-5.45926
-5.46172
-5.46373
-5.46536
-5.46667
-5.46772
-5.46853
-5.46917
-5.46962
-5.46993
-5.47008
-15.5533
-15.5664
-15.5982
-15.6613
-15.7764
-15.972
-16.2761
-16.693
-17.1701
-17.6066
-17.95
-18.2041
-18.3954
-18.5492
-18.6793
-18.7842
-18.8433
-18.8091
-18.596
-18.0675
-17.0384
-15.3293
-12.9206
-10.1714
-7.76586
-6.0628
-5.04293
-4.52624
-4.32718
-4.30802
-4.38071
-4.49354
-4.61797
-4.73921
-4.85032
-4.94862
-5.03371
-5.10633
-5.16771
-5.21923
-5.26226
-5.29808
-5.32781
-5.35243
-5.37279
-5.38961
-5.40348
-5.41492
-5.42434
-5.43209
-5.43846
-5.4437
-5.448
-5.45152
-5.4544
-5.45675
-5.45865
-5.46018
-5.4614
-5.46235
-5.4631
-5.46361
-5.46398
-5.46414
-15.4903
-15.499
-15.5225
-15.5747
-15.6804
-15.8771
-16.2076
-16.6897
-17.2591
-17.7656
-18.1454
-18.4164
-18.6214
-18.7965
-18.9619
-19.1205
-19.2548
-19.3182
-19.2186
-18.7953
-17.8059
-15.9736
-13.1928
-9.90532
-7.12836
-5.30377
-4.32607
-3.91834
-3.83797
-3.92352
-4.08094
-4.25973
-4.43475
-4.59464
-4.73536
-4.85646
-4.95924
-5.04568
-5.11792
-5.17804
-5.22792
-5.26921
-5.30334
-5.33151
-5.35474
-5.37388
-5.38964
-5.40262
-5.4133
-5.42207
-5.42929
-5.43521
-5.44007
-5.44405
-5.4473
-5.44994
-5.45209
-5.45382
-5.4552
-5.45628
-5.45712
-5.45769
-5.45809
-5.45826
-15.4283
-15.4318
-15.4447
-15.4821
-15.572
-15.762
-16.1148
-16.6708
-17.3553
-17.9403
-18.3518
-18.6312
-18.8428
-19.0346
-19.2332
-19.4464
-19.6611
-19.8346
-19.8725
-19.5935
-18.6916
-16.7601
-13.5437
-9.55914
-6.34732
-4.42515
-3.53743
-3.27758
-3.33983
-3.54253
-3.79011
-4.03657
-4.26202
-4.45962
-4.62874
-4.77142
-4.89077
-4.99003
-5.07229
-5.1403
-5.19642
-5.24269
-5.28081
-5.31219
-5.33801
-5.35925
-5.37672
-5.39108
-5.40288
-5.41258
-5.42054
-5.42708
-5.43243
-5.43682
-5.44041
-5.44333
-5.44569
-5.4476
-5.44912
-5.45031
-5.45124
-5.45186
-5.4523
-5.45248
-15.3683
-15.3657
-15.3663
-15.3847
-15.4518
-15.625
-15.9924
-16.6315
-17.4634
-18.1358
-18.5707
-18.8478
-19.0578
-19.2611
-19.4903
-19.7577
-20.0565
-20.3509
-20.5502
-20.4595
-19.7081
-17.7234
-14.0052
-9.10121
-5.38822
-3.41429
-2.67935
-2.61127
-2.83991
-3.17045
-3.51189
-3.82637
-4.10121
-4.33499
-4.53093
-4.69375
-4.8284
-4.93942
-5.03081
-5.10597
-5.16774
-5.21849
-5.26018
-5.29444
-5.32257
-5.34569
-5.36467
-5.38026
-5.39307
-5.40359
-5.41222
-5.4193
-5.4251
-5.42986
-5.43374
-5.4369
-5.43946
-5.44153
-5.44318
-5.44445
-5.44546
-5.44612
-5.44659
-5.44678
-15.3112
-15.302
-15.2884
-15.2841
-15.3207
-15.4647
-15.8344
-16.5649
-17.5907
-18.3583
-18.8038
-19.0649
-19.2643
-19.4738
-19.7304
-20.0507
-20.4353
-20.859
-21.2422
-21.3875
-20.866
-18.9052
-14.624
-8.48463
-4.20939
-2.26062
-1.75774
-1.92888
-2.34608
-2.81267
-3.24964
-3.6311
-3.9534
-4.22132
-4.4422
-4.62354
-4.77214
-4.89381
-4.99341
-5.07497
-5.14178
-5.19653
-5.2414
-5.2782
-5.30839
-5.33316
-5.35348
-5.37016
-5.38386
-5.39509
-5.40431
-5.41187
-5.41807
-5.42314
-5.42728
-5.43066
-5.43339
-5.4356
-5.43736
-5.43872
-5.43979
-5.44049
-5.44097
-5.44119
-15.2577
-15.2414
-15.2125
-15.1821
-15.1803
-15.2801
-15.6336
-16.4607
-17.7476
-18.6153
-19.052
-19.281
-19.4604
-19.6707
-19.9511
-20.3221
-20.7922
-21.3506
-21.937
-22.3671
-22.1717
-20.3542
-15.4703
-7.63942
-2.76199
-0.957734
-0.782928
-1.24189
-1.86664
-2.47432
-3.00626
-3.45233
-3.81938
-4.11893
-4.36263
-4.56075
-4.72188
-4.85306
-4.95997
-5.04721
-5.11846
-5.17672
-5.22439
-5.26342
-5.29541
-5.32162
-5.34312
-5.36075
-5.37521
-5.38708
-5.39681
-5.40479
-5.41133
-5.41668
-5.42105
-5.42461
-5.4275
-5.42983
-5.43168
-5.43311
-5.43424
-5.43497
-5.43547
-5.43572
-15.2086
-15.1851
-15.14
-15.0809
-15.0331
-15.0714
-15.3819
-16.3033
-17.95
-18.9152
-19.3155
-19.4939
-19.6439
-19.85
-20.1506
-20.569
-21.1224
-21.8173
-22.6214
-23.3832
-23.6251
-22.1256
-16.6487
-6.46104
-0.991114
0.494108
0.229827
-0.563534
-1.40996
-2.16006
-2.78416
-3.29117
-3.69957
-4.02791
-4.29215
-4.50522
-4.67746
-4.81701
-4.93033
-5.02253
-5.09766
-5.15897
-5.20907
-5.25004
-5.28357
-5.31104
-5.33355
-5.352
-5.36713
-5.37954
-5.38972
-5.39806
-5.40489
-5.41048
-5.41505
-5.41877
-5.42178
-5.42422
-5.42616
-5.42764
-5.42882
-5.42959
-5.4301
-5.43039
-15.1642
-15.1336
-15.0722
-14.9826
-14.8823
-14.8403
-15.0708
-16.0697
-18.2216
-19.2669
-19.593
-19.7008
-19.813
-20.0106
-20.3279
-20.7895
-21.4219
-22.2511
-23.281
-24.4153
-25.2163
-24.2772
-18.3151
-4.79369
1.16107
2.08489
1.26003
0.0917688
-0.984051
-1.87386
-2.58511
-3.14829
-3.5941
-3.94815
-4.23053
-4.45672
-4.63864
-4.78546
-4.90431
-5.00078
-5.07924
-5.14317
-5.19535
-5.23798
-5.27284
-5.30138
-5.32475
-5.34391
-5.3596
-5.37248
-5.38303
-5.39167
-5.39876
-5.40455
-5.40929
-5.41314
-5.41627
-5.41879
-5.42081
-5.42234
-5.42355
-5.42437
-5.42488
-5.42521
-15.125
-15.0875
-15.0103
-14.8896
-14.7318
-14.5904
-14.6924
-15.7254
-18.5971
-19.679
-19.8815
-19.8982
-19.9656
-20.1515
-20.4821
-20.9823
-21.6875
-22.6448
-23.9011
-25.4381
-26.9222
-26.8637
-20.7002
-2.40664
3.74909
3.79149
2.28219
0.709122
-0.596124
-1.61884
-2.41027
-3.02393
-3.50284
-3.87935
-4.17744
-4.41492
-4.60512
-4.75814
-4.8817
-4.98179
-5.06307
-5.12922
-5.18315
-5.22717
-5.26315
-5.29259
-5.31669
-5.33643
-5.35261
-5.36587
-5.37674
-5.38564
-5.39293
-5.3989
-5.40378
-5.40775
-5.41097
-5.41357
-5.41564
-5.41722
-5.41845
-5.41932
-5.41983
-5.4202
-15.091
-15.0473
-14.9552
-14.8041
-14.5862
-14.3278
-14.2407
-15.22
-19.1275
-20.1577
-20.1754
-20.0821
-20.1002
-20.2722
-20.6131
-21.147
-21.9172
-22.9927
-24.4672
-26.422
-28.7034
-29.9256
-24.1428
1.03868
6.81338
5.57443
3.26662
1.27406
-0.252203
-1.39715
-2.26013
-2.91794
-3.42537
-3.82105
-4.13246
-4.37945
-4.57659
-4.73479
-4.86227
-4.96537
-5.049
-5.11698
-5.17236
-5.21754
-5.25445
-5.28463
-5.30933
-5.32956
-5.34613
-5.35971
-5.37084
-5.37995
-5.38742
-5.39353
-5.39852
-5.40259
-5.40589
-5.40855
-5.41067
-5.41229
-5.41353
-5.41445
-5.41496
-5.41533
-15.0622
-15.0131
-14.9076
-14.7283
-14.4503
-14.0612
-13.7145
-14.4801
-19.8868
-20.7048
-20.4664
-20.2483
-20.2152
-20.3727
-20.7214
-21.2835
-22.1099
-23.2901
-24.9665
-27.3348
-30.5018
-33.4721
-29.1341
6.03336
10.363
7.3754
4.18105
1.77354
0.0432139
-1.20993
-2.13458
-2.82978
-3.36108
-3.77267
-4.09506
-4.34985
-4.55268
-4.71509
-4.84577
-4.95132
-5.03684
-5.10632
-5.16287
-5.20899
-5.24664
-5.27743
-5.30261
-5.32323
-5.34012
-5.35396
-5.3653
-5.37459
-5.38219
-5.38842
-5.3935
-5.39765
-5.40101
-5.40371
-5.40587
-5.40753
-5.40877
-5.40974
-5.41027
-5.41061
-15.0386
-14.9849
-14.8679
-14.6636
-14.3291
-13.8025
-13.1213
-13.4007
-20.9803
-21.3135
-20.7433
-20.3922
-20.3099
-20.4533
-20.8076
-21.3926
-22.2656
-23.5345
-25.3883
-28.1439
-32.2394
-37.4552
-36.3768
13.2802
14.35
9.11642
4.99287
2.19687
0.28737
-1.0573
-2.03294
-2.75861
-3.30918
-3.73352
-4.06466
-4.32565
-4.53298
-4.69873
-4.83193
-4.93941
-5.02643
-5.09707
-5.15455
-5.2014
-5.23964
-5.2709
-5.29646
-5.31739
-5.33453
-5.34857
-5.36007
-5.3695
-5.37721
-5.38353
-5.38869
-5.39289
-5.3963
-5.39904
-5.40123
-5.40293
-5.40416
-5.40517
-5.40572
-5.40599
-15.0199
-14.9627
-14.8363
-14.6113
-14.2272
-13.5662
-12.4823
-11.8336
-22.5569
-21.9629
-20.9921
-20.5101
-20.3836
-20.5147
-20.873
-21.4757
-22.3851
-23.7251
-25.7252
-28.8194
-33.8206
-41.733
-46.8623
23.7705
18.6323
10.7019
5.67201
2.53656
0.479317
-0.938467
-1.95408
-2.70337
-3.26876
-3.70284
-4.04065
-4.30635
-4.51709
-4.68537
-4.82048
-4.92941
-5.01756
-5.08908
-5.14726
-5.19466
-5.23334
-5.26495
-5.29081
-5.31196
-5.32929
-5.34348
-5.35511
-5.36464
-5.37244
-5.37882
-5.38403
-5.38828
-5.39173
-5.3945
-5.3967
-5.39844
-5.39966
-5.40069
-5.40127
-5.40145
-15.0058
-14.946
-14.8127
-14.5719
-14.1483
-13.3682
-11.8407
-9.57273
-24.8229
-22.6104
-21.1974
-20.5988
-20.4367
-20.5581
-20.9189
-21.5343
-22.4703
-23.8626
-25.9736
-29.337
-35.1386
-46.0197
-61.9668
38.8802
22.9242
12.0249
6.19425
2.78884
0.61983
-0.851872
-1.89655
-2.66286
-3.23886
-3.6799
-4.02245
-4.29149
-4.50465
-4.67472
-4.81117
-4.92113
-5.01008
-5.08222
-5.14089
-5.18868
-5.22768
-5.25954
-5.28559
-5.30691
-5.32437
-5.33867
-5.35039
-5.35999
-5.36784
-5.37427
-5.37952
-5.38381
-5.38729
-5.39007
-5.39227
-5.39406
-5.39527
-5.39629
-5.39691
-5.39703
-14.996
-14.9346
-14.7968
-14.5456
-14.0948
-13.2247
-11.2707
-6.33684
-28.0603
-23.1823
-21.3438
-20.6568
-20.4699
-20.5847
-20.947
-21.5705
-22.5235
-23.9498
-26.1337
-29.6819
-36.088
-49.8202
-83.5704
60.4896
26.7303
12.9797
6.54428
2.95381
0.711146
-0.79543
-1.85872
-2.63586
-3.21858
-3.66402
-4.00958
-4.28072
-4.4954
-4.6666
-4.80389
-4.9145
-5.00394
-5.07648
-5.13545
-5.18349
-5.22268
-5.2547
-5.28088
-5.3023
-5.31985
-5.33421
-5.34598
-5.35562
-5.36352
-5.36998
-5.37525
-5.37956
-5.38306
-5.38585
-5.38805
-5.38987
-5.39108
-5.39206
-5.39275
-5.39286
-14.99
-14.9279
-14.788
-14.5317
-14.0673
-13.1484
-10.8906
-1.74772
-32.6476
-23.5608
-21.419
-20.6839
-20.4846
-20.5961
-20.9592
-21.5865
-22.5477
-23.9902
-26.2098
-29.8504
-36.584
-52.346
-114.2
91.1247
29.2621
13.4815
6.7185
3.03544
0.756888
-0.766492
-1.8387
-2.621
-3.20693
-3.65447
-4.00144
-4.27358
-4.48899
-4.66072
-4.79841
-4.90932
-4.999
-5.07173
-5.13085
-5.179
-5.21828
-5.25037
-5.27661
-5.29809
-5.31567
-5.33007
-5.34187
-5.35153
-5.35944
-5.36591
-5.3712
-5.37551
-5.37902
-5.38182
-5.384
-5.38587
-5.38707
-5.38799
-5.38875
-5.38889
)
;

boundaryField
{
    left
    {
        type            calculated;
        value           nonuniform List<scalar> 
32
(
-16.1203
-16.1171
-16.1105
-16.1004
-16.0863
-16.0678
-16.0445
-16.0161
-15.9823
-15.9431
-15.8988
-15.8495
-15.796
-15.7387
-15.6786
-15.6164
-15.5533
-15.4903
-15.4283
-15.3683
-15.3112
-15.2577
-15.2086
-15.1642
-15.125
-15.091
-15.0622
-15.0386
-15.0199
-15.0058
-14.996
-14.99
)
;
    }
    right
    {
        type            calculated;
        value           nonuniform List<scalar> 
32
(
-5.54166
-5.54053
-5.53841
-5.53542
-5.53172
-5.52741
-5.52261
-5.51741
-5.51191
-5.50617
-5.50027
-5.49427
-5.48821
-5.48214
-5.47609
-5.47008
-5.46414
-5.45826
-5.45248
-5.44678
-5.44119
-5.43572
-5.43039
-5.42521
-5.4202
-5.41533
-5.41061
-5.40599
-5.40145
-5.39703
-5.39286
-5.38889
)
;
    }
    interface
    {
        type            calculated;
        value           nonuniform List<scalar> 
64
(
-14.988
-14.9257
-14.7852
-14.5277
-14.06
-13.1283
-10.7659
0.939211
-35.3329
-23.6838
-21.4376
-20.6899
-20.4875
-20.5982
-20.9615
-21.5897
-22.5528
-23.9993
-26.2275
-29.8908
-36.7101
-53.1706
-132.132
109.06
30.0898
13.6108
6.76201
3.05617
0.768911
-0.758522
-1.83287
-2.61642
-3.20312
-3.65115
-3.99846
-4.27085
-4.48643
-4.65828
-4.79607
-4.90706
-4.99679
-5.06956
-5.12871
-5.1769
-5.2162
-5.24831
-5.27457
-5.29605
-5.31364
-5.32805
-5.33985
-5.34952
-5.35743
-5.36391
-5.3692
-5.37352
-5.37703
-5.37983
-5.382
-5.38388
-5.38509
-5.38597
-5.38678
-5.38693
)
;
    }
    bottom
    {
        type            calculated;
        value           nonuniform List<scalar> 
64
(
-16.1211
-16.1243
-16.13
-16.1369
-16.1429
-16.1452
-16.1405
-16.1245
-16.0927
-16.0401
-15.9615
-15.8515
-15.7051
-15.5175
-15.2847
-15.0034
-14.6718
-14.2894
-13.8579
-13.381
-12.8649
-12.3181
-11.7509
-11.1748
-10.6018
-10.0434
-9.50984
-9.00919
-8.54741
-8.12804
-7.75249
-7.42033
-7.12977
-6.878
-6.66164
-6.47702
-6.32044
-6.18832
-6.07732
-5.98441
-5.90687
-5.84233
-5.78873
-5.7443
-5.70751
-5.6771
-5.65199
-5.63127
-5.61419
-5.60013
-5.58855
-5.57904
-5.57123
-5.56483
-5.55959
-5.55532
-5.55186
-5.54907
-5.54686
-5.54512
-5.54381
-5.54287
-5.54226
-5.54196
)
;
    }
    defaultFaces
    {
        type            empty;
    }
}


// ************************************************************************* //
