/*--------------------------------*- C++ -*----------------------------------*\
| =========                 |                                                 |
| \\      /  F ield         | OpenFOAM: The Open Source CFD Toolbox           |
|  \\    /   O peration     | Version:  5.x                                   |
|   \\  /    A nd           | Web:      www.OpenFOAM.org                      |
|    \\/     M anipulation  |                                                 |
\*---------------------------------------------------------------------------*/
FoamFile
{
    version     2.0;
    format      ascii;
    class       volScalarField;
    location    "1.5";
    object      T;
}
// * * * * * * * * * * * * * * * * * * * * * * * * * * * * * * * * * * * * * //

dimensions      [0 0 0 1 0 0 0];

internalField   nonuniform List<scalar> 
2048
(
9.88418
9.88416
9.88412
9.88407
9.88402
9.88401
9.88404
9.88416
9.88439
9.88476
9.88533
9.88612
9.88717
9.88852
9.89019
9.89221
9.89459
9.89734
9.90044
9.90387
9.90757
9.9115
9.91558
9.91972
9.92383
9.92785
9.93168
9.93528
9.93859
9.94161
9.9443
9.94669
9.94878
9.95059
9.95214
9.95347
9.95459
9.95554
9.95634
9.95701
9.95756
9.95803
9.95841
9.95873
9.959
9.95921
9.95939
9.95954
9.95967
9.95977
9.95985
9.95992
9.95997
9.96002
9.96006
9.96009
9.96011
9.96013
9.96015
9.96016
9.96017
9.96018
9.96018
9.96019
9.65763
9.65756
9.65743
9.65727
9.65713
9.65706
9.65714
9.65745
9.65809
9.65918
9.66082
9.66312
9.66621
9.67016
9.67509
9.68105
9.68809
9.69623
9.70541
9.71558
9.72659
9.73826
9.75038
9.76269
9.77492
9.78684
9.79823
9.80889
9.81872
9.82764
9.83561
9.84266
9.84881
9.85414
9.85871
9.86261
9.86591
9.8687
9.87104
9.873
9.87463
9.87599
9.87712
9.87805
9.87882
9.87946
9.87999
9.88043
9.88079
9.88108
9.88133
9.88153
9.88169
9.88182
9.88193
9.88202
9.8821
9.88216
9.8822
9.88224
9.88227
9.88229
9.8823
9.8823
9.44106
9.44093
9.44069
9.4404
9.44011
9.43994
9.43999
9.44041
9.44138
9.44305
9.44563
9.44931
9.45425
9.46064
9.46863
9.47833
9.48982
9.50312
9.51819
9.5349
9.55303
9.57228
9.59228
9.61259
9.63278
9.65243
9.67116
9.68869
9.7048
9.71938
9.73239
9.74386
9.75386
9.76249
9.76989
9.77619
9.78152
9.78601
9.78978
9.79293
9.79555
9.79773
9.79954
9.80104
9.80228
9.8033
9.80415
9.80485
9.80542
9.8059
9.80629
9.80661
9.80687
9.80708
9.80726
9.8074
9.80752
9.80761
9.80769
9.80775
9.80779
9.80782
9.80784
9.80785
9.23406
9.23386
9.23349
9.23301
9.23253
9.23216
9.23209
9.23252
9.23366
9.23577
9.23912
9.24398
9.25059
9.2592
9.27002
9.28324
9.29897
9.31725
9.33804
9.36115
9.3863
9.41306
9.44089
9.46917
9.49726
9.52455
9.55052
9.57474
9.59695
9.61697
9.63478
9.65043
9.66402
9.67574
9.68575
9.69425
9.70143
9.70747
9.71252
9.71674
9.72026
9.72318
9.7256
9.7276
9.72926
9.73062
9.73175
9.73268
9.73345
9.73408
9.7346
9.73503
9.73538
9.73567
9.7359
9.73609
9.73625
9.73637
9.73647
9.73655
9.73661
9.73665
9.73668
9.73669
9.03626
9.03597
9.03544
9.03472
9.03396
9.03332
9.033
9.03327
9.03443
9.0368
9.04072
9.04653
9.05458
9.06518
9.07862
9.09513
9.11488
9.13796
9.16432
9.19375
9.22588
9.26016
9.29586
9.33216
9.36819
9.40313
9.43628
9.46709
9.49522
9.52047
9.54284
9.5624
9.57934
9.59388
9.60627
9.61676
9.6256
9.63301
9.63921
9.64437
9.64867
9.65223
9.65518
9.65762
9.65964
9.66131
9.66268
9.66381
9.66475
9.66551
9.66614
9.66666
9.66709
9.66744
9.66772
9.66795
9.66814
9.66829
9.66841
9.66851
9.66858
9.66863
9.66867
9.66868
8.8473
8.84691
8.84617
8.84516
8.84404
8.843
8.8423
8.84226
8.84324
8.84565
8.84991
8.85646
8.8657
8.87804
8.89383
8.91339
8.93695
8.96464
8.99644
9.03213
9.07126
9.11315
9.15686
9.20133
9.24543
9.28809
9.32842
9.36574
9.39963
9.4299
9.45657
9.47978
9.49979
9.51689
9.5314
9.54365
9.55394
9.56255
9.56973
9.57571
9.58067
9.58478
9.58818
9.59099
9.59331
9.59523
9.59681
9.59811
9.59918
9.60006
9.60078
9.60138
9.60187
9.60227
9.60259
9.60286
9.60308
9.60325
9.60339
9.6035
9.60358
9.60364
9.60368
9.60369
8.66684
8.66633
8.66534
8.66398
8.66241
8.66085
8.65962
8.65908
8.65968
8.66191
8.66628
8.6733
8.68347
8.69728
8.71516
8.73751
8.76464
8.79675
8.83387
8.87579
8.92198
8.97163
9.02357
9.07645
9.12883
9.17936
9.2269
9.27066
9.31017
9.34524
9.37594
9.40252
9.4253
9.44467
9.46105
9.47482
9.48635
9.49597
9.50398
9.51063
9.51614
9.5207
9.52446
9.52758
9.53014
9.53226
9.534
9.53544
9.53662
9.53759
9.53839
9.53905
9.53959
9.54003
9.54039
9.54068
9.54092
9.54111
9.54126
9.54138
9.54147
9.54154
9.54158
9.5416
8.49455
8.4939
8.49262
8.49085
8.48874
8.48654
8.48461
8.48339
8.48339
8.4852
8.48942
8.49665
8.50749
8.52248
8.54217
8.56703
8.59749
8.63382
8.67613
8.72425
8.7776
8.83522
8.89569
8.95732
9.01827
9.07685
9.1317
9.18185
9.2268
9.26643
9.30088
9.3305
9.35575
9.3771
9.39507
9.41012
9.42268
9.43312
9.4418
9.44898
9.45493
9.45984
9.4639
9.46724
9.47
9.47227
9.47414
9.47568
9.47695
9.47799
9.47884
9.47954
9.48012
9.48059
9.48098
9.48129
9.48155
9.48175
9.48192
9.48204
9.48214
9.48221
9.48226
9.48228
8.33012
8.3293
8.32772
8.32546
8.32272
8.31977
8.31698
8.31487
8.31404
8.31518
8.31899
8.32617
8.33739
8.35329
8.37449
8.40158
8.43507
8.4754
8.52276
8.57705
8.63768
8.70354
8.77293
8.84373
8.91363
8.98053
9.04277
9.09926
9.14948
9.19339
9.23128
9.26362
9.291
9.31404
9.33332
9.3494
9.36277
9.37386
9.38304
9.39063
9.3969
9.40207
9.40634
9.40985
9.41274
9.41513
9.41709
9.4187
9.42002
9.42111
9.42201
9.42274
9.42335
9.42384
9.42424
9.42457
9.42484
9.42505
9.42523
9.42536
9.42546
9.42553
9.42558
9.4256
8.17323
8.17225
8.17032
8.16754
8.16409
8.16025
8.15644
8.15323
8.15133
8.15154
8.15468
8.16153
8.17286
8.18938
8.21179
8.24079
8.27703
8.32109
8.37333
8.43375
8.50181
8.57624
8.65502
8.7355
8.81482
8.89035
8.96009
9.02285
9.07814
9.12604
9.16701
9.20171
9.23089
9.25529
9.27561
9.29247
9.30645
9.318
9.32754
9.33541
9.3419
9.34724
9.35164
9.35526
9.35825
9.3607
9.36271
9.36437
9.36573
9.36685
9.36777
9.36853
9.36915
9.36965
9.37007
9.37041
9.37068
9.3709
9.37108
9.37121
9.37132
9.37139
9.37144
9.37146
8.0236
8.02244
8.02014
8.0168
8.01256
8.00772
8.00272
7.9982
7.99499
7.99401
7.9962
8.00247
8.01364
8.03049
8.05381
8.08439
8.12305
8.17054
8.22744
8.29393
8.36955
8.45293
8.54166
8.63247
8.72177
8.80628
8.88366
8.95259
9.01269
9.06423
9.10791
9.1446
9.17522
9.20066
9.22174
9.23915
9.25353
9.26537
9.27513
9.28316
9.28977
9.2952
9.29967
9.30335
9.30637
9.30886
9.3109
9.31258
9.31396
9.31509
9.31602
9.31678
9.31741
9.31792
9.31834
9.31868
9.31895
9.31918
9.31935
9.31949
9.3196
9.31967
9.31972
9.31975
7.88094
7.87959
7.87692
7.87298
7.8679
7.86194
7.85559
7.84954
7.84475
7.84232
7.84332
7.84875
7.85949
7.8764
7.9003
7.93213
7.97284
8.02343
8.08472
8.15718
8.24049
8.33324
8.43259
8.53451
8.63444
8.72835
8.81347
8.88844
8.95303
9.00783
9.0538
9.09207
9.12378
9.14995
9.17151
9.18924
9.20382
9.2158
9.22564
9.23372
9.24036
9.24582
9.25029
9.25397
9.257
9.25948
9.26152
9.26319
9.26457
9.2657
9.26663
9.26739
9.26801
9.26852
9.26894
9.26928
9.26955
9.26978
9.26995
9.27009
9.2702
9.27027
9.27032
9.27034
7.74495
7.74343
7.74039
7.73583
7.72986
7.7227
7.71482
7.70702
7.70039
7.69622
7.69577
7.70013
7.71021
7.7269
7.7511
7.78381
7.82618
7.87946
7.94482
8.02307
8.11419
8.21677
8.32754
8.44148
8.55283
8.65658
8.74953
8.83033
8.89906
8.95667
9.00448
9.04392
9.07634
9.10292
9.1247
9.14253
9.15714
9.1691
9.17891
9.18694
9.19353
9.19893
9.20337
9.207
9.20999
9.21244
9.21445
9.21611
9.21746
9.21858
9.21949
9.22024
9.22086
9.22136
9.22177
9.22211
9.22238
9.2226
9.22277
9.22291
9.22301
9.22308
9.22313
9.22315
7.61537
7.61368
7.61027
7.60511
7.59822
7.58977
7.58022
7.57042
7.56167
7.5555
7.55335
7.55641
7.56562
7.58185
7.60603
7.63927
7.68288
7.73841
7.80743
7.89123
7.99021
8.10311
8.22622
8.35329
8.47697
8.59105
8.69186
8.77822
8.85064
8.91056
8.95973
8.99991
9.03267
9.05935
9.0811
9.09882
9.11329
9.1251
9.13476
9.14266
9.14912
9.15442
9.15876
9.16232
9.16523
9.16763
9.16959
9.17121
9.17253
9.17362
9.17451
9.17524
9.17584
9.17633
9.17673
9.17706
9.17732
9.17753
9.1777
9.17784
9.17794
9.17801
9.17806
9.17808
7.49192
7.49008
7.48633
7.48058
7.47276
7.46297
7.45159
7.43956
7.42838
7.41992
7.41584
7.41741
7.42557
7.44112
7.465
7.49839
7.5428
7.60007
7.67225
7.76125
7.86808
7.99182
8.12833
8.26987
8.40694
8.53185
8.64049
8.73203
8.8076
8.86928
8.91931
8.95978
8.99251
9.01901
9.04048
9.05791
9.07208
9.08362
9.09304
9.10072
9.107
9.11214
9.11634
9.11979
9.12261
9.12493
9.12683
9.12839
9.12967
9.13072
9.13158
9.13228
9.13286
9.13333
9.13372
9.13404
9.13429
9.1345
9.13466
9.13479
9.13489
9.13495
9.135
9.13502
7.37433
7.37235
7.3683
7.362
7.35329
7.34211
7.32877
7.31424
7.3003
7.28925
7.28303
7.28297
7.28991
7.3046
7.32791
7.36109
7.40582
7.46428
7.53904
7.63276
7.74733
7.88241
8.03357
8.19119
8.3429
8.47912
8.59545
8.69167
8.76978
8.8326
8.88294
8.92327
8.95563
8.98165
9.00264
9.0196
9.03334
9.0445
9.05359
9.06099
9.06703
9.07197
9.07601
9.07931
9.08202
9.08424
9.08606
9.08755
9.08877
9.08978
9.0906
9.09127
9.09183
9.09228
9.09265
9.09295
9.0932
9.09339
9.09355
9.09367
9.09376
9.09383
9.09387
9.09389
7.26234
7.26025
7.25594
7.24916
7.2396
7.22703
7.2116
7.1943
7.17723
7.16327
7.15473
7.15291
7.15854
7.1722
7.19472
7.22733
7.2719
7.33092
7.40759
7.50542
7.62745
7.77435
7.94158
8.11726
8.28503
8.43302
8.55677
8.65702
8.73695
8.80026
8.85037
8.89013
8.92177
8.94706
8.96735
8.98369
8.99689
9.00758
9.01626
9.02333
9.02909
9.03379
9.03763
9.04077
9.04334
9.04545
9.04718
9.04859
9.04975
9.0507
9.05148
9.05212
9.05265
9.05308
9.05343
9.05371
9.05395
9.05413
9.05428
9.0544
9.05448
9.05455
9.05459
9.05461
7.15568
7.15351
7.14901
7.14182
7.13149
7.11756
7.09995
7.07957
7.05894
7.04176
7.03072
7.02709
7.03135
7.04387
7.06537
7.09708
7.14099
7.19994
7.27772
7.37888
7.50792
7.66701
7.85197
8.04817
8.23363
8.39378
8.52445
8.62794
8.70887
8.77198
8.82131
8.86007
8.89068
8.91501
8.93443
8.95001
8.96257
8.97271
8.98093
8.98761
8.99305
8.99748
9.0011
9.00406
9.00649
9.00847
9.01009
9.01142
9.01252
9.01341
9.01414
9.01475
9.01524
9.01564
9.01597
9.01624
9.01646
9.01663
9.01677
9.01688
9.01696
9.01702
9.01706
9.01708
7.05409
7.05189
7.04726
7.03977
7.02879
7.01357
6.99371
6.96993
6.94523
6.92447
6.91083
6.90537
6.90825
6.91956
6.93985
6.97034
7.01311
7.07131
7.14933
7.25287
7.3882
7.55972
7.76427
7.98406
8.1891
8.3616
8.4985
8.60425
8.68528
8.74746
8.79547
8.83283
8.86213
8.88527
8.90368
8.91839
8.93021
8.93974
8.94746
8.95371
8.9588
8.96295
8.96633
8.96909
8.97135
8.9732
8.97472
8.97596
8.97698
8.97781
8.9785
8.97906
8.97952
8.97989
8.9802
8.98045
8.98065
8.98081
8.98094
8.98105
8.98112
8.98118
8.98121
8.98123
6.95734
6.95513
6.95046
6.94279
6.9313
6.91492
6.89278
6.86526
6.83585
6.81116
6.79484
6.78762
6.78915
6.79922
6.81816
6.84714
6.8883
6.94504
7.02235
7.12713
7.26777
7.45168
7.67792
7.92523
8.15191
8.33675
8.47886
8.58572
8.66586
8.72638
8.77255
8.80815
8.83587
8.85766
8.87491
8.88867
8.89969
8.90855
8.91572
8.92153
8.92624
8.93008
8.93322
8.93577
8.93786
8.93957
8.94097
8.94212
8.94306
8.94383
8.94446
8.94498
8.9454
8.94575
8.94603
8.94626
8.94645
8.9466
8.94672
8.94682
8.94689
8.94694
8.94697
8.94698
6.86516
6.86299
6.85835
6.85064
6.83882
6.82148
6.7971
6.76548
6.73057
6.70156
6.68257
6.67371
6.674
6.68281
6.70029
6.72751
6.76662
6.82121
6.8968
7.00148
7.14608
7.34199
7.59218
7.87211
8.12271
8.31948
8.46544
8.57206
8.6503
8.70843
8.75226
8.78576
8.81169
8.83197
8.84797
8.86068
8.87085
8.87902
8.88561
8.89094
8.89527
8.8988
8.90167
8.90401
8.90592
8.90749
8.90877
8.90982
8.91068
8.91139
8.91196
8.91244
8.91282
8.91314
8.9134
8.91361
8.91378
8.91392
8.91403
8.91412
8.91418
8.91423
8.91426
8.91427
6.77734
6.77524
6.77073
6.7631
6.75118
6.73311
6.70662
6.67053
6.62909
6.59539
6.57383
6.56353
6.56272
6.57032
6.58625
6.61148
6.64813
6.6999
6.77273
6.87583
7.02265
7.22962
7.5061
7.82539
8.10226
8.31002
8.45807
8.56295
8.63822
8.69327
8.73432
8.76544
8.78938
8.80802
8.82268
8.83431
8.84358
8.85102
8.85702
8.86187
8.8658
8.86899
8.8716
8.87372
8.87546
8.87688
8.87804
8.87899
8.87977
8.88041
8.88093
8.88136
8.88171
8.882
8.88223
8.88242
8.88258
8.8827
8.8828
8.88288
8.88294
8.88298
8.88301
8.88302
6.69364
6.69165
6.68734
6.67996
6.66816
6.64969
6.62133
6.58042
6.53108
6.49234
6.46843
6.45699
6.45526
6.46171
6.47605
6.49909
6.53293
6.58126
6.65029
6.75018
6.89702
7.11339
7.4184
7.78611
8.09147
8.30854
8.45651
8.55801
8.62926
8.68058
8.71844
8.74693
8.76874
8.78565
8.79892
8.80941
8.81776
8.82446
8.82985
8.8342
8.83773
8.8406
8.84294
8.84484
8.84639
8.84767
8.84871
8.84956
8.85026
8.85083
8.8513
8.85168
8.85199
8.85225
8.85246
8.85263
8.85277
8.85288
8.85297
8.85304
8.85309
8.85313
8.85316
8.85317
6.61385
6.612
6.60797
6.60098
6.58956
6.57107
6.54124
6.49525
6.43616
6.39209
6.36623
6.354
6.35158
6.35696
6.36967
6.3904
6.42111
6.46543
6.52965
6.6246
6.76887
6.99201
7.3273
7.75578
8.09137
8.31515
8.46042
8.55681
8.62301
8.67002
8.70436
8.73004
8.7496
8.76471
8.77654
8.78587
8.79329
8.79924
8.80401
8.80787
8.811
8.81354
8.8156
8.81729
8.81866
8.81979
8.8207
8.82146
8.82207
8.82258
8.82299
8.82333
8.82361
8.82384
8.82402
8.82417
8.8243
8.8244
8.82447
8.82454
8.82458
8.82461
8.82464
8.82465
6.53776
6.53608
6.5324
6.52594
6.51516
6.49711
6.46637
6.4152
6.34381
6.29433
6.26706
6.2545
6.25162
6.25603
6.26711
6.28541
6.31276
6.35258
6.41105
6.49932
6.638
6.8641
7.23035
7.73661
8.10313
8.32978
8.46935
8.55888
8.61909
8.66128
8.69184
8.71456
8.73178
8.74506
8.75542
8.76359
8.77008
8.77526
8.77943
8.7828
8.78552
8.78773
8.78953
8.79099
8.79219
8.79317
8.79397
8.79462
8.79516
8.7956
8.79596
8.79626
8.7965
8.79669
8.79686
8.79699
8.79709
8.79718
8.79725
8.7973
8.79734
8.79737
8.79739
8.7974
6.46517
6.46369
6.46041
6.45461
6.44473
6.42762
6.39677
6.34063
6.2534
6.1987
6.17083
6.15843
6.15533
6.15889
6.16835
6.18416
6.20795
6.24287
6.29477
6.37466
6.50442
6.72825
7.12413
7.73181
8.12792
8.35222
8.48274
8.56372
8.61711
8.65408
8.68065
8.7003
8.71516
8.72657
8.73547
8.74247
8.74802
8.75246
8.75603
8.7589
8.76123
8.76311
8.76465
8.7659
8.76692
8.76776
8.76844
8.769
8.76946
8.76983
8.77014
8.77039
8.7706
8.77077
8.7709
8.77102
8.77111
8.77118
8.77124
8.77128
8.77132
8.77134
8.77136
8.77136
6.3959
6.39463
6.39181
6.38677
6.37804
6.3624
6.33246
6.27207
6.16408
6.1049
6.07744
6.06575
6.06269
6.06549
6.07336
6.08665
6.10676
6.13648
6.18111
6.25105
6.36838
6.58315
7.00384
7.74594
8.16683
8.38199
8.49995
8.5708
8.61669
8.64813
8.67058
8.68712
8.69958
8.70914
8.71657
8.72242
8.72705
8.73075
8.73372
8.73612
8.73806
8.73963
8.74091
8.74195
8.7428
8.74349
8.74406
8.74453
8.74491
8.74522
8.74547
8.74568
8.74585
8.746
8.74611
8.7462
8.74628
8.74634
8.74639
8.74643
8.74645
8.74647
8.74649
8.74649
6.32977
6.32873
6.32641
6.32221
6.31483
6.3012
6.27343
6.21038
6.07473
6.01265
5.98689
5.97643
5.97363
5.97577
5.98209
5.99286
6.00922
6.03355
6.07039
6.12903
6.23042
6.42775
6.86284
7.78545
8.22069
8.41834
8.52024
8.57961
8.61747
8.64319
8.66145
8.67486
8.68494
8.69266
8.69865
8.70336
8.7071
8.71008
8.71247
8.71439
8.71595
8.71721
8.71824
8.71908
8.71976
8.72032
8.72078
8.72115
8.72146
8.72171
8.72191
8.72208
8.72222
8.72233
8.72242
8.7225
8.72256
8.72261
8.72264
8.72268
8.7227
8.72271
8.72273
8.72273
6.26663
6.26582
6.26401
6.26072
6.25486
6.24373
6.21961
6.15676
5.98386
5.92175
5.89917
5.89047
5.88812
5.88968
5.8945
5.90277
5.91538
5.9342
5.96292
6.00921
6.09142
6.26159
6.69198
7.85927
8.28978
8.46019
8.5428
8.58965
8.61914
8.63903
8.6531
8.6634
8.67113
8.67704
8.68163
8.68523
8.68809
8.69036
8.69219
8.69366
8.69485
8.69581
8.6966
8.69724
8.69776
8.69819
8.69853
8.69882
8.69905
8.69924
8.6994
8.69953
8.69963
8.69972
8.69979
8.69985
8.69989
8.69993
8.69996
8.69998
8.7
8.70001
8.70002
8.70002
6.20631
6.20574
6.20445
6.2021
6.19787
6.18967
6.17077
6.11294
5.88949
5.83217
5.81435
5.80785
5.80609
5.80715
5.81053
5.81634
5.82523
5.83855
5.85896
5.8922
5.95256
6.08512
6.47878
7.9797
8.37344
8.50617
8.5668
8.60044
8.6214
8.63546
8.64538
8.65263
8.65806
8.66222
8.66544
8.66797
8.66997
8.67156
8.67284
8.67387
8.67471
8.67538
8.67593
8.67638
8.67674
8.67704
8.67729
8.67749
8.67765
8.67778
8.67789
8.67798
8.67806
8.67812
8.67817
8.67821
8.67824
8.67826
8.67828
8.6783
8.67831
8.67832
8.67833
8.67833
6.14868
6.14834
6.14757
6.14617
6.14364
6.13864
6.12648
6.08128
5.78898
5.74408
5.73256
5.72857
5.72748
5.72809
5.73008
5.73351
5.73876
5.74665
5.75877
5.77864
5.81532
5.90023
6.20646
8.16332
8.4696
8.55461
8.59145
8.61155
8.624
8.63233
8.63819
8.64246
8.64567
8.64812
8.65001
8.6515
8.65268
8.65362
8.65437
8.65498
8.65547
8.65587
8.65619
8.65645
8.65667
8.65684
8.65699
8.6571
8.6572
8.65728
8.65734
8.6574
8.65744
8.65747
8.6575
8.65753
8.65755
8.65756
8.65757
8.65758
8.65759
8.6576
8.6576
8.6576
6.09359
6.09348
6.09323
6.09277
6.09193
6.09025
6.08601
6.06499
5.67889
5.65797
5.65393
5.65259
5.65223
5.65242
5.65308
5.6542
5.65593
5.65853
5.66253
5.66911
5.68136
5.71093
5.85275
8.43224
8.57407
8.60367
8.61597
8.62263
8.62674
8.62948
8.63141
8.63282
8.63387
8.63468
8.6353
8.63579
8.63618
8.63648
8.63673
8.63693
8.63709
8.63722
8.63733
8.63742
8.63749
8.63754
8.63759
8.63763
8.63766
8.63769
8.63771
8.63773
8.63774
8.63775
8.63776
8.63777
8.63778
8.63778
8.63778
8.63779
8.63779
8.63779
8.63779
8.63779
)
;

boundaryField
{
    left
    {
        type            zeroGradient;
    }
    right
    {
        type            zeroGradient;
    }
    interface
    {
        type            fixedValue;
        value           nonuniform List<scalar> 
64
(
6.06667
6.06667
6.06667
6.06667
6.06667
6.06667
6.06667
6.06667
5.61543
5.61543
5.61543
5.61543
5.61543
5.61543
5.61543
5.61543
5.61543
5.61543
5.61543
5.61543
5.61543
5.61543
5.61543
8.62812
8.62812
8.62812
8.62812
8.62812
8.62812
8.62812
8.62812
8.62812
8.62812
8.62812
8.62812
8.62812
8.62812
8.62812
8.62812
8.62812
8.62812
8.62812
8.62812
8.62812
8.62812
8.62812
8.62812
8.62812
8.62812
8.62812
8.62812
8.62812
8.62812
8.62812
8.62812
8.62812
8.62812
8.62812
8.62812
8.62812
8.62812
8.62812
8.62812
8.62812
)
;
    }
    bottom
    {
        type            fixedValue;
        value           uniform 10;
    }
    defaultFaces
    {
        type            empty;
    }
}


// ************************************************************************* //
