/*--------------------------------*- C++ -*----------------------------------*\
| =========                 |                                                 |
| \\      /  F ield         | OpenFOAM: The Open Source CFD Toolbox           |
|  \\    /   O peration     | Version:  5.x                                   |
|   \\  /    A nd           | Web:      www.OpenFOAM.org                      |
|    \\/     M anipulation  |                                                 |
\*---------------------------------------------------------------------------*/
FoamFile
{
    version     2.0;
    format      ascii;
    class       volScalarField;
    location    "0.2";
    object      gradTx;
}
// * * * * * * * * * * * * * * * * * * * * * * * * * * * * * * * * * * * * * //

dimensions      [0 -1 0 1 0 0 0];

internalField   nonuniform List<scalar> 
3200
(
23.9758
27.5935
10.6059
2.97721
2.56961
1.1474
1.06182
0.75634
0.733253
0.634528
0.621262
0.4609
0.465334
0.781467
0.841235
1.87419
1.89944
1.34476
1.30493
0.975939
0.944893
0.665
0.637042
0.340068
0.323487
0.288372
0.284054
0.253938
0.245758
0.0928385
0.083268
0.0253839
0.0214743
-0.000212493
-0.00336436
-0.0469022
-0.0487748
-0.0405875
-0.0400099
-0.0404383
-0.0406963
-0.0441082
-0.0443876
-0.0408324
-0.0402867
-0.034893
-0.0340595
-0.0214858
-0.0221745
-0.052075
-0.0527184
-0.0387008
-0.0375872
-0.0231844
-0.0238682
-0.0543979
-0.0547687
-0.0306003
-0.0306796
-0.0498809
-0.0537485
-0.122031
-0.124281
-0.105998
-0.105008
-0.10152
-0.100496
-0.0955313
-0.0929252
-0.0727058
-0.065764
-0.000287815
0.0211394
0.368663
0.387814
0.0981467
0.0803778
0.0312936
0.00898927
-85.7949
31.69
22.5623
9.98131
3.37943
2.48607
1.26632
1.07182
0.794971
0.740032
0.646649
0.616153
0.488135
0.495559
0.73931
0.869432
1.7053
1.76396
1.33708
1.24975
0.967545
0.896279
0.657572
0.594535
0.350763
0.312977
0.275221
0.264529
0.237502
0.219627
0.0980374
0.0769923
0.0273088
0.0184501
0.000371033
-0.00672783
-0.0432057
-0.0475592
-0.0415213
-0.0400526
-0.0388546
-0.0394957
-0.0442548
-0.0451211
-0.0419524
-0.0406297
-0.0357055
-0.0338572
-0.0242219
-0.02565
-0.0485618
-0.0499082
-0.0392259
-0.036933
-0.0260547
-0.0275156
-0.0509761
-0.0518638
-0.0341736
-0.0346165
-0.0508441
-0.0592571
-0.113084
-0.118011
-0.104662
-0.102486
-0.0984297
-0.095614
-0.0881695
-0.0811501
-0.0575917
-0.0396386
0.0287463
0.0782222
0.365169
0.42184
0.283563
0.242385
0.0928083
0.0263639
-88.4628
39.0568
18.3818
9.11753
3.5533
2.41557
1.34422
1.08512
0.824725
0.748348
0.656253
0.614943
0.50995
0.516329
0.701696
0.869397
1.56751
1.64789
1.31582
1.20238
0.950721
0.854371
0.643124
0.559264
0.353224
0.302471
0.260991
0.245662
0.220703
0.197648
0.0992178
0.071865
0.0276031
0.0157965
0.000516927
-0.00891483
-0.0407931
-0.0467585
-0.0422716
-0.0400839
-0.0371968
-0.0381299
-0.0445566
-0.0460154
-0.0429981
-0.0411163
-0.0363946
-0.033966
-0.026515
-0.0282658
-0.0459107
-0.0475786
-0.039415
-0.0366219
-0.0284309
-0.0302826
-0.0484568
-0.0497016
-0.0370212
-0.0379216
-0.0521196
-0.0629487
-0.106092
-0.112473
-0.10288
-0.100039
-0.0952895
-0.0909168
-0.0807908
-0.0700367
-0.0422534
-0.0155304
0.058537
0.125806
0.370885
0.463662
0.465093
0.408724
0.150995
0.0419261
-91.1317
46.1264
14.8692
8.10571
3.55008
2.34241
1.38963
1.09848
0.847119
0.757292
0.663825
0.616278
0.527308
0.529937
0.664785
0.848142
1.45441
1.54833
1.28582
1.16054
0.927696
0.817069
0.623592
0.52889
0.349483
0.291602
0.245723
0.227188
0.203835
0.17869
0.0975607
0.0674187
0.0266031
0.0132851
0.000431462
-0.0102019
-0.0394154
-0.0463744
-0.0429287
-0.0401422
-0.0353852
-0.0365433
-0.0450562
-0.047088
-0.0439977
-0.0417158
-0.0369914
-0.034275
-0.0284394
-0.030245
-0.0438981
-0.0456417
-0.0393886
-0.0365259
-0.0304049
-0.0323961
-0.0466142
-0.0480958
-0.039325
-0.0406942
-0.0535292
-0.0653472
-0.100571
-0.107573
-0.100827
-0.0976679
-0.0921341
-0.0864499
-0.0734376
-0.0596048
-0.0268729
0.00668431
0.0886002
0.166279
0.382692
0.509136
0.64893
0.583112
0.20323
0.0544686
-93.802
52.9452
11.8779
7.00553
3.41291
2.25903
1.40857
1.11024
0.863051
0.766381
0.669557
0.619267
0.541
0.538252
0.62593
0.809968
1.36182
1.46302
1.25035
1.12302
0.899796
0.783098
0.600123
0.501918
0.340893
0.280264
0.229372
0.208916
0.187047
0.16198
0.0938709
0.0634052
0.024508
0.010759
0.000260446
-0.010743
-0.0389256
-0.0464048
-0.0435581
-0.0402779
-0.0333357
-0.0346614
-0.0458139
-0.0483645
-0.044964
-0.0424121
-0.0375069
-0.0347078
-0.0300572
-0.0317495
-0.0423609
-0.0440237
-0.0392257
-0.0365595
-0.0320535
-0.0340198
-0.0452801
-0.0468993
-0.0412224
-0.0430075
-0.0549789
-0.0668089
-0.0961777
-0.103223
-0.0986305
-0.0953918
-0.0889847
-0.0822764
-0.0661175
-0.0499292
-0.0115255
0.0269649
0.118834
0.201202
0.398098
0.554071
0.840984
0.770055
0.246215
0.0628095
-96.4743
59.5563
9.28931
5.85412
3.17817
2.16351
1.40541
1.11995
0.872963
0.775475
0.673426
0.623373
0.551666
0.542946
0.583216
0.757077
1.28724
1.39028
1.21146
1.08935
0.867653
0.751794
0.57328
0.477473
0.328301
0.268549
0.211814
0.19071
0.170397
0.147
0.0886832
0.0597357
0.0214124
0.00810734
0.000113246
-0.010594
-0.0392614
-0.0468462
-0.0442031
-0.0405587
-0.0309541
-0.032385
-0.0469144
-0.0498778
-0.0458953
-0.0432016
-0.0379372
-0.0352138
-0.0314202
-0.0328961
-0.0411806
-0.0426632
-0.0389766
-0.0366657
-0.0334422
-0.0352707
-0.0443308
-0.0459939
-0.0428205
-0.0449125
-0.0564334
-0.0675683
-0.0926767
-0.0993379
-0.0963794
-0.0932422
-0.0858475
-0.078481
-0.058799
-0.0411426
0.00381832
0.0451108
0.149448
0.231544
0.415138
0.593765
1.04735
0.975106
0.275576
0.0658389
-99.1487
65.9999
7.00578
4.6723
2.87694
2.05771
1.38335
1.12813
0.876896
0.78475
0.675212
0.628342
0.55981
0.545676
0.535154
0.689931
1.22976
1.32881
1.17032
1.05967
0.831292
0.723013
0.543145
0.455178
0.312145
0.256725
0.192842
0.172483
0.15388
0.133426
0.0823284
0.0564477
0.0173215
0.00524763
7.81811e-05
-0.00972361
-0.0404382
-0.0476947
-0.0448865
-0.0410764
-0.0281296
-0.0295832
-0.0484762
-0.0516679
-0.046774
-0.044093
-0.0382649
-0.0357615
-0.0325715
-0.0337694
-0.0402714
-0.0415084
-0.0386715
-0.0368074
-0.034628
-0.0362315
-0.0436765
-0.0452809
-0.044207
-0.0464395
-0.0579025
-0.0677681
-0.0899131
-0.0958369
-0.0941351
-0.0912628
-0.0827091
-0.0751786
-0.0513998
-0.0334486
0.0193087
0.0607353
0.180952
0.257827
0.432376
0.622456
1.27473
1.20524
0.285341
0.062613
-101.825
72.3132
4.94581
3.46891
2.53665
1.9461
1.34452
1.13614
0.874464
0.794719
0.674489
0.634174
0.565775
0.548259
0.480476
0.607378
1.1899
1.27765
1.12728
1.03472
0.790142
0.697111
0.509349
0.435099
0.292497
0.245251
0.172139
0.154195
0.137445
0.121085
0.0749718
0.0536954
0.0121534
0.00211569
0.000231644
-0.00801404
-0.0425511
-0.048944
-0.0456085
-0.0419582
-0.0247278
-0.0260827
-0.050665
-0.0537803
-0.0475633
-0.0451093
-0.0384588
-0.0363358
-0.0335463
-0.0344296
-0.0395719
-0.0405157
-0.0383265
-0.0369609
-0.0356616
-0.0369578
-0.0432551
-0.0446744
-0.0454606
-0.0475966
-0.0594348
-0.067476
-0.0877977
-0.0926406
-0.0919372
-0.0895104
-0.0795297
-0.0725263
-0.0437679
-0.0271472
0.0352523
0.0732086
0.214191
0.280203
0.448991
0.632655
1.53098
1.46938
0.267214
0.0525206
-104.504
78.5318
3.03983
2.2437
2.18266
1.83492
1.28997
1.14629
0.864756
0.806307
0.670568
0.641127
0.569702
0.552849
0.418007
0.506599
1.16983
1.23602
1.08193
1.01586
0.742943
0.675011
0.471023
0.417765
0.269045
0.23482
0.149238
0.135866
0.121002
0.109941
0.0666273
0.0517584
0.00572884
-0.0013393
0.000642108
-0.00525072
-0.045788
-0.0505811
-0.0463419
-0.0433822
-0.0205817
-0.0216521
-0.0537115
-0.0562652
-0.0482013
-0.0462928
-0.0384708
-0.0369361
-0.0343735
-0.0349187
-0.0390395
-0.0396475
-0.037948
-0.0371111
-0.0365907
-0.0374834
-0.0430281
-0.0440925
-0.0466596
-0.0483649
-0.0611185
-0.0666923
-0.086301
-0.0896657
-0.0898081
-0.08806
-0.0762314
-0.0707444
-0.0356508
-0.0226772
0.0521736
0.0815611
0.250429
0.298468
0.46501
0.614264
1.82563
1.77914
0.209585
0.0355655
-107.185
84.689
1.22704
0.989075
1.84013
1.73163
1.21936
1.16195
0.846124
0.820986
0.662394
0.649759
0.571444
0.562156
0.346598
0.382833
1.17365
1.20319
1.03307
1.00528
0.687552
0.658361
0.426676
0.404256
0.241018
0.226449
0.123452
0.117602
0.104411
0.100091
0.0571484
0.0510707
-0.00225178
-0.00515435
0.00136913
-0.00110032
-0.0504536
-0.0525786
-0.0470234
-0.0455992
-0.01548
-0.0159813
-0.0579377
-0.0591742
-0.0485926
-0.0477124
-0.0382309
-0.037577
-0.0350759
-0.0352644
-0.0386473
-0.0388712
-0.0375344
-0.0372482
-0.0374629
-0.0378225
-0.0429799
-0.0434501
-0.0478926
-0.048691
-0.063089
-0.0653468
-0.0854538
-0.0868195
-0.0877544
-0.0870129
-0.0726794
-0.0701468
-0.0266491
-0.0206824
0.0709133
0.0843347
0.291501
0.311993
0.48172
0.553386
2.17058
2.14982
0.0961334
0.0128249
-109.867
75.7548
5.94169
6.04401
1.99053
1.77057
1.19758
1.14772
1.02862
1.00499
0.813915
0.791129
0.63883
0.619956
0.354135
0.382105
1.11876
1.13827
0.828158
0.797198
0.514239
0.490596
0.323994
0.307562
0.195123
0.185467
0.133988
0.129853
0.0954574
0.0903396
0.0426643
0.0379506
0.0253284
0.0230767
0.00870233
0.00698018
-0.00722957
-0.00807239
-0.00832571
-0.00827786
-0.00352065
-0.00377971
-0.0136471
-0.0138857
-0.00975014
-0.00949769
-0.00764463
-0.00739614
-0.0031407
-0.00333142
-0.0121444
-0.0123726
-0.00927363
-0.00898207
-0.00420291
-0.00459388
-0.0180511
-0.0183502
-0.00976996
-0.0106207
-0.0371774
-0.0378271
-0.0262066
-0.0248026
-0.00401443
-0.000618213
0.0538227
0.0596125
0.134103
0.141951
0.267492
0.258734
-0.0640488
-0.0665603
0.268631
0.271846
0.00780121
0.000269411
-2.72276e-05
-5.40589e-06
-106.961
73.2889
5.38274
5.63373
2.43145
1.93905
1.37256
1.24669
1.10273
1.04236
0.863445
0.806996
0.657764
0.616355
0.431047
0.498361
1.10267
1.14569
0.884919
0.813284
0.571646
0.516807
0.3688
0.329351
0.224053
0.20087
0.157077
0.147776
0.118295
0.105815
0.0591007
0.0469941
0.0316039
0.0257483
0.0117784
0.00761751
-0.00464831
-0.00666572
-0.00751133
-0.00754416
-0.00424514
-0.00483865
-0.0124594
-0.012965
-0.00982474
-0.00928675
-0.00773417
-0.00721316
-0.0040256
-0.00443071
-0.0111773
-0.0116516
-0.00929586
-0.00871298
-0.00523631
-0.00609338
-0.0165457
-0.0172718
-0.0114129
-0.0133141
-0.0339845
-0.0353878
-0.026474
-0.0234459
-0.00630856
0.00114271
0.0454279
0.0581032
0.118586
0.134756
0.226965
0.207879
-0.0414182
-0.0496486
0.189918
0.196978
0.0131479
0.00052192
-9.29484e-05
-1.39894e-05
-104.947
70.6334
5.00311
5.36165
2.76403
2.11052
1.52994
1.3464
1.1735
1.08447
0.908078
0.826577
0.672386
0.618511
0.497855
0.593137
1.10904
1.16526
0.934118
0.836175
0.621586
0.546751
0.409268
0.353778
0.249703
0.217101
0.17879
0.166511
0.140456
0.122662
0.0741554
0.0561712
0.0374998
0.0287459
0.0144632
0.00857984
-0.00247638
-0.00530547
-0.00672913
-0.00694347
-0.00481373
-0.00561633
-0.0115562
-0.01219
-0.00979517
-0.00911634
-0.00778239
-0.00713677
-0.00476671
-0.00527627
-0.0104611
-0.0110438
-0.00924713
-0.0085596
-0.00609631
-0.00720901
-0.0154294
-0.0164567
-0.0127454
-0.0152566
-0.031562
-0.033361
-0.0265054
-0.0226528
-0.00821436
0.00143145
0.0382989
0.0546833
0.104843
0.124522
0.190891
0.166235
-0.0284253
-0.0426395
0.12052
0.129761
0.0116601
0.000302703
-0.00018215
-1.75439e-05
-102.932
67.8124
4.77424
5.20792
3.01893
2.27914
1.67148
1.4457
1.24092
1.13008
0.94892
0.849069
0.682997
0.62334
0.556025
0.671088
1.13379
1.19634
0.977995
0.863741
0.665945
0.57921
0.446464
0.380157
0.272502
0.233567
0.199469
0.185802
0.162292
0.140744
0.0879937
0.0653794
0.0430019
0.0319669
0.0168138
0.00975035
-0.000632571
-0.0040007
-0.00599477
-0.00643615
-0.0052647
-0.00618827
-0.010865
-0.011536
-0.00969685
-0.00897202
-0.00780297
-0.00712924
-0.00539252
-0.00593469
-0.00992879
-0.0105311
-0.00915395
-0.00847716
-0.00681318
-0.00804022
-0.0146006
-0.015831
-0.0138287
-0.016647
-0.0297193
-0.0316797
-0.0264159
-0.0222821
-0.00992693
0.000633292
0.0319916
0.0499151
0.0923222
0.112422
0.158462
0.131397
-0.022641
-0.0427086
0.0573032
0.0676642
0.00592432
-0.000337942
-0.00029014
-1.84489e-05
-100.917
64.8401
4.67868
5.15923
3.21597
2.44255
1.79778
1.54418
1.3046
1.17852
0.986515
0.874214
0.689356
0.628477
0.6069
0.735133
1.17455
1.23865
1.01772
0.894658
0.705873
0.613521
0.481014
0.408199
0.29256
0.249847
0.219338
0.205495
0.184056
0.16008
0.100632
0.0745826
0.0480538
0.0353553
0.0188428
0.0110553
0.000931882
-0.00274998
-0.00532182
-0.00599282
-0.00563147
-0.00660976
-0.0103337
-0.0109821
-0.00955379
-0.00884534
-0.0078036
-0.0071641
-0.00592701
-0.00645487
-0.00953203
-0.0100974
-0.00903265
-0.0084341
-0.00741428
-0.00865796
-0.0139848
-0.0153344
-0.0147189
-0.0176269
-0.0283205
-0.0302866
-0.0262801
-0.0222387
-0.0115657
-0.000994195
0.0262249
0.0441709
0.0806971
0.0992892
0.128962
0.101644
-0.0222031
-0.0475588
-0.00229599
0.00848562
-0.00200335
-0.0012143
-0.000397622
-1.82168e-05
-98.9031
61.7229
4.70827
5.20763
3.36633
2.60089
1.90849
1.64213
1.36376
1.2296
1.02093
0.902266
0.690759
0.632044
0.651783
0.786732
1.23032
1.29237
1.05353
0.928217
0.741957
0.64945
0.513189
0.437965
0.309712
0.265649
0.23855
0.2255
0.205931
0.180842
0.111941
0.0838102
0.0525566
0.0388994
0.0205252
0.0124554
0.00224004
-0.00154264
-0.00472416
-0.00559021
-0.0059442
-0.00692105
-0.00992524
-0.0105112
-0.00938177
-0.00873183
-0.007788
-0.00722269
-0.00639073
-0.0068729
-0.00923558
-0.00972884
-0.00889257
-0.00840776
-0.00792469
-0.00911222
-0.013528
-0.0149162
-0.0154678
-0.0182948
-0.0272702
-0.0291315
-0.0261445
-0.0224589
-0.0131981
-0.00328466
0.0208325
0.0376875
0.0697935
0.0857171
0.101746
0.0757599
-0.0256904
-0.0552083
-0.0604801
-0.0498044
-0.0103521
-0.00207367
-0.000476852
-1.6911e-05
-96.889
58.4596
4.86329
5.34981
3.47376
2.75639
2.00221
1.74058
1.41716
1.28367
1.05175
0.934037
0.686054
0.632474
0.692058
0.825985
1.30136
1.35813
1.08482
0.964225
0.774304
0.687143
0.542933
0.469864
0.323506
0.280782
0.257208
0.245775
0.228034
0.203364
0.121625
0.0931676
0.0563594
0.0426352
0.0217979
0.0139432
0.00329224
-0.000358337
-0.00421836
-0.00520751
-0.00623156
-0.0071509
-0.00961319
-0.0101086
-0.00919039
-0.00862994
-0.00775711
-0.00729178
-0.0068017
-0.00721552
-0.00901374
-0.00941329
-0.00873831
-0.00838123
-0.00836815
-0.00943719
-0.0131921
-0.0145312
-0.0161253
-0.0187163
-0.0265038
-0.0281695
-0.0260356
-0.0229004
-0.0148543
-0.00614031
0.0157343
0.030598
0.0595413
0.0721451
0.0762154
0.0529025
-0.0320403
-0.0638016
-0.119266
-0.109208
-0.0174243
-0.00264816
-0.000499658
-1.39369e-05
-94.8751
55.042
5.1527
5.58661
3.53496
2.91344
2.07626
1.84153
1.46298
1.34168
1.078
0.971024
0.673576
0.628379
0.729359
0.85158
1.38914
1.4371
1.11
1.00302
0.802552
0.727129
0.569844
0.504704
0.333164
0.295158
0.275388
0.266309
0.250421
0.228175
0.129183
0.102864
0.0592425
0.0466584
0.0225533
0.0155445
0.00406563
0.000835251
-0.00382672
-0.0048229
-0.00652271
-0.0073187
-0.00937956
-0.00976238
-0.00898454
-0.0085404
-0.00770978
-0.00736172
-0.00717635
-0.00750261
-0.0088477
-0.00914059
-0.00857122
-0.00834082
-0.00876819
-0.00965458
-0.0129526
-0.0141358
-0.0167427
-0.0189295
-0.0259817
-0.0273586
-0.0259656
-0.0235368
-0.0165352
-0.00951969
0.0109196
0.0229488
0.0499464
0.0589183
0.0517851
0.0325174
-0.0405038
-0.071423
-0.18064
-0.171846
-0.0213897
-0.00270216
-0.000445926
-9.06024e-06
-92.8613
51.4534
5.59529
5.92294
3.53903
3.07917
2.12626
1.94825
1.49852
1.40539
1.098
1.01563
0.65101
0.618438
0.76581
0.860562
1.49651
1.53108
1.12639
1.04556
0.825808
0.770399
0.593076
0.543807
0.337488
0.30881
0.293148
0.287122
0.273069
0.256061
0.133839
0.113255
0.0608868
0.0511445
0.0226264
0.0173257
0.00451003
0.00208681
-0.00358119
-0.00440975
-0.0068497
-0.00743565
-0.00921285
-0.00946243
-0.00876522
-0.00846622
-0.00764305
-0.00742503
-0.0075304
-0.00774881
-0.00872363
-0.00890229
-0.00839049
-0.00827401
-0.00914976
-0.0097754
-0.0127977
-0.0136832
-0.0173766
-0.0189478
-0.0256861
-0.0266578
-0.0259362
-0.0243549
-0.0182149
-0.0134339
0.00644397
0.0147037
0.0410754
0.0463388
0.027844
0.0142884
-0.0506403
-0.0758931
-0.246708
-0.240124
-0.0200639
-0.00208737
-0.000311316
-3.26033e-06
-90.8478
47.6673
6.22208
6.36779
3.46618
3.26466
2.14527
2.06585
1.5198
1.47768
1.10899
1.07153
0.615164
0.601299
0.804366
0.847897
1.62793
1.64263
1.12983
1.09366
0.842496
0.818551
0.611192
0.589198
0.334711
0.321947
0.310526
0.30826
0.295838
0.288159
0.134432
0.124921
0.0608278
0.0563829
0.021772
0.0194084
0.00453931
0.00346859
-0.00352892
-0.0039319
-0.00725065
-0.0075048
-0.00910713
-0.00920026
-0.0085299
-0.00841293
-0.00755204
-0.00747533
-0.00787985
-0.00796467
-0.00863135
-0.00869154
-0.00819389
-0.00816745
-0.00954128
-0.00980027
-0.0127281
-0.0131182
-0.0180952
-0.0187591
-0.0256208
-0.0260243
-0.0259405
-0.0253544
-0.0198391
-0.0179505
0.00243472
0.0057359
0.0330506
0.0347116
0.00370775
-0.00188172
-0.0623561
-0.0745273
-0.319854
-0.316925
-0.0106423
-0.000818036
-0.000112614
8.27535e-07
-88.8343
48.8051
6.16127
6.29038
3.13139
2.90995
1.76412
1.69005
1.29938
1.27099
0.948699
0.917831
0.54179
0.530845
0.697219
0.734668
1.47747
1.50263
1.203
1.18254
0.91205
0.885453
0.653011
0.626996
0.348356
0.333193
0.313513
0.309684
0.280481
0.271818
0.114189
0.104272
0.0401333
0.0357842
0.00744845
0.00402166
-0.039372
-0.0414138
-0.0374293
-0.0370973
-0.0390413
-0.0394165
-0.0434702
-0.0438207
-0.0411804
-0.0407587
-0.0373488
-0.0368577
-0.0319037
-0.0311567
-0.0191166
-0.0195322
-0.0422685
-0.0423746
-0.021792
-0.0218492
-0.0435998
-0.0435962
-0.0217912
-0.0212805
-0.0289806
-0.0303638
-0.0564536
-0.0563887
-0.0332944
-0.0303461
0.00111869
0.00574836
0.0529009
0.0582577
0.0751685
0.0791648
0.135644
0.134107
-0.111701
-0.118262
0.00747484
0.00324789
0.000884021
0.000235132
-87.5504
52.8809
5.54663
5.83584
3.22504
2.71521
1.71578
1.5491
1.24504
1.18611
0.925103
0.857963
0.557339
0.532015
0.655984
0.73496
1.32074
1.38049
1.18467
1.14445
0.915497
0.853696
0.648586
0.588902
0.358793
0.324023
0.299206
0.289367
0.26106
0.241849
0.116587
0.0949121
0.040852
0.0311554
0.00791469
0.000229279
-0.0362578
-0.0409702
-0.0381672
-0.0372263
-0.0373468
-0.0382624
-0.0436016
-0.0446244
-0.0421678
-0.0411109
-0.0378082
-0.0366302
-0.0323267
-0.0307055
-0.0214668
-0.022319
-0.0396269
-0.0398676
-0.0244058
-0.0245353
-0.0409784
-0.0409693
-0.0244237
-0.0234148
-0.0296169
-0.0325256
-0.0524468
-0.052127
-0.0330441
-0.0261458
0.00242083
0.0135356
0.0563855
0.070322
0.0955882
0.104961
0.144794
0.147636
-0.00135528
-0.0167592
0.0276277
0.00967211
0.0025847
0.000689199
-89.8589
56.761
5.11587
5.49736
3.23471
2.54009
1.63415
1.41366
1.18091
1.10931
0.893753
0.807436
0.561877
0.527215
0.616549
0.714979
1.18504
1.26858
1.16012
1.11391
0.912264
0.827678
0.63835
0.557631
0.361422
0.314461
0.284306
0.269794
0.241279
0.216127
0.114844
0.0868509
0.0397986
0.0270705
0.00776043
-0.00240963
-0.0344135
-0.0408264
-0.0388299
-0.0373122
-0.0356198
-0.0369308
-0.0439051
-0.0455669
-0.0430987
-0.0415525
-0.0381822
-0.0365273
-0.032642
-0.0305586
-0.0234129
-0.0244472
-0.0376675
-0.0379882
-0.0263956
-0.0265685
-0.0390146
-0.0390036
-0.0264344
-0.0252604
-0.0303844
-0.0340063
-0.0492491
-0.0486152
-0.0323056
-0.0228112
0.00442224
0.0200548
0.0610282
0.081935
0.116646
0.129543
0.155429
0.167248
0.103661
0.0823677
0.0502877
0.0156699
0.0040814
0.00109213
-92.1677
60.4715
4.83903
5.26476
3.18176
2.3735
1.52516
1.27873
1.11033
1.03828
0.857235
0.763279
0.55798
0.517454
0.576748
0.680131
1.0648
1.16435
1.13308
1.08959
0.904357
0.80586
0.623782
0.530991
0.358092
0.304236
0.268787
0.250789
0.22137
0.193456
0.110176
0.0795571
0.0373764
0.0232522
0.00724331
-0.00417289
-0.0335909
-0.0410173
-0.0394721
-0.037404
-0.0337716
-0.0353717
-0.0444201
-0.0466737
-0.043992
-0.0420665
-0.0384869
-0.0365129
-0.0328845
-0.0306135
-0.0250311
-0.0260872
-0.0362234
-0.0365847
-0.027914
-0.02811
-0.0375485
-0.0375395
-0.0279887
-0.0268533
-0.0312113
-0.0350215
-0.0466856
-0.0457294
-0.0312931
-0.0201845
0.00688971
0.0255626
0.0664762
0.0929988
0.13858
0.153611
0.166637
0.189893
0.207011
0.181952
0.0730703
0.0207592
0.00524098
0.00140164
-94.4767
64.0287
4.69811
5.13266
3.07793
2.2086
1.39213
1.14071
1.03592
0.971606
0.817236
0.723577
0.547493
0.5037
0.535183
0.63403
0.95597
1.06535
1.10654
1.07095
0.892992
0.7874
0.605656
0.507569
0.350012
0.293286
0.252582
0.23225
0.201411
0.173008
0.103409
0.072732
0.0338371
0.0195135
0.00654601
-0.00521315
-0.0336456
-0.0415652
-0.0401336
-0.0375568
-0.0317128
-0.0335134
-0.0452058
-0.0479769
-0.0448541
-0.0426457
-0.0387265
-0.0365638
-0.0330718
-0.0307999
-0.0263828
-0.0273631
-0.0351694
-0.0355416
-0.029077
-0.0292811
-0.0364595
-0.0364562
-0.0292054
-0.0282256
-0.0320592
-0.0357214
-0.0446257
-0.0433813
-0.0301458
-0.0181942
0.00969587
0.0301839
0.0725032
0.103304
0.161742
0.177768
0.177451
0.212808
0.312079
0.284924
0.0936166
0.0243925
0.00594288
0.00158237
-96.7861
67.4403
4.68485
5.10029
2.92682
2.04168
1.23657
0.996848
0.959896
0.908543
0.77481
0.687174
0.531715
0.486936
0.490922
0.579002
0.855637
0.969076
1.08306
1.05802
0.878745
0.772001
0.5842
0.486541
0.337913
0.281707
0.235573
0.214143
0.181365
0.154218
0.0950934
0.0662426
0.0293207
0.0157254
0.00580429
-0.00558324
-0.0345181
-0.0424849
-0.0408391
-0.0378388
-0.0293466
-0.0312579
-0.0463469
-0.0495146
-0.0456786
-0.0432923
-0.0388949
-0.0366669
-0.0332092
-0.0310711
-0.0275176
-0.0283649
-0.0344118
-0.0347709
-0.0299721
-0.0301722
-0.0356567
-0.0356619
-0.0301705
-0.0294045
-0.0329129
-0.0362105
-0.0429703
-0.0415112
-0.028945
-0.016839
0.0128011
0.0339353
0.0789949
0.112509
0.186607
0.202588
0.186853
0.233192
0.42224
0.394498
0.109309
0.0260116
0.00609242
0.00161099
-99.096
70.7069
4.79956
5.17163
2.72431
1.87166
1.05844
0.844908
0.884463
0.84878
0.730543
0.653485
0.511511
0.468221
0.443296
0.51643
0.761829
0.872781
1.06516
1.05126
0.861611
0.759861
0.559154
0.467567
0.322132
0.269739
0.217589
0.196501
0.161104
0.136716
0.0855752
0.0600831
0.0238769
0.011795
0.00512511
-0.0052482
-0.0362267
-0.0437869
-0.0415969
-0.0383388
-0.0265628
-0.0284739
-0.0479637
-0.0513314
-0.0464441
-0.0440184
-0.0389755
-0.0368182
-0.0332929
-0.0313979
-0.0284753
-0.0291577
-0.0338806
-0.0342055
-0.0306664
-0.0308509
-0.0350723
-0.0350866
-0.0309455
-0.0304114
-0.033774
-0.03656
-0.0416424
-0.0400837
-0.0277239
-0.0161826
0.0162495
0.0367331
0.0859521
0.120095
0.213802
0.228686
0.193789
0.247895
0.54111
0.514408
0.116954
0.0251118
0.00563618
0.00147881
-101.406
73.8214
5.05096
5.3559
2.45814
1.70015
0.856382
0.682871
0.812051
0.792323
0.684631
0.622394
0.48736
0.448771
0.391747
0.446965
0.673396
0.773229
1.05551
1.05155
0.840972
0.751692
0.529759
0.45076
0.302641
0.257773
0.198372
0.179442
0.140411
0.120293
0.0750384
0.0543584
0.0174734
0.00765227
0.00459757
-0.00408606
-0.0388696
-0.045477
-0.0423958
-0.0391781
-0.0232302
-0.0249854
-0.0502241
-0.0534773
-0.0471101
-0.0448483
-0.0389398
-0.0370233
-0.0333104
-0.0317649
-0.0292879
-0.029788
-0.0335245
-0.0337938
-0.0312108
-0.0313673
-0.0346552
-0.0346767
-0.0315755
-0.0312616
-0.0346573
-0.0368165
-0.0405788
-0.0390868
-0.0264681
-0.0163596
0.0201786
0.0383845
0.093516
0.125303
0.244156
0.256784
0.19718
0.253059
0.672809
0.649181
0.112401
0.0213313
0.0045783
0.00119338
-103.717
76.7688
5.45704
5.66838
2.10646
1.53213
0.62755
0.508746
0.745603
0.739389
0.636902
0.594216
0.459352
0.430058
0.335706
0.370649
0.590026
0.666379
1.05731
1.0601
0.815491
0.748841
0.494657
0.43673
0.27903
0.246396
0.177545
0.163194
0.11897
0.104882
0.0635246
0.0492868
0.00999135
0.00324224
0.00429793
-0.00187764
-0.0426377
-0.0475531
-0.0431989
-0.0405254
-0.0191883
-0.0205565
-0.053363
-0.0560071
-0.0476112
-0.0458234
-0.0387438
-0.0372996
-0.0332405
-0.0321683
-0.0299806
-0.030288
-0.0333063
-0.0334955
-0.031645
-0.0317578
-0.0343682
-0.034391
-0.0320933
-0.0319627
-0.0355892
-0.0370081
-0.0397244
-0.0385338
-0.0251105
-0.0175919
0.0248431
0.0385615
0.102016
0.127031
0.278763
0.287778
0.195964
0.243688
0.822269
0.804506
0.0900387
0.0145884
0.00299502
0.00077869
-106.028
79.5237
6.04684
6.13186
1.63534
1.37736
0.367309
0.320405
0.688883
0.690307
0.586782
0.569726
0.427122
0.413948
0.274494
0.286955
0.512376
0.546946
1.07463
1.07855
0.782898
0.753499
0.451713
0.426697
0.250424
0.236475
0.154543
0.148147
0.0963283
0.0905667
0.0509295
0.0452207
0.00120996
-0.00147792
0.00428926
0.00171558
-0.0478384
-0.0499991
-0.043934
-0.0426186
-0.0142375
-0.0148695
-0.0577078
-0.0589781
-0.0478476
-0.0470097
-0.0383218
-0.03768
-0.0330507
-0.0326159
-0.0305731
-0.0306791
-0.0332008
-0.0332784
-0.0320002
-0.032048
-0.0341843
-0.0341976
-0.032524
-0.032513
-0.0366089
-0.0371472
-0.0390256
-0.0384693
-0.0235157
-0.0202197
0.0306578
0.0367505
0.112056
0.123693
0.319082
0.322811
0.189175
0.213096
0.995601
0.987716
0.0421281
0.00529671
0.00104338
0.000273412
-108.339
92.4297
-1.80811
-1.7648
0.48405
0.541329
0.430717
0.451232
1.34025
1.36152
0.993619
0.959903
0.67793
0.65673
0.398991
0.415709
0.774
0.816082
1.37351
1.36504
0.791518
0.746548
0.389353
0.359936
0.156585
0.145556
0.147115
0.145596
0.14718
0.140726
0.0534474
0.0470823
0.0195718
0.0170294
0.00281386
0.00163349
-0.00396661
-0.00448693
-0.00619111
-0.00619144
-0.00243934
-0.00284904
-0.0144398
-0.0147813
-0.010335
-0.010046
-0.00825928
-0.0079956
-0.00352636
-0.00384183
-0.0163667
-0.0169631
-0.016549
-0.0166544
-0.0166566
-0.0167708
-0.0192224
-0.0191838
-0.0129662
-0.0139576
-0.0418373
-0.0419724
-0.0182259
-0.0154595
0.0224084
0.0273126
0.0952744
0.104064
0.227704
0.24212
0.434937
0.460195
0.839835
0.866853
1.05369
1.17318
4.02723
3.9856
0.178111
0.023711
-118.589
88.3191
-1.16471
-1.05033
0.601411
0.6923
0.52491
0.556959
1.26447
1.30914
1.00071
0.922862
0.683411
0.639701
0.46432
0.51179
0.84653
0.939516
1.34565
1.32021
0.852818
0.751541
0.446766
0.378586
0.199198
0.173301
0.173453
0.168649
0.157445
0.140997
0.0659571
0.0509439
0.024778
0.0186164
0.00588744
0.00304445
-0.00247152
-0.00378199
-0.00553258
-0.00561556
-0.00297369
-0.00392204
-0.0132624
-0.0140285
-0.0105601
-0.00991928
-0.00836011
-0.00779822
-0.0044507
-0.00510011
-0.014673
-0.0160254
-0.0165458
-0.0168871
-0.0169166
-0.0171701
-0.0191768
-0.0192085
-0.015163
-0.0173503
-0.0388783
-0.0391291
-0.0203323
-0.0142764
0.0169997
0.0278714
0.0840323
0.103442
0.204792
0.236534
0.394917
0.449812
0.75343
0.813986
0.993135
1.23955
3.38772
3.29761
0.388205
0.0657513
-115.418
84.2537
-0.571119
-0.397371
0.781186
0.853587
0.611116
0.635661
1.21519
1.27088
0.998575
0.892283
0.681061
0.627939
0.520733
0.596378
0.928729
1.05042
1.33506
1.29306
0.899481
0.764681
0.494723
0.401689
0.235677
0.200008
0.199993
0.19196
0.167924
0.143615
0.0760683
0.0552536
0.0291856
0.0204672
0.00856645
0.00456299
-0.00114415
-0.00305905
-0.00494047
-0.00514844
-0.00336425
-0.00465921
-0.012428
-0.0134451
-0.010672
-0.00982923
-0.008421
-0.0077122
-0.00521508
-0.00600136
-0.0133081
-0.015121
-0.0165498
-0.0171321
-0.0171677
-0.0174993
-0.0192101
-0.0193962
-0.0171105
-0.0199691
-0.0367701
-0.0370473
-0.0219287
-0.0141018
0.0124076
0.026619
0.0742606
0.0995413
0.184664
0.225882
0.359036
0.429481
0.676747
0.756373
0.929889
1.22983
2.83773
2.72239
0.494813
0.0970824
-112.249
80.2115
-0.00765921
0.215357
1.00518
1.02745
0.686623
0.692151
1.18686
1.24573
0.989796
0.8659
0.672386
0.618339
0.56983
0.670694
1.01935
1.15481
1.33754
1.27999
0.935802
0.783239
0.535614
0.427722
0.26695
0.225296
0.226861
0.215919
0.17842
0.147967
0.0843143
0.0597768
0.0329018
0.0224472
0.010931
0.00615073
3.23377e-05
-0.00233685
-0.00441483
-0.00476065
-0.00363135
-0.00513718
-0.0118634
-0.0130131
-0.0107066
-0.00976171
-0.00845381
-0.00769761
-0.00584801
-0.00664168
-0.0121628
-0.0142318
-0.0165876
-0.017399
-0.0174068
-0.0177732
-0.0193043
-0.0196826
-0.0188519
-0.0220299
-0.0353225
-0.035581
-0.0232331
-0.014674
0.00830781
0.0240298
0.0653838
0.0932479
0.166293
0.211554
0.325665
0.402078
0.60677
0.695
0.861576
1.16778
2.35665
2.23164
0.528214
0.115717
-109.084
76.1727
0.543582
0.805368
1.25983
1.2158
0.748256
0.729058
1.17595
1.23317
0.975731
0.842299
0.658131
0.608515
0.612948
0.735095
1.1185
1.25731
1.34963
1.27839
0.964473
0.805615
0.570931
0.455883
0.29347
0.248865
0.254236
0.240947
0.18864
0.153654
0.0910009
0.0643977
0.0359643
0.024472
0.0130278
0.00779334
0.00105988
-0.00162552
-0.00395789
-0.0044314
-0.00379268
-0.00540604
-0.0115216
-0.0127192
-0.0106866
-0.00970858
-0.00846444
-0.00772661
-0.00637505
-0.00709273
-0.0111554
-0.0133311
-0.016687
-0.017698
-0.0176315
-0.0180004
-0.0194445
-0.0200172
-0.0204326
-0.0236858
-0.0343958
-0.0346185
-0.0243853
-0.0158225
0.00449906
0.020416
0.0570472
0.085148
0.149034
0.194472
0.293803
0.369544
0.54145
0.630489
0.787667
1.07041
1.9281
1.804
0.509959
0.121655
-105.922
72.1182
1.10009
1.38762
1.53438
1.42106
0.791931
0.747304
1.18062
1.23318
0.9567
0.820725
0.638492
0.596527
0.651353
0.78904
1.22742
1.36167
1.36828
1.28651
0.986958
0.831041
0.601478
0.485953
0.315289
0.270445
0.282368
0.267544
0.198176
0.160454
0.0962514
0.0690964
0.0383527
0.0264975
0.0148783
0.00949739
0.00192664
-0.000927444
-0.00357465
-0.00414614
-0.0038635
-0.00549447
-0.0113762
-0.0125543
-0.0106242
-0.00966596
-0.00845467
-0.00778001
-0.00681914
-0.0074098
-0.0102234
-0.012383
-0.0168801
-0.01804
-0.0178387
-0.0181845
-0.0196194
-0.0203577
-0.0218995
-0.0250429
-0.0338881
-0.0340735
-0.0254701
-0.0174407
0.000867199
0.0159744
0.0490525
0.0756173
0.132514
0.175236
0.262885
0.333165
0.479444
0.563246
0.708721
0.95001
1.53879
1.42313
0.455456
0.116037
-102.763
68.0285
1.68023
1.97545
1.81929
1.64692
0.812203
0.746414
1.2005
1.24634
0.932044
0.800998
0.613241
0.580664
0.68644
0.830953
1.34851
1.47114
1.39046
1.30335
1.00371
0.85943
0.62748
0.518242
0.332087
0.289765
0.311579
0.296331
0.206454
0.16832
0.100026
0.0739433
0.0399891
0.0285162
0.0164811
0.0112905
0.00260585
-0.00023679
-0.00327379
-0.00389452
-0.00385737
-0.00541253
-0.0114188
-0.0125134
-0.0105228
-0.00963332
-0.0084233
-0.0078447
-0.00720098
-0.00763777
-0.00931733
-0.0113412
-0.0172067
-0.0184363
-0.0180239
-0.0183249
-0.019822
-0.0206659
-0.023302
-0.0261714
-0.0337262
-0.0338795
-0.0265313
-0.0194694
-0.00263592
0.0108146
0.0413191
0.0648742
0.116561
0.154204
0.232664
0.293746
0.419937
0.493531
0.625929
0.815692
1.17764
1.07632
0.375803