/*--------------------------------*- C++ -*----------------------------------*\
| =========                 |                                                 |
| \\      /  F ield         | OpenFOAM: The Open Source CFD Toolbox           |
|  \\    /   O peration     | Version:  5.x                                   |
|   \\  /    A nd           | Web:      www.OpenFOAM.org                      |
|    \\/     M anipulation  |                                                 |
\*---------------------------------------------------------------------------*/
FoamFile
{
    version     2.0;
    format      ascii;
    class       volScalarField;
    location    "0.2";
    object      gradTy;
}
// * * * * * * * * * * * * * * * * * * * * * * * * * * * * * * * * * * * * * //

dimensions      [0 -1 0 1 0 0 0];

internalField   nonuniform List<scalar> 
3200
(
60.5457
18.6006
4.832
14.2264
10.2984
13.1881
11.7549
13.2441
12.1977
13.2968
12.336
13.2163
12.6413
13.5809
12.1685
14.0575
10.278
12.5866
10.3042
11.977
10.2799
11.4411
10.256
10.9622
10.419
10.8534
10.2936
10.653
10.1336
10.3627
10.2143
10.2903
10.2443
10.2565
10.2539
10.2148
10.2992
10.229
10.2883
10.2283
10.3042
10.2397
10.3033
10.2331
10.2915
10.2307
10.2825
10.235
10.2525
10.1945
10.2935
10.2255
10.2856
10.2347
10.2539
10.1922
10.2941
10.2262
10.2536
10.183
10.247
10.115
10.3497
10.1818
10.3596
10.2076
10.39
10.2572
10.4631
10.3784
10.6116
10.6514
10.8932
11.2874
10.7925
11.5659
12.7011
13.1798
13.3216
13.3565
54.2564
21.1486
8.19798
13.7067
11.0784
12.9365
12.0625
13.053
12.4044
13.1285
12.513
13.0969
12.7583
13.3519
12.3594
13.4927
10.826
12.2349
10.6813
11.7222
10.5552
11.2695
10.4458
10.8807
10.5116
10.7756
10.3747
10.5836
10.2085
10.3431
10.2404
10.286
10.2515
10.2577
10.2552
10.2299
10.2857
10.24
10.2773
10.2396
10.2935
10.2525
10.2913
10.2443
10.2804
10.2402
10.2729
10.2406
10.2478
10.2102
10.2786
10.2359
10.275
10.2407
10.2488
10.2086
10.2785
10.234
10.2464
10.1978
10.2352
10.1518
10.3149
10.2108
10.3305
10.2356
10.3616
10.2835
10.4354
10.398
10.5876
10.6491
10.8817
11.1725
10.8928
11.5517
12.7276
13.1935
13.3261
13.3581
49.2915
22.8905
10.8257
13.5125
11.6789
12.7942
12.2954
12.9274
12.5562
13.0137
12.6421
13.0143
12.8379
13.1862
12.4653
13.0798
11.2109
12.0016
10.9546
11.5556
10.7553
11.1595
10.5854
10.8313
10.579
10.7244
10.4316
10.5377
10.2632
10.333
10.2608
10.2852
10.2573
10.2594
10.2576
10.242
10.2766
10.2479
10.2695
10.2475
10.2869
10.2622
10.2829
10.2524
10.2726
10.247
10.2662
10.2449
10.2451
10.2219
10.2684
10.2432
10.2676
10.2453
10.2459
10.2209
10.2677
10.2397
10.2419
10.2093
10.2285
10.1789
10.2911
10.2311
10.3102
10.2551
10.3417
10.301
10.4154
10.4087
10.569
10.6403
10.8682
11.0806
10.9559
11.5171
12.7827
13.2207
13.3348
13.3612
45.3828
24.059
12.8634
13.4991
12.1614
12.7164
12.4832
12.8419
12.6748
12.9321
12.7413
12.9537
12.8966
13.0633
12.5177
12.7662
11.4893
11.8419
11.1619
11.4451
10.9073
11.0887
10.6923
10.802
10.6307
10.6909
10.4726
10.5072
10.3043
10.3289
10.2775
10.2866
10.2621
10.2614
10.2608
10.2522
10.2701
10.254
10.2637
10.253
10.283
10.2704
10.2767
10.2586
10.2669
10.2522
10.2613
10.2484
10.2436
10.231
10.2614
10.2488
10.2623
10.2491
10.2442
10.2304
10.2601
10.2444
10.2391
10.219
10.2248
10.1997
10.2743
10.246
10.2956
10.2692
10.3271
10.3124
10.4005
10.4129
10.5541
10.6254
10.8556
11.0024
10.9917
11.4544
12.8711
13.2611
13.3472
13.3655
42.3272
24.8225
14.4278
13.5646
12.5683
12.6701
12.6472
12.7775
12.7764
12.8684
12.8244
12.9039
12.9462
12.9689
12.5384
12.5136
11.7025
11.7234
11.3307
11.3674
11.0305
11.041
10.779
10.7839
10.6731
10.6687
10.5035
10.4863
10.3363
10.3278
10.2919
10.2894
10.266
10.2635
10.2644
10.2616
10.2652
10.2592
10.2588
10.2571
10.2809
10.2779
10.2717
10.264
10.2622
10.2565
10.2574
10.2518
10.2425
10.2386
10.2561
10.2535
10.2582
10.2528
10.243
10.2384
10.2544
10.2489
10.2369
10.2278
10.2224
10.2167
10.2619
10.2579
10.2841
10.28
10.3156
10.3199
10.3887
10.4122
10.5422
10.6043
10.8464
10.9306
11.0087
11.3538
13.0007
13.3137
13.3625
13.3706
39.9717
25.3016
15.611
13.6355
12.9312
12.6288
12.8051
12.7183
12.8743
12.8101
12.9026
12.8555
12.9967
12.8926
12.5428
12.2924
11.8825
11.6214
11.4824
11.3046
11.1399
11.0042
10.855
10.7705
10.7112
10.6528
10.5286
10.4707
10.3627
10.3279
10.305
10.2931
10.2691
10.2656
10.2682
10.2707
10.2606
10.2642
10.254
10.2602
10.28
10.2856
10.2667
10.2691
10.2576
10.2607
10.2539
10.2554
10.2413
10.2453
10.2517
10.2579
10.2545
10.2566
10.2416
10.2456
10.2496
10.2537
10.2347
10.2365
10.2201
10.2317
10.2514
10.2687
10.2739
10.2893
10.3053
10.3248
10.3789
10.4072
10.533
10.576
10.8436
10.8592
11.015
11.2011
13.1838
13.377
13.3794
13.376
38.2031
25.5815
16.4856
13.6555
13.278
12.5684
12.9736
12.6494
12.9811
12.7456
12.9864
12.7996
13.0569
12.8262
12.5432
12.0777
12.0565
11.5145
11.6356
11.2414
11.248
10.968
10.9284
10.7561
10.7493
10.6396
10.551
10.4571
10.3862
10.3275
10.3177
10.2973
10.2714
10.2673
10.2719
10.2802
10.2555
10.2697
10.2485
10.2627
10.2796
10.2942
10.2609
10.2747
10.2525
10.2652
10.2499
10.2596
10.2393
10.2519
10.2473
10.2627
10.2506
10.2612
10.2395
10.2527
10.2449
10.2593
10.2316
10.2459
10.2166
10.2464
10.241
10.2799
10.2632
10.2985
10.2948
10.3283
10.37
10.3983
10.5272
10.5388
10.8509
10.7821
11.0201
10.9765
13.4383
13.4479
13.3965
13.3813
36.9393
25.7203
17.1095
13.5774
13.6381
12.4634
13.1712
12.5542
13.1105
12.662
13.0873
12.726
13.1367
12.7618
12.551
11.8452
12.2514
11.3812
11.8094
11.1621
11.3676
10.9221
11.007
10.735
10.7915
10.6255
10.5735
10.4424
10.4091
10.325
10.3306
10.3016
10.2726
10.2686
10.2755
10.291
10.2487
10.2766
10.2414
10.265
10.2792
10.3047
10.253
10.2817
10.2459
10.2707
10.2448
10.2648
10.2358
10.2591
10.242
10.2684
10.2456
10.2669
10.2358
10.2606
10.239
10.2665
10.2268
10.2569
10.2107
10.2623
10.2287
10.2932
10.2504
10.3092
10.2828
10.3313
10.3615
10.3852
10.5258
10.4893
10.8732
10.6925
11.0364
10.6516
13.7909
13.5211
13.4121
13.3858
36.124
25.7547
17.5302
13.3555
14.0476
12.2831
13.4218
12.4122
13.2801
12.5435
13.2196
12.6215
13.248
12.6909
12.5786
11.5682
12.4973
11.1959
12.0262
11.0487
11.5133
10.855
11.0999
10.7008
10.8425
10.6067
10.5991
10.4238
10.4339
10.3188
10.3448
10.3057
10.2728
10.2693
10.2785
10.3039
10.2389
10.2857
10.2319
10.2675
10.2781
10.318
10.2418
10.2911
10.2366
10.2781
10.2377
10.2718
10.2301
10.2677
10.2347
10.2759
10.2387
10.2745
10.2297
10.2701
10.231
10.2763
10.2189
10.2708
10.2006
10.2814
10.2123
10.3105
10.2333
10.323
10.2675
10.3349
10.3531
10.3672
10.5314
10.4229
10.918
10.5818
11.0816
10.1855
14.2796
13.5877
13.4242
13.3892
35.7235
25.7031
17.7888
12.9389
14.5554
11.9868
13.7584
12.1951
13.5139
12.3685
13.403
12.468
13.4066
12.6023
12.6421
11.2137
12.8325
10.9255
12.3154
10.8777
11.7038
10.7517
11.2185
10.6448
10.9085
10.5787
10.6313
10.3976
10.4636
10.3068
10.3614
10.3094
10.2715
10.2694
10.2806
10.3202
10.2245
10.2987
10.2185
10.2708
10.2757
10.3358
10.2253
10.3044
10.2233
10.2885
10.2275
10.2817
10.221
10.2789
10.2243
10.2863
10.2286
10.285
10.2199
10.2826
10.2195
10.2898
10.2064
10.2893
10.1843
10.3063
10.189
10.3347
10.2092
10.3424
10.2471
10.3402
10.3446
10.343
10.5476
10.332
10.9957
10.4374
11.1824
9.51955
14.9595
13.6329
13.4309
13.3909
-14.0963
-9.4306
-20.7968
-14.3646
-15.621
-12.7505
-13.7665
-11.7747
-13.0064
-11.4346
-12.4774
-11.3018
-12.2614
-11.3872
-11.4335
-10.0829
-11.7379
-10.0746
-11.1144
-9.96416
-10.4885
-9.73064
-10.0104
-9.53196
-9.70059
-9.38631
-9.46023
-9.21313
-9.22601
-9.06689
-9.05306
-8.97804
-8.98823
-8.95375
-8.95494
-8.94988
-8.92646
-8.9357
-8.91825
-8.92742
-8.9265
-8.93993
-8.9127
-8.92985
-8.91422
-8.92742
-8.91544
-8.92479
-8.92518
-8.9375
-8.91379
-8.92963
-8.91457
-8.92604
-8.92594
-8.94365
-8.90826
-8.93109
-8.92657
-8.96316
-8.88946
-8.93632
-8.89418
-8.91888
-8.9206
-8.89106
-9.01428
-8.89241
-9.18278
-8.94083
-9.61492
-9.51219
-9.32457
-9.27554
-10.1781
-10.0777
-10.0734
-10.0738
-10.074
-10.0739
-14.2838
-11.3233
-18.9767
-14.735
-15.1091
-13.0353
-13.4473
-12.0419
-12.7229
-11.6445
-12.2521
-11.4673
-12.0843
-11.4745
-11.3657
-10.4193
-11.4144
-10.2844
-10.8846
-10.0895
-10.3478
-9.80869
-9.92145
-9.57761
-9.64855
-9.41944
-9.42453
-9.23615
-9.19954
-9.07454
-9.04208
-8.98344
-8.98123
-8.95509
-8.95242
-8.94709
-8.92866
-8.93326
-8.92067
-8.92659
-8.92714
-8.93577
-8.91668
-8.92729
-8.91691
-8.92538
-8.9176
-8.92409
-8.92573
-8.93381
-8.91731
-8.92717
-8.91718
-8.92505
-8.92665
-8.93813
-8.91354
-8.92866
-8.92841
-8.95184
-8.90034
-8.92951
-8.90183
-8.91876
-8.92283
-8.90851
-9.00045
-8.93316
-9.14675
-9.02031
-9.52976
-9.4828
-9.35164
-9.3632
-10.0922
-10.0736
-10.0729
-10.0735
-10.0737
-10.0735
-14.5905
-12.7923
-17.633
-14.9214
-14.6956
-13.2209
-13.201
-12.2259
-12.51
-11.7872
-12.0826
-11.5769
-11.9565
-11.542
-11.3316
-10.6783
-11.176
-10.4251
-10.7106
-10.1728
-10.2391
-9.86079
-9.85082
-9.60676
-9.60858
-9.44328
-9.39662
-9.25315
-9.17664
-9.0785
-9.03217
-8.98658
-8.97518
-8.95549
-8.95
-8.94482
-8.92993
-8.9315
-8.92234
-8.92596
-8.92744
-8.9327
-8.91947
-8.92556
-8.91883
-8.92399
-8.91917
-8.92357
-8.92601
-8.93109
-8.91977
-8.92548
-8.91906
-8.9243
-8.92694
-8.93404
-8.91721
-8.92683
-8.92929
-8.9435
-8.90797
-8.92496
-8.90768
-8.91914
-8.92577
-8.92169
-8.99295
-8.96263
-9.12427
-9.0743
-9.46678
-9.45671
-9.3729
-9.42201
-10.036
-10.0686
-10.0721
-10.0729
-10.0731
-10.0729
-14.9699
-13.9966
-16.592
-15.0087
-14.3324
-13.3486
-12.9932
-12.3597
-12.3376
-11.8894
-11.9454
-11.6513
-11.8606
-11.6014
-11.3154
-10.8914
-10.9878
-10.5245
-10.5698
-10.2321
-10.1484
-9.89826
-9.78965
-9.62616
-9.57536
-9.46242
-9.37262
-9.2675
-9.15462
-9.08041
-9.02224
-8.98836
-8.96947
-8.95531
-8.94757
-8.94293
-8.93053
-8.93016
-8.92349
-8.9254
-8.92758
-8.93037
-8.92147
-8.92433
-8.92026
-8.92298
-8.92037
-8.92311
-8.92617
-8.929
-8.92152
-8.92427
-8.92045
-8.92365
-8.92704
-8.93089
-8.91982
-8.92528
-8.92969
-8.93713
-8.91348
-8.92176
-8.91235
-8.91969
-8.92911
-8.93182
-8.98948
-8.98438
-9.11021
-9.11054
-9.41986
-9.4335
-9.38875
-9.45809
-10.0028
-10.0645
-10.0711
-10.0721
-10.0722
-10.0721
-15.3888
-15.0586
-15.7186
-15.0601
-13.9817
-13.4513
-12.7966
-12.4692
-12.1824
-11.9716
-11.8224
-11.7056
-11.7835
-11.6621
-11.3048
-11.0839
-10.8221
-10.6037
-10.4444
-10.2813
-10.0643
-9.93013
-9.73072
-9.64109
-9.54467
-9.48067
-9.34927
-9.28218
-9.13108
-9.08169
-9.01134
-8.98954
-8.96357
-8.95488
-8.94501
-8.94135
-8.93065
-8.92906
-8.92429
-8.92483
-8.92769
-8.92849
-8.92299
-8.92337
-8.92142
-8.92217
-8.92134
-8.92264
-8.92633
-8.92733
-8.92287
-8.92332
-8.92156
-8.92297
-8.92712
-8.92833
-8.92175
-8.92376
-8.92995
-8.93199
-8.9177
-8.91925
-8.91635
-8.92014
-8.9327
-8.93973
-8.9885
-9.00087
-9.10114
-9.13439
-9.38472
-9.41258
-9.39997
-9.47507
-9.98889
-10.0624
-10.0703
-10.0711
-10.0712
-10.0711
-15.8211
-16.0812
-14.8981
-15.1283
-13.6091
-13.5591
-12.587
-12.5771
-12.0242
-12.0513
-11.698
-11.7522
-11.7145
-11.7322
-11.2887
-11.278
-10.6547
-10.6806
-10.3192
-10.3327
-9.97703
-9.96463
-9.66743
-9.65631
-9.5127
-9.50163
-9.32335
-9.30023
-9.10346
-9.08381
-8.9985
-8.99089
-8.95697
-8.95449
-8.9422
-8.94005
-8.9304
-8.92809
-8.92488
-8.92416
-8.92788
-8.92687
-8.92428
-8.9225
-8.92246
-8.92143
-8.92223
-8.92206
-8.9266
-8.92587
-8.92401
-8.92245
-8.92254
-8.92218
-8.92731
-8.92608
-8.92334
-8.92206
-8.93037
-8.92751
-8.92129
-8.91692
-8.92007
-8.92023
-8.93651
-8.94596
-8.98896
-9.01383
-9.09474
-9.14955
-9.35847
-9.39326
-9.40766
-9.47447
-9.99251
-10.0629
-10.0696
-10.0701
-10.0701
-10.0701
-16.243
-17.1613
-14.0208
-15.2664
-13.1777
-13.7037
-12.3388
-12.7067
-11.8427
-12.1463
-11.5573
-11.8025
-11.6432
-11.8208
-11.2554
-11.4965
-10.4613
-10.7729
-10.1789
-10.3989
-9.87595
-10.0105
-9.59267
-9.67681
-9.47541
-9.52927
-9.29122
-9.32522
-9.06876
-9.08856
-8.98255
-8.99329
-8.94912
-8.95449
-8.93898
-8.93905
-8.92985
-8.92716
-8.92537
-8.92332
-8.92826
-8.92531
-8.92553
-8.92157
-8.92354
-8.92061
-8.92315
-8.9213
-8.92708
-8.92445
-8.92514
-8.92151
-8.92353
-8.92118
-8.92775
-8.92389
-8.92487
-8.91999
-8.93125
-8.92316
-8.92481
-8.9143
-8.92391
-8.91969
-8.9406
-8.95086
-8.99016
-9.02455
-9.0894
-9.15855
-9.3392
-9.37476
-9.41327
-9.45583
-10.0141
-10.066
-10.0693
-10.0692
-10.0691
-10.0691
-16.6277
-18.4033
-12.9677
-15.5376
-12.6414
-13.9237
-12.0212
-12.8854
-11.6144
-12.2768
-11.3832
-11.8688
-11.5584
-11.939
-11.1896
-11.7661
-10.2139
-10.9013
-10.006
-10.4947
-9.74849
-10.0784
-9.49778
-9.70868
-9.42787
-9.56854
-9.24817
-9.3618
-9.02299
-9.09832
-8.96192
-8.99788
-8.93929
-8.95533
-8.93514
-8.93842
-8.92905
-8.9262
-8.92587
-8.92221
-8.92896
-8.92363
-8.92696
-8.9204
-8.92483
-8.91958
-8.92426
-8.92025
-8.9279
-8.92291
-8.92645
-8.92036
-8.92471
-8.91982
-8.92862
-8.92151
-8.92665
-8.91727
-8.93291
-8.91843
-8.92882
-8.91087
-8.92832
-8.91815
-8.94512
-8.95461
-8.99158
-9.03408
-9.0839
-9.16312
-9.32576
-9.35619
-9.41876
-9.41664
-10.056
-10.0712
-10.0692
-10.0684
-10.0682
-10.0684
-16.9407
-19.9329
-11.5938
-16.027
-11.9377
-14.2709
-11.5927
-13.1493
-11.3086
-12.4693
-11.1537
-11.9668
-11.4457
-12.1022
-11.0707
-12.1206
-9.87672
-11.0929
-9.7776
-10.6397
-9.57789
-10.1826
-9.37114
-9.76015
-9.36341
-9.62621
-9.18772
-9.41645
-8.96064
-9.11653
-8.93439
-9.00625
-8.92646
-8.95763
-8.93037
-8.93831
-8.928
-8.92514
-8.92651
-8.92069
-8.93015
-8.92162
-8.92879
-8.91881
-8.92652
-8.91817
-8.92573
-8.91874
-8.92925
-8.92105
-8.92816
-8.9188
-8.92628
-8.91793
-8.93014
-8.91866
-8.92902
-8.91358
-8.93578
-8.91272
-8.93398
-8.90605
-8.93385
-8.91514
-8.95037
-8.95729
-8.9928
-9.04336
-9.07728
-9.16439
-9.31766
-9.33639
-9.42692
-9.35191
-10.123
-10.0773
-10.0693
-10.0679
-10.0676
-10.0678
-17.1332
-21.9149
-9.70834
-16.8568
-10.9767
-14.8182
-10.9945
-13.5489
-10.8825
-12.7607
-10.8388
-12.1179
-11.2858
-12.3327
-10.8683
-12.6066
-9.40099
-11.3856
-9.46193
-10.8616
-9.34048
-10.3434
-9.19638
-9.84297
-9.27249
-9.71186
-9.10053
-9.49845
-8.87378
-9.14825
-8.89669
-9.02068
-8.9092
-8.96226
-8.9242
-8.93893
-8.92666
-8.92392
-8.92746
-8.91856
-8.93208
-8.91898
-8.93132
-8.91652
-8.92886
-8.91613
-8.92779
-8.91654
-8.93135
-8.91858
-8.93055
-8.91658
-8.92849
-8.91524
-8.93263
-8.91495
-8.93244
-8.90839
-8.94049
-8.90526
-8.94112
-8.89902
-8.94127
-8.91
-8.95678
-8.95886
-8.99345
-9.05334
-9.06856
-9.16307
-9.315
-9.31379
-9.4418
-9.25347
-10.2229
-10.0821
-10.0693
-10.0676
-10.0672
-10.0676
18.5882
23.3439
11.2934
18.1407
12.8174
16.0084
12.5483
14.5355
12.0773
13.6279
11.8997
12.9602
12.1282
13.0074
11.69
13.1514
9.97915
11.8651
9.8517
11.4341
9.93495
11.0754
9.93197
10.6439
10.089
10.5513
9.94912
10.3431
9.759
10.0136
9.81251
9.90914
9.83165
9.85805
9.8413
9.81213
9.88071
9.81777
9.87259
9.81602
9.88985
9.82682
9.88928
9.81938
9.87896
9.81646
9.87378
9.81962
9.86871
9.82639
9.84272
9.79406
9.87366
9.82327
9.84339
9.79207
9.87396
9.8227
9.84337
9.79971
9.83827
9.77315
9.88357
9.82037
9.88204
9.86808
9.88969
9.95445
9.91618
10.0774
10.1178
10.3459
10.1977
10.4323
11.349
11.4737
11.5245
11.5383
11.5418
11.543
18.3973
21.3819
13.1703
17.4168
13.6869
15.5676
13.0371
14.1856
12.4447
13.3772
12.17
12.8252
12.2704
12.8071
11.8671
12.7086
10.4049
11.5384
10.1905
11.1953
10.1916
10.9064
10.1183
10.5596
10.1836
10.4659
10.0376
10.2665
9.84156
9.988
9.84484
9.9009
9.84317
9.85733
9.84473
9.82517
9.86952
9.82811
9.86252
9.82703
9.87962
9.83946
9.87745
9.83073
9.86786
9.82676
9.86369
9.82841
9.86
9.8314
9.83852
9.80683
9.86152
9.82876
9.83851
9.80517
9.86143
9.82813
9.83822
9.80823
9.8312
9.79002
9.86722
9.82888
9.87216
9.86656
9.88868
9.93809
9.92932
10.0565
10.1367
10.3084
10.2356
10.4741
11.3124
11.4772
11.5265
11.5393
11.5425
11.5436
18.0862
19.867
14.5482
17.0116
14.3318
15.3031
13.3787
13.9513
12.7052
13.2121
12.3658
12.7387
12.369
12.6659
11.9728
12.3917
10.6932
11.311
10.4352
11.0367
10.3795
10.7976
10.2555
10.508
10.252
10.4091
10.0999
10.2162
9.90147
9.97421
9.86942
9.89744
9.85204
9.85792
9.84868
9.83591
9.86202
9.83567
9.85549
9.83478
9.87337
9.84924
9.86927
9.83899
9.86015
9.83421
9.85676
9.8348
9.85397
9.83526
9.83615
9.81642
9.85317
9.83283
9.83563
9.81496
9.85277
9.83211
9.83495
9.81492
9.82698
9.80244
9.85578
9.83443
9.86454
9.86423
9.88688
9.92437
9.93734
10.0378
10.1523
10.281
10.2615
10.4923
11.3033
11.4858
11.5306
11.5413
11.5438
11.5448
17.7032
18.6354
15.6144
16.8119
14.8305
15.1544
13.6204
13.7897
12.8955
13.1011
12.5129
12.6818
12.441
12.5643
12.0342
12.1595
10.8888
11.1434
10.6209
10.9286
10.5245
10.7272
10.3611
10.4769
10.304
10.371
10.1454
10.1833
9.94604
9.9677
9.88887
9.89711
9.85906
9.85932
9.85299
9.84531
9.85683
9.84161
9.85031
9.84039
9.86984
9.85748
9.86334
9.84543
9.85456
9.83996
9.85184
9.83978
9.84969
9.83857
9.83484
9.82399
9.84733
9.83622
9.83393
9.82266
9.8467
9.8354
9.83285
9.82057
9.82447
9.812
9.84759
9.83817
9.85839
9.86125
9.88476
9.9119
9.94213
10.0187
10.1676
10.2599
10.2777
10.4877
11.3198
11.5004
11.5365
11.5441
11.5458
11.5465
17.2825
17.5615
16.5116
16.7391
15.237
15.08
13.794
13.6706
13.0418
13.0219
12.6297
12.6414
12.4984
12.4888
12.0693
11.9832
11.0234
11.0068
10.7733
10.8489
10.6453
10.6796
10.4474
10.4574
10.3465
10.3447
10.1804
10.1615
9.98037
9.96533
9.90496
9.89876
9.86468
9.86112
9.85749
9.85407
9.85285
9.84674
9.84601
9.84456
9.86814
9.86513
9.85851
9.85093
9.85007
9.8448
9.84803
9.84403
9.84641
9.84174
9.83398
9.83035
9.84303
9.83942
9.83274
9.82911
9.8422
9.8385
9.83129
9.82574
9.82279
9.81979
9.84136
9.84089
9.8531
9.85761
9.88266
9.89948
9.94525
9.99703
10.1854
10.2419
10.2865
10.4584
11.3626
11.5211
11.5438
11.5474
11.5481
11.5484
16.8504
16.5406
17.3576
16.7354
15.5895
15.0507
13.9211
13.5717
13.1638
12.9576
12.7304
12.6072
12.5505
12.4298
12.091
11.8418
11.1203
10.8789
10.9134
10.7805
10.7565
10.6428
10.524
10.4428
10.3846
10.325
10.2096
10.1463
10.0081
9.96482
9.91893
9.90157
9.86913
9.86298
9.86202
9.8628
9.84912
9.85169
9.8418
9.84778
9.86755
9.87298
9.85376
9.85621
9.84581
9.84935
9.84457
9.84807
9.84346
9.84508
9.833
9.83611
9.83944
9.84279
9.8315
9.83494
9.83843
9.84179
9.82973
9.83086
9.82116
9.82667
9.83607
9.84316
9.84818
9.85321
9.88095
9.88596
9.9482
9.96991
10.2085
10.2245
10.2902
10.3999
11.4353
11.5474
11.552
11.551
11.5505
11.5504
16.4308
15.4748
18.2613
16.7528
15.9179
15.0451
14.017
13.4752
13.2778
12.8941
12.8269
12.5702
12.6051
12.3794
12.1092
11.7192
11.198
10.74
11.0602
10.7076
10.8713
10.6061
10.5991
10.4272
10.4228
10.3075
10.2368
10.134
10.032
9.96437
9.93172
9.90495
9.87248
9.86458
9.86645
9.87207
9.84469
9.85711
9.83691
9.85041
9.86749
9.88178
9.84811
9.86196
9.84095
9.85418
9.84072
9.8524
9.84022
9.84893
9.83137
9.84182
9.8358
9.8467
9.82961
9.84073
9.83462
9.84565
9.82759
9.83637
9.81887
9.83334
9.83083
9.84546
9.84321
9.84786
9.8801
9.8701
9.95271
9.93407
10.2405
10.2051
10.2921
10.3044
11.5449
11.5778
11.5604
11.5544
11.5528
11.5523
16.0498
14.2597
19.3371
16.7435
16.2479
15.0458
14.0934
13.365
13.3991
12.818
12.9309
12.5217
12.6701
12.3309
12.1322
11.6019
11.2732
10.5699
11.2339
10.6141
11.0033
10.559
10.6808
10.4048
10.4653
10.2881
10.2651
10.1216
10.0544
9.96242
9.94417
9.90844
9.87474
9.86568
9.8706
9.88253
9.83855
9.8637
9.83054
9.85276
9.86741
9.89235
9.84041
9.86897
9.83458
9.85995
9.83574
9.85754
9.836
9.85369
9.82847
9.84804
9.83134
9.85159
9.82645
9.84705
9.82997
9.85053
9.82423
9.84277
9.81516
9.84053
9.82475
9.84828
9.83781
9.84124
9.88078
9.85038
9.9611
9.88506
10.2859
10.1805
10.2968
10.1595
11.7026
11.61
11.568
11.5574
11.5548
11.5539
15.7409
12.7706
20.7203
16.6505
16.6063
15.0365
14.1609
13.2242
13.5451
12.7141
13.0558
12.4508
12.7547
12.2767
12.1684
11.4766
11.3633
10.3452
11.4589
10.4802
11.1686
10.4893
10.7783
10.369
10.5172
10.2625
10.2981
10.106
10.0777
9.95735
9.95713
9.91167
9.87582
9.86601
9.87428
9.89502
9.82943
9.87241
9.82174
9.85521
9.8667
9.90579
9.82929
9.87829
9.8256
9.86748
9.82869
9.8642
9.82999
9.85994
9.82356
9.85548
9.82518
9.85806
9.82123
9.85466
9.82359
9.85705
9.81885
9.8508
9.80909
9.84914
9.81685
9.85223
9.83162
9.83293
9.88401
9.82476
9.97671
9.81671
10.3513
10.1468
10.3113
9.94703
11.9253
11.6397
11.5739
11.5595
11.5562
11.5549
15.5516
10.8455
22.5847
16.3968
17.0259
14.9996
14.2309
13.0331
13.7371
12.5633
13.2186
12.3435
12.8704
12.2077
12.2279
11.3281
11.4896
10.0352
11.7676
10.2796
11.3885
10.3807
10.9037
10.3106
10.5852
10.225
10.3401
10.0837
10.1044
9.94729
9.97171
9.91429
9.87563
9.8654
9.87722
9.91073
9.81573
9.88463
9.80934
9.85829
9.86465
9.9236
9.81289
9.89141
9.81258
9.87798
9.81841
9.87338
9.82115
9.86858
9.81566
9.86516
9.81622
9.86706
9.81294
9.86458
9.81435
9.86617
9.81038
9.86149
9.79947
9.86037
9.80598
9.85814
9.82426
9.82235
9.89136
9.7904
10.0045
9.72027
10.446
10.0981
10.3467
9.64048
12.2381
11.6602
11.5773
11.5607
11.5571
11.5555
-20.5592
-20.9019
-13.7618
-13.316
-13.0264
-11.8398
-12.0583
-10.6089
-12.9896
-11.2105
-12.8519
-11.6306
-12.7449
-11.8481
-12.0367
-10.819
-11.3747
-9.4816
-11.7664
-10.0429
-11.0477
-10.0554
-10.408
-9.90374
-9.94342
-9.62378
-9.68067
-9.39264
-9.57962
-9.4061
-9.43835
-9.37172
-9.38129
-9.35819
-9.34795
-9.34496
-9.33199
-9.33815
-9.32506
-9.33164
-9.33124
-9.34461
-9.31721
-9.33612
-9.3203
-9.33456
-9.32161
-9.33174
-9.33181
-9.34677
-9.31249
-9.33719
-9.31256
-9.33949
-9.31518
-9.34395
-9.31423
-9.34297
-9.33764
-9.38227
-9.3025
-9.34906
-9.32776
-9.33021
-9.38844
-9.31201
-9.5127
-9.29527
-9.76367
-9.31545
-10.1974
-9.3484
-11.132
-9.84511
-11.7509
-8.63456
-18.7252
-16.2675
-15.8936
-15.8202
-20.5454
-20.3346
-14.3604
-13.4975
-12.8747
-11.9362
-11.9728
-11.014
-12.598
-11.4672
-12.5732
-11.8053
-12.5576
-11.9493
-11.9489
-11.0459
-11.1752
-9.87424
-11.3675
-10.2341
-10.8277
-10.1435
-10.3008
-9.93468
-9.90534
-9.66243
-9.64095
-9.4306
-9.53723
-9.41616
-9.42412
-9.3753
-9.37605
-9.35811
-9.34729
-9.34347
-9.33318
-9.33633
-9.32692
-9.33111
-9.33155
-9.34016
-9.32149
-9.33348
-9.32317
-9.3324
-9.32398
-9.33098
-9.33243
-9.34178
-9.31713
-9.33257
-9.31714
-9.33496
-9.31969
-9.3386
-9.31963
-9.33966
-9.34035
-9.36972
-9.31502
-9.34509
-9.33353
-9.3383
-9.38354
-9.34177
-9.4886
-9.36439
-9.70381
-9.44558
-10.0833
-9.59915
-10.8987
-10.1515
-11.5177
-9.86831
-17.4653
-16.1844
-15.8817
-15.8175
-20.5399
-19.9978
-14.7546
-13.6694
-12.7358
-11.9937
-11.9272
-11.3177
-12.3152
-11.6347
-12.3698
-11.9196
-12.4249
-12.0264
-11.8974
-11.2318
-11.0333
-10.1554
-11.0738
-10.3565
-10.6589
-10.198
-10.2147
-9.95229
-9.87591
-9.69231
-9.60887
-9.45596
-9.504
-9.42111
-9.41222
-9.37695
-9.3716
-9.35779
-9.34638
-9.34226
-9.33386
-9.33504
-9.32827
-9.33076
-9.33156
-9.33684
-9.32456
-9.33176
-9.3253
-9.33097
-9.32576
-9.33047
-9.33275
-9.33818
-9.3202
-9.32921
-9.32041
-9.33177
-9.32286
-9.33478
-9.3235
-9.33715
-9.34194
-9.36055
-9.32416
-9.34281
-9.33867
-9.3448
-9.38213
-9.36401
-9.47537
-9.41498
-9.66786
-9.53988
-10.0141
-9.77855
-10.7474
-10.3735
-11.4052
-10.7323
-16.5606
-16.0622
-15.8605
-15.8124
-20.556
-19.849
-14.9825
-13.8353
-12.5893
-12.0242
-11.9036
-11.5572
-12.0997
-11.7458
-12.214
-11.9957
-12.3286
-12.0929
-11.8675
-11.3993
-10.9187
-10.3648
-10.8458
-10.4382
-10.5209
-10.2335
-10.1398
-9.96256
-9.85086
-9.71827
-9.57965
-9.47334
-9.47607
-9.42315
-9.4014
-9.37743
-9.36751
-9.3574
-9.3452
-9.34125
-9.33418
-9.33408
-9.32927
-9.3305
-9.33141
-9.33423
-9.32688
-9.3306
-9.32695
-9.33
-9.32717
-9.33007
-9.33297
-9.33553
-9.32221
-9.32658
-9.32289
-9.32941
-9.32521
-9.33191
-9.32638
-9.33502
-9.343
-9.3536
-9.33112
-9.34146
-9.34341
-9.35006
-9.38295
-9.38108
-9.46902
-9.45304
-9.64717
-9.61009
-9.97333
-9.90978
-10.6498
-10.5392
-11.3609
-11.3363
-15.9091
-15.9283
-15.8334
-15.8054
-20.6003
-19.8665
-15.0616
-14.0052
-12.4156
-12.0371
-11.889
-11.7614
-11.9202
-11.8241
-12.0857
-12.05
-12.2552
-12.1591
-11.8476
-11.5673
-10.8072
-10.533
-10.6535
-10.5004
-10.3977
-10.2614
-10.0684
-9.97027
-9.82671
-9.74453
-9.54918
-9.4864
-9.45039
-9.42397
-9.39071
-9.37737
-9.36345
-9.35712
-9.34372
-9.34039
-9.33425
-9.33334
-9.33005
-9.33027
-9.33121
-9.33205
-9.32877
-9.32976
-9.32836
-9.32928
-9.32836
-9.32969
-9.33322
-9.33353
-9.32352
-9.32429
-9.32498
-9.32749
-9.32714
-9.32955
-9.32872
-9.33292
-9.34396
-9.34799
-9.33678
-9.34045
-9.34797
-9.35429
-9.38517
-9.39456
-9.46683
-9.48272
-9.63573
-9.6643
-9.94962
-10.0089
-10.5863
-10.6676
-11.3505
-11.7565
-15.4398
-15.799
-15.8036
-15.7974
-20.674
-20.0469
-14.9907
-14.1964
-12.1934
-12.0408
-11.8737
-11.954
-11.751
-11.8882
-11.9694
-12.0947
-12.1938
-12.2339
-11.8264
-11.7546
-10.6763
-10.6855
-10.4722
-10.5607
-10.276
-10.2916
-9.99321
-9.97983
-9.80013
-9.77533
-9.51342
-9.4984
-9.42435
-9.42507
-9.37922
-9.37734
-9.3591
-9.35712
-9.34183
-9.33964
-9.3341
-9.33269
-9.33068
-9.33001
-9.33101
-9.33004
-9.33049
-9.32901
-9.32967
-9.32864
-9.32947
-9.32923
-9.3336
-9.33195
-9.32441
-9.322
-9.32701
-9.32569
-9.32897
-9.32732
-9.33086
-9.33056
-9.3452
-9.34299
-9.34185
-9.33929
-9.35258
-9.35753
-9.38826
-9.40554
-9.4669
-9.50691
-9.62926
-9.70825
-9.93496
-10.0872
-10.5425
-10.772
-11.3512
-12.0456
-15.1035
-15.684
-15.7743
-15.7892
-20.7727
-20.4044
-14.7494
-14.436
-11.8973
-12.0451
-11.8485
-12.158
-11.568
-11.9544
-11.8513
-12.1403
-12.1348
-12.3266
-11.7917
-11.9821
-10.5019
-10.8468
-10.2787
-10.6358
-10.1421
-10.3343
-9.9066
-9.99601
-9.76733
-9.81559
-9.46776
-9.51275
-9.3953
-9.42803
-9.36597
-9.37796
-9.35409
-9.35765
-9.33942
-9.33902
-9.33379
-9.33207
-9.33126
-9.32968
-9.33088
-9.32797
-9.33229
-9.32818
-9.33105
-9.32791
-9.33061
-9.32857
-9.33422
-9.3306
-9.32509
-9.31942
-9.32928
-9.32371
-9.33099
-9.32487
-9.33314
-9.3276
-9.34712
-9.33794
-9.34698
-9.3375
-9.35753
-9.35974
-9.39188
-9.41474
-9.46782
-9.5278
-9.62453
-9.74628
-9.92327
-10.1535
-10.5078
-10.8624
-11.3473
-12.2401
-14.8663
-15.5885
-15.748
-15.7815
-20.8862
-20.9735
-14.2945
-14.7646
-11.4936
-12.0631
-11.8029
-12.3979
-11.346
-12.0401
-11.7174
-12.1977
-12.0678
-12.4483
-11.7279
-12.2764
-10.2543
-11.0446
-10.0481
-10.7449
-9.98079
-10.4018
-9.79921
-10.0248
-9.72339
-9.87165
-9.40635
-9.53356
-9.36021
-9.43475
-9.34973
-9.38
-9.34796
-9.35904
-9.33628
-9.33857
-9.33333
-9.33139
-9.33186
-9.32923
-9.33091
-9.32559
-9.33441
-9.32705
-9.33266
-9.32695
-9.33194
-9.3276
-9.33519
-9.32932
-9.32576
-9.3162
-9.33215
-9.3212
-9.33353
-9.32184
-9.33597
-9.32362
-9.35017
-9.33216
-9.35283
-9.33451
-9.36318
-9.36074
-9.39586
-9.42273
-9.46846
-9.54721
-9.6188
-9.78209
-9.90944
-10.2148
-10.4731
-10.9476
-11.327
-12.3653
-14.7052
-15.5155
-15.7266
-15.7751
-20.9964
-21.8132
-13.5536
-15.2428
-10.9363
-12.1141
-11.723
-12.7035
-11.0539
-12.1663
-11.5511
-12.2792
-11.9802
-12.6138
-11.6132
-12.6732
-9.89403
-11.3135
-9.74959
-10.9123
-9.77188
-10.51
-9.65858
-10.0747
-9.66137
-9.95217
-9.32117
-9.56633
-9.31515
-9.4478
-9.32885
-9.38449
-9.34008
-9.36175
-9.33211
-9.33841
-9.3327
-9.33059
-9.33256
-9.32858
-9.33119
-9.32263
-9.33716
-9.32538
-9.3347
-9.32553
-9.33361
-9.32613
-9.33668
-9.32792
-9.32665
-9.31194
-9.33609
-9.31774
-9.33701
-9.31776
-9.33984
-9.31806
-9.35499
-9.3248
-9.36023
-9.32964
-9.37005
-9.36023
-9.40016
-9.42996
-9.46776
-9.5669
-9.60938
-9.81934
-9.88849
-10.2779
-10.4298
-11.0366
-11.2804
-12.4384
-14.6052
-15.4663
-15.7117
-15.7705
-21.0739
-23.0162
-12.4148
-15.9607
-10.1594
-12.2278
-11.588
-13.1141
-10.6511
-12.3614
-11.331
-12.4017
-11.855
-12.8445
-11.4158
-13.2234
-9.36557
-11.7016
-9.34179
-11.1715
-9.48765
-10.6817
-9.46712
-10.1575
-9.57108
-10.0695
-9.20087
-9.61888
-9.25468
-9.47087
-9.30093
-9.39294
-9.32951
-9.36647
-9.32647
-9.33869
-9.33191
-9.32961
-9.33347
-9.32764
-9.3319
-9.31872
-9.34093
-9.32285
-9.33746
-9.3234
-9.33588
-9.32392
-9.33893
-9.32621
-9.32805
-9.30611
-9.3417
-9.31275
-9.34201
-9.312
-9.34544
-9.31014
-9.36247
-9.31481
-9.37024
-9.3219
-9.37892
-9.3577
-9.40485
-9.43685
-9.4646
-9.58885
-9.59326
-9.8622
-9.85472
-10.3505
-10.3682
-11.14
-11.1971
-12.471
-14.5573
-15.4416
-15.704
-15.7681
)
;

boundaryField
{
    F1_1
    {
        type            calculated;
        value           nonuniform List<scalar> 
80
(
64.0597
17.0913
2.9437
14.589
9.85438
13.3477
11.5782
13.3598
12.0774
13.3973
12.2328
13.2874
12.5711
13.7143
12.047
14.3856
9.95505
12.7987
10.0842
12.1313
10.1194
11.5456
10.1459
11.0129
10.365
10.9004
10.2457
10.6948
10.0901
10.3756
10.1995
10.2935
10.2403
10.2561
10.2535
10.2063
10.3072
10.2225
10.2948
10.2217
10.3107
10.2324
10.3105
10.2266
10.2981
10.2251
10.2881
10.2318
10.2554
10.1854
10.3023
10.2193
10.2919
10.2312
10.2571
10.1828
10.3034
10.2216
10.258
10.1746
10.2545
10.0938
10.3704
10.1647
10.3768
10.1909
10.4067
10.2413
10.4794
10.3661
10.6252
10.6508
10.8979
11.352
10.7316
11.5688
12.6946
13.1763
13.3205
13.3561
)
;
    }
    F1_2
    {
        type            calculated;
        value           nonuniform List<scalar> 
80
(
-17.1921
-23.0426
-8.6103
-17.3749
-10.4186
-15.1527
-10.6444
-13.79
-10.6331
-12.9365
-10.6557
-12.2099
-11.1911
-12.4681
-10.7418
-12.8893
-9.12136
-11.5628
-9.27762
-10.9958
-9.20161
-10.4409
-9.09457
-9.89395
-9.21901
-9.76311
-9.04887
-9.54765
-8.82306
-9.16824
-8.8748
-9.02975
-8.89925
-8.96529
-8.92069
-8.93946
-8.92591
-8.92327
-8.92802
-8.91732
-8.93326
-8.91747
-8.93281
-8.91516
-8.93023
-8.91492
-8.92901
-8.91523
-8.93263
-8.91716
-8.93195
-8.91527
-8.92979
-8.91365
-8.93415
-8.91283
-8.93447
-8.90534
-8.94338
-8.90098
-8.94531
-8.89483
-8.94555
-8.9068
-8.96034
-8.95936
-8.99359
-9.05863
-9.06357
-9.16183
-9.31509
-9.30156
-9.45153
-9.19457
-10.2822
-10.0838
-10.0694
-10.0675
-10.0671
-10.0675
)
;
    }
    F1_3
    {
        type            calculated;
        value           nonuniform List<scalar> 
80
(
18.6465
24.4601
10.2034
18.5992
12.3148
16.2819
12.26
14.7457
11.8615
13.7793
11.7421
13.0425
12.0436
13.1252
11.5797
13.4102
9.7253
12.059
9.65368
11.5781
9.7857
11.1781
9.82399
10.6961
10.0337
10.6026
9.89699
10.3893
9.71097
10.03
9.79402
9.91469
9.82511
9.8588
9.83973
9.80489
9.88741
9.81173
9.87857
9.80953
9.89614
9.81959
9.8963
9.81275
9.88554
9.81042
9.87978
9.81448
9.87386
9.82351
9.84538
9.78671
9.88084
9.82005
9.84645
9.78451
9.88136
9.8195
9.84652
9.79487
9.84268
9.76337
9.89321
9.8152
9.88765
9.8686
9.88994
9.96348
9.90806
10.0887
10.1071
10.3677
10.1754
10.4052
11.3745