/*--------------------------------*- C++ -*----------------------------------*\
| =========                 |                                                 |
| \\      /  F ield         | OpenFOAM: The Open Source CFD Toolbox           |
|  \\    /   O peration     | Version:  5.x                                   |
|   \\  /    A nd           | Web:      www.OpenFOAM.org                      |
|    \\/     M anipulation  |                                                 |
\*---------------------------------------------------------------------------*/
FoamFile
{
    version     2.0;
    format      ascii;
    class       volScalarField;
    location    "0.2";
    object      T;
}
// * * * * * * * * * * * * * * * * * * * * * * * * * * * * * * * * * * * * * //

dimensions      [0 0 0 1 0 0 0];

internalField   nonuniform List<scalar> 
3200
(
0.320298
2.07728
3.07965
3.13787
3.37737
3.39484
3.49211
3.50102
3.56774
3.57434
3.6312
3.63647
3.67729
3.683
3.75543
3.76713
3.94285
3.95707
4.07733
4.08756
4.17492
4.18205
4.24142
4.24576
4.27543
4.2781
4.30427
4.30651
4.32966
4.33109
4.33894
4.33941
4.34148
4.34156
4.34146
4.34122
4.33677
4.33635
4.33271
4.33235
4.32867
4.32828
4.32426
4.32384
4.32017
4.31981
4.31668
4.3164
4.31454
4.31418
4.30933
4.30891
4.30546
4.30515
4.30314
4.30277
4.2977
4.29729
4.29464
4.29422
4.28965
4.28885
4.27745
4.27642
4.26685
4.26592
4.2567
4.25587
4.24714
4.24658
4.23987
4.24
4.23984
4.24211
4.27671
4.2809
4.28652
4.28893
4.28965
4.28983
0.890616
2.27838
3.14685
3.27651
3.48479
3.52512
3.61143
3.6323
3.69092
3.70631
3.75559
3.76792
3.8044
3.81748
3.87833
3.90442
4.04886
4.08082
4.18257
4.20579
4.27932
4.29542
4.34508
4.35487
4.38016
4.38617
4.40768
4.41262
4.43143
4.43459
4.44123
4.44228
4.44396
4.44413
4.444
4.44346
4.43968
4.4387
4.43553
4.4347
4.43164
4.43075
4.42722
4.42623
4.42302
4.42217
4.41945
4.41879
4.41703
4.41622
4.41217
4.41123
4.40825
4.40754
4.40565
4.40478
4.40055
4.3996
4.39713
4.39614
4.39205
4.39021
4.38074
4.37841
4.37027
4.36816
4.36043
4.3586
4.35161
4.35048
4.34585
4.34652
4.34873
4.35434
4.38524
4.39653
4.4136
4.42077
4.42288
4.4234
1.40543
2.50026
3.24361
3.41201
3.59894
3.65356
3.73336
3.76208
3.81583
3.83691
3.88146
3.89841
3.93245
3.95004
4.00262
4.03698
4.15937
4.20177
4.29095
4.32201
4.38603
4.40744
4.45034
4.46337
4.48566
4.49362
4.51176
4.51818
4.53383
4.53795
4.54375
4.54513
4.54651
4.54671
4.54656
4.54582
4.54248
4.54115
4.53826
4.53714
4.53454
4.53332
4.53008
4.52872
4.52578
4.52461
4.52214
4.52121
4.51949
4.51839
4.5149
4.51363
4.51096
4.50997
4.50812
4.50694
4.50327
4.50197
4.49957
4.49818
4.49436
4.49188
4.48375
4.48064
4.47346
4.47063
4.46393
4.46154
4.45585
4.45454
4.45162
4.45298
4.45748
4.46556
4.49457
4.51193
4.54108
4.5528
4.55618
4.557
1.87645
2.73619
3.36336
3.54676
3.71837
3.781
3.85733
3.89085
3.94205
3.96658
4.00843
4.02821
4.06116
4.0812
4.12764
4.16602
4.27308
4.32085
4.40166
4.4369
4.49443
4.51861
4.55679
4.5715
4.59174
4.60066
4.61631
4.62338
4.63669
4.64125
4.64645
4.64799
4.64911
4.64932
4.64915
4.6483
4.64521
4.64366
4.64092
4.63964
4.63738
4.63599
4.63288
4.63128
4.62848
4.62711
4.62478
4.62368
4.62193
4.62066
4.61754
4.61609
4.6136
4.61244
4.61056
4.6092
4.6059
4.60439
4.60197
4.60032
4.59662
4.59379
4.58656
4.58303
4.57648
4.57326
4.56726
4.56462
4.55992
4.55866
4.55723
4.55933
4.56609
4.57595
4.60436
4.62687
4.66925
4.68518
4.68958
4.69063
2.31308
2.98144
3.50087
3.68199
3.84217
3.90789
3.98302
4.01892
4.06933
4.09555
4.13628
4.15748
4.19038
4.21131
4.25298
4.2923
4.38916
4.43861
4.51419
4.55091
4.60417
4.62922
4.66418
4.67941
4.69827
4.70744
4.72121
4.72833
4.73992
4.74452
4.7493
4.75087
4.75175
4.75194
4.75178
4.75087
4.74789
4.74623
4.74353
4.7422
4.7402
4.73873
4.73562
4.7339
4.73112
4.72965
4.72737
4.72618
4.72436
4.72301
4.72013
4.71861
4.7162
4.71495
4.713
4.71155
4.70847
4.70686
4.70435
4.70256
4.69885
4.69588
4.68923
4.68555
4.67937
4.67602
4.67047
4.66779
4.66386
4.6628
4.66271
4.66549
4.67459
4.68561
4.7144
4.74102
4.7985
4.81802
4.82312
4.82431
2.72299
3.23264
3.65192
3.81805
3.96974
4.03441
4.11028
4.1464
4.19757
4.22395
4.26492
4.28629
4.32008
4.34058
4.37841
4.41629
4.50713
4.55532
4.62828
4.66425
4.71504
4.73943
4.77237
4.78718
4.8052
4.81403
4.82638
4.8331
4.84342
4.8478
4.85229
4.85378
4.85443
4.85459
4.85444
4.85353
4.85052
4.84884
4.8461
4.84479
4.843
4.84155
4.83831
4.83656
4.83372
4.83224
4.82993
4.82872
4.82678
4.82543
4.82267
4.82116
4.81877
4.8175
4.81542
4.81397
4.81099
4.80937
4.80671
4.80488
4.80106
4.79812
4.7918
4.78819
4.78216
4.77886
4.77357
4.77102
4.76769
4.7669
4.76808
4.77141
4.78302
4.79457
4.82454
4.85394
4.92927
4.95145
4.95683
4.95804
3.11252
3.48747
3.81309
3.9547
4.10079
4.16047
4.23912
4.27328
4.32681
4.35176
4.39434
4.41459
4.45032
4.46916
4.50383
4.53815
4.62681
4.67103
4.74384
4.777
4.82697
4.8493
4.88128
4.89482
4.9125
4.92049
4.93178
4.93774
4.94717
4.95108
4.9554
4.95673
4.95714
4.95725
4.95714
4.95628
4.9531
4.95151
4.94861
4.9474
4.9458
4.94444
4.94095
4.93928
4.93627
4.93487
4.93245
4.93129
4.92919
4.92792
4.92516
4.92376
4.92129
4.92008
4.91783
4.91646
4.91346
4.91193
4.90904
4.90729
4.90325
4.90051
4.89426
4.89093
4.88485
4.8818
4.87658
4.87428
4.87144
4.87094
4.87337
4.87701
4.89146
4.9028
4.9347
4.96504
5.06217
5.08556
5.09071
5.09183
3.48705
3.74427
3.98163
4.09116
4.2353
4.28577
4.36975
4.39939
4.4572
4.47886
4.52464
4.54228
4.58122
4.5971
4.62927
4.65784
4.74826
4.78561
4.86099
4.88908
4.94
4.95879
4.99094
5.0023
5.02019
5.02682
5.0374
5.04224
5.05115
5.05435
5.05864
5.05972
5.05986
5.05993
5.05988
5.05913
5.05563
5.05424
5.05106
5.05004
5.04859
5.04743
5.04353
5.04206
5.03877
5.03754
5.03492
5.03391
5.03157
5.03047
5.02761
5.02642
5.02378
5.02272
5.02021
5.01902
5.01589
5.01456
5.01134
5.0098
5.0054
5.00305
4.99662
4.99379
4.98742
4.98483
4.97947
4.97758
4.97509
4.97487
4.97862
4.98219
5.00004
5.01021
5.04494
5.07347
5.19804
5.22041
5.22476
5.22566
3.8513
4.00188
4.15528
4.22625
4.37355
4.40974
4.50255
4.52437
4.58902
4.605
4.65608
4.66911
4.71305
4.7244
4.75485
4.77506
4.87183
4.89866
4.98003
5.00024
5.05432
5.06774
5.10142
5.10952
5.12833
5.133
5.14325
5.14659
5.15535
5.15758
5.16202
5.16276
5.16259
5.16262
5.16265
5.1621
5.15807
5.15704
5.15344
5.1527
5.15138
5.15054
5.14601
5.14491
5.14119
5.14028
5.13734
5.13659
5.13391
5.1331
5.13
5.12913
5.12621
5.12542
5.12255
5.12167
5.11824
5.11726
5.11358
5.11243
5.10747
5.10576
5.09884
5.09679
5.08986
5.08799
5.08223
5.08091
5.07867
5.07864
5.08389
5.0868
5.10893
5.11665
5.15543
5.17807
5.33799
5.35599
5.35895
5.35954
4.20953
4.25937
4.33224
4.35827
4.51625
4.53144
4.63819
4.64763
4.7228
4.72973
4.78904
4.79471
4.84618
4.85092
4.88084
4.88921
4.99821
5.00952
5.10151
5.11005
5.17027
5.17589
5.21294
5.21631
5.23704
5.23896
5.24938
5.25072
5.25982
5.26073
5.26554
5.26584
5.26531
5.26532
5.26545
5.26521
5.2604
5.25995
5.2557
5.25539
5.25415
5.25379
5.24836
5.24788
5.2435
5.24311
5.23968
5.23935
5.23617
5.23582
5.23231
5.23193
5.22855
5.22821
5.22481
5.22443
5.22051
5.22008
5.21572
5.21521
5.20941
5.20868
5.20086
5.2
5.19209
5.1913
5.18482
5.18428
5.18216
5.18221
5.18925
5.19065
5.2184
5.22184
5.26657
5.27718
5.48363
5.49217
5.49324
5.49345
3.77353
3.80195
4.3677
4.40635
4.56675
4.58341
4.68651
4.69818
4.78937
4.79868
4.87076
4.87779
4.93465
4.93979
4.97006
4.978
5.08194
5.09182
5.16475
5.17154
5.21618
5.2206
5.24858
5.25136
5.26809
5.26991
5.28149
5.28289
5.29103
5.29193
5.2953
5.29572
5.29783
5.29803
5.2987
5.29873
5.29798
5.29792
5.29715
5.29709
5.29679
5.29671
5.29543
5.29533
5.29446
5.29438
5.29369
5.29364
5.29338
5.2933
5.29216
5.29207
5.29123
5.29117
5.29081
5.29071
5.28901
5.28887
5.28803
5.28781
5.28431
5.28403
5.28169
5.28155
5.28129
5.28149
5.28667
5.28745
5.30009
5.30164
5.32683
5.32752
5.32043
5.32086
5.34729
5.34804
5.34807
5.34807
5.34807
5.34807
3.632
3.69689
4.17027
4.26027
4.41342
4.45417
4.55067
4.57884
4.66095
4.68308
4.74729
4.76378
4.81307
4.82541
4.85617
4.87525
4.96644
4.98982
5.05493
5.07115
5.1121
5.12283
5.14898
5.15576
5.17138
5.17585
5.18709
5.19063
5.19892
5.20121
5.20483
5.20591
5.20799
5.20848
5.20917
5.20924
5.2087
5.20858
5.20795
5.20782
5.20753
5.20734
5.20628
5.20604
5.2053
5.20511
5.20452
5.20439
5.20412
5.20395
5.203
5.20278
5.20207
5.20191
5.20155
5.2013
5.1999
5.19958
5.19875
5.19824
5.19536
5.19471
5.19271
5.19236
5.19208
5.19248
5.19662
5.19829
5.20848
5.21176
5.23118
5.23255
5.22703
5.22758
5.24603
5.24728
5.24734
5.24733
5.24733
5.24733
3.48786
3.57548
3.98817
4.11165
4.26457
4.3227
4.41757
4.45734
4.53491
4.56579
4.62572
4.64845
4.69296
4.7103
4.74275
4.76961
4.85365
4.88614
4.94706
4.96975
5.00922
5.02443
5.05015
5.05981
5.07512
5.08152
5.093
5.09817
5.10704
5.11044
5.11446
5.11605
5.11821
5.11893
5.11965
5.11978
5.11941
5.11925
5.11873
5.11856
5.11825
5.118
5.1171
5.11678
5.11612
5.11587
5.11534
5.11515
5.11486
5.11463
5.11382
5.11352
5.11289
5.11267
5.11228
5.11195
5.11074
5.1103
5.10946
5.10877
5.10631
5.10544
5.10366
5.10317
5.10284
5.10332
5.10667
5.10878
5.11715
5.12124
5.13624
5.13786
5.1334
5.1336
5.14545
5.14657
5.14661
5.1466
5.1466
5.1466
3.34019
3.44105
3.81761
3.96184
4.11951
4.18975
4.28665
4.33432
4.41075
4.44733
4.50564
4.53224
4.57394
4.59457
4.62954
4.66168
4.74292
4.78132
4.84072
4.86769
4.90731
4.92561
4.95196
4.96363
4.97921
4.98698
4.99916
5.00556
5.01539
5.01964
5.02418
5.02618
5.02848
5.02937
5.03017
5.03035
5.0301
5.02995
5.0295
5.0293
5.02898
5.02868
5.02789
5.02753
5.02692
5.02663
5.02614
5.02592
5.0256
5.02533
5.02461
5.02427
5.02369
5.02343
5.02301
5.02262
5.02155
5.02104
5.02017
5.01937
5.0172
5.01621
5.01456
5.01398
5.01356
5.01404
5.01676
5.01903
5.02599
5.03028
5.04184
5.04342
5.03958
5.03914
5.04531
5.04591
5.0459
5.04588
5.04587
5.04588
3.18846
3.29555
3.65633
3.81148
3.97792
4.05573
4.1577
4.21015
4.28816
4.328
4.38681
4.41542
4.45575
4.47827
4.51644
4.55178
4.63389
4.67565
4.73567
4.76511
4.80625
4.82646
4.85435
4.86728
4.88361
4.89227
4.90554
4.91282
4.92395
4.92883
4.93401
4.93629
4.93882
4.93982
4.9407
4.94093
4.9408
4.94065
4.94026
4.94005
4.9397
4.93939
4.93867
4.93829
4.93771
4.93741
4.93693
4.93669
4.93634
4.93605
4.93539
4.93504
4.93448
4.93419
4.93374
4.93333
4.93234
4.93179
4.93087
4.93003
4.92804
4.927
4.92541
4.92478
4.92425
4.92468
4.92688
4.9291
4.93495
4.93903
4.94784
4.94919
4.94562
4.94443
4.94539
4.94528
4.94519
4.94516
4.94515
4.94516
3.03241
3.13988
3.50324
3.66064
3.83987
3.92073
4.03072
4.08494
4.1671
4.2079
4.26919
4.29813
4.33827
4.36133
4.40344
4.44
4.52648
4.56924
4.63183
4.66206
4.70603
4.72701
4.75734
4.7708
4.78832
4.79737
4.81217
4.81992
4.83276
4.838
4.84396
4.84638
4.84921
4.85027
4.85127
4.85152
4.85149
4.85137
4.85102
4.85081
4.85042
4.85011
4.84943
4.84906
4.84849
4.84819
4.84771
4.84747
4.84707
4.84678
4.84615
4.84581
4.84526
4.84497
4.84447
4.84406
4.84312
4.84256
4.84157
4.84073
4.83884
4.83782
4.83623
4.83558
4.83491
4.83525
4.83699
4.83902
4.84397
4.84759
4.85415
4.85516
4.85158
4.84964
4.84553
4.84466
4.84449
4.84445
4.84445
4.84445
2.87204
2.97393
3.35837
3.50891
3.70574
3.78455
3.90596
3.95861
4.04768
4.08697
4.15285
4.18038
4.22146
4.24362
4.29066
4.32622
4.4208
4.46204
4.52928
4.55846
4.60671
4.62717
4.66101
4.67416
4.69336
4.70224
4.71908
4.72681
4.74188
4.74715
4.75404
4.75647
4.75968
4.76073
4.76186
4.76213
4.76219
4.76209
4.76177
4.76157
4.76114
4.76085
4.76018
4.75984
4.75926
4.75898
4.75849
4.75825
4.75781
4.75753
4.75691
4.75659
4.75603
4.75575
4.75519
4.75481
4.75388
4.75335
4.75226
4.75148
4.74961
4.74866
4.74701
4.74637
4.74552
4.74576
4.7471
4.74882
4.75305
4.75603
4.76067
4.76132
4.75747
4.75494
4.74554
4.74402
4.7438
4.74376
4.74375
4.74376
2.70755
2.79665
3.22282
3.35531
3.57632
3.64665
3.78395
3.83081
3.93024
3.96497
4.03804
4.06208
4.1054
4.12492
4.17834
4.21007
4.31725
4.35378
4.42825
4.45408
4.50851
4.5268
4.56549
4.57727
4.59881
4.60678
4.62635
4.63341
4.65139
4.65623
4.66431
4.66652
4.67023
4.67118
4.67249
4.67274
4.67289
4.67282
4.67251
4.67234
4.67186
4.67161
4.67092
4.67063
4.67002
4.66978
4.66925
4.66904
4.66853
4.66829
4.66765
4.66738
4.66679
4.66654
4.66591
4.66558
4.66462
4.66416
4.66294
4.66227
4.66035
4.65954
4.65775
4.65718
4.6561
4.65623
4.65719
4.65852
4.66218
4.66442
4.66736
4.66767
4.66331
4.66053
4.64525
4.64334
4.64311
4.64307
4.64306
4.64307
2.53948
2.60586
3.09901
3.19816
3.45291
3.50607
3.66554
3.7009
3.81539
3.84144
3.92519
3.943
3.99029
4.00484
4.06687
4.0909
4.21652
4.24401
4.32916
4.34856
4.41174
4.4256
4.47105
4.47998
4.5048
4.51087
4.53411
4.53958
4.56142
4.56518
4.5748
4.57651
4.58089
4.58162
4.58316
4.58336
4.58361
4.58357
4.58325
4.58312
4.58256
4.58238
4.58164
4.58143
4.58077
4.58059
4.58
4.57985
4.57925
4.57907
4.57838
4.57818
4.57754
4.57735
4.57662
4.57638
4.57534
4.57501
4.5736
4.57311
4.57104
4.57045
4.56844
4.56801
4.56662
4.56667
4.56727
4.56814
4.57137
4.57277
4.57416
4.5742
4.56909
4.56661
4.54442
4.5426
4.54242
4.54239
4.54239
4.54239
2.36874
2.39799
2.99095
3.03477
3.33757
3.36124
3.55209
3.56782
3.70407
3.71559
3.81497
3.82274
3.87649
3.88287
3.95692
3.96766
4.11972
4.13192
4.2327
4.24129
4.31695
4.32315
4.37807
4.38207
4.41154
4.41426
4.44259
4.44509
4.47218
4.4739
4.48562
4.48639
4.4917
4.49203
4.49388
4.49397
4.49433
4.49432
4.49398
4.49393
4.49325
4.49318
4.49234
4.49226
4.49149
4.49141
4.49074
4.49067
4.48995
4.48987
4.48908
4.489
4.48827
4.48818
4.48731
4.4872
4.48604
4.48589
4.48423
4.48402
4.48167
4.48141
4.47907
4.47888
4.47709
4.47708
4.47733
4.47766
4.48064
4.48113
4.48101
4.48094
4.47477
4.47349
4.44279
4.4418
4.44172
4.44171
4.44171
4.44171
2.42572
2.45479
3.04185
3.08383
3.35499
3.37482
3.5314
3.54383
3.66134
3.67093
3.75621
3.76271
3.81039
3.81579
3.88011
3.88926
4.02786
4.03952
4.14816
4.15778
4.23936
4.24632
4.30466
4.30902
4.3395
4.34234
4.37085
4.37331
4.3989
4.40049
4.41032
4.41092
4.41433
4.4145
4.41507
4.4149
4.41114
4.41076
4.40739
4.40705
4.40349
4.40311
4.39914
4.39872
4.39502
4.39465
4.39129
4.39096
4.3881
4.38785
4.38619
4.38589
4.38196
4.38166
4.37978
4.37947
4.37542
4.37511
4.37324
4.37298
4.37034
4.36995
4.3647
4.36431
4.36137
4.36127
4.36148
4.36185
4.36677
4.36767
4.37429
4.37559
4.38785
4.389
4.37668
4.37718
4.37743
4.3775
4.37752
4.37752
2.61102
2.67707
3.16568
3.26065
3.48819
3.53217
3.65977
3.68708
3.78427
3.80569
3.87678
3.89149
3.93251
3.94469
3.99811
4.01819
4.13019
4.15624
4.24865
4.27068
4.3402
4.35605
4.40506
4.41494
4.44094
4.44734
4.47086
4.47628
4.49697
4.50046
4.50863
4.50995
4.51271
4.51307
4.5135
4.51309
4.50988
4.509
4.50606
4.50527
4.50233
4.50145
4.49797
4.49698
4.49375
4.49287
4.48997
4.48921
4.48673
4.48614
4.48459
4.48391
4.48063
4.47992
4.47818
4.47747
4.47409
4.47337
4.47164
4.47103
4.46868
4.46778
4.46344
4.46256
4.46013
4.45995
4.46038
4.4613
4.46601
4.46834
4.47557
4.47883
4.49005
4.4936
4.48992
4.49192
4.49268
4.49289
4.49294
4.49296
2.79367
2.88243
3.30525
3.43216
3.62873
3.68617
3.79214
3.82754
3.91023
3.93847
3.99961
4.01921
4.0558
4.07194
4.11745
4.14343
4.23595
4.27029
4.35197
4.38168
4.44319
4.46445
4.50703
4.52021
4.54317
4.55166
4.5716
4.57864
4.59573
4.60025
4.60721
4.60894
4.61119
4.61164
4.61197
4.6114
4.60853
4.60732
4.60464
4.60359
4.60108
4.5999
4.59669
4.59534
4.59238
4.59118
4.58856
4.58753
4.5853
4.58448
4.58296
4.58203
4.57919
4.57823
4.57655
4.57558
4.57265
4.57167
4.57001
4.56915
4.56697
4.56575
4.56204
4.56089
4.55881
4.55861
4.55926
4.56061
4.56536
4.5688
4.57702
4.58176
4.59257
4.59848
4.60293
4.60672
4.60796
4.60829
4.60837
4.6084
2.97275
3.07441
3.45665
3.60088
3.77482
3.83823
3.92734
3.96611
4.03837
4.06993
4.1241
4.14626
4.17989
4.19801
4.23757
4.26602
4.34405
4.38246
4.45736
4.49141
4.54779
4.572
4.61017
4.6251
4.64598
4.65552
4.67286
4.6806
4.695
4.69995
4.70601
4.7079
4.70975
4.71023
4.71048
4.70981
4.70712
4.70571
4.70317
4.70197
4.69979
4.69843
4.69535
4.69376
4.69095
4.68956
4.6871
4.68591
4.68381
4.68285
4.68131
4.68024
4.67769
4.67658
4.6749
4.67377
4.67114
4.67001
4.66834
4.66733
4.66522
4.66383
4.66055
4.65925
4.65742
4.65723
4.65811
4.65979
4.66476
4.66909
4.67862
4.68445
4.69528
4.70344
4.71598
4.72164
4.72329
4.72371
4.72382
4.72385
3.14773
3.25514
3.61754
3.7684
3.92534
3.98926
4.06455
4.10333
4.16814
4.20049
4.24987
4.27285
4.30461
4.32322
4.35813
4.38662
4.45373
4.49316
4.56438
4.60025
4.65368
4.67899
4.71425
4.72975
4.74925
4.75908
4.77451
4.78231
4.79465
4.79961
4.80499
4.80688
4.80837
4.80883
4.80903
4.80831
4.80566
4.80415
4.80165
4.8004
4.79848
4.79705
4.79396
4.79225
4.78947
4.78798
4.7856
4.78433
4.78229
4.78125
4.77965
4.77851
4.77614
4.77496
4.77323
4.77203
4.76958
4.76838
4.76666
4.76556
4.76346
4.76199
4.759
4.75765
4.75598
4.75583
4.75695
4.75885
4.7642
4.76918
4.78037
4.78696
4.79812
4.80824
4.82933
4.83673
4.83869
4.83917
4.83928
4.83933
3.3184
3.42564
3.78688
3.93567
4.07956
4.13983
4.20322
4.23952
4.29921
4.33037
4.37669
4.39909
4.42986
4.44778
4.47895
4.50568
4.56452
4.60259
4.67282
4.70839
4.7607
4.78559
4.81912
4.83425
4.85291
4.86242
4.87647
4.88383
4.8946
4.89925
4.90411
4.90588
4.90705
4.90745
4.90763
4.90689
4.90417
4.90264
4.90009
4.89886
4.89716
4.89573
4.89252
4.89078
4.88795
4.88645
4.88406
4.88279
4.88074
4.87968
4.87799
4.87684
4.87455
4.87337
4.87155
4.87035
4.86799
4.86678
4.86497
4.86384
4.86168
4.86022
4.85738
4.85607
4.85449
4.85439
4.85577
4.85778
4.86367
4.86903
4.88233
4.88929
4.90101
4.91261
4.94324
4.95206
4.95417
4.95466
4.95478
4.95482
3.48474
3.58595
3.9647
4.10311
4.23713
4.29028
4.34297
4.37477
4.43142
4.45965
4.50447
4.52499
4.55562
4.57182
4.59995
4.62346
4.67614
4.71074
4.78265
4.81586
4.86881
4.89185
4.92473
4.93861
4.95694
4.96558
4.9787
4.98523
4.99481
4.9989
5.00337
5.00491
5.00576
5.00609
5.00627
5.00557
5.00265
5.00119
4.99849
4.99735
4.99583
4.99451
4.99103
4.98937
4.98639
4.98497
4.98249
4.98129
4.97916
4.97815
4.97631
4.97523
4.97293
4.97181
4.96986
4.96873
4.96635
4.96522
4.96326
4.96218
4.95988
4.95852
4.95572
4.95451
4.95294
4.95289
4.95457
4.95657
4.96316
4.96858
4.98454
4.99145
5.00392
5.01624
5.05803
5.06768
5.06973
5.07019
5.07029
5.07034
3.64701
3.73513
4.15211
4.27072
4.39792
4.44074
4.48356
4.50902
4.56476
4.58826
4.63323
4.65049
4.68196
4.69537
4.72114
4.74007
4.78848
4.81739
4.89403
4.92255
4.97813
4.99772
5.0311
5.04279
5.06137
5.06857
5.0812
5.08651
5.09524
5.09854
5.10275
5.10398
5.1045
5.10474
5.10495
5.10433
5.10107
5.09979
5.09683
5.09587
5.09451
5.09337
5.08948
5.08802
5.08477
5.08354
5.08088
5.07984
5.07755
5.07666
5.07462
5.07368
5.07127
5.0703
5.06814
5.06716
5.06468
5.0637
5.06152
5.06057
5.05806
5.05689
5.054
5.05298
5.05135
5.05134
5.05337
5.05518
5.06272
5.06771
5.08714
5.09339
5.10685
5.1187
5.17413
5.18361
5.18537
5.18575
5.18583
5.18587
3.80574
3.87114
4.35144
4.43798
4.56209
4.59119
4.62484
4.64207
4.6994
4.71601
4.76309
4.77543
4.80903
4.81843
4.8426
4.8555
4.9016
4.92214
5.00733
5.02815
5.08888
5.10303
5.13834
5.1467
5.16625
5.17134
5.184
5.18766
5.1959
5.19815
5.20225
5.20308
5.20325
5.2034
5.20368
5.20322
5.19942
5.19846
5.1951
5.19441
5.19318
5.19235
5.18784
5.18675
5.18308
5.18217
5.17921
5.17844
5.17588
5.17522
5.17288
5.17219
5.16955
5.16884
5.16639
5.16567
5.16295
5.16223
5.15974
5.15903
5.15618
5.15533
5.15221
5.15148
5.1497
5.14972
5.15218
5.15358
5.16239
5.16628
5.19026
5.19506
5.20986
5.21943
5.29209
5.29988
5.30109
5.30133
5.30139
5.30141
3.96183
3.99054
4.56651
4.60373
4.73005
4.74147
4.76678
4.77351
4.83567
4.84254
4.89434
4.89951
4.93706
4.94091
4.96451
4.9696
5.01574
5.0243
5.12321
5.13215
5.2015
5.2075
5.24667
5.25017
5.27171
5.27382
5.28716
5.28863
5.2968
5.29769
5.30189
5.30221
5.30201
5.30206
5.30244
5.30223
5.29766
5.29723
5.29326
5.29297
5.29184
5.29149
5.28607
5.28559
5.28128
5.28089
5.27745
5.27712
5.27415
5.27386
5.27109
5.27079
5.26777
5.26746
5.26457
5.26426
5.26115
5.26084
5.2579
5.25759
5.25424
5.25387
5.25033
5.25002
5.24798
5.248
5.25105
5.25168
5.26225
5.26405
5.29416
5.29633
5.31308
5.31764
5.41264
5.41641
5.41685
5.41694
5.41696
5.41697
4.62319
4.61977
4.44238
4.44329
4.49079
4.49743
4.53386
4.54255
4.66788
4.6787
4.76725
4.77469
4.83504
4.84037
4.87494
4.88194
4.95234
4.96354
5.08969
5.10005
5.16884
5.1747
5.20778
5.2107
5.22343
5.22525
5.23815
5.23981
5.25286
5.25388
5.25821
5.25859
5.26017
5.2603
5.26045
5.26046
5.26005
5.26001
5.25943
5.25939
5.25919
5.25911
5.25774
5.25763
5.25671
5.25662
5.25588
5.25582
5.25553
5.25544
5.25389
5.25374
5.25224
5.25208
5.25057
5.2504
5.24865
5.24848
5.24736
5.24709
5.24317
5.24289
5.24135
5.24134
5.24359
5.24408
5.25312
5.25448
5.27589
5.27869
5.31938
5.32471
5.40337
5.4114
5.50873
5.52872
5.91146
5.92728
5.92927
5.92965
4.41767
4.41424
4.3012
4.3092
4.36134
4.37843
4.41383
4.43413
4.54028
4.56504
4.64035
4.65733
4.70869
4.7213
4.75512
4.77248
4.83977
4.86643
4.97434
4.99845
5.05962
5.0736
5.1043
5.11146
5.12422
5.12879
5.14156
5.14566
5.15731
5.15976
5.1639
5.16485
5.16638
5.16671
5.16697
5.16702
5.16672
5.16664
5.16617
5.16608
5.16587
5.16569
5.16455
5.16428
5.16349
5.16329
5.16265
5.16251
5.16221
5.162
5.16074
5.1604
5.15909
5.15871
5.1574
5.15699
5.15548
5.15507
5.15396
5.15334
5.15007
5.14942
5.14804
5.148
5.14974
5.15078
5.15814
5.16113
5.17862
5.18478
5.21811
5.22976
5.29346
5.31116
5.39277
5.43512
5.73154
5.76488
5.77036
5.77145
4.21229
4.21308
4.15517
4.17334
4.23329
4.2587
4.2944
4.32227
4.41592
4.44936
4.51578
4.53859
4.58389
4.60138
4.63596
4.66102
4.72883
4.76606
4.86234
4.89537
4.95229
4.97183
5.00176
5.012
5.02533
5.032
5.04533
5.0512
5.06212
5.06556
5.06973
5.07109
5.07264
5.07313
5.0735
5.07359
5.07339
5.07328
5.07289
5.07277
5.07256
5.0723
5.07131
5.07096
5.07025
5.06998
5.0694
5.0692
5.06888
5.0686
5.06755
5.06709
5.0659
5.06538
5.06418
5.06363
5.06226
5.06169
5.06055
5.05969
5.05687
5.05599
5.05468
5.05458
5.05592
5.05724
5.06335
5.06719
5.08181
5.08978
5.11772
5.13273
5.18539
5.20837
5.27838
5.33135
5.56215
5.60359
5.61163
5.6133
4.00687
4.01428
4.00611
4.03581
4.10662
4.13856
4.17529
4.20777
4.29397
4.33235
4.39295
4.41894
4.46019
4.48077
4.51717
4.54784
4.61911
4.66332
4.75286
4.79132
4.84644
4.86964
4.90001
4.91242
4.9267
4.93495
4.94939
4.95654
4.96723
4.97134
4.97566
4.97731
4.97895
4.97956
4.98004
4.98017
4.98005
4.97994
4.9796
4.97946
4.97924
4.97895
4.97806
4.97765
4.97698
4.97667
4.97614
4.9759
4.97555
4.97524
4.97434
4.97381
4.97268
4.97207
4.97094
4.9703
4.96901
4.96833
4.96712
4.96613
4.96359
4.96257
4.96127
4.9611
4.9621
4.9635
4.96864
4.97283
4.98527
4.99398
5.01783
5.03419
5.07851
5.10369
5.16467
5.22047
5.40033
5.44363
5.45315
5.4552
3.80117
3.8161
3.85552
3.89664
3.98151
4.01822
4.05633
4.09112
4.17393
4.21444
4.2715
4.29867
4.33731
4.35952
4.39861
4.43303
4.51046
4.55876
4.64542
4.6866
4.74187
4.76716
4.79896
4.81275
4.82831
4.83764
4.85373
4.86173
4.8726
4.8771
4.8817
4.88354
4.88529
4.88599
4.8866
4.88676
4.8867
4.8866
4.88631
4.88616
4.88593
4.88562
4.88478
4.88435
4.88371
4.88338
4.88286
4.8826
4.88222
4.88189
4.88111
4.88056
4.87944
4.87879
4.87768
4.87699
4.87573
4.87499
4.87369
4.87262
4.87025
4.86916
4.86781
4.86758
4.86826
4.86962
4.87396
4.87813
4.88887
4.89758
4.91825
4.93453
4.97239
4.99758
5.05116
5.10462
5.24397
5.28502
5.29497
5.29719
3.59487
3.61695
3.70488
3.75571
3.85831
3.89782
3.93751
3.97255
4.05557
4.09587
4.15124
4.17794
4.21509
4.23759
4.28022
4.31649
4.40297
4.45266
4.53979
4.58131
4.63849
4.66442
4.69864
4.71301
4.73017
4.74006
4.7584
4.76681
4.77822
4.78286
4.78785
4.78977
4.79168
4.79242
4.79317
4.79337
4.79336
4.79327
4.793
4.79286
4.79262
4.79231
4.79148
4.79105
4.79042
4.79009
4.78957
4.78931
4.78889
4.78857
4.78787
4.78733
4.78618
4.78553
4.7844
4.78371
4.78243
4.78167
4.78024
4.77917
4.77685
4.77576
4.77431
4.77402
4.77439
4.77561
4.7793
4.78317
4.79255
4.8007
4.81884
4.83401
4.86678
4.89034
4.93766
4.98534
5.09154
5.12765
5.13708
5.13926
3.38769
3.41517
3.55571
3.61271
3.73764
3.7774
3.81886
3.85204
3.93891
3.97668
4.03211
4.05678
4.09344
4.11484
4.16208
4.19794
4.29693
4.34505
4.43598
4.47539
4.53635
4.56133
4.5991
4.61316
4.63231
4.64213
4.66347
4.67177
4.68411
4.6886
4.69411
4.69599
4.69811
4.69884
4.69976
4.69997
4.70002
4.69995
4.69969
4.69956
4.69931
4.69902
4.69817
4.69777
4.69711
4.6968
4.69627
4.69602
4.69555
4.69525
4.69462
4.69412
4.6929
4.69228
4.6911
4.69044
4.68911
4.68838
4.68678
4.68576
4.68341
4.68237
4.68076
4.68043
4.6805
4.68151
4.68463
4.68799
4.69628
4.70342
4.71955
4.73279
4.76154
4.78214
4.82414
4.86371
4.9419
4.97134
4.97948
4.98141
3.17941
3.20886
3.40989
3.46699
3.62037
3.65692
3.70054
3.72939
3.82421
3.85678
3.91421
3.93513
3.97239
3.99106
4.04439
4.07685
4.19293
4.23573
4.33422
4.3686
4.43565
4.45773
4.50051
4.51309
4.53482
4.54374
4.56905
4.57656
4.59031
4.5943
4.60053
4.60221
4.6046
4.60526
4.60638
4.60658
4.60669
4.60663
4.60638
4.60626
4.606
4.60575
4.60483
4.60449
4.6038
4.60353
4.60296
4.60274
4.60221
4.60196
4.60137
4.60094
4.59959
4.59905
4.59778
4.59721
4.59577
4.59512
4.5933
4.59241
4.58992
4.58901
4.58716
4.58682
4.58656
4.58732
4.58994
4.59262
4.60006
4.60577
4.62037
4.63094
4.65663
4.67309
4.71071
4.74054
4.79421
4.81588
4.82212
4.82363
2.96996
2.9957
3.26982
3.31742
3.50777
3.53614
3.5828
3.60409
3.71199
3.73588
3.79777
3.81282
3.85208
3.86588
3.92752
3.95241
4.09185
4.12416
4.23502
4.26049
4.33674
4.3533
4.40311
4.41266
4.43784
4.4447
4.47534
4.48109
4.49691
4.4999
4.50712
4.50839
4.51115
4.51166
4.51304
4.5132
4.51335
4.51332
4.51306
4.51297
4.51269
4.51251
4.51148
4.51123
4.51046
4.51026
4.50963
4.50947
4.50885
4.50867
4.5081
4.5078
4.50626
4.50585
4.50443
4.50401
4.5024
4.50191
4.49978
4.49912
4.49636
4.49568
4.4935
4.49321
4.49258
4.49305
4.49526
4.49705
4.50391
4.50777
4.52136
4.52849
4.55208
4.56319
4.5976
4.61641
4.6478
4.66103
4.66495
4.6659
2.75948
2.7726
3.13881
3.16214
3.40164
3.41463
3.46608
3.47532
3.60313
3.61345
3.68319
3.68955
3.73279
3.73878
3.81212
3.82339
3.99505
4.00945
4.13923
4.15035
4.24021
4.24753
4.30733
4.3116
4.34159
4.3447
4.38262
4.38523
4.40401
4.40534
4.41395
4.41452
4.4178
4.41803
4.41974
4.41982
4.42003
4.42002
4.41973
4.41969
4.41938
4.4193
4.41809
4.41798
4.4171
4.41702
4.41629
4.41621
4.41547
4.4154
4.41483
4.4147
4.41287
4.4127
4.41104
4.41085
4.40897
4.40876
4.4062
4.40591
4.40271
4.40242
4.39976
4.39962
4.39855
4.39872
4.40059
4.40128
4.40787
4.40939
4.4226
4.42539
4.44803
4.45236
4.4851
4.49177
4.50211
4.50656
4.50789
4.50822
)
;

boundaryField
{
    F1_1
    {
        type            fixedValue;
        value           nonuniform List<scalar> 
80
(
0
1.99183
3.06493
3.06493
3.3281
3.3281
3.43422
3.43422
3.50736
3.50736
3.57003
3.57003
3.61443
3.61443
3.6952
3.6952
3.89308
3.89308
4.02691
4.02691
4.12432
4.12432
4.19069
4.19069
4.2236
4.2236
4.25304
4.25304
4.27921
4.27921
4.28795
4.28795
4.29028
4.29028
4.29019
4.29019
4.28523
4.28523
4.28124
4.28124
4.27711
4.27711
4.2727
4.2727
4.26868
4.26868
4.26524
4.26524
4.26326
4.26326
4.25782
4.25782
4.254
4.254
4.25185
4.25185
4.24618
4.24618
4.24335
4.24335
4.23838
4.23838
4.2256
4.2256
4.21496
4.21496
4.20466
4.20466
4.19475
4.19475
4.18675
4.18675
4.18535
4.18535
4.22305
4.22305
4.22305
4.22305
4.22305
4.22305
)
;
    }
    F1_2
    {
        type            fixedValue;
        value           nonuniform List<scalar> 
80
(
2.28278
2.28278
2.9479
2.9479
3.28547
3.28547
3.49887
3.49887
3.65091
3.65091
3.76169
3.76169
3.82053
3.82053
3.90321
3.90321
4.07411
4.07411
4.18631
4.18631
4.27094
4.27094
4.3326
4.3326
4.36544
4.36544
4.39735
4.39735
4.42806
4.42806
4.44124
4.44124
4.44721
4.44721
4.44928
4.44928
4.4497
4.4497
4.44934
4.44934
4.44859
4.44859
4.44768
4.44768
4.44684
4.44684
4.44609
4.44609
4.44528
4.44528
4.44443
4.44443
4.44362
4.44362
4.44264
4.44264
4.44137
4.44137
4.43951
4.43951
4.43694
4.43694
4.43435
4.43435
4.43229
4.43229
4.43236
4.43236
4.43532
4.43532
4.43443
4.43443
4.42752
4.42752
4.39138
4.39138
4.39138
4.39138
4.39138
4.39138
)
;
    }
    F1_3
    {
        type            fixedValue;
        value           nonuniform List<scalar> 
80
(
2.33249
2.33249
2.99083
2.99083
3.29341
3.29341
3.4701
3.4701
3.60203
3.60203
3.6975
3.6975
3.75017
3.75017
3.82221
3.82221
3.97923
3.97923
4.09989
4.09989
4.19043
4.19043
4.25554
4.25554
4.28933
4.28933
4.32136
4.32136
4.35034
4.35034
4.36135
4.36135
4.3652
4.3652
4.36588
4.36588
4.3617
4.3617
4.358
4.358
4.35401
4.35401
4.34966
4.34966
4.3456
4.3456
4.34189
4.34189
4.33873
4.33873
4.33696
4.33696
4.33256
4.33256
4.33055
4.33055
4.32601
4.32601
4.32401
4.32401
4.32113
4.32113
4.31523
4.31523
4.31193
4.31193
4.31203
4.31203
4.31723
4.31723
4.32375
4.32375
4.33698
4.33698
4.31981
4.31981
4.31981
4.31981
4.31981
4.31981
)
;
    }
    F1_4
    {
        type            fixedValue;
        value           nonuniform List<scalar> 
80
(
2.65398
2.65398
3.08017
3.08017
3.35311
3.35311
3.40856
3.40856
3.55105
3.55105
3.62717
3.62717
3.67388
3.67388
3.75567
3.75567
3.94979
3.94979
4.0937
4.0937
4.1936
4.1936
4.26055
4.26055
4.29401
4.29401
4.33697
4.33697
4.35791
4.35791
4.36752
4.36752
4.37118
4.37118
4.37312
4.37312
4.37337
4.37337
4.37306
4.37306
4.37271
4.37271
4.37138
4.37138
4.37041
4.37041
4.3696
4.3696
4.36877
4.36877
4.36819
4.36819
4.36615
4.36615
4.36431
4.36431
4.36223
4.36223
4.35937
4.35937
4.35583
4.35583
4.35284
4.35284
4.35152
4.35152
4.35328
4.35328
4.35996
4.35996
4.37344
4.37344
4.39637
4.39637
4.42938
4.42938
4.42938
4.42938
4.42938
4.42938
)
;
    }
    F2_1
    {
        type            fixedValue;
        value           nonuniform List<scalar> 
80
(
4.38765
4.38765
4.42165
4.42165
4.59045
4.59045
4.70795
4.70795
4.79105
4.79105
4.85659
4.85659
4.91368
4.91368
4.94427
4.94427
5.06335
5.06335
5.16392
5.16392
5.22933
5.22933
5.26936
5.26936
5.29177
5.29177
5.30263
5.30263
5.31222
5.31222
5.31739
5.31739
5.31667
5.31667
5.31686
5.31686
5.31148
5.31148
5.30676
5.30676
5.30552
5.30552
5.29944
5.29944
5.29458
5.29458
5.29078
5.29078
5.28725
5.28725
5.2834
5.2834
5.27967
5.27967
5.27588
5.27588
5.27157
5.27157
5.26671
5.26671
5.26028
5.26028
5.25174
5.25174
5.24306
5.24306
5.236
5.236
5.23386
5.23386
5.24204
5.24204
5.27362
5.27362
5.32282
5.32282
5.5604
5.5604
5.5604
5.5604
)
;
    }
    F2_2
    {
        type            fixedValue;
        value           nonuniform List<scalar> 
80
(
3.84373
3.84373
4.47695
4.47695
4.64629