/*--------------------------------*- C++ -*----------------------------------*\
| =========                 |                                                 |
| \\      /  F ield         | OpenFOAM: The Open Source CFD Toolbox           |
|  \\    /   O peration     | Version:  5.x                                   |
|   \\  /    A nd           | Web:      www.OpenFOAM.org                      |
|    \\/     M anipulation  |                                                 |
\*---------------------------------------------------------------------------*/
FoamFile
{
    version     2.0;
    format      ascii;
    class       volScalarField;
    location    "19.3";
    object      gradTx;
}
// * * * * * * * * * * * * * * * * * * * * * * * * * * * * * * * * * * * * * //

dimensions      [0 -1 0 1 0 0 0];

internalField   nonuniform List<scalar> 
6300
(
3.4601
3.44956
3.4285
3.39691
3.35485
3.30238
3.2396
3.16672
3.08402
2.99194
2.89108
2.78226
2.66655
2.54524
2.41987
3.47051
3.45996
3.43888
3.40726
3.36514
3.31255
3.24959
3.17641
3.09328
3.00059
2.89892
2.78905
2.67204
2.5492
2.42211
3.49132
3.48077
3.45966
3.42799
3.38575
3.33296
3.26965
3.19593
3.11198
3.01812
2.91484
2.80287
2.68325
2.5573
2.4267
3.52254
3.51199
3.49087
3.45915
3.41679
3.36375
3.30001
3.22556
3.14048
3.04494
2.93933
2.82425
2.70067
2.56996
2.43391
3.56419
3.55365
3.53254
3.50081
3.45837
3.40512
3.34094
3.26569
3.17929
3.08173
2.97316
2.85401
2.72512
2.58785
2.44419
3.61623
3.60573
3.5847
3.55304
3.51063
3.45729
3.3928
3.31685
3.22915
3.12941
3.01746
2.89341
2.75784
2.61205
2.45822
3.67864
3.66822
3.64733
3.61588
3.57368
3.5205
3.45597
3.37964
3.29093
3.18918
3.07375
2.94421
2.80068
2.64419
2.47713
3.75132
3.74103
3.7204
3.68932
3.64758
3.5949
3.53082
3.45468
3.36562
3.26251
3.14403
3.00891
2.85636
2.6868
2.50265
3.83414
3.82404
3.80378
3.77326
3.7323
3.68057
3.61757
3.54252
3.45425
3.35108
3.23082
3.09091
2.92896
2.74389
2.53768
3.92692
3.91705
3.89727
3.86751
3.82763
3.77737
3.71625
3.64346
3.55764
3.45661
3.33715
3.19485
3.02455
2.82201
2.58719
4.02943
4.01981
4.00058
3.97173
3.9332
3.88488
3.82646
3.7573
3.67609
3.58045
3.4662
3.32664
3.15227
2.93227
2.66039
4.14139
4.13204
4.11337
4.08546
4.04842
4.00235
3.94728
3.88303
3.80884
3.72275
3.62041
3.49312
3.32547
3.09429
2.77584
4.26255
4.25342
4.23524
4.20818
4.17252
4.12866
4.07714
4.01856
3.95334
3.88116
3.7994
3.69982
3.56205
3.34347
2.97536
4.39267
4.38369
4.36583
4.33934
4.30466
4.26249
4.21392
4.16056
4.10465
4.049
3.99604
3.94455
3.87931
3.74206
3.36744
4.53161
4.52266
4.50487
4.47853
4.44413
4.40256
4.35533
4.30494
4.25555
4.21396
4.19102
4.20291
4.26847
4.37791
4.28441
2.30291
2.19603
2.08979
1.98525
1.88343
1.78527
1.69157
1.60304
1.52026
1.44365
1.37356
1.3102
1.25369
1.20407
1.16132
1.12535
1.09601
1.07313
1.05646
1.04572
1.04058
1.04065
1.04546
1.05452
1.06723
1.08293
1.10092
1.12042
1.14064
1.16076
1.17997
1.19749
1.21259
1.22454
1.23269
1.23636
1.2349
1.22761
1.21377
1.19262
1.16341
1.12542
1.07796
1.02046
0.952426
0.873437
0.783133
0.681147
0.567051
0.440302
0.300198
0.145863
-0.0237632
-0.2099
-0.413897
-0.637197
-0.881307
-1.14778
-1.43823
-1.75435
-2.09795
-2.47103
-2.87581
-3.3148
-3.79078
-4.30686
-4.86641
-5.47308
-6.13069
-6.8432
-7.61463
-8.44902
-9.35029
-10.3222
-11.3685
-12.4922
-13.6962
-14.9827
-16.3529
-17.8071
-19.3441
-20.9611
-22.6534
-24.4138
-26.2331
-28.0997
-29.9996
-31.9172
-33.835
-35.7353
2.30347
2.19503
2.08725
1.98126
1.8781
1.77876
1.68406
1.59471
1.51129
1.43422
1.36382
1.30028
1.24371
1.19413
1.15151
1.11574
1.08668
1.06414
1.04788
1.03762
1.03304
1.03376
1.03932
1.04922
1.06286
1.0796
1.09869
1.11934
1.14073
1.16201
1.18235
1.20094
1.21704
1.22997
1.23906
1.2437
1.24323
1.23698
1.22422
1.20416
1.176
1.13897
1.09236
1.03557
0.968125
0.889661
0.799886
0.698517
0.585204
0.459463
0.320626
0.167816
-5.21633e-05
-0.184245
-0.386162
-0.607291
-0.849158
-1.11331
-1.40132
-1.71482
-2.05555
-2.42542
-2.82661
-3.26156
-3.73308
-4.24428
-4.7986
-5.39975
-6.05165
-6.75836
-7.524
-8.3527
-9.24849
-10.2153
-11.2568
-12.3765
-13.5775
-14.862
-16.2319
-17.6878
-19.2289
-20.8528
-22.555
-24.3288
-26.165
-28.0515
-29.9742
-31.9165
-33.8602
-35.7865
2.30462
2.19298
2.08205
1.97308
1.86721
1.76547
1.66876
1.57778
1.4931
1.41512
1.34412
1.28026
1.2236
1.17413
1.13178
1.09643
1.06792
1.04605
1.0306
1.0213
1.01783
1.01983
1.02688
1.03847
1.054
1.07282
1.09415
1.11715
1.14092
1.16457
1.18717
1.20791
1.22602
1.24084
1.25179
1.25831
1.25982
1.25567
1.2451
1.22728
1.20129
1.16624
1.12134
1.06595
0.999617
0.922097
0.833261
0.733013
0.621179
0.497409
0.361104
0.211384
0.0470973
-0.133132
-0.330829
-0.547584
-0.784979
-1.04455
-1.32777
-1.63614
-1.97122
-2.33477
-2.72881
-3.15572
-3.61827
-4.11964
-4.66338
-5.25336
-5.8937
-6.58866
-7.34258
-8.15976
-9.04443
-10.0007
-11.0326
-12.1439
-13.3382
-14.6184
-15.9871
-17.4457
-18.9943
-20.6315
-22.3535
-24.1541
-26.0241
-27.9513
-29.9204
-31.9135
-33.9105
-35.8901
2.30646
2.18981
2.07397
1.96035
1.85028
1.74489
1.64512
1.55171
1.46519
1.38592
1.3141
1.24982
1.19309
1.14383
1.10193
1.06722
1.03954
1.01868
1.00443
0.996527
0.994698
0.998608
1.00786
1.02198
1.04038
1.06237
1.08715
1.11378
1.14126
1.16856
1.19464
1.2186
1.23966
1.25723
1.27083
1.28007
1.28449
1.28352
1.27637
1.26209
1.23955
1.20764
1.16537
1.112
1.04715
0.970759
0.883
0.784123
0.674273
0.553337
0.420831
0.27586
0.117138
-0.0569294
-0.248114
-0.458215
-0.68893
-0.94177
-1.21807
-1.51904
-1.84596
-2.20026
-2.58373
-2.9986
-3.44761
-3.93402
-4.46159
-5.03447
-5.6571
-6.3341
-7.07008
-7.86964
-8.73723
-9.67726
-10.6941
-11.7919
-12.9751
-14.2475
-15.6128
-17.0738
-18.6322
-20.288
-22.0387
-23.8792
-25.8007
-27.7904
-29.8319
-31.9047
-33.9856
-36.0495
2.30914
2.18538
2.06258
1.94245
1.82654
1.71614
1.61227
1.51566
1.42679
1.34592
1.27315
1.20847
1.15177
1.10289
1.06165
1.02785
1.00129
0.981762
0.96906
0.962971
0.963257
0.969644
0.981793
0.999273
1.02153
1.04787
1.07742
1.10913
1.14182
1.17423
1.20511
1.2334
1.25829
1.27927
1.29611
1.3087
1.31687
1.32019
1.31787
1.3087
1.29123
1.26388
1.22529
1.17451
1.11123
1.03572
0.948679
0.850964
0.743263
0.625855
0.498438
0.36007
0.209209
0.0438556
-0.138222
-0.339226
-0.56108
-0.805276
-1.07287
-1.36464
-1.6813
-2.02378
-2.39347
-2.79236
-3.22313
-3.68918
-4.19459
-4.74396
-5.34226
-5.9946
-6.70606
-7.48153
-8.32572
-9.24324
-10.2387
-11.3171
-12.4833
-13.7427
-15.1005
-16.5616
-18.1298
-19.8075
-21.5947
-23.4877
-25.4788
-27.5551
-29.6981
-31.8841
-34.0849
-36.2696
2.31291
2.1795
2.04728
1.91841
1.79479
1.67793
1.5689
1.46841
1.3768
1.29419
1.22051
1.15558
1.09913
1.05091
1.01062
0.978021
0.952872
0.934968
0.924129
0.920191
0.92299
0.932341
0.948003
0.96964
0.996769
1.02871
1.06453
1.10303
1.14274
1.18203
1.21927
1.25306
1.28247
1.3072
1.32743
1.34364
1.35618
1.36494
1.36913
1.36722
1.35706
1.33626
1.30269
1.25497
1.19285
1.1172
1.02966
0.932115
0.826164
0.712719
0.59175
0.462204
0.322081
0.168659
-0.00114041
-0.190275
-0.401115
-0.635141
-0.892931
-1.17445
-1.4795
-1.80818
-2.16122
-2.54024
-2.94786
-3.3877
-3.86431
-4.38302
-4.94961
-5.57
-6.24987
-6.99448
-7.80862
-8.6969
-9.66414
-10.7156
-11.8574
-13.0962
-14.4396
-15.8949
-17.4696
-19.1695
-20.9981
-22.955
-25.0343
-27.2234
-29.5021
-31.842
-34.2074
-36.5584
2.31817
2.17184
2.02706
1.88673
1.75325
1.62837
1.5132
1.4083
1.3138
1.22956
1.15524
1.0904
1.03461
0.987437
0.948483
0.917419
0.893979
0.87796
0.86922
0.867669
0.873249
0.885909
0.905568
0.932053
0.965031
1.00391
1.04774
1.09514
1.14422
1.19274
1.23833
1.27894
1.31336
1.34153
1.36449
1.3838
1.40085
1.41619
1.42912
1.43754
1.43814
1.42696
1.40038
1.35608
1.29389
1.21574
1.12498
1.0253
0.919791
0.810355
0.697347
0.579504
0.454041
0.31698
0.16372
-0.0101286
-0.207824
-0.430843
-0.678873
-0.950427
-1.24374
-1.55754
-1.89159
-2.24699
-2.62624
-3.0333
-3.47346
-3.95315
-4.4795
-5.05974
-5.7005
-6.40731
-7.18474
-8.03688
-8.96819
-9.98414
-11.0917
-12.2993
-13.6172
-15.0565
-16.629
-18.3461
-20.2167
-22.2457
-24.4314
-26.7628
-29.218
-31.7627
-34.3508
-36.9277
2.32554
2.16185
2.00036
1.84513
1.69926
1.56476
1.44265
1.33316
1.236
1.15061
1.07624
1.01216
0.957652
0.912087
0.874941
0.8458
0.824361
0.810431
0.803922
0.80484
0.813273
0.829361
0.853262
0.885077
0.924753
0.971936
1.02578
1.08475
1.14645
1.20762
1.26452
1.3137
1.35317
1.38331
1.40674
1.42715
1.44791
1.47085
1.49555
1.51906
1.53609
1.53979
1.5235
1.48288
1.41782
1.33237
1.23308
1.12679
1.01901
0.913067
0.809848
0.707713
0.60264
0.488562
0.358162
0.204293
0.0218729
-0.190592
-0.430998
-0.695131
-0.978517
-1.27777
-1.59128
-1.91942
-2.26462
-2.63126
-3.02571
-3.45612
-3.93183
-4.46238
-5.056
-5.71848
-6.45328
-7.26287
-8.15036
-9.12078
-10.1817
-11.3436
-12.6198
-14.0261
-15.5803
-17.3014
-19.2071
-21.3108
-23.6185
-26.1238
-28.8049
-31.6208
-34.5101
-37.3956
2.33604
2.14858
1.96457
1.78995
1.6288
1.48325
1.35386
1.2402
1.14123
1.05573
0.982409
0.920099
0.867772
0.824575
0.789836
0.763054
0.743895
0.732183
0.727894
0.731157
0.742236
0.761528
0.789523
0.826742
0.873624
0.930322
0.996398
1.0704
1.14938
1.2286
1.30176
1.36237
1.40636
1.4347
1.45325
1.46995
1.49178
1.5229
1.56361
1.60987
1.65314
1.68135
1.68156
1.64482
1.57101
1.46885
1.35119
1.23036
1.11548
1.01179
0.920721
0.840091
0.764142
0.683584
0.586332
0.459759
0.294768
0.0898284
-0.149016
-0.412171
-0.690508
-0.977532
-1.26993
-1.56736
-1.87214
-2.1892
-2.52623
-2.89387
-3.30523
-3.77423
-4.31237
-4.92553
-5.61415
-6.37668
-7.21311
-8.12704
-9.12638
-10.2235
-11.4351
-12.7825
-14.2914
-15.991
-17.912
-20.0823
-22.5208
-25.2317
-28.1978
-31.3727
-34.675
-37.9898
2.35141
2.13026
1.91517
1.71529
1.5358
1.37837
1.24236
1.12599
1.02703
0.943254
0.872683
0.813626
0.764709
0.724851
0.69324
0.669299
0.652674
0.643212
0.640963
0.646184
0.659342
0.681131
0.712466
0.754458
0.808322
0.875164
0.95556
1.04882
1.15193
1.25826
1.35702
1.4349
1.48203
1.50011
1.50238
1.50527
1.52219
1.56105
1.62363
1.70487
1.79181
1.86315
1.89273
1.86006
1.76496
1.62754
1.47381
1.32527
1.19576
1.09226
1.01648
0.965661
0.932211
0.902578
0.856653
0.770475
0.625115
0.419001
0.167906
-0.107409
-0.390052
-0.66962
-0.941398
-1.20475
-1.46202
-1.71841
-1.98273
-2.26869
-2.59566
-2.98655
-3.46073
-4.02396
-4.66862
-5.38407
-6.16428
-7.01034
-7.93028
-8.93832
-10.0547
-11.3063
-12.7277
-14.3617
-16.2581
-18.4674
-21.0307
-23.972
-27.2897
-30.9412
-34.8216
-38.7544
2.37479
2.10312
1.84378
1.61124
1.411
1.24256
1.10253
0.986667
0.890894
0.811727
0.74634
0.692519
0.64857
0.613224
0.585569
0.564984
0.551109
0.543825
0.54325
0.549753
0.563993
0.586958
0.620032
0.665045
0.724297
0.800452
0.896148
1.01303
1.14978
1.29878
1.44226
1.55166
1.59948
1.58823
1.55054
1.52034
1.52094
1.56498
1.65667
1.7916
1.95285
2.10501
2.19343
2.16513
2.01975
1.80964
1.58889
1.3927
1.2385
1.13274
1.07623
1.06614
1.09471
1.14496
1.18486
1.16633
1.04287
0.812872
0.519637
0.207853
-0.094069
-0.372982
-0.62506
-0.850936
-1.05321
-1.23625
-1.40809
-1.58452
-1.79407
-2.07899
-2.4809
-3.00518
-3.62116
-4.29821
-5.02062
-5.78727
-6.60731
-7.49715
-8.47965
-9.58568
-10.8578
-12.3546
-14.1536
-16.3425
-18.9964
-22.1701
-25.9009
-30.1798
-34.8928
-39.7631
2.41219
2.05815
1.73372
1.46062
1.2404
1.06586
0.927902
0.818384
0.73082
0.660326
0.603314
0.557171
0.520015
0.490499
0.467691
0.450981
0.440031
0.434756
0.435318
0.442159
0.456054
0.478205
0.510378
0.555101
0.615902
0.697565
0.806188
0.948596
1.12992
1.3472
1.57653
1.75703
1.80191
1.71435
1.58784
1.491
1.45708
1.50024
1.62739
1.84035
2.12689
2.43856
2.66213
2.63867
2.36767
2.00695
1.66854
1.39964
1.21143
1.10226
1.06909
1.11086
1.22592
1.40216
1.59711
1.71323
1.61394
1.29773
0.898006
0.508861
0.168746
-0.115016
-0.346489
-0.531148
-0.672159
-0.770256
-0.826905
-0.852726
-0.883984
-1.003
-1.32492
-1.8544
-2.4858
-3.14703
-3.81327
-4.48728
-5.18384
-5.92256
-6.72668
-7.62594
-8.66408
-9.91249
-11.4874
-13.5479
-16.2135
-19.5659
-23.7228
-28.793
-34.7375
-41.1468
2.47625
1.97049
1.54966
1.23377
1.00392
0.836363
0.712255
0.61844
0.546129
0.489486
0.44461
0.408862
0.380435
0.358096
0.341014
0.328663
0.320764
0.317262
0.318327
0.324389
0.336208
0.354998
0.382632
0.421978
0.477443
0.555823
0.667545
0.828082
1.05823
1.3782
1.78104
2.15763
2.19499
1.89648
1.58237
1.37098
1.28215
1.31446
1.47447
1.78305
2.26465
2.89886
3.48643
3.4686
2.84469
2.17204
1.648
1.29028
1.07045
0.962253
0.953944
1.05
1.26897
1.63232
2.1228
2.57021
2.49731
1.90277
1.26106
0.739181
0.350341
0.0675924
-0.135381
-0.274257
-0.352945
-0.363989
-0.290155
-0.113154
0.152408
0.365122
0.129889
-0.556897
-1.30755
-1.98868
-2.59476
-3.15488
-3.69965
-4.25378
-4.83671
-5.4662
-6.16761
-7.00011
-8.12222
-9.88186
-12.4414
-15.8033
-20.2293
-26.147
-33.9128
-43.159
2.59561
1.76043
1.2144
0.882995
0.677722
0.544299
0.452961
0.387508
0.338852
0.30168
0.272747
0.249992
0.232075
0.218109
0.207511
0.199921
0.195153
0.193178
0.194125
0.198314
0.20631
0.219042
0.238005
0.265627
0.305963
0.366047
0.458577
0.607291
0.857164
1.28981
2.02329
3.04662
3.07163
2.10101
1.42888
1.07446
0.932712
0.944754
1.10754
1.47652
2.18256
3.42619
5.1824
5.17112
3.39176
2.12303
1.3879
0.982319
0.76869
0.678354
0.688463
0.81208
1.10404
1.67934
2.71042
4.17633
4.1317
2.57562
1.45149
0.777887
0.37913
0.135289
-0.0166086
-0.104073
-0.131173
-0.0799845
0.0979895
0.498832
1.26483
2.37819
2.23485
0.832501
-0.229471
-0.93841
-1.44243
-1.84459
-2.20198
-2.54355
-2.87969
-3.2029
-3.48238
-3.67069
-3.83897
-5.06402
-7.51367
-10.5086
-14.5876
-20.8398
-30.956
-46.3395
2.83778
1.13398
0.570089
0.350526
0.248028
0.191607
0.156377
0.13237
0.115026
0.102
0.0919731
0.0841468
0.0780182
0.0732617
0.0696671
0.0671057
0.0655121
0.0648771
0.0652495
0.0667472
0.0695817
0.0741055
0.0809006
0.0909547
0.106032
0.129532
0.168686
0.240807
0.392874
0.768165
1.84808
5.37304
5.38188
1.87563
0.817851
0.471624
0.361783
0.357927
0.443664
0.684562
1.32625
3.21526
9.42334
9.41946
3.20338
1.30554
0.65321
0.397894
0.289346
0.249778
0.259493
0.33171
0.531034
1.06997
2.67177
7.95744
7.9424
2.62633
0.993086
0.42076
0.184803
0.0705591
0.00935437
-0.0208349
-0.0221636
0.0214201
0.165166
0.584948
1.87694
6.20079
6.15263
1.73167
0.340184
-0.183258
-0.436823
-0.598751
-0.727118
-0.841163
-0.941275
-1.0026
-0.928424
-0.370163
1.96598
1.51719
-1.8008
-3.65265
-5.81657
-9.96806
-20.4143
-51.8929
-37.7815
-39.9405
-41.9939
-43.919
-45.6983
-47.319
-48.7736
-50.0582
-51.1723
-52.1178
-52.8976
-53.5156
-53.9753
-54.2798
-54.4315
-37.8599
-40.0458
-42.1219
-44.0647
-45.8565
-47.485
-48.9432
-50.2283
-51.3407
-52.2831
-53.0593
-53.6736
-54.1301
-54.4324
-54.5829
-38.0197
-40.2608
-42.3829
-44.3613
-46.1778
-47.8211
-49.2858
-50.5709
-51.6789
-52.6143
-53.3825
-53.989
-54.4389
-54.7364
-54.8844
-38.2672
-40.5945
-42.7876
-44.8194
-46.6719
-48.3355
-49.8075
-51.0903
-52.1895
-53.1125
-53.8671
-54.4607
-54.8999
-55.1897
-55.3337
-38.6132
-41.0621
-43.3533
-45.4567
-47.3548
-49.0413
-50.5183
-51.793
-52.8761
-53.7788
-54.5123
-55.0866
-55.5099
-55.7885
-55.9267
-39.0743
-41.6872
-44.1066
-46.299
-48.2491
-49.9565
-51.4309
-52.6872
-53.7426
-54.614
-55.3165
-55.8631
-56.2642
-56.5273
-56.6577
-39.6762
-42.5055
-45.0868
-47.3833
-49.3857
-51.1045
-52.5613
-53.7821
-54.793
-55.6177
-56.2763
-56.785
-57.1561
-57.3987
-57.5186
-40.4587
-43.5715
-46.3515
-48.7614
-50.8058
-52.5143
-53.9274
-55.0865
-56.0293
-56.7874
-57.3858
-57.844
-58.1762
-58.3925
-58.4991
-41.4853
-44.9702
-47.9859
-50.5048
-52.5614
-54.2192
-55.547
-56.607
-57.4502
-58.1164
-58.6353
-59.0288
-59.312
-59.4956
-59.5858
-42.8624
-46.8378
-50.1169
-52.7102
-54.7155
-56.2537
-57.4342
-58.3439
-59.0478
-59.5923
-60.01
-60.3233
-60.5473
-60.6917
-60.7625
-44.7794
-49.4015
-52.9335
-55.5031
-57.3367
-58.6457
-59.5916
-60.2862
-60.8044
-61.1948
-61.4889
-61.7069
-61.8617
-61.961
-62.0097
-47.6057
-53.0552
-56.7122
-59.0316
-60.4822
-61.4009
-61.9998
-62.4046
-62.6884
-62.8933
-63.0436
-63.1536
-63.2311
-63.2808
-63.3051
-52.1494
-58.5011
-61.8281
-63.4285
-64.1592
-64.4756
-64.6017
-64.6437
-64.6509
-64.6459
-64.6385
-64.6322
-64.628
-64.6256
-64.6246
-60.4629
-66.9713
-68.6704
-68.6948
-68.2499
-67.7404
-67.2875
-66.9169
-66.6251
-66.4007
-66.2319
-66.1086
-66.0228
-65.9687
-65.9426
-78.75
-80.2506
-77.1871
-74.43
-72.4048
-70.9486
-69.8905
-69.111
-68.5315
-68.0995
-67.7795
-67.5471
-67.3855
-67.2835
-67.2342
4.66702
4.65799
4.64002
4.61334
4.5784
4.53602
4.4877
4.43621
4.38654
4.34792
4.33767
4.3904
4.58485
5.14664
6.93116
4.79626
4.7871
4.76881
4.74153
4.70552
4.66134
4.61013
4.55414
4.49783
4.44986
4.42715
4.46235
4.61722
4.99621
5.66643
4.93173
4.92241
4.90373
4.87567
4.8382
4.79143
4.73574
4.67217
4.60316
4.53415
4.47633
4.45109
4.49378
4.64337
4.8689
5.07355
5.06409
5.04505
5.01621
4.97723
4.9276
4.8667
4.79381
4.70835
4.61054
4.5028
4.39254
4.29598
4.23767
4.22975
5.22181
5.21228
5.19304
5.16368
5.12352
5.07148
5.00585
4.92403
4.82198
4.69371
4.53091
4.32437
4.07148
3.79686
3.58689
5.37654
5.36708
5.34792
5.31852
5.27795
5.22465
5.15611
5.06813
4.95367
4.80074
4.58928
4.28827
3.86195
3.31105
2.80001
5.53768
5.52848
5.50979
5.48101
5.44108
5.38827
5.3197
5.23046
5.11193
4.94834
4.7097
4.33908
3.73884
2.79744
1.66008
5.70508
5.69632
5.67852
5.6511
5.61304
5.56271
5.49748
5.41293
5.30135
5.14799
4.92161
4.54921
3.85257
2.41981
-0.267833
5.87839
5.87028
5.8538
5.82845
5.79339
5.74736
5.68848
5.61397
5.51962
5.3983
5.23475
4.98438
4.47743
2.91353
-4.06025
6.05719
6.04989
6.03509
6.01241
5.98124
5.9408
5.89016
5.82858
5.75645
5.67787
5.608
5.59758
5.8362
7.16399
13.9911
6.24089
6.23454
6.22171
6.20212
6.1754
6.14117
6.09924
6.05029
5.99758
5.95133
5.9398
6.03766
6.43847
7.59526
10.1011
6.42882
6.42353
6.41286
6.39664
6.37465
6.34674
6.313
6.27438
6.23402
6.2006
6.19546
6.26716
6.51562
7.08947
7.95356
6.62026
6.61609
6.60771
6.59501
6.57788
6.5562
6.52997
6.49943
6.46545
6.43016
6.39756
6.37371
6.36667
6.38191
6.40851
6.8144
6.8114
6.80539
6.79632
6.78412
6.76867
6.74972
6.72661
6.69759
6.65777
6.59341
6.46839
6.2021
5.66624
4.8844
7.01043
7.00863
7.00503
6.99964
6.99246
6.98341
6.97215
6.95765
6.93703
6.90232
6.83116
6.66098
6.22459
5.12121
2.81985
7.20752
7.20691
7.20573
7.20405
7.20196
7.19951
7.1966
7.19267
7.18603
7.17211
7.13747
7.03823
6.71016
5.40791
-0.840317
7.40484
7.4054
7.4066
7.40857
7.41154
7.41577
7.42155
7.42928
7.43987
7.4562
7.4884
7.57416
7.87211
9.12912
15.3349
7.60155
7.60325
7.60674
7.61225
7.6201
7.63076
7.64489
7.66363
7.68948
7.7292
7.8019
7.9625
8.36788
9.41342
11.6507
7.79688
7.79964
7.8053
7.81412
7.82654
7.84315
7.8648
7.89273
7.92922
7.9792
8.05411
8.18061
8.41892
8.86981
9.52321
7.99008
7.99382
8.00146
8.01332
8.02989
8.05186
8.08009
8.11558
8.15934
8.21181
8.27024
8.3208
8.32216
8.18529
7.85249
8.18046
8.18508
8.1945
8.20906
8.22933
8.25604
8.29009
8.33236
8.38315
8.44016
8.49159
8.49491
8.3212
7.63656
5.95374
8.36741
8.37279
8.38375
8.40066
8.42411
8.45491
8.49411
8.54291
8.60238
8.67229
8.74609
8.7917
8.67489
7.78076
2.88948
8.55037
8.55641
8.56867
8.58753
8.6136
8.64775
8.6912
8.74571
8.81409
8.90163
9.01986
9.201
9.56821
10.7005
15.7461
8.72891
8.73548
8.74879
8.7692
8.79729
8.83392
8.88033
8.93852
9.01223
9.10955
9.24967
9.4808
9.93002
10.9023
12.7955
8.90265
8.90963
8.92376
8.94534
8.97488
9.01309
9.061
9.12021
9.19367
9.28765
9.416
9.60884
9.92838
10.4642
11.1633
9.07128
9.07859
9.09333
9.11575
9.14624
9.1853
9.23353
9.29164
9.36058
9.44178
9.53724
9.6486
9.77632
9.9124
10.02
9.23459
9.24214
9.25733
9.28035
9.31146
9.35092
9.3989
9.45519
9.51867
9.58589
9.64714
9.6767
9.61825
9.38007
8.95495
9.3924
9.40014
9.41567
9.43914
9.47068
9.51041
9.5582
9.61337
9.67384
9.73406
9.77874
9.76562
9.58479
8.97724
7.59827
9.54458
9.55246
9.56828
9.5921
9.62401
9.66406
9.71207
9.76749
9.8289
9.89291
9.95016
9.97068
9.84748
9.10981
5.28758
9.69101
9.69903
9.71508
9.73922
9.7715
9.81194
9.86049
9.91705
9.98183
10.0564
10.1468
10.2752
10.5367
11.3841
15.2645
9.83161
9.83974
9.85602
9.88047
9.91311
9.95395
10.003
10.0605
10.1277
10.2087
10.3166
10.487
10.8188
11.5518
13.0017
9.96628
9.97454
9.99105
10.0158
10.0488
10.09
10.1393
10.1969
10.2635
10.3424
10.4427
10.5865
10.822
11.2213
11.7496
10.0949
10.1033
10.1201
10.1452
10.1786
10.2202
10.2697
10.3266
10.3904
10.461
10.5383
10.6219
10.7112
10.8009
10.8684
10.2175
10.226
10.2431
10.2686
10.3026
10.3447
10.3945
10.451
10.5124
10.5748
10.6292
10.6531
10.5999
10.3955
10.038
10.3338
10.3425
10.3599
10.386
10.4206
10.4635
10.5142
10.5716
10.6334
10.6942
10.7408
10.7375
10.5935
10.096
8.96323
10.4438
10.4527
10.4705
10.4972
10.5326
10.5767
10.629
10.6888
10.7546
10.8233
10.8866
10.9193
10.8323
10.2375
7.10581
10.5473
10.5565
10.5747
10.602
10.6385
10.6839
10.7383
10.8015
10.8735
10.9559
11.0535
11.1839
11.4234
12.1402
15.3372
10.6442
10.6536
10.6723
10.7003
10.7378
10.7847
10.8411
10.9074
10.985
11.0779
11.1972
11.3724
11.6828
12.3203
13.5333
10.7343
10.7439
10.7631
10.7919
10.8303
10.8785
10.9367
11.0052
11.0855
11.1813
11.3018
11.4666
11.7149
12.1003
12.576
10.8175
10.8273
10.8469
10.8764
10.9159
10.9652
11.0247
11.0943
11.1748
11.2675
11.3754
11.5022
11.6517
11.8172
11.9533
10.8935
10.9035
10.9237
10.9539
10.9942
11.0447
11.1052
11.1756
11.2552
11.3429
11.4355
11.5219
11.5769
11.5542
11.4294
10.9622
10.9725
10.9931
11.0241
11.0654
11.1169
11.1786
11.2499
11.3295
11.415
11.4994
11.563
11.5559
11.3618
10.823
11.0235
11.034
11.0551
11.0868
11.1291
11.1819
11.245
11.3179
11.3995
11.4877
11.5774
11.6529
11.6645
11.4083
9.84683
11.0771
11.0879
11.1095
11.1419
11.1853
11.2394
11.3042
11.3794
11.4645
11.5593
11.6648
11.7867
11.9588
12.3609
14.0003
11.1229
11.1339
11.1561
11.1893
11.2337
11.2893
11.3559
11.4336
11.5223
11.6233
11.7405
11.8853
12.093
12.454
13.087
11.1607
11.172
11.1946
11.2286
11.2741
11.3311
11.3996
11.4796
11.5713
11.6759
11.7965
11.9399
12.1207
12.3576
12.6177
11.1904
11.2019
11.225
11.2598
11.3063
11.3647
11.4349
11.5171
11.611
11.7172
11.8364
11.9681
12.1091
12.2447
12.3335
11.2117
11.2234
11.247
11.2825
11.33
11.3897
11.4616
11.5458
11.6418
11.7495
11.8673
11.9895
12.1009
12.164
12.1155
11.2245
11.2365
11.2604
11.2965
11.345
11.4059
11.4795
11.5657
11.6642
11.7746
11.8947
12.0179
12.126
12.1602
11.8683
11.2287
11.2408
11.2651
11.3018
11.351
11.4131
11.4883
11.5766
11.6781
11.7927
11.9196
12.0564
12.2023
12.3825
12.7982
11.2242
11.2364
11.261
11.2981
11.348
11.411
11.4875
11.5778
11.6825
11.8021
11.9374
12.0881
12.2546
12.4409
12.646
11.2108
11.2231
11.2479
11.2852
11.3355
11.3992
11.4767
11.5687
11.6761
11.8004
11.9441
12.1084
12.2928
12.4859
12.6407
11.1886
11.2009
11.2257
11.2631
11.3135
11.3774
11.4555
11.5484
11.6575
11.7853
11.936
12.1143
12.3247
12.557
12.7475
11.1575
11.1697
11.1944
11.2316
11.2819
11.3457
11.4235
11.5164
11.6256
11.7543
11.9082
12.0976
12.3411
12.6567
12.9911
11.1175
11.1297
11.1541
11.1909
11.2407
11.3038
11.3808
11.4724
11.5798
11.7055
11.8554
12.0431
12.3071
12.7431
13.4715
11.0689
11.0808
11.1047
11.141
11.1899
11.252
11.3275
11.4171
11.5209
11.6399
11.7759
11.9351
12.1533
12.6258
14.4624
11.0116
11.0232
11.0466
11.082
11.1299
11.1904
11.2642
11.3512
11.4512
11.5625
11.6799
11.7857
11.8228
11.5609
9.8424
10.9459
10.9571
10.9799
11.0142
11.0606
11.1195
11.1912
11.2759
11.3731
11.4807
11.5915
11.6835
11.6997
11.5072
10.9243
10.872
10.8828
10.9047
10.9378
10.9825
11.0394
11.1089
11.1915
11.2875
11.3966
11.5158
11.6336
11.7214
11.7241
11.6059
10.7902
10.8006
10.8214
10.853
10.8958
10.9502
11.0171
11.0973
11.1924
11.3052
11.4406
11.6043
11.8018
12.0245
12.21
10.701
10.7108
10.7304
10.7603
10.8006
10.8522
10.9156
10.9922
11.0846
11.1982
11.3454
11.5511
11.8644
12.3504
12.9474
10.6046
10.6137
10.6321
10.6599
10.6976
10.7455
10.8046
10.8758
10.9615
11.0678
11.2092
11.4227
11.8069
12.5987
14.104
10.5016
10.51
10.5269
10.5525
10.587
10.631
10.6847
10.7487
10.8239
10.9129
11.0225
11.1753
11.4661
12.3511
16.3103
10.3924
10.4
10.4153
10.4385
10.4698
10.5094
10.5573
10.6134
10.6764
10.7435
10.8055
10.8316
10.7125
9.96825
6.08601
10.2776
10.2844
10.2981
10.3187
10.3466
10.3817
10.4239
10.4727
10.5258
10.5777
10.6129
10.5884
10.3929
9.76413
8.35454
10.1578
10.1637
10.1757
10.1937
10.218
10.2487
10.2857
10.3285
10.3756
10.4233
10.4614
10.4637
10.3738
10.1019
9.64852
10.0335
10.0386
10.0487
10.0641
10.0848
10.1111
10.143
10.1808
10.2247
10.2754
10.3344
10.4026
10.481
10.5652
10.6319
9.90545
9.90959
9.91793
9.93054
9.94758
9.96927
9.99599
10.0285
10.0686
10.1217
10.2006
10.3341
10.5837
11.0404
11.666
9.77418
9.77739
9.78386
9.79364
9.80685
9.8237
9.84456
9.87029
9.90326
9.95009
10.0285
10.1847
10.5425
11.3978
13.1387
9.64036
9.64264
9.64722
9.65411
9.66338
9.67509
9.6894
9.70664
9.72788
9.75642
9.80195
9.8949
10.1555
11.1399
15.8246
9.50465
9.50601
9.5087
9.5127
9.51797
9.52442
9.53185
9.53977
9.54706
9.55088
9.54213
9.48831
9.26569
8.31185
3.64005
9.3677
9.36815
9.369
9.37017
9.37152
9.37282
9.3736
9.37288
9.36831
9.35397
9.31325
9.19857
8.88345
8.06535
6.34328
9.23014
9.22972
9.22882
9.22728
9.22488
9.22131
9.21605
9.20821
9.196
9.17532
9.13537
9.04767
8.85031
8.44627
7.85467
9.09257
9.09135
9.08882
9.08475
9.07884
9.07072
9.05995
9.04614
9.02922
9.00995
8.9903
8.97259
8.96048
8.95708
8.95926
8.95554
8.95361
8.94962
8.94326
8.93413
8.92173
8.90563
8.8858
8.86372
8.84479
8.84353
8.89325
9.06441
9.46366
10.0694
8.81955
8.81703
8.8118
8.80347
8.79146
8.77506
8.75354
8.7266
8.69567
8.66729
8.66102
8.72922
9.00975
9.82648
11.6041
8.68503
8.68206
8.67588
8.66599
8.65162
8.6317
8.60488
8.56974
8.52553
8.47434
8.42646
8.41738
8.58251
9.52163
14.3773
8.55228
8.54904
8.54228
8.53141
8.51543
8.4929
8.46167
8.41874
8.3599
8.27904
8.16461
7.98423
7.61758
6.49662
1.524
8.42149
8.41819
8.4113
8.40013
8.38359
8.35989
8.32626
8.27837
8.20924
8.10696
7.94822
7.6801
7.17628
6.14605
4.22366
8.2927
8.28957
8.28302
8.27238
8.2565
8.23353
8.20044
8.15234
8.08126
7.97402
7.80747
7.53932
7.10037
6.41472
5.59208
8.16581
8.16307
8.15734
8.14803
8.13414
8.11397
8.08472
8.04184
7.97808
7.88221
7.73693
7.51683
7.1956
6.7782
6.39295
8.04054
8.03838
8.03389
8.02665
8.01594
8.00049
7.97815
7.94542
7.89687
7.82463
7.71801
7.56426
7.35744
7.11903
6.93002
7.91651
7.91506
7.9121
7.90746
7.90083
7.89156
7.87848
7.85959
7.8318
7.79085
7.7315
7.6482
7.54105
7.42521
7.33955
7.7932
7.79252
7.79123
7.78946
7.78735
7.78504
7.78252
7.77954
7.77554
7.76977
7.7613
7.74837
7.73049
7.7101
7.69328
7.67011
7.67016
7.67047
7.67147
7.67381
7.67844
7.68657
7.69979
7.72017
7.7505
7.79389
7.85166
7.92148
7.99217
8.03904
7.54671
7.54736
7.54901
7.55234
7.5585
7.56918
7.58678
7.61467
7.65758
7.72207
7.81616
7.94625
8.11165
8.29045
8.42102
7.4226
7.42363
7.42614
7.43103
7.43985
7.45489
7.47954
7.51873
7.5797
7.67301
7.81311
8.01599
8.29231
8.62185
8.89734
7.29752
7.29864
7.30138
7.30681
7.31668
7.3337
7.36189
7.40728
7.47903
7.59139
7.76615
8.03441
8.4358
8.99043
9.56863
7.1714
7.17228
7.17454
7.17929
7.18835
7.20452
7.232
7.27714
7.34986
7.46636
7.65395
7.96003
8.47264
9.34223
10.6451
7.04443
7.04471
7.04576
7.04859
7.0549
7.06728
7.08955
7.12746
7.18999
7.29192
7.45916
7.74191
8.26135
9.39272
12.63
-130.027
-96.6067
-84.7128
-79.0156
-75.6916
-73.5244
-72.0207
-70.9385
-70.1433
-69.5536
-69.1175
-68.8005
-68.5798
-68.4401
-68.3725
-110.117
-96.5266
-87.251
-81.5358
-77.8761
-75.4051
-73.6641
-72.4003
-71.4656
-70.7688
-70.2509
-69.873
-69.6089
-69.4414
-69.3601
-99.6491
-93.4498
-87.3164
-82.628
-79.2348
-76.7788
-74.9759
-73.633
-72.6223
-71.8593
-71.287
-70.8663
-70.5706
-70.3825
-70.2909
-93.4903
-90.3269
-86.378
-82.8204
-79.9422
-77.6987
-75.9681
-74.6345
-73.6067
-72.8173
-72.2175
-71.7724
-71.4576
-71.2562
-71.158
-89.5323
-87.7492
-85.1675
-82.5406
-80.2087
-78.2623
-76.6843
-75.4233
-74.4252
-73.6433
-73.0403
-72.588
-72.2654
-72.058
-71.9565
-86.8167
-85.7257
-83.9881
-82.0555
-80.2071
-78.5699
-77.1799
-76.0292
-75.0932
-74.3447
-73.7583
-73.3132
-72.993
-72.786
-72.6843
-84.8629
-84.1508
-82.9439
-81.5115
-80.0585
-78.7056
-77.5091
-76.4854
-75.6308
-74.9332
-74.378
-73.9514
-73.6419
-73.4404
-73.3412
-83.4078
-82.9193
-82.0559
-80.9815
-79.8402
-78.7327
-77.7179
-76.8238
-76.059
-75.4225
-74.9081
-74.5081
-74.2153
-74.0237
-73.9289
-82.296
-81.948
-81.3142
-80.4974
-79.598
-78.6952
-77.8427
-77.0718
-76.3979
-75.8267
-75.3584
-74.9902
-74.7184
-74.5393
-74.4505
-81.43
-81.1747
-80.6993
-80.0703
-79.3578
-78.6226
-77.9106
-77.252
-76.665
-76.1593
-75.7391
-75.4052
-75.1566
-74.9921
-74.9102
-80.7455
-80.5539
-80.191
-79.7008
-79.1329
-78.5338
-77.9411
-77.3821
-76.8752
-76.4322
-76.0596
-75.7605
-75.5364
-75.3871
-75.3126
-80.1981
-80.0519
-79.7707
-79.3847
-78.9295
-78.4404
-77.9478
-77.4755
-77.0408
-76.6559
-76.3287
-76.0637
-75.8638
-75.73
-75.663
-79.7565
-79.6434
-79.4229
-79.1163
-78.7494
-78.3492
-77.9401
-77.5424
-77.1715
-76.8394
-76.5542
-76.3216
-76.1449
-76.0262
-75.9666
-79.3974
-79.3092
-79.1347
-78.8893
-78.5922
-78.2639
-77.9243
-77.5901
-77.275
-76.9899
-76.7431
-76.5404
-76.3855
-76.2811
-76.2286
-79.1039
-79.0345
-78.8954
-78.6979
-78.4562
-78.1865
-77.9045
-77.6241
-77.3572
-77.1136
-76.9012
-76.7256
-76.5909
-76.4997
-76.4537
-78.8628
-78.8079
-78.6964
-78.5366
-78.3395
-78.1174
-77.8831
-77.6482
-77.4227
-77.2155
-77.0335
-76.8822
-76.7657
-76.6866
-76.6466
-78.6638
-78.6204
-78.5307
-78.401
-78.2397
-78.0565
-77.862
-77.6654
-77.4753
-77.2995
-77.1442
-77.0145
-76.9142
-76.846
-76.8114
-78.4992
-78.4649
-78.3925
-78.2869
-78.1547
-78.0035
-77.8419
-77.6776
-77.5177
-77.3689
-77.2369
-77.1262
-77.0403
-76.9817
-76.952
-78.3625
-78.3355
-78.277
-78.191
-78.0825
-77.9577
-77.8235
-77.6862
-77.552
-77.4264
-77.3145
-77.2203
-77.1471
-77.097
-77.0716
-78.2488
-78.2276
-78.1804
-78.1103
-78.0212
-77.9182
-77.8068
-77.6924
-77.5798
-77.4741
-77.3796
-77.2998
-77.2375
-77.1949
-77.1732
-78.1539
-78.1375
-78.0995
-78.0425
-77.9693
-77.8843
-77.792
-77.6967
-77.6026
-77.5138
-77.4342
-77.3668
-77.3141
-77.2779
-77.2595
-78.0746
-78.0621
-78.0317
-77.9853
-77.9254
-77.8553
-77.779
-77.6998
-77.6213
-77.547
-77.48
-77.4233
-77.3788
-77.3483
-77.3328
-78.0081
-77.9988
-77.9746
-77.9371
-77.8882
-77.8306
-77.7676
-77.702
-77.6367
-77.5746
-77.5186
-77.471
-77.4337
-77.408
-77.3949
-77.9523
-77.9456
-77.9266
-77.8964
-77.8566
-77.8095
-77.7578
-77.7036
-77.6495
-77.5979