/*--------------------------------*- C++ -*----------------------------------*\
| =========                 |                                                 |
| \\      /  F ield         | OpenFOAM: The Open Source CFD Toolbox           |
|  \\    /   O peration     | Version:  5.x                                   |
|   \\  /    A nd           | Web:      www.OpenFOAM.org                      |
|    \\/     M anipulation  |                                                 |
\*---------------------------------------------------------------------------*/
FoamFile
{
    version     2.0;
    format      ascii;
    class       volScalarField;
    location    "17.5";
    object      gradTy;
}
// * * * * * * * * * * * * * * * * * * * * * * * * * * * * * * * * * * * * * //

dimensions      [0 -1 0 1 0 0 0];

internalField   nonuniform List<scalar> 
6300
(
1003.49
1010.46
1017.39
1024.28
1031.09
1037.8
1044.4
1050.86
1057.17
1063.3
1069.24
1074.96
1080.46
1085.72
1090.73
0.0156369
0.0469031
0.0781448
0.109327
0.140382
0.171197
0.201596
0.231321
0.260012
0.287193
0.312271
0.334547
0.353252
0.367616
0.376955
0.0260683
0.0781996
0.130308
0.182348
0.234228
0.285779
0.336729
0.386668
0.435012
0.480971
0.523541
0.561515
0.593543
0.618244
0.634368
0.0365021
0.109514
0.182533
0.255525
0.328397
0.400954
0.472866
0.543603
0.612388
0.678132
0.739402
0.794423
0.841153
0.877446
0.901308
0.0469295
0.140816
0.234774
0.32881
0.422863
0.516758
0.610155
0.702468
0.792781
0.879742
0.961487
1.0356
1.09918
1.14905
1.18217
0.057328
0.172044
0.286931
0.402069
0.517472
0.633044
0.748509
0.863316
0.976504
1.08655
1.19118
1.28729
1.37089
1.4374
1.48218
0.0676618
0.203089
0.338823
0.475045
0.611891
0.749411
0.887494
1.02575
1.16334
1.29872
1.42937
1.55146
1.65967
1.74742
1.80764
0.0778893
0.233821
0.390215
0.547378
0.705615
0.865191
1.02628
1.18882
1.35234
1.5156
1.67609
1.82945
1.96886
2.08494
2.16665
0.0879611
0.264084
0.440822
0.618621
0.797976
0.979435
1.16357
1.35088
1.54158
1.73521
1.92991
2.12133
2.3013
2.45675
2.57014
0.0978287
0.293723
0.490353
0.688284
0.888205
1.09097
1.29765
1.5095
1.72784
1.9537
2.18693
2.42457
2.65818
2.8705
3.03355
0.107455
0.322616
0.538563
0.755933
0.975558
1.19857
1.42652
1.66157
1.90653
2.16475
2.43945
2.73173
3.03622
3.33335
3.57984
0.116826
0.35071
0.585327
0.821301
1.05949
1.30117
1.54826
1.80369
2.07188
2.35924
2.67429
3.02655
3.42146
3.84669
4.2438
0.125961
0.378058
0.630713
0.884421
1.13991
1.39832
1.6616
1.93297
2.21799
2.52592
2.87181
3.27857
3.77622
4.38801
5.07343
0.134916
0.404834
0.675024
0.945733
1.21735
1.49058
1.76677
2.04856
2.34111
2.65453
3.00831
3.43955
4.01672
4.8556
6.09041
0.143781
0.431322
0.71879
1.0061
1.29314
1.57984
1.8663
2.1533
2.44327
2.74265
3.06721
3.45445
3.9954
4.92715
6.95352
1095.09
1098.88
1102.48
1105.91
1109.16
1112.25
1115.18
1117.96
1120.59
1123.09
1125.48
1127.75
1129.93
1132.02
1134.04
1135.99
1137.9
1139.77
1141.61
1143.44
1145.25
1147.08
1148.91
1150.77
1152.66
1154.58
1156.54
1158.55
1160.6
1162.71
1164.86
1167.07
1169.32
1171.61
1173.95
1176.32
1178.72
1181.15
1183.59
1186.03
1188.48
1190.91
1193.31
1195.68
1197.99
1200.24
1202.42
1204.5
1206.48
1208.35
1210.08
1211.66
1213.09
1214.34
1215.39
1216.23
1216.84
1217.18
1217.25
1217.02
1216.45
1215.52
1214.21
1212.48
1210.29
1207.62
1204.41
1200.64
1196.24
1191.17
1185.38
1178.8
1171.38
1163.04
1153.71
1143.33
1131.81
1119.08
1105.06
1089.66
1072.81
1054.43
1034.43
1012.75
989.327
964.108
937.051
908.132
877.341
844.687
0.380441
0.379604
0.374751
0.366023
0.353687
0.338114
0.319745
0.299051
0.276507
0.252564
0.227634
0.202079
0.176211
0.150295
0.12455
0.0991683
0.0743161
0.0501507
0.0268286
0.00451506
-0.0166084
-0.0363402
-0.0544578
-0.0707228
-0.0848909
-0.0967275
-0.106029
-0.112644
-0.116497
-0.117597
-0.116041
-0.111993
-0.105651
-0.0971996
-0.0867673
-0.0744003
-0.0600601
-0.0436516
-0.0250753
-0.00428926
0.0186346
0.0434801
0.0698929
0.0974289
0.125634
0.154139
0.182739
0.211446
0.240494
0.270303
0.301412
0.334394
0.369766
0.407923
0.449099
0.493369
0.540696
0.591
0.64425
0.700545
0.760162
0.823581
0.891456
0.964569
1.04376
1.12983
1.22351
1.32533
1.43565
1.55458
1.68208
1.8179
1.96168
2.11294
2.2711
2.43539
2.60479
2.77793
2.95296
3.12744
3.29828
3.4617
3.61331
3.7482
3.86124
3.94737
4.00197
4.02134
4.00302
3.94606
0.640427
0.639029
0.630715
0.615738
0.594586
0.567931
0.536561
0.501312
0.463016
0.422451
0.380319
0.337228
0.293693
0.250142
0.206931
0.164358
0.122686
0.0821592
0.0430239
0.00554406
-0.0299846
-0.0632265
-0.0938036
-0.121302
-0.14529
-0.165343
-0.181085
-0.192233
-0.198639
-0.200321
-0.197469
-0.190412
-0.17955
-0.16526
-0.147801
-0.127251
-0.1035
-0.0763097
-0.0454139
-0.0106558
0.0278941
0.0698643
0.114589
0.161199
0.208793
0.256622
0.304268
0.351739
0.399481
0.448305
0.499244
0.553388
0.61171
0.674927
0.743427
0.817266
0.896262
0.980143
1.06873
1.16211
1.26071
1.36536
1.47723
1.59775
1.72844
1.87076
2.02601
2.19516
2.37881
2.57714
2.79
3.01694
3.25733
3.5104
3.77523
4.05067
4.33522
4.62675
4.92237
5.21812
5.50889
5.7883
6.04879
6.28182
6.4783
6.62917
6.72611
6.76232
6.73325
6.63716
0.910389
0.90846
0.896328
0.874404
0.843477
0.804613
0.759042
0.708048
0.652881
0.594689
0.534481
0.473115
0.411298
0.349605
0.288498
0.228359
0.169517
0.112276
0.05695
0.00388062
-0.0465344
-0.0938284
-0.137459
-0.176812
-0.211226
-0.240035
-0.262625
-0.278518
-0.287448
-0.289437
-0.284812
-0.274167
-0.258242
-0.23774
-0.213139
-0.18456
-0.151744
-0.11415
-0.0711598
-0.0223256
0.0323863
0.092442
0.156729
0.223718
0.291775
0.359534
0.426216
0.491811
0.557085
0.623435
0.692638
0.766545
0.846784
0.934506
1.03025
1.13392
1.24498
1.36269
1.48651
1.61633
1.75272
1.89692
2.05076
2.21649
2.39655
2.59327
2.80869
3.04432
3.30101
3.57897
3.87783
4.19681
4.53492
4.8911
5.26424
5.65303
6.05575
6.46988
6.89174
7.31614
7.73601
8.1423
8.52395
8.8682
9.16117
9.38877
9.53783
9.59743
9.56011
9.42294
1.19499
1.19256
1.17602
1.14603
1.1038
1.05096
0.989343
0.920814
0.847129
0.769858
0.690344
0.609685
0.528762
0.44826
0.36871
0.290534
0.214083
0.139683
0.0676726
-0.0015566
-0.0675284
-0.129655
-0.18722
-0.239378
-0.28518
-0.323626
-0.353753
-0.374768
-0.386195
-0.388018
-0.380764
-0.365467
-0.343465
-0.316062
-0.284145
-0.247911
-0.206806
-0.159701
-0.105258
-0.0423957
0.0292475
0.108991
0.195041
0.28476
0.375248
0.464058
0.549791
0.632408
0.713203
0.794523
0.879325
0.970655
1.07115
1.18261
1.30571
1.44001
1.58417
1.73652
1.8957
2.06117
2.23356
2.41466
2.60722
2.81468
3.04073
3.28893
3.56235
3.86319
4.19264
4.55077
4.93675
5.34919
5.78654
6.24744
6.73075
7.23539
7.7599
8.30191
8.85752
9.42071
9.98274
10.5318
11.053
11.5285
11.9382
12.2615
12.4784
12.5721
12.5308
12.3496
1.49987
1.497
1.47512
1.43529
1.37942
1.30998
1.22966
1.14107
1.04661
0.948346
0.847944
0.746734
0.645721
0.545647
0.447053
0.350336
0.255811
0.163765
0.0745107
-0.0115608
-0.0939331
-0.17192
-0.244633
-0.310962
-0.36959
-0.419054
-0.457859
-0.484681
-0.498625
-0.499521
-0.48815
-0.46627
-0.436313
-0.400731
-0.361215
-0.318123
-0.270352
-0.215661
-0.151318
-0.0749492
0.0146086
0.116624
0.228234
0.34486
0.461305
0.573179
0.678021
0.775794
0.868731
0.960771
1.05678
1.16175
1.27992
1.41412
1.56524
1.73207
1.91174
2.1007
2.296
2.49623
2.70205
2.91606
3.14242
3.38628
3.65319
3.94847
4.27668
4.64106
5.04315
5.48265
5.95776
6.46585
7.00441
7.57166
8.16672
8.7893
9.43901
10.1145
10.8126
11.5271
12.2482
12.9617
13.6481
14.2835
14.8399
15.2874
15.5965
15.7413
15.703
15.4734
1.83202
1.82877
1.80005
1.74762
1.67455
1.58465
1.48183
1.36975
1.25158
1.1299
1.00672
0.883518
0.76135
0.640932
0.522724
0.407017
0.294009
0.18387
0.0768125
-0.0268418
-0.126599
-0.221724
-0.311179
-0.393571
-0.467133
-0.529762
-0.579152
-0.613065
-0.62977
-0.628614
-0.610593
-0.578631
-0.537186
-0.490992
-0.443361
-0.394999
-0.343796
-0.28545
-0.214631
-0.126426
-0.0179006
0.110512
0.254274
0.405285
0.55401
0.692484
0.816488
0.926197
1.0256
1.12134
1.22141
1.33387
1.46565
1.62135
1.80222
2.00571
2.22598
2.45582
2.68924
2.9233
3.15879
3.39972
3.65246
3.92474
4.22483
4.56064
4.93898
5.36469
5.83982
6.3633
6.93129
7.53868
8.181
8.85584
9.56307
10.3041
11.081
11.8946
12.7438
13.6239
14.5248
15.4304
16.3166
17.1521
17.8983
18.5126
18.9512
19.174
19.1506
18.8665
2.20071
2.19713
2.15904
2.08956
1.99384
1.8778
1.7472
1.60707
1.46148
1.31351
1.16542
1.01871
0.874372
0.732952
0.594717
0.459742
0.328008
0.199473
0.0741567
-0.0477878
-0.165984
-0.279739
-0.387937
-0.488932
-0.580451
-0.659563
-0.722757
-0.766254
-0.786659
-0.782014
-0.753133
-0.704673
-0.644923
-0.583352
-0.52659
-0.476
-0.427562
-0.373246
-0.303028
-0.207217
-0.0791039
0.0822386
0.269816
0.468933
0.661404
0.832548
0.975457
1.09134
1.18764
1.27558
1.36808
1.47806
1.61682
1.7922
2.00652
2.25506
2.52632
2.80568
3.0814
3.34819
3.60755
3.86622
4.13417
4.42301
4.74485
5.1114
5.53292
6.01696
6.5667
7.17966
7.84792
8.56099
9.31054
10.0932
10.9105
11.7673
12.6697
13.6232
14.6305
15.6903
16.7946
17.9265
19.0581
20.1488
21.1465
21.9906
22.6162
22.9607
22.9732
22.6264
2.61903
2.61506
2.5631
2.46916
2.34222
2.19174
2.02611
1.85205
1.67456
1.49708
1.32188
1.15028
0.982977
0.820181
0.661814
0.50761
0.357213
0.210263
0.0664695
-0.0743015
-0.21193
-0.345916
-0.475224
-0.598086
-0.711783
-0.812429
-0.894864
-0.952834
-0.979756
-0.97045
-0.924006
-0.847115
-0.755428
-0.668935
-0.601085
-0.554055
-0.519947
-0.484105
-0.428452
-0.334707
-0.188351
0.0159849
0.268529
0.541931
0.799276
1.01303
1.17309
1.28445
1.36146
1.42297
1.48929
1.58053
1.71497
1.90665
2.16126
2.47139
2.81466
3.16046
3.48609
3.78342
4.05697
4.31901
4.58543
4.87337
5.20012
5.58258
6.03643
6.57422
7.20213
7.91597
8.69959
9.53033
10.392
11.2802
12.2005
13.1642
14.1844
15.2736
16.4412
17.6921
19.0239
20.4225
21.8577
23.2789
24.6154
25.7824
26.6853
27.2251
27.3126
26.8927
3.1069
3.10193
3.02742
2.89611
2.72439
2.52739
2.31705
2.10189
1.8875
1.67727
1.47303
1.27557
1.08498
0.900935
0.722827
0.549909
0.381376
0.216434
0.0543634
-0.105401
-0.263175
-0.418878
-0.571834
-0.720477
-0.861942
-0.991548
-1.10223
-1.18414
-1.22504
-1.21239
-1.13875
-1.01089
-0.85849
-0.727713
-0.645642
-0.613544
-0.614862
-0.623521
-0.608757
-0.538002
-0.381143
-0.119757
0.237123
0.637955
0.999812
1.27072
1.44075
1.52692
1.55752
1.56333
1.57453
1.62065
1.73059
1.93036
2.23588
2.63987
3.09917
3.54415
3.93134
4.25271
4.5228
4.76532
5.00555
5.26768
5.57498
5.95079
6.41886
7.00152
7.71359
8.55157
9.48318
10.4549
11.4349
12.4206
13.4277
14.4794
15.5997
16.8107
18.1314
19.5772
21.1566
22.8655
24.6772
26.5304
28.3278
29.9542
31.2767
32.1402
32.3823
31.8807
3.69778
3.68883
3.57337
3.38118
3.14292
2.88227
2.61506
2.35079
2.09465
1.84902
1.61462
1.39116
1.17779
0.973369
0.776601
0.586137
0.40062
0.218727
0.0392014
-0.139098
-0.317123
-0.495511
-0.674366
-0.852907
-1.02888
-1.19761
-1.3507
-1.47421
-1.54713
-1.54185
-1.43124
-1.20971
-0.930106
-0.716051
-0.617934
-0.624612
-0.698891
-0.796335
-0.869343
-0.864935
-0.724107
-0.392678
0.142752
0.790416
1.33162
1.67398
1.82946
1.84971
1.78965
1.69629
1.60989
1.56927
1.61723
1.80218
2.1691
2.72907
3.40467
4.01142
4.47172
4.79619
5.0287
5.21535
5.39454
5.59737
5.85163
6.18656
6.63673
7.24289
8.04413
9.05274
10.2094
11.368
12.4702
13.5305
14.591
15.6962
16.8849
18.1902
19.6421
21.2702
23.1029
25.1609
27.4372
29.8628
32.2865
34.564
36.5294
37.9504
38.5231
37.9513
4.45583
4.42905
4.2298
3.93255
3.59356
3.24645
2.90862
2.5878
2.28648
2.00447
1.74034
1.4921
1.2576
1.03467
0.821199
0.615149
0.414563
0.217536
0.0222058
-0.17325
-0.370604
-0.571515
-0.777389
-0.989074
-1.20625
-1.42623
-1.64177
-1.83712
-1.98182
-2.02299
-1.88346
-1.49218
-0.907343
-0.537449
-0.439331
-0.538353
-0.7496
-1.00438
-1.24145
-1.38836
-1.34158
-0.959415
-0.113303
1.0961
1.9497
2.34626
2.41281
2.28803
2.06957
1.8191
1.57919
1.39021
1.3065
1.41183
1.82419
2.65164
3.80917
4.68941
5.20756
5.47191
5.60045
5.6759
5.74926
5.85278
6.01194
6.25617
6.62977
7.20312
8.07586
9.34048
10.9326
12.3618
13.5656
14.6398
15.6896
16.7924
18.0018
19.358
20.8987
22.6682
24.7246
27.1415
29.9815
33.1978
36.455
39.6229
42.5657
44.9814
46.3117
45.7917
5.52991
5.41752
5.02722
4.54385
4.05576
3.59714
3.17756
2.7966
2.45034
2.13403
1.84303
1.57313
1.32064
1.08225
0.855005
0.636204
0.423298
0.213824
0.00532475
-0.204729
-0.419013
-0.640414
-0.872077
-1.11736
-1.37959
-1.66125
-1.9619
-2.27296
-2.56559
-2.7643
-2.6982
-2.05335
-0.575083
0.0324786
0.0231085
-0.290518
-0.737646
-1.23793
-1.74343
-2.19069
-2.44202
-2.19425
-0.892541
1.91404
3.22582
3.49357
3.27153
2.86113
2.39547
1.92656
1.47504
1.05942
0.723459
0.579262
0.881451
2.09875
4.61279
5.88861
6.30862
6.34302
6.24846
6.13925
6.06037
6.02785
6.04954
6.1393
6.335
6.73202
7.54307
9.15644
11.89
13.6801
14.8471
15.7841
16.7114
17.735
18.907
20.2598
21.8256
23.6524
25.827
28.5124
31.9835
36.4733
40.7515
45.0053
49.3603
53.5748
56.764
56.9899
7.36313
6.80584
5.95843
5.16173
4.47536
3.89155
3.39085
2.9554
2.57111
2.22718
1.91536
1.62917
1.36343
1.11384
0.876738
0.648859
0.427189
0.208817
-0.00920151
-0.229993
-0.457038
-0.694394
-0.946999
-1.22109
-1.52478
-1.86876
-2.26685
-2.73514
-3.28439
-3.8867
-4.34611
-3.81444
1.01113
1.49091
0.923788
0.149686
-0.648982
-1.46379
-2.32905
-3.27492
-4.26089
-4.94651
-3.83857
4.88454
6.00539
5.3462
4.40154
3.51387
2.72616
2.00912
1.31935
0.614121
-0.135517
-0.895876
-1.37882
-0.321244
7.19949
8.32024
7.96501
7.39985
6.91762
6.55902
6.30483
6.12499
5.98929
5.87001
5.75051
5.66492
5.8551
7.35946
14.206
15.8958
16.4598
16.9424
17.5946
18.4639
19.5517
20.8548
22.3767
24.136
26.1936
28.7518
32.5185
40.0532
45.0829
50.2419
56.3568
63.6444
71.4831
76.2494
11.6646
8.61163
6.81636
5.62055
4.74707
4.06603
3.50994
3.04035
2.63355
2.27393
1.95061
1.65561
1.38281
1.12733
0.885069
0.652462
0.42623
0.20321
-0.0198178
-0.246327
-0.480281
-0.726471
-0.991024
-1.28223
-1.61197
-1.99833
-2.47072
-3.08072
-3.92672
-5.21478
-7.42109
-11.7587
8.8552
4.45672
2.12242
0.625184
-0.537136
-1.61704
-2.79859
-4.30139
-6.51216
-10.2814
-17.7504
18.8021
11.3479
7.60965
5.44923
4.02243
2.95487
2.05227
1.18576
0.232667
-0.979127
-2.77052
-5.85748
-12.0482
19.0019
12.8769
9.92335
8.33693
7.40848
6.82815
6.44198
6.15833
5.90515
5.60086
5.11699
4.20055
2.27458
-2.13042
23.9472
19.7322
18.1894
17.8558
18.1647
18.8776
19.8859
21.1345
22.5855
24.1896
25.839
27.2504
27.6273
47.2398
49.2273
54.1012
61.6636
72.9197
90.6253
121.632
806.748
762.785
716.359
667.61
616.702
563.816
509.145
452.887
395.241
336.405
276.574
215.937
154.68
92.9827
31.0233
3.84174
3.67712
3.46856
3.22476
2.95511
2.66865
2.37332
2.07549
1.77984
1.48935
1.20555
0.928755
0.658304
0.392855
0.130588
6.45918
6.17722
5.82001
5.40329
4.94385
4.45761
3.95831
3.45676
2.96067
2.47483
2.00149
1.54088
1.09162
0.651226
0.216437
9.16448
8.75261
8.23099
7.62456
6.9594
6.25965
5.54556
4.83256
4.13124
3.44777
2.78468
2.14161
1.51606
0.903981
0.300367
11.9997
11.4378
10.7268
9.90456
9.00954
8.07604
7.1317
6.19667
5.28391
4.4003
3.54782
2.72481
1.92699
1.14826
0.381412
15.0151
14.272
13.3338
12.2574
11.0982
9.90326
8.70857
7.5385
6.40743
5.32165
4.28144
3.28279
2.31879
1.38065
0.458426
18.2736
17.3012
16.0789
14.6929
13.2224
11.7303
10.2608
8.84137
7.48567
6.19743
4.97347
3.80608
2.6847
1.59709
0.530062
21.8574
20.5799
18.9876
17.2128
15.368
13.5344
11.763
10.0805
8.49646
7.00893
5.60892
4.28332
3.01681
1.79294
0.594784
25.8794
24.1729
22.0782
19.8024
17.5021
15.2761
13.176
11.2211
9.41071
7.73291
6.16995
4.70146
3.30624
1.96305
0.650911
30.5022
28.1538
25.3495
22.4162
19.5616
16.8915
14.4435
12.217
10.1923
8.34204
6.63648
5.04631
3.54362
2.10209
0.696714
35.9698
32.5908
28.75
24.9512
21.4369
18.2848
15.4893
13.0107
10.7993
8.8064
6.9876
5.30364
3.71981
2.20498
0.730558
42.6542
37.4892
32.1082
27.2014
22.9499
19.3214
16.2182
13.537
11.1878
9.09659
7.20383
5.46081
3.82697
2.26744
0.75109
51.0801
42.6029
34.9917
28.7955
23.8397
19.8325
16.5249
13.7312
11.318
9.1883
7.27028
5.50876
3.85979
2.28669
0.757449
61.5362
46.8502
36.4602
29.1491
23.7806
19.6439
16.3173
13.5449
11.1646
9.06829
7.18015
5.44414
3.81668
2.26208
0.749453
70.627
46.8011
34.8492
27.5598
22.4894
18.6451
15.5554
12.9663
10.7271
8.74005
6.93786
5.27093
3.70069
2.19545
0.727729
0.151915
0.455637
0.758992
1.06159
1.3628
1.66167
1.9568
2.24636
2.52827
2.80116
3.06697
3.33748
3.6503
4.10763
4.97098
0.159385
0.478001
0.796082
1.11303
1.42783
1.73877
2.0431
2.33636
2.61164
2.85834
3.06038
3.19235
3.20637
2.97264
1.99392
0.166958
0.500721
0.833939
1.16594
1.49549
1.82044
2.13702
2.43878
2.71477
2.94643
3.10236
3.12908
2.93435
2.35498
1.10647
0.174632
0.523807
0.872623
1.22051
1.56633
1.90789
2.24119
2.55904
2.84861
3.08705
3.23399
3.2195
2.92932
2.20198
0.888745
0.182364
0.547128
0.911927
1.2765
1.64009
2.00103
2.35602
2.69885
3.01785
3.29116
3.47768
3.50123
3.22784
2.45577
0.993395
0.190063
0.570408
0.951361
1.33315
1.71566
2.09826
2.47925
2.85513
3.21873
3.55546
3.83453
3.98896
3.87264
3.18885
1.4622
0.197604
0.59325
0.990193
1.38925
1.79115
2.19655
2.60598
3.01983
3.43814
3.85971
4.27791
4.66452
4.91146
4.64604
2.76274
0.204836
0.615173
1.02753
1.44333
1.86417
2.29201
2.72959
3.18134
3.65517
4.16616
4.74317
5.43689
6.30598
7.22665
6.59248
0.211598
0.635676
1.06245
1.49389
1.93229
2.38065
2.84332
3.32745
3.84628
4.42662
5.12729
6.08731
7.66451
10.8868
19.1379
0.21774
0.654287
1.0941
1.53955
1.99345
2.45931
2.94207
3.44938
3.99456
4.60339
5.33118
6.30898
7.88038
11.0545
19.2041
0.223135
0.670615
1.12179
1.57932
2.04625
2.52619
3.02371
3.54494
4.09853
4.6974
5.36132
6.11828
6.983
7.76682
6.81286
0.227682
0.684359
1.14503
1.61253
2.08996
2.58079
3.08881
3.61793
4.17096
4.74611
5.32671
5.85259
6.1416
5.68569
3.22123
0.23131
0.69531
1.1635
1.63879
2.12433
2.62338
3.1392
3.67423
4.22792
4.7909
5.32997
5.75123
5.81733
4.99922
2.39203
0.233974
0.703337
1.17699
1.65791
2.14925
2.65426
3.17616
3.71747
4.27832
4.85219
5.4149
5.89633
6.10699
5.55503
3.07447
0.235647
0.708367
1.1854
1.66976
2.16461
2.67335
3.19957
3.74704
4.31956
4.9211
5.55616
6.22927
6.9261
7.45002
6.3043
0.236323
0.71038
1.18871
1.67428
2.17029
2.68024
3.20815
3.75909
4.34053
4.9666
5.67088
6.54556
7.86511
10.5043
17.4943
0.236014
0.709409
1.18694
1.67151
2.16623
2.67458
3.20068
3.74987
4.33037
4.95763
5.66715
6.55274
7.8875
10.5368
17.514
0.234749
0.705543
1.18026
1.66166
2.15266
2.65655
3.17708
3.71882
4.28761
4.89138
5.541
6.24783
6.99679
7.56369
6.38201
0.232577
0.698932
1.16892
1.64508
2.13009
2.62689
3.13869
3.6689
4.22044
4.79317
5.37496
5.91351
6.23231
5.80465
3.2931
0.229564
0.689776
1.15327
1.62231
2.09929
2.58676
3.08745
3.60408
4.13845
4.68853
5.23882
5.73164
5.98603
5.49258
3.03374
0.22579
0.678324
1.13373
1.59399
2.06114
2.53738
3.02507
3.52683
4.04546
4.58364
5.14246
5.71518
6.25896
6.54524
5.28029
0.221349
0.664857
1.1108
1.56084
2.01664
2.47999
2.95286
3.43777
3.93877
4.46431
5.03634
5.71865
6.71056
8.67498
13.982
0.216338
0.649679
1.08501
1.52364
1.96685
2.41592
2.87221
3.33746
3.8149
4.31259
4.85354
5.50694
6.48664
8.48324
13.898
0.210859
0.6331
1.0569
1.48322
1.91295
2.3468
2.78526
3.22858
3.67688
4.13069
4.59253
5.06851
5.55638
5.91756
4.98655
0.205009
0.615424
1.027
1.44041
1.85615
2.27442
2.69488
3.11617
3.53491
3.9431
4.32159
4.6217
4.71393
4.2491
2.35418
0.19888
0.596926
0.9958
1.39593
1.79754
2.20047
2.60385
3.00547
3.40017
3.77604
4.10496
4.31913
4.25819
3.57363
1.67553
0.192545
0.577838
0.963702
1.3504
1.73798
2.12615
2.514
2.89951
3.27841
3.64151
3.96791
4.20749
4.23545
3.7408
2.00585
0.186065
0.558337
0.931001
1.30422
1.67797
2.052
2.42571
2.79806
3.16754
3.53237
3.89109
4.24267
4.57556
4.76919
3.91719
0.179482
0.538548
0.897894
1.25762
1.61772
1.97803
2.33831
2.69852
3.0598
3.42738
3.81915
4.29071
5.01227
6.5236
10.6773
0.172823
0.51855
0.864497
1.21075
1.55729
1.90404
2.25091
2.59818
2.94759
3.3055
3.69171
4.16503
4.9004
6.44286
10.6469
0.166103
0.498384
0.830867
1.16363
1.49669
1.82993
2.16318
2.49628
2.82941
3.16387
3.50368
3.85727
4.22792
4.51364
3.81883
0.159328
0.478063
0.797019
1.11629
1.43591
1.75576
2.0755
2.39431
2.71024
3.01844
3.30602
3.53756
3.61432
3.26522
1.81209
0.152494
0.457576
0.762926
1.06869
1.37494
1.68163
1.98842
2.29427
2.59638
2.88725
3.14717
3.32525
3.29636
2.78341
1.31297
0.145591
0.436889
0.728528
1.02072
1.31364
1.60739
1.90194
2.19678
2.49025
2.7775
3.04509
3.25655
3.3145
2.96646
1.61625
0.138604
0.415954
0.693728
0.972214
1.25172
1.53258
1.81521
2.10018
2.38837
2.68133
2.98193
3.29438
3.61449
3.84538
3.22665
0.131516
0.394714
0.658415
0.92298
1.18883
1.45649
1.72681
2.00128
2.2831
2.57979
2.91047
3.32678
3.97636
5.31423
8.88875
0.124309
0.373113
0.622484
0.872835
1.12464
1.37854
1.63548
1.89723
2.16745
2.45456
2.7795
3.1971
3.86015
5.2297
8.85674
0.116968
0.351107
0.585858
0.821655
1.05898
1.29843
1.54078
1.78726
2.03999
2.303
2.5841
2.89691
3.2532
3.57733
3.12264
0.109485
0.328667
0.548489
0.769392
0.991829
1.21627
1.44318
1.67291
1.90534
2.13881
2.36662
2.56646
2.66851
2.46572
1.4097
0.101851
0.305772
0.510356
0.716043
0.923258
1.13237
1.34359
1.55663
1.76993
1.97849
2.16851
2.30383
2.29545
1.94656
0.921284
0.0940604
0.28241
0.471444
0.661613
0.853344
1.04699
1.2427
1.44015
1.63775
1.83101
2.00833
2.14092
2.15881
1.89706
1.00041
0.0861088
0.258563
0.43173
0.606082
0.782079
0.960142
1.14059
1.3235
1.50854
1.69457
1.87918
2.05758
2.21634
2.28841
1.84631
0.0779898
0.234215
0.391182
0.549392
0.709361
0.871617
1.03672
1.20535
1.37859
1.55905
1.7543
1.98781
2.334
3.03676
4.94946
0.0696977
0.209346
0.349759
0.491467
0.635036
0.781094
0.930388
1.08395
1.24359
1.41322
1.6028
1.83975
2.20399
2.94478
4.91575
0.061228
0.183939
0.307426
0.432236
0.558968
0.688304
0.821064
0.958316
1.10161
1.2535
1.41837
1.60323
1.81242
1.99845
1.73882
0.0525789
0.157988
0.264165
0.371658
0.481077
0.593121
0.708602
0.828454
0.953642
1.08471
1.22002
1.34977
1.43688
1.36154
0.796558
0.0437532
0.1315
0.219981
0.30973
0.40135
0.495535
0.593086
0.694864
0.801562
0.912936
1.02548
1.1259
1.17411
1.06462
0.568262
0.034759
0.104497
0.174909
0.246495
0.319829
0.395597
0.474618
0.557836
0.646211
0.740328
0.839335
0.938236
1.02083
1.03632
0.78451
0.0256108
0.0770216
0.129016
0.182036
0.236608
0.293389
0.35322
0.417208
0.486848
0.564303
0.653245
0.761855
0.914141
1.1936
1.91546
0.01633
0.049138
0.0824058
0.116493
0.151846
0.189052
0.228923
0.272637
0.322035
0.380278
0.45348
0.555111
0.719105
1.0436
1.85548
0.0069454
0.0209325
0.0352225
0.0500653
0.0657904
0.0828588
0.101947
0.124105
0.15106
0.185845
0.233959
0.305038
0.412578
0.555117
0.583748
-0.00250674
-0.00748527
-0.0123478
-0.0169791
-0.0212024
-0.0247421
-0.0271645
-0.0277682
-0.0253664
-0.0178605
-0.00152383
0.0296273
0.0817235
0.145712
0.142639
-0.0119836
-0.0359849
-0.0600808
-0.0843095
-0.108673
-0.133122
-0.157542
-0.181733
-0.205345
-0.227708
-0.247303
-0.26034
-0.257401
-0.217136
-0.102501
-0.0214372
-0.0644196
-0.107722
-0.151548
-0.196085
-0.241522
-0.288081
-0.3361
-0.386193
-0.439481
-0.497636
-0.56141
-0.622445
-0.631635
-0.410399
-0.0308157
-0.0926319
-0.155002
-0.218291
-0.282871
-0.349143
-0.417606
-0.489026
-0.564821
-0.647871
-0.744059
-0.864382
-1.02349
-1.20615
-1.13465
-0.0400656
-0.120459
-0.201641
-0.284136
-0.368481
-0.455239
-0.545073
-0.638911
-0.738408
-0.847131
-0.97371
-1.14042
-1.40816
-1.95714
-3.38515
-0.0491327
-0.147738
-0.247365
-0.348695
-0.452409
-0.559195
-0.669753
-0.78486
-0.90558
-1.03398
-1.17548
-1.34627
-1.59752
-2.09765
-3.43902
-0.057963
-0.174307
-0.291904
-0.411592
-0.5342
-0.660523
-0.791265
-0.926901
-1.0674
-1.21173
-1.35689
-1.49624
-1.61401
-1.65395
-1.3109
-0.0665023
-0.200002
-0.334988
-0.472457
-0.613402
-0.758773
-0.909366
-1.06555
-1.22656
-1.38888
-1.54232
-1.66118
-1.68451
-1.4762
-0.765243
-0.0746971
-0.224661
-0.376342
-0.530902
-0.689523
-0.853385
-1.02357
-1.20082
-1.38479
-1.57216
-1.75175
-1.89242
-1.91584
-1.64747
-0.788687
-0.0824948
-0.248125
-0.41569
-0.586518
-0.761995
-0.94359
-1.13286
-1.33141
-1.54063
-1.76082
-1.98817
-2.20506
-2.34978
-2.22874
-1.31114
-0.0898461
-0.270242
-0.452766
-0.638895
-0.830207
-1.02845
-1.23569
-1.45456
-1.68882
-1.94448
-2.23184
-2.56776
-2.96824
-3.36312
-3.01737
-0.096707
-0.290876
-0.487331
-0.687664
-0.89359
-1.10705
-1.33042
-1.567
-1.82212
-2.10608
-2.44173
-2.8856
-3.59053
-5.01178
-8.67421
-0.103042
-0.309918
-0.519195
-0.732538
-0.951727
-1.17875
-1.41597
-1.66653
-1.93536
-2.23174
-2.57644
-3.02208
-3.71532
-5.10394
-8.70944
-0.108823
-0.327288
-0.548226
-0.773338
-1.00441
-1.24335
-1.49222
-1.75335
-2.02943
-2.3238
-2.641
-2.98657
-3.35713
-3.65652
-3.13246
-0.114034
-0.342935
-0.574348
-0.809987
-1.05161
-1.30102
-1.55994
-1.82976
-2.11075
-2.39997
-2.68582
-2.93365
-3.04829
-2.78087
-1.54211
-0.118665
-0.356832
-0.597525
-0.842463
-1.0934
-1.35207
-1.62007
-1.89839
-2.18632
-2.47843
-2.75699
-2.97318
-3.00471
-2.57971
-1.23331
-0.122711
-0.368968
-0.617744
-0.870761
-1.12979
-1.39662
-1.67299
-1.96031
-2.25894
-2.56626
-2.87143
-3.14086
-3.27812
-3.01836
-1.70243
-0.126174
-0.379347
-0.635007
-0.894872
-1.16074
-1.43452
-1.71828
-2.01434
-2.32548
-2.65553
-3.01064
-3.40026
-3.8272
-4.1904
-3.62215
-0.129063
-0.38799
-0.649339
-0.914798
-1.18617
-1.46546
-1.75501
-2.05786
-2.37883
-2.72736
-3.12585
-3.63367
-4.42048
-6.0092
-10.1779
-0.131394
-0.394944
-0.660804
-0.930599
-1.20609
-1.48926
-1.78246
-2.08877
-2.41298
-2.76444
-3.16508
-3.67326
-4.4568
-6.03621
-10.1883
-0.133194
-0.400287
-0.669523
-0.942426
-1.22066
-1.50608
-1.80078
-2.1072
-2.42817
-2.7673
-3.12959
-3.52156
-3.94034
-4.2765
-3.65621
-0.134501
-0.404132
-0.675683
-0.950534
-1.23021
-1.51641
-1.81095
-2.11549
-2.43071
-2.75402
-3.07341
-3.35119
-3.48118
-3.1809
-1.77135
-0.135368
-0.406637
-0.679538
-0.955273
-1.23521
-1.52093
-1.81413
-2.11631
-2.42758
-2.74342
-3.04608
-3.28337
-3.32076
-2.85557
-1.36779
-0.135863
-0.408
-0.68141
-0.957074
-1.23618
-1.52022
-1.81105
-2.11078
-2.42124
-2.74191
-3.06409
-3.35429
-3.50931
-3.24031
-1.83074
-0.136069
-0.408471
-0.681704
-0.956465
-1.2337
-1.51477
-1.80174
-2.09777
-2.40775
-2.73931
-3.10425
-3.51903
-3.99225
-4.41706
-3.8575
-0.136089
-0.408356
-0.680923
-0.95412
-1.22852
-1.5052
-1.78611
-2.07503
-2.37922
-2.71347
-3.10974
-3.64311
-4.50875
-6.27732
-10.8532
-0.136044
-0.408022
-0.67969
-0.950918
-1.22175
-1.49264
-1.7649
-2.04163
-2.32976
-2.64451
-3.01997
-3.53636
-4.39812
-6.18791
-10.8172
-0.136072
-0.407895
-0.678747
-0.947967
-1.21492
-1.47912
-1.74054
-2.00027
-2.26176
-2.53333
-2.83227
-3.18973
-3.64295
-4.12654
-3.73634
-0.136319
-0.408432
-0.678922
-0.946571
-1.20997
-1.46749
-1.71733
-1.95763
-2.18672
-2.40309
-2.60387
-2.77653
-2.86661
-2.67188
-1.57384
-0.136929
-0.410085
-0.681054
-0.948103
-1.20907
-1.46117
-1.70071
-1.92275
-2.12046
-2.28362
-2.39495
-2.42062
-2.288
-1.84446
-0.834653
-0.138022
-0.413246
-0.68589
-0.953835
-1.21431
-1.46353
-1.69619
-1.90472
-2.07815
-2.2001
-2.24546
-2.17458
-1.92526
-1.41024
-0.553444
-0.139682
-0.418187
-0.693972
-0.964729
-1.22733
-1.47736
-1.70839
-1.91104
-2.07153
-2.16972
-2.17667
-2.0524
-1.74702
-1.21332
-0.445899
-0.141935
-0.425006
-0.705528
-0.98126
-1.24906
-1.50434
-1.74026
-1.94658
-2.10811
-2.20267
-2.19896
-2.05593
-1.7273
-1.17867
-0.424718
-0.144738
-0.433583
-0.720389
-1.00327
-1.27946
-1.54475
-1.79264
-2.01317
-2.19116
-2.3038
-2.31795
-2.1883
-1.8603
-1.28659
-0.469831
-0.147973
-0.443563
-0.737955
-1.0299
-1.3174
-1.59719
-1.86398
-2.10928
-2.31954
-2.47327
-2.53675
-2.45835
-2.16386
-1.56327
-0.600279
-0.151453
-0.454362
-0.757196
-1.0596
-1.36067
-1.65863
-1.95021
-2.22967
-2.48711
-2.70534
-2.854
-2.87838
-2.67994
-2.09157
-0.895694
-0.154925
-0.4652
-0.776718
-1.09018
-1.40606
-1.72447
-2.04481
-2.3653
-2.68186
-2.98567
-3.25745
-3.45307
-3.46672
-3.04171
-1.60466
-0.158096
-0.475162
-0.794867
-1.11905
-1.44967
-1.78892
-2.13926
-2.50362
-2.8854
-3.28815
-3.7137
-4.15401
-4.55805
-4.69452
-3.54442
-0.160657
-0.483275
-0.809883
-1.14341
-1.48726
-1.84562
-2.22395
-2.62981
-3.0743
-3.57467
-4.15956
-4.88001
-5.83519
-7.24052
-9.60818
49.8515
37.1608
29.4966
24.2324
20.2667
17.089
14.4318
12.1392
10.1121
8.28256
6.6012
5.03027
3.53931
2.10262
0.697431
18.2142
23.7335
22.6016
20.1566
17.6216
15.266
13.126
11.1811
9.40004
7.75203
6.20986
4.74975
3.35073
1.99393
0.66192
8.04172
14.9248
16.6182
16.1432
14.8519
13.2932
11.6845
10.1093
8.59549
7.14795
5.76149
4.42677
3.1328
1.86801
0.620729
4.25828
9.71982
12.1406
12.6966
12.2677
11.355
10.2198
8.99466
7.74488
6.50141
5.27715
4.07547
2.89458
1.72993
0.575486
2.59633
6.62645
8.95803
9.93374
10.0196
9.57107
8.81759
7.89709
6.88984
5.84148
4.77711
3.70971
2.64507
1.58474
0.527826
1.74168
4.71258
6.71694
7.78882
8.14234
7.99891
7.53128
6.85969
6.06331
5.19263
4.27914
3.34201
2.39256
1.43717
0.479282
1.2429
3.46989
5.12337
6.14268
6.61017
6.65184
6.38655
5.90892
5.28835
4.57349
3.79756
2.98283
2.14414
1.29134
0.431202
0.923827
2.62545
3.97014
4.87973
5.37365
5.5179
5.38924
5.05737
4.57882
3.99673
3.34288
2.64029
1.9055
1.15059
0.384691
0.706166
2.02884
3.11904
3.90539
4.37992
4.57343
4.53301
4.30766
3.94118
3.46977
2.92204
2.32008
1.68082
1.01746
0.340598
0.550759
1.59367
2.47893
3.14755
3.58131
3.79139
3.80519
3.65592
3.37637
2.99579
2.53884
2.02574
1.47288
0.893685
0.299514
0.436046
1.26797
1.98924
2.55281
2.938
3.14564
3.19057
3.09462
2.8817
2.57482
2.19463
1.759
1.2832
0.780309
0.261802
0.34922
1.01911
1.60904
2.08192
2.41796
2.61288
2.67376
2.61453
2.45227
2.20474
1.88888
1.52015
1.11234
0.677769
0.227627
0.28222
0.825768
1.31012
1.70605
1.99589
2.17318
2.24036
2.20597
2.08204
1.8821
1.61985
1.30842
0.960039
0.586042
0.197
0.229725
0.673527
1.07261
1.40383
1.65199
1.80993
1.87747
1.85956
1.76457
1.60271
1.38496
1.12233
0.825525
0.504758
0.169816
0.188095
0.552337
0.882212
1.1593
1.37071
1.50946
1.5739
1.56668
1.49354
1.36213
1.18122
0.959978
0.707644
0.433313
0.145887
0.154759
0.455011
0.728465
0.960367
1.13989
1.26057
1.32007
1.31958
1.26294
1.15593
1.00548
0.819207
0.605033
0.37096
0.124975
0.127859
0.376291
0.603571
0.797799
0.949928
1.05416
1.10791
1.11144
1.06733
0.979874
0.854602
0.697807
0.516236
0.316875
0.106815
0.106017
0.312258
0.501625
0.664463
0.793219
0.8828
0.930617
0.93639
0.901798
0.830076
0.725613
0.593608
0.43979