/*--------------------------------*- C++ -*----------------------------------*\
| =========                 |                                                 |
| \\      /  F ield         | OpenFOAM: The Open Source CFD Toolbox           |
|  \\    /   O peration     | Version:  5.x                                   |
|   \\  /    A nd           | Web:      www.OpenFOAM.org                      |
|    \\/     M anipulation  |                                                 |
\*---------------------------------------------------------------------------*/
FoamFile
{
    version     2.0;
    format      ascii;
    class       volScalarField;
    location    "17.5";
    object      gradTx;
}
// * * * * * * * * * * * * * * * * * * * * * * * * * * * * * * * * * * * * * //

dimensions      [0 -1 0 1 0 0 0];

internalField   nonuniform List<scalar> 
6300
(
6.96287
6.94175
6.89953
6.83625
6.75197
6.64684
6.52109
6.37511
6.2095
6.02513
5.82325
5.60551
5.37405
5.1315
4.88097
6.98371
6.96258
6.92033
6.85697
6.77256
6.6672
6.54106
6.39449
6.228
6.04241
5.83888
5.619
5.38492
5.13928
4.88528
7.02541
7.00426
6.96196
6.89848
6.81384
6.70805
6.58121
6.43352
6.26537
6.07739
5.8706
5.64649
5.40712
5.1552
4.89411
7.08798
7.06682
7.02448
6.96089
6.87599
6.7697
6.64195
6.49277
6.32231
6.13094
5.91942
5.68901
5.44165
5.18011
4.90802
7.17142
7.15029
7.10797
7.04435
6.95927
6.85252
6.72386
6.57305
6.3999
6.2044
5.98689
5.74824
5.49014
5.21536
4.92788
7.27572
7.25466
7.21247
7.14898
7.06394
6.95699
6.82766
6.6754
6.49958
6.29965
6.07528
5.8267
5.5551
5.26311
4.95512
7.40079
7.37989
7.33799
7.27489
7.19024
7.08356
6.95413
6.80104
6.62313
6.41909
6.18764
5.92795
5.64024
5.32665
4.99196
7.54647
7.52583
7.48443
7.42205
7.33831
7.23259
7.104
6.95124
6.77256
6.56568
6.32801
6.05699
5.75107
5.41108
5.04193
7.7125
7.69222
7.65155
7.59029
7.50806
7.40422
7.27776
7.12711
6.94991
6.74284
6.50148
6.22071
5.89574
5.52445
5.11083
7.89852
7.87869
7.83896
7.7792
7.69912
7.59818
7.47544
7.32925
7.15689
6.95401
6.71412
6.42839
6.08649
5.67991
5.20866
8.10406
8.08474
8.04611
7.98814
7.91075
7.81366
7.69628
7.5573
7.39412
7.20193
6.97235
6.69196
6.34166
5.89982
5.3539
8.32859
8.30979
8.27228
8.2162
8.14175
8.04915
7.93845
7.80926
7.66007
7.48694
7.2811
7.02515
6.68811
6.22354
5.5838
8.57159
8.55324
8.5167
8.46231
8.39061
8.30243
8.1988
8.08092
7.94967
7.80434
7.63966
7.43912
7.1618
6.72216
5.98232
8.83261
8.81455
8.77864
8.72539
8.65566
8.57084
8.4731
8.36566
8.25302
8.14075
8.03375
7.92956
7.79755
7.52075
6.76721
9.11134
9.09335
9.0576
9.00464
8.93547
8.85185
8.75677
8.65526
8.55564
8.47154
8.42468
8.44754
8.57786
8.79584
8.60554
4.64739
4.4341
4.22225
4.014
3.8114
3.61634
3.43049
3.25526
3.09183
2.9411
2.80377
2.68028
2.57092
2.47581
2.39493
2.32812
2.27517
2.23572
2.20935
2.19555
2.1937
2.20309
2.22286
2.25205
2.28957
2.3342
2.38458
2.43928
2.49681
2.55566
2.61433
2.67141
2.72557
2.77558
2.82028
2.85856
2.88933
2.91144
2.92372
2.92499
2.91406
2.88984
2.85139
2.79796
2.72905
2.64436
2.54373
2.42706
2.29417
2.14471
1.97811
1.79347
1.58964
1.36522
1.11863
0.848207
0.55227
0.229142
-0.122842
-0.505379
-0.920282
-1.36957
-1.85558
-2.381
-2.949
-3.56314
-4.22741
-4.94614
-5.72388
-6.56534
-7.47523
-8.45819
-9.5187
-10.661
-11.8891
-13.2064
-14.6161
-16.1204
-17.7208
-19.4174
-21.209
-23.0923
-25.0617
-27.1092
-29.2242
-31.393
-33.5997
-35.826
-38.0519
-40.2566
4.64831
4.43186
4.2169
4.0057
3.80039
3.60294
3.41504
3.23814
3.0734
2.9217
2.7837
2.65982
2.55031
2.45523
2.37455
2.3081
2.25562
2.21679
2.19117
2.17825
2.17744
2.18803
2.2092
2.23997
2.27925
2.32581
2.37825
2.43511
2.49481
2.55579
2.61651
2.6755
2.73144
2.78311
2.8294
2.86927
2.90166
2.92545
2.93946
2.94242
2.93307
2.91021
2.87281
2.82011
2.75164
2.66717
2.5667
2.45028
2.31789
2.16928
2.00394
1.82098
1.61917
1.39701
1.15282
0.884839
0.591317
0.270589
-0.0789437
-0.458867
-0.870854
-1.31679
-1.79888
-2.31978
-2.88261
-3.491
-4.14905
-4.86119
-5.63217
-6.46682
-7.37001
-8.34651
-9.40089
-10.5375
-11.7604
-13.0734
-14.4797
-15.982
-17.5821
-19.2806
-21.0769
-22.968
-24.9489
-27.0119
-29.1463
-31.3383
-33.5713
-35.8262
-38.0821
-40.3168
4.65019
4.42727
4.20596
3.98873
3.77792
3.57561
3.38361
3.20338
3.03604
2.88245
2.74318
2.61857
2.50878
2.41382
2.33357
2.26784
2.21634
2.17873
2.15459
2.14343
2.14468
2.15767
2.1816
2.21553
2.25837
2.30883
2.36548
2.42672
2.49087
2.5562
2.62105
2.68388
2.74333
2.79824
2.84764
2.89061
2.92622
2.95342
2.97096
2.97745
2.97139
2.95135
2.91613
2.86485
2.7971
2.71288
2.6125
2.49637
2.3648
2.21782
2.05502
1.87549
1.67787
1.46041
1.22116
0.958123
0.669426
0.353407
0.00861207
-0.366284
-0.772639
-1.21202
-1.68639
-2.19824
-2.75068
-3.34744
-3.99281
-4.69158
-5.44878
-6.26962
-7.15925
-8.12267
-9.16465
-10.2897
-11.5021
-12.806
-14.205
-15.7026
-17.3014
-19.0031
-20.8079
-22.7142
-24.7179
-26.8117
-28.9852
-31.2241
-33.511
-35.8247
-38.1422
-40.4388
4.65324
4.42021
4.18895
3.96234
3.74303
3.53331
3.3351
3.14989
2.97877
2.82247
2.68143
2.55587
2.4458
2.35112
2.27161
2.207
2.15698
2.12119
2.09923
2.09064
2.09492
2.11145
2.1395
2.17819
2.22641
2.28285
2.34598
2.41404
2.48511
2.5572
2.6284
2.69701
2.76162
2.82121
2.87501
2.92243
2.96279
2.99515
3.01824
3.03039
3.02969
3.01424
2.98241
2.93316
2.86614
2.78174
2.68084
2.56454
2.43376
2.289
2.13004
1.95594
1.76502
1.55507
1.32363
1.06824
0.78677
0.477554
0.139413
-0.228499
-0.626954
-1.05695
-1.52
-2.01833
-2.555
-3.13391
-3.75976
-4.43784
-5.17379
-5.97339
-6.84225
-7.78571
-8.80875
-9.91604
-11.1121
-12.4014
-13.7884
-15.2774
-16.8724
-18.5768
-20.3926
-22.3201
-24.3567
-26.4965
-28.7295
-31.0409
-33.4115
-35.8176
-38.2323
-40.6263
4.65778
4.4104
4.16509
3.9253
3.69417
3.47429
3.26774
3.07598
2.90001
2.74037
2.59729
2.47075
2.36057
2.26646
2.18808
2.12507
2.07705
2.04365
2.02451
2.01925
2.02743
2.04856
2.08202
2.12701
2.1825
2.24715
2.3193
2.39693
2.47776
2.55937
2.63938
2.71576
2.78704
2.85237
2.91146
2.96429
3.01072
3.05012
3.08115
3.1017
3.10911
3.10057
3.07366
3.0269
2.96008
2.87421
2.77123
2.65341
2.52275
2.38048
2.22675
2.06047
1.87943
1.68057
1.46046
1.2158
0.943953
0.643246
0.312983
-0.0468267
-0.435936
-0.854376
-1.3029
-1.78329
-2.29854
-2.85287
-3.45156
-4.1008
-4.80719
-5.57743
-6.41785
-7.33417
-8.3315
-9.41452
-10.5878
-11.8562
-13.2248
-14.6994
-16.2859
-17.9899
-19.8165
-21.7687
-23.8468
-26.047
-28.3605
-30.7722
-33.2606
-35.798
-38.3516
-40.8853
4.66431
4.39745
4.13311
3.87567
3.62894
3.39597
3.17893
2.97923
2.79762
2.63433
2.48923
2.36197
2.25209
2.15905
2.08234
2.02145
1.97596
1.9455
1.92974
1.9284
1.9412
1.96782
2.00784
2.06063
2.12531
2.20057
2.28461
2.37511
2.46921
2.56372
2.65546
2.74177
2.82091
2.89239
2.95679
3.01524
3.06864
3.11701
3.15901
3.1918
3.21136
3.21319
3.19334
3.14941
3.0813
2.99119
2.88286
2.76063
2.6283
2.48835
2.3414
2.18613
2.01936
1.83655
1.63251
1.40239
1.14259
0.851392
0.528997
0.176942
-0.202771
-0.608563
-1.03998
-1.49813
-1.9859
-2.50797
-3.07065
-3.68148
-4.34869
-5.08045
-5.88416
-6.76597
-7.73085
-8.78298
-9.92657
-11.1664
-12.5086
-13.9603
-15.5299
-17.2266
-19.0593
-21.0358
-23.1608
-25.4343
-27.8499
-30.3927
-33.0387
-35.7548
-38.4993
-41.2254
4.67363
4.3807
4.09104
3.81046
3.5438
3.29457
3.06504
2.85633
2.66874
2.50197
2.35536
2.22808
2.11926
2.02806
1.95371
1.89558
1.85316
1.82609
1.81412
1.81711
1.835
1.86772
1.91517
1.97706
2.05279
2.14123
2.24055
2.34801
2.45996
2.57194
2.67928
2.77797
2.86569
2.94249
3.01059
3.07332
3.13367
3.19296
3.25
3.30081
3.339
3.35692
3.34754
3.30659
3.23406
3.13427
3.01437
2.88226
2.74472
2.60615
2.46792
2.32823
2.18228
2.02296
1.84199
1.63159
1.38631
1.10436
0.787619
0.440438
0.0678571
-0.325934
-0.738633
-1.17037
-1.62392
-2.10467
-2.62045
-3.18104
-3.79729
-4.4799
-5.23801
-6.07818
-7.00453
-8.01975
-9.12664
-10.3294
-11.6346
-13.0512
-14.5908
-16.2671
-18.095
-20.0889
-22.2606
-24.6169
-27.1557
-29.8642
-32.7159
-35.6702
-38.673
-41.6608
4.687
4.35908
4.03573
3.72508
3.43338
3.1647
2.92105
2.70294
2.5098
2.34049
2.19356
2.06753
1.96099
1.8727
1.80164
1.74699
1.70818
1.68486
1.67689
1.68431
1.70734
1.74633
1.80162
1.87349
1.96188
2.06614
2.18465
2.31437
2.45055
2.58673
2.71544
2.82985
2.92607
3.00498
3.07199
3.13471
3.2001
3.27201
3.34984
3.42787
3.49568
3.5398
3.54706
3.50909
3.42594
3.30617
3.16332
3.01157
2.86248
2.72332
2.59643
2.47921
2.36433
2.24043
2.09374
1.9109
1.68272
1.4073
1.08997
0.740407
0.368929
-0.0161662
-0.409949
-0.811279
-1.22282
-1.65099
-2.1058
-2.60048
-3.15036
-3.77069
-4.4737
-5.26633
-6.15025
-7.12449
-8.18861
-9.34497
-10.6
-11.9648
-13.4547
-15.0894
-16.8915
-18.8856
-21.0947
-23.5362
-26.2172
-29.1293
-32.2451
-35.5155
-38.8682
-42.2131
4.70649
4.3307
3.96196
3.61222
3.28968
2.99861
2.74017
2.51347
2.31647
2.14669
2.0016
1.87883
1.77635
1.69247
1.62585
1.57552
1.54084
1.52147
1.51741
1.52894
1.55665
1.60137
1.66414
1.74604
1.84803
1.97046
2.11252
2.27133
2.44104
2.61217
2.77209
2.90782
3.01127
3.08449
3.13941
3.19216
3.25697
3.3424
3.44924
3.56952
3.68634
3.77562
3.81157
3.77649
3.6704
3.51114
3.32493
3.13688
2.9658
2.82267
2.7109
2.62672
2.55924
2.4906
2.39743
2.25534
2.04705
1.77046
1.43862
1.07182
0.689499
0.306008
-0.0704875
-0.437552
-0.797856
-1.15899
-1.53378
-1.9405
-2.40205
-2.94244
-3.58041
-4.32304
-5.16591
-6.09985
-7.11774
-8.21834
-9.4075
-10.6982
-12.1102
-13.6703
-15.4116
-17.3727
-19.5938
-22.1107
-24.9456
-28.1006
-31.5517
-35.2418
-39.0743
-42.9158
4.73557
4.29196
3.86064
3.46003
3.10048
2.78536
2.51343
2.28108
2.08384
1.91727
1.7774
1.66085
1.56487
1.48731
1.42655
1.38147
1.35137
1.33597
1.33541
1.35023
1.38141
1.43037
1.49902
1.58962
1.70467
1.84645
2.01616
2.2125
2.42941
2.65363
2.86345
3.03215
3.13989
3.19019
3.20984
3.23208
3.28404
3.38181
3.52912
3.716
3.91652
4.08806
4.1782
4.14599
3.99126
3.75475
3.48902
3.23761
3.0287
2.87671
2.7855
2.75003
2.75568
2.77597
2.77143
2.69498
2.50961
2.21302
1.83751
1.42547
1.01164
0.617989
0.255287
-0.0736517
-0.371768
-0.647415
-0.915829
-1.20165
-1.54026
-1.97372
-2.53647
-3.23547
-4.05046
-4.95432
-5.92778
-6.96419
-8.06877
-9.25675
-10.5525
-11.9901
-13.615
-15.485
-17.6671
-20.2271
-23.213
-26.6454
-30.514
-34.7626
-39.267
-43.8224
4.78054
4.23532
3.71497
3.24859
2.84721
2.50981
2.22958
1.99801
1.80692
1.64933
1.51956
1.41318
1.3268
1.25788
1.20462
1.16578
1.14067
1.12905
1.13121
1.1479
1.18048
1.23098
1.30222
1.39792
1.52275
1.68212
1.8814
2.12395
2.40715
2.71572
3.01389
3.24413
3.35109
3.3399
3.27641
3.22909
3.245
3.34973
3.55186
3.84266
4.18824
4.51754
4.72083
4.69172
4.42972
4.04026
3.63236
3.27701
3.00949
2.84308
2.77969
2.81398
2.93089
3.09696
3.24885
3.29129
3.13219
2.76906
2.28889
1.78158
1.30464
0.885304
0.532337
0.245769
0.0218765
-0.146333
-0.272898
-0.386836
-0.541988
-0.818917
-1.29639
-1.98093
-2.80711
-3.70857
-4.64716
-5.61187
-6.60994
-7.66012
-8.79044
-10.0401
-11.4656
-13.1479
-15.1959
-17.73
-20.8371
-24.5619
-28.9286
-33.9151
-39.3857
-45.0216
4.85349
4.14268
3.49147
2.94348
2.50179
2.15193
1.87565
1.65659
1.48172
1.34125
1.22797
1.13665
1.06352
1.00588
0.961873
0.930293
0.910476
0.902268
0.906019
0.922638
0.95371
1.00168
1.07014
1.16421
1.29102
1.46026
1.68425
1.97678
2.34824
2.79269
3.26201
3.63351
3.73228
3.5648
3.31957
3.13493
3.07797
3.17726
3.4468
3.89028
4.48322
5.12829
5.59791
5.57263
5.05154
4.35216
3.6999
3.18984
2.8446
2.661
2.63308
2.75884
3.03517
3.43821
3.88371
4.17766
4.04842
3.49348
2.77924
2.09385
1.51463
1.05699
0.713707
0.474866
0.335262
0.2947
0.351765
0.487235
0.631554
0.624581
0.24179
-0.522499
-1.45541
-2.40936
-3.32893
-4.21151
-5.07603
-5.94809
-6.85643
-7.8371
-8.94622
-10.284
-12.0247
-14.4079
-17.5715
-21.5538
-26.4503
-32.3702
-39.2659
-46.6702
4.97971
3.96408
3.11917
2.48509
2.0239
1.68789
1.4392
1.25143
1.10692
0.993957
0.904714
0.833894
0.77788
0.734199
0.701195
0.677822
0.663531
0.658225
0.662263
0.676527
0.702565
0.742841
0.801147
0.883286
0.99816
1.1595
1.38833
1.71588
2.18411
2.83375
3.65086
4.41547
4.49676
3.90152
3.27533
2.85677
2.68577
2.7595
3.09109
3.72251
4.70297
5.99147
7.18744
7.16733
5.92991
4.59599
3.56249
2.86513
2.44677
2.25462
2.26502
2.48676
2.95684
3.71819
4.73661
5.67326
5.57751
4.44712
3.2279
2.25306
1.54942
1.06388
0.744588
0.56098
0.505951
0.595071
0.863438
1.34846
2.02285
2.60915
2.32923
1.17867
-0.0735112
-1.15976
-2.06402
-2.8372
-3.53126
-4.18382
-4.81824
-5.44905
-6.0976
-6.83966
-7.9284
-9.96188
-13.127
-17.229
-22.4983
-29.4199
-38.4133
-49.0682
5.2166
3.53945
2.44306
1.77773
1.36574
1.09809
0.914994
0.783927
0.686642
0.612469
0.554893
0.509784
0.474451
0.447118
0.426621
0.412244
0.403621
0.400701
0.403754
0.413433
0.430889
0.458005
0.497803
0.555189
0.638353
0.761486
0.950199
1.25236
1.75863
2.63356
4.11514
6.18125
6.23528
4.28263
2.93197
2.22203
1.94107
1.97032
2.30349
3.05198
4.47895
6.98766
10.5279
10.5147
6.94699
4.40701
2.94097
2.13856
1.72311
1.55648
1.59251
1.85695
2.45898
3.62781
5.70709
8.65526
8.59626
5.52848
3.32452
2.02165
1.27011
0.831281
0.580026
0.461873
0.468999
0.637253
1.06304
1.93692
3.54085
5.8409
5.67023
3.02605
1.06935
-0.172225
-0.987884
-1.57685
-2.04626
-2.44569
-2.78524
-3.03548
-3.1143
-2.89614
-2.47167
-3.88633
-7.33306
-11.2232
-16.1669
-23.4858
-35.1678
-52.8461
5.69939
2.27844
1.14624
0.705418
0.499673
0.386467
0.315829
0.267743
0.233055
0.207057
0.187097
0.171577
0.159486
0.150173
0.143218
0.138363
0.135482
0.134557
0.13569
0.139123
0.145284
0.154888
0.169112
0.18995
0.220963
0.269007
0.348666
0.494844
0.802242
1.55968
3.73756
10.8442
10.8632
3.7967
1.66587
0.969444
0.749596
0.743418
0.917729
1.40431
2.69706
6.49824
18.9847
18.9801
6.4839
2.67137
1.36369
0.854672
0.641081
0.566449
0.591011
0.740921
1.14485
2.22622
5.42617
15.9672
15.9473
5.36574
2.12343
0.9962
0.540432
0.328525
0.223752
0.182323
0.199975
0.308536
0.61733
1.47398
4.0563
12.6302
12.5729
3.88328
1.18233
0.201924
-0.238223
-0.488649
-0.662069
-0.793787
-0.880836
-0.868768
-0.558663
0.75025
5.63334
5.11532
-0.900584
-3.70035
-6.41527
-11.2683
-23.2873
-59.3994
-42.6298
-45.1331
-47.5131
-49.7439
-51.805
-53.6822
-55.3665
-56.8538
-58.1435
-59.2379
-60.1405
-60.8556
-61.3876
-61.74
-61.9155
-42.7215
-45.2558
-47.662
-49.9131
-51.9886
-53.8746
-55.563
-57.0507
-58.3384
-59.4291
-60.3274
-61.0383
-61.5666
-61.9163
-62.0905
-42.9083
-45.5062
-47.9655
-50.2573
-52.3612
-54.264
-55.9596
-57.4472
-58.7297
-59.8122
-60.7011
-61.4029
-61.9235
-62.2677
-62.439
-43.1976
-45.895
-48.4359
-50.7892
-52.9343
-54.8601
-56.5638
-58.0484
-59.3203
-60.3883
-61.2613
-61.9481
-62.4562
-62.7915
-62.9581
-43.6021
-46.4397
-49.0935
-51.5289
-53.7261
-55.6778
-57.3867
-58.8616
-60.1145
-61.1587
-62.0072
-62.6715
-63.1611
-63.4834
-63.6433
-44.1413
-47.1679
-49.9691
-52.5065
-54.7628
-56.7379
-58.4432
-59.8962
-61.1167
-62.1244
-62.9368
-63.569
-64.0328
-64.3371
-64.4878
-44.8452
-48.1211
-51.1081
-53.7646
-56.0802
-58.0674
-59.7515
-61.1627
-62.3313
-63.2847
-64.0461
-64.6342
-65.0633
-65.3438
-65.4824
-45.7605
-49.3626
-52.5774
-55.363
-57.7255
-59.6995
-61.3321
-62.6713
-63.7606
-64.6366
-65.3282
-65.8577
-66.2418
-66.4917
-66.615
-46.9616
-50.9909
-54.4752
-57.3841
-59.7586
-61.6724
-63.2054
-64.4292
-65.4029
-66.1723
-66.7717
-67.2263
-67.5537
-67.7658
-67.8701
-48.5725
-53.1639
-56.9479
-59.9391
-62.2517
-64.0256
-65.3871
-66.4366
-67.2488
-67.8773
-68.3596
-68.7215
-68.9802
-69.1471
-69.2289
-50.8138
-56.1436
-60.2129
-63.172
-65.2832
-66.7905
-67.88
-68.6805
-69.2778
-69.7281
-70.0674
-70.3191
-70.4979
-70.6127
-70.6689
-54.1131
-60.3836
-64.5875
-67.2522
-68.9181
-69.9731
-70.6612
-71.1266
-71.4531
-71.689
-71.8624
-71.9892
-72.0788
-72.1363
-72.1645
-59.4015
-66.6897
-70.5007
-72.3303
-73.1631
-73.5223
-73.6644
-73.7109
-73.7182
-73.712
-73.7032
-73.696
-73.6912
-73.6886
-73.6875
-69.0373
-76.472
-78.3948
-78.4043
-77.8811
-77.2879
-76.7625
-76.3335
-75.9961
-75.7368
-75.5419
-75.3997
-75.3009
-75.2386
-75.2086
-90.1383
-91.7657
-88.2018
-85.0099
-82.6683
-80.9855
-79.7634
-78.8637
-78.1949
-77.6964
-77.3274
-77.0595
-76.8733
-76.7558
-76.699
9.38302
9.36487
9.32877
9.27515
9.2049
9.11965
9.02241
8.91868
8.81848
8.74026
8.71881
8.82357
9.21254
10.3386
13.9187
9.64233
9.62393
9.58721
9.5324
9.46003
9.3712
9.26816
9.15543
9.04187
8.94488
8.89835
8.96783
9.27735
10.0367
11.3808
9.91417
9.89545
9.85796
9.80161
9.72635
9.63237
9.5204
9.39246
9.25346
9.11421
8.99716
8.94523
9.02945
9.32824
9.7799
10.1987
10.1797
10.1416
10.0837
10.0054
9.9058
9.78345
9.63689
9.46491
9.26787
9.05056
8.82783
8.63226
8.51342
8.49624
10.4962
10.4771
10.4385
10.3797
10.2992
10.1948
10.063
9.89865
9.69347
9.43537
9.10753
8.69134
8.18151
7.62776
7.20429
10.8066
10.7877
10.7494
10.6905
10.6092
10.5024
10.365
10.1884
9.9585
9.65106
9.22562
8.61963
7.76105
6.65138
5.62194
11.1299
11.1115
11.0742
11.0166
10.9368
10.8311
10.6937
10.5149
10.2771
9.94854
9.46878
8.7231
7.51476
5.61906
3.32842
11.4657
11.4482
11.4127
11.358
11.282
11.1814
11.051
10.8819
10.6584
10.3509
9.89629
9.14759
7.74565
4.86078
-0.552044
11.8133
11.7971
11.7643
11.7138
11.644
11.5523
11.4349
11.2862
11.0978
10.8552
10.5277
10.0254
9.00623
5.85781
-8.18753
12.1717
12.1573
12.1279
12.0828
12.021
11.9406
11.84
11.7177
11.5744
11.4184
11.2802
11.2619
11.7453
14.4219
28.174
12.54
12.5274
12.502
12.4633
12.4105
12.3428
12.2599
12.1633
12.0594
11.969
11.949
12.1498
12.9609
15.2943
20.3435
12.9165
12.9061
12.8851
12.8532
12.81
12.7552
12.689
12.6134
12.5348
12.4707
12.4643
12.6133
13.119
14.2801
16.0242
13.3
13.2919
13.2755
13.2507
13.2173
13.1752
13.1242
13.0651
12.9996
12.9322
12.8711
12.8288
12.8218
12.8606
12.9211
13.6887
13.6829
13.6714
13.6539
13.6305
13.6009
13.5647
13.5206
13.4653
13.3891
13.2645
13.0195
12.4924
11.4257
9.86488
14.0811
14.0777
14.071
14.0609
14.0476
14.0309
14.0102
13.9835
13.9452
13.8793
13.7412
13.4056
12.5374
10.3335
5.72983
14.4754
14.4744
14.4725
14.4699
14.4668
14.4634
14.4594
14.454
14.4437
14.4196
14.3547
14.1611
13.5096
10.9075
-1.59706
14.87
14.8714
14.8742
14.8789
14.8859
14.8958
14.9093
14.9272
14.9514
14.988
15.057
15.2341
15.8363
18.3578
30.7836
15.2633
15.2669
15.2743
15.286
15.3027
15.3254
15.3555
15.3954
15.4502
15.5335
15.6839
16.0114
16.8297
18.9296
23.4131
15.6536
15.6593
15.671
15.6893
15.715
15.7495
15.7945
15.8526
15.9286
16.0324
16.1874
16.4473
16.9329
17.8455
19.1622
16.0395
16.0471
16.0627
16.087
16.1209
16.1659
16.2238
16.2968
16.3871
16.4957
16.6176
16.7258
16.739
16.4803
15.8317
16.4197
16.429
16.4481
16.4776
16.5187
16.573
16.6423
16.7284
16.8323
16.9494
17.0567
17.0699
16.7336
15.3853
12.0569
16.7929
16.8038
16.8258
16.8598
16.907
16.9692
17.0484
17.1472
17.2677
17.4098
17.5605
17.6563
17.4307
15.6647
5.97706
17.1582
17.1703
17.1947
17.2325
17.2847
17.3531
17.4404
17.55
17.6877
17.8641
18.1019
18.4651
19.1972
21.4448
31.4443
17.5146
17.5277
17.5541
17.5947
17.6506
17.7236
17.8163
17.9327
18.0803
18.2753
18.5558
19.0172
19.911
21.8409
25.5942
17.8615
17.8753
17.9032
17.9458
18.0043
18.0801
18.1752
18.293
18.4395
18.6271
18.8835
19.2683
19.9048
20.9699
22.3576
18.1983
18.2126
18.2416
18.2856
18.3456
18.4226
18.5178
18.6328
18.7695
18.9309
19.1213
19.3441
19.6005
19.8744
20.0915
18.5247
18.5394
18.569
18.614
18.6748
18.752
18.8461
18.9566
19.0816
19.2144
19.336
19.396
19.2835
18.8177
17.9833
18.8403
18.8553
18.8854
18.9309
18.9921
19.0693
19.1623
19.2698
19.3878
19.5055
19.593
19.5671
19.2116
18.0164
15.3026
19.145
19.1602
19.1906
19.2364
19.2979
19.3751
19.4678
19.5748
19.6936
19.8174
19.928
19.9664
19.7223
18.2691
10.7446
19.4387
19.454
19.4846
19.5307
19.5924
19.6698
19.7627
19.871
19.9952
20.1383
20.3124
20.5613
21.0723
22.7373
30.3737
19.7212
19.7366
19.7674
19.8138
19.8757
19.9531
20.0462
20.1554
20.283
20.4375
20.6442
20.9737
21.6205
23.0578
25.9083
19.9924
20.0079
20.039
20.0856
20.1477
20.2252
20.318
20.4262
20.5515
20.7002
20.8902
21.1649
21.6193
22.3964
23.43
20.2523
20.268
20.2993
20.3462
20.4085
20.4861
20.5783
20.6844
20.8031
20.934
21.0768
21.2306
21.3935
21.556
21.6772
20.5008
20.5166
20.5482
20.5956
20.6584
20.7364
20.8285
20.9328
21.0457
21.1592
21.2552
21.2892
21.1678
20.7435
20.0163
20.7377
20.7538
20.7858
20.8338
20.8974
20.9764
21.0695
21.1746
21.287
21.3963
21.476
21.4551
21.1518
20.1408
17.8583
20.9629
20.9792
21.0118
21.0606
21.1254
21.206
21.3015
21.4105
21.5299
21.6538
21.7661
21.8163
21.6269
20.4203
14.123
21.1762
21.1928
21.226
21.2758
21.342
21.4247
21.5235
21.6382
21.7691
21.9191
22.0985
22.3433
22.808
24.2344
30.6485
21.3774
21.3944
21.4282
21.479
21.5468
21.6317
21.7337
21.8538
21.9944
22.1639
22.3849
22.7169
23.3208
24.5842
27.0103
21.5663
21.5836
21.6181
21.67
21.7393
21.8262
21.9308
22.0542
22.1989
22.3726
22.5935
22.9009
23.375
24.1256
25.0652
21.7426
21.7602
21.7955
21.8485
21.9192
22.0078
22.1143
22.2389
22.3826
22.5483
22.7413
22.9684
23.2368
23.5352
23.7808
21.906
21.924
21.96
22.0141
22.0863
22.1765
22.2844
22.4095
22.5505
22.7047
22.8646
23.0067
23.0773
22.9805
22.6753
22.0563
22.0747
22.1115
22.1667
22.2404
22.3323
22.4419
22.5681
22.7084
22.8571
22.9995
23.0938
23.0336
22.5698
21.3662
22.1932
22.212
22.2496
22.3061
22.3813
22.4752
22.5872
22.7161
22.8597
23.0136
23.1671
23.2877
23.2697
22.6721
19.2297
22.3165
22.3357
22.3742
22.4319
22.5089
22.6051
22.72
22.853
23.0031
23.1702
23.3568
23.5769
23.9077
24.7494
28.3181
22.4257
22.4454
22.4847
22.5438
22.6227
22.7213
22.8396
22.9771
23.1341
23.3129
23.5225
23.7886
24.1905
24.9319
26.2863
22.5208
22.5409
22.5811
22.6415
22.7223
22.8235
22.945
23.0868
23.2491
23.4341
23.6482
23.9053
24.2371
24.688
25.2037
22.6012
22.6217
22.6628
22.7246
22.8072
22.9109
23.0357
23.1813
23.3476
23.5349
23.7434
23.9694
24.2003
24.3983
24.4879
22.6668
22.6877
22.7296
22.7926
22.8771
22.9833
23.1111
23.2605
23.4308
23.6207
23.8257
24.0292
24.186
24.1832
23.843
22.7173
22.7385
22.7811
22.8453
22.9315
23.0399
23.1709
23.3243
23.4997
23.6958
23.9083
24.1206
24.2821
24.2014
22.9706
22.7523
22.7739
22.8171
22.8823
22.9699
23.0804
23.2143
23.3719
23.5534
23.7594
23.9903
24.2466
24.5458
25.0176
26.4752
22.7718
22.7936
22.8373
22.9032
22.992
23.1042
23.2405
23.4019
23.5894
23.8054
24.054
24.342
24.6891
25.1484
25.7777
22.7756
22.7974
22.8414
22.9078
22.9972
23.1106
23.2487
23.4128
23.6049
23.8285
24.0897
24.3954
24.7542
25.1602
25.5261
22.7635
22.7854
22.8293
22.8958
22.9855
23.0992
23.238
23.4034
23.5977
23.8252
24.0936
24.4113
24.7859
25.1991
25.5374
22.7356
22.7574
22.8011
22.8673
22.9566
23.0698
23.2082
23.373
23.5665
23.7935
24.0625
24.387
24.7902
25.2893
25.7925
22.692
22.7135
22.7567
22.8222
22.9105
23.0225
23.1592
23.3216
23.5115
23.7324
23.992
24.3073
24.7274
25.3759
26.4058
22.6327
22.6539
22.6964
22.7607
22.8475
22.9576
23.0916
23.2503
23.4342
23.6441
23.882
24.1542
24.5054
25.1967
27.7431
22.5582
22.5788
22.6203
22.6832
22.7679
22.8754
23.0061
23.1605
23.338
23.5363
23.7476
23.9453
24.0468
23.7284
21.3899
22.4687
22.4887
22.5289
22.5899
22.6721
22.7764
22.9036
23.0538
23.2266
23.4192
23.6218
23.8025
23.8792
23.6621
22.8892
22.3646
22.3839
22.4226
22.4813
22.5605
22.6612
22.7842
22.9304
23.1006
23.295
23.5105
23.731
23.9153
23.9809
23.8606
22.2466
22.2649
22.3019
22.3578
22.4335
22.5298
22.6479
22.7894
22.9571
23.1561
23.3949
23.684
24.0334
24.4281
24.7571
22.1152
22.1325
22.1674
22.2203
22.2918
22.3828
22.4946
22.6294
22.7912
22.9892
23.2436
23.5943
24.1195
24.9202
25.8907
21.9711
21.9873
22.0199
22.0693
22.136
22.2208
22.3247
22.4496
22.5993
22.7831
23.0247
23.3826
24.0136
25.2937
27.707
21.8151
21.8301
21.8602
21.9057
21.9671
22.0449
22.1395
22.2518
22.3829
22.5367
22.7242
22.9806
23.4567
24.8793
31.2078
21.6481
21.6618
21.6892
21.7307
21.7865
21.8567
21.9414
22.0399
22.1501
22.2668
22.3751
22.4253
22.2418
21.0573
14.8572
21.4709
21.4833
21.508
21.5453
21.5953
21.658
21.7331
21.819
21.9119
22.0025
22.0656
22.0315
21.7218
20.7175
18.4642
21.2846
21.2956
21.3175
21.3506
21.3948
21.4502
21.5164
21.5922
21.6747
21.7571
21.8228
21.8285
21.6835
21.2445
20.5147
21.0901
21.0997
21.1188
21.1476
21.1861
21.2344
21.2924
21.36
21.4367
21.5233
21.6208
21.7295
21.8491
21.9727
22.0666
20.8884
20.8965
20.9128
20.9373
20.9701
21.0113
21.0612
21.1204
21.1913
21.2816
21.4105
21.6221
22.0114
22.7207
23.6922
20.6804
20.6872
20.7006
20.7209
20.7479
20.7817
20.8227
20.8717
20.9318
21.0129
21.142
21.3906
21.9512
23.2858
26.0006
20.4671
20.4725
20.4832
20.4992
20.5204
20.5467
20.578
20.6144
20.657
20.7106
20.7899
20.9416
21.353
22.8915
30.2026
20.2495
20.2536
20.2616
20.2735
20.289
20.3077
20.329
20.3518
20.3739
20.3903
20.3868
20.3117
19.9716
18.4879
11.1985
20.0285
20.0313
20.0369
20.0448
20.0549
20.0664
20.0784
20.0889
20.0939
20.0838
20.0325
19.8652
19.3839
18.1153
15.4316
19.805
19.8066
19.8099
19.8142
19.8193
19.8243
19.8281
19.829
19.8238
19.8058
19.7582
19.6361
19.3424
18.7246
17.809
19.5797
19.5804
19.5815
19.5827
19.5833
19.5824
19.5792
19.5725
19.5618
19.5483
19.5349
19.5254
19.5258
19.5401
19.5585
19.3533
19.3532
19.3527
19.3512
19.3479
19.3418
19.3319
19.3178
19.3012
19.2904
19.3082
19.4072
19.6989
20.3521
21.3285
19.1264
19.1257
19.124
19.1204
19.114
19.1034
19.087
19.064
19.0359
19.0126
19.0246
19.1544
19.6207
20.9389
23.7844
18.8995
18.8985
18.896
18.8912
18.8826
18.8685
18.8461
18.8128
18.7666
18.71
18.6585
18.6672
18.9506
20.4644
28.224
18.6727
18.6717
18.6692
18.6641
18.6548
18.6387
18.6122
18.5697
18.5038
18.4038
18.2499
17.9885
17.4256
15.6519
7.71999
18.4461
18.4454
18.4436
18.4394
18.4312
18.4158
18.3886
18.3421
18.2642
18.1348
17.9153
17.5187
16.741
15.1152
12.055
18.2194
18.2195
18.2191
18.2173
18.2122
18.2007
18.1779
18.1354
18.0596
17.9284
17.7029
17.313
16.6449
15.574
14.2724
17.9922
17.9933
17.9951
17.9969
17.9971
17.993
17.9802
17.9509
17.893
17.7872
17.6041
17.2998
16.8282
16.1925
15.5931
17.7636
17.766
17.7707
17.7772
17.7846
17.791
17.7932
17.7856
17.7589
17.6996
17.5887
17.4021
17.125
16.7852
16.505
17.5328
17.5367
17.5446
17.5566
17.5724
17.5915
17.6125
17.6326
17.6468
17.6478
17.6253
17.5666
17.4651
17.3357
17.2295
17.2987
17.3041
17.3153
17.3328
17.3574
17.3901
17.4318
17.4829
17.5433
17.612
17.6865
17.7601
17.8243
17.8694
17.8877
17.0603
17.0671
17.0811
17.1036
17.1364
17.1821
17.244
17.3261
17.4334
17.5721
17.7476
17.9597
18.1962
18.4212
18.5657
16.8168
16.8244
16.8406
16.8669
16.9062
16.9625
17.0415
17.1508
17.3011
17.5064
17.7827
18.1415
18.5757
19.0282
19.3513
16.5674
16.5754
16.5925
16.6207
16.6637
16.7267
16.8172
16.9464
17.1301
17.3911
17.76
18.2704
18.9421
19.7242
20.3687
16.3119
16.3196
16.3362
16.364
16.407
16.4712
16.5656
16.7034
16.9047
17.2006
17.6385
18.2866
19.2314
20.515
21.8407
16.0506
16.0572
16.0717
16.0963
16.1351
16.1944
16.2832
16.4156
16.6131
16.9114
17.3705
18.096
19.2849
21.2759
24.2406
15.7842
15.789
15.7996
15.8183
15.8488
15.8966
15.97
16.0816
16.251
16.5104
16.917
17.5829
18.7809
21.3597
28.7065
-148.971
-110.543
-96.8499
-90.2845
-86.4518
-83.9523
-82.2181
-80.9703
-80.0534
-79.3735
-78.8707
-78.5055
-78.2511
-78.0903
-78.0124
-126.062
-110.435
-99.7616
-93.181
-88.9651
-86.1176
-84.1114
-82.6549
-81.5777
-80.7746
-80.1779
-79.7425
-79.4383
-79.2454
-79.1518
-114.014
-106.887
-99.8306
-94.4344
-90.5273
-87.6987
-85.6222
-84.0753
-82.911
-82.032
-81.3726
-80.8881
-80.5476
-80.331
-80.2256
-106.924
-103.288
-98.7463
-94.6529
-91.3401
-88.7571
-86.7646
-85.2291
-84.0455
-83.1363
-82.4456
-81.9331
-81.5706
-81.3388
-81.2257
-102.366
-100.318
-97.35
-94.3285
-91.6453
-89.4052
-87.5891
-86.1377
-84.9887
-84.0884
-83.3942
-82.8735
-82.5023
-82.2635
-82.1468
-99.238
-97.9867
-95.9902
-93.7683
-91.6423
-89.7587
-88.1596
-86.8356
-85.7585
-84.8969
-84.222
-83.7098
-83.3414
-83.1031
-82.9862
-96.9872
-96.172
-94.7865
-93.1407
-91.4703
-89.9145
-88.5384
-87.361
-86.3779
-85.5752
-84.9364
-84.4457
-84.0896
-83.8579
-83.7438
-95.3107
-94.7529
-93.7629
-92.5293
-91.218
-89.9451
-88.7787
-87.7507
-86.8714
-86.1392
-85.5476
-85.0876
-84.751
-84.5306
-84.4216
-94.0295
-93.6335
-92.9079
-91.9711
-90.9385
-89.9015
-88.9222
-88.0364
-87.2618
-86.6052
-86.0668
-85.6435
-85.331
-85.1253
-85.0232
-93.0315
-92.7422
-92.1991
-91.4786
-90.6613
-89.8175
-89.0002
-88.2439
-87.5696
-86.9885
-86.5057
-86.122
-85.8365
-85.6474
-85.5533
-92.2425
-92.0266
-91.613
-91.0524
-90.4019
-89.7149
-89.0351
-88.3937
-87.8119
-87.3031
-86.8752
-86.5318
-86.2744
-86.1031
-86.0176
-91.6115
-91.4479
-91.1284
-90.6879
-90.1673
-89.607
-89.0427
-88.5013
-88.0028
-87.5611
-87.1855
-86.8815
-86.652
-86.4986
-86.4218
-91.1022
-90.9768
-90.7273
-90.3783
-89.9595
-89.5017
-89.0337
-88.5783
-88.1534
-87.7726
-87.4457
-87.1789
-86.9764
-86.8403
-86.772
-90.6882
-90.5913
-90.3948
-90.1165
-89.778
-89.4033
-89.0154
-88.6333
-88.2726
-87.9462
-87.6636
-87.4313
-87.254
-87.1345
-87.0743
-90.3495
-90.2744
-90.1187
-89.8955
-89.621
-89.3138
-88.9924
-88.6724
-88.3674
-88.089
-87.846
-87.6451
-87.491
-87.3868
-87.3342
-90.0711
-90.0129
-89.889
-89.7094
-89.4862
-89.234
-88.9677
-88.7002
-88.4431
-88.2065
-87.9987
-87.826
-87.6929
-87.6026
-87.557
-89.8414
-89.7963
-89.6976
-89.5527
-89.3709
-89.1637
-88.9432
-88.72
-88.5038
-88.3035
-88.1266
-87.9788
-87.8646
-87.7868
-87.7475
-89.651
-89.6164
-89.5378
-89.4208
-89.2726
-89.1023
-88.92
-88.734
-88.5527
-88.3838
-88.2338
-88.108
-88.0104
-87.9438
-87.91
-89.4928
-89.4666
-89.4041
-89.3097
-89.1889
-89.0492
-88.8985
-88.744
-88.5924
-88.4503
-88.3237
-88.217
-88.1341
-88.0774
-88.0486
-89.3609
-89.3415
-89.2921
-89.2161
-89.1179
-89.0033
-88.8792
-88.7511
-88.6247
-88.5057
-88.3991
-88.3092
-88.239
-88.191
-88.1666
-89.2506
-89.2367
-89.198
-89.1371
-89.0575
-88.9639
-88.8619
-88.7561
-88.6512
-88.5519
-88.4627
-88.3871
-88.3281
-88.2876
-88.267
-89.158
-89.1487
-89.1187
-89.0704
-89.0062
-88.9301
-88.8467
-88.7597
-88.673
-88.5905
-88.5162
-88.4531
-88.4037
-88.3698
-88.3525
-89.08
-89.0745
-89.0518
-89.0138
-88.9625
-88.9011
-88.8334
-88.7623
-88.691
-88.623
-88.5615
-88.5091
-88.4681
-88.4398
-88.4255
-89.014
-89.0116
-88.995
-88.9657
-88.9252
-88.8761
-88.8217
-88.7642
-88.7061
-88.6504
-88.5999
-88.5568
-88.523
-88.4997
-88.4878
-88.9578
-88.958
-88.9466
-88.9246
-88.8933
-88.8547
-88.8115
-88.7656
-88.7188
-88.6738
-88.6327
-88.5976
-88.57
-88.551
-88.5413
-88.9095
-88.912
-88.905
-88.8893
-88.8657
-88.8361
-88.8026
-88.7666
-88.7296
-88.6937
-88.6609
-88.6328
-88.6106
-88.5953
-88.5875
-88.8677
-88.8721
-88.8688