/*--------------------------------*- C++ -*----------------------------------*\
| =========                 |                                                 |
| \\      /  F ield         | OpenFOAM: The Open Source CFD Toolbox           |
|  \\    /   O peration     | Version:  5.x                                   |
|   \\  /    A nd           | Web:      www.OpenFOAM.org                      |
|    \\/     M anipulation  |                                                 |
\*---------------------------------------------------------------------------*/
FoamFile
{
    version     2.0;
    format      ascii;
    class       volScalarField;
    location    "17.5";
    object      T;
}
// * * * * * * * * * * * * * * * * * * * * * * * * * * * * * * * * * * * * * //

dimensions      [0 0 0 1 0 0 0];

internalField   nonuniform List<scalar> 
6300
(
10.0348
10.1044
10.1737
10.2424
10.3104
10.3774
10.4433
10.5079
10.5708
10.6321
10.6913
10.7485
10.8035
10.856
10.9061
10.0349
10.1047
10.1742
10.2431
10.3113
10.3786
10.4447
10.5094
10.5726
10.634
10.6934
10.7507
10.8058
10.8584
10.9086
10.0352
10.1054
10.1752
10.2446
10.3132
10.3809
10.4474
10.5125
10.576
10.6378
10.6976
10.7552
10.8105
10.8634
10.9136
10.0355
10.1063
10.1768
10.2468
10.316
10.3843
10.4514
10.5171
10.5813
10.6436
10.7039
10.762
10.8177
10.8708
10.9213
10.0359
10.1075
10.1789
10.2497
10.3198
10.3889
10.4568
10.5234
10.5883
10.6514
10.7124
10.7711
10.8273
10.8809
10.9316
10.0364
10.1091
10.1815
10.2534
10.3245
10.3946
10.4636
10.5312
10.5971
10.6612
10.7231
10.7827
10.8397
10.8938
10.9449
10.037
10.111
10.1846
10.2577
10.3301
10.4016
10.4718
10.5406
10.6078
10.6731
10.7362
10.7968
10.8548
10.9097
10.9613
10.0378
10.1132
10.1883
10.2629
10.3367
10.4096
10.4814
10.5517
10.6204
10.6872
10.7517
10.8137
10.8728
10.9287
10.9811
10.0386
10.1157
10.1924
10.2687
10.3442
10.4189
10.4923
10.5644
10.6349
10.7034
10.7697
10.8334
10.8941
10.9514
11.0046
10.0395
10.1185
10.1971
10.2752
10.3527
10.4292
10.5046
10.5787
10.6512
10.7219
10.7903
10.8561
10.9189
10.9779
11.0325
10.0405
10.1215
10.2022
10.2825
10.362
10.4407
10.5183
10.5946
10.6694
10.7425
10.8135
10.8819
10.9473
11.0088
11.0653
10.0417
10.1249
10.2079
10.2904
10.3722
10.4532
10.5332
10.612
10.6894
10.7652
10.8391
10.9108
10.9796
11.0445
11.1041
10.0429
10.1286
10.2139
10.2989
10.3832
10.4667
10.5492
10.6307
10.7109
10.7897
10.8669
10.9425
11.0157
11.0857
11.1502
10.0442
10.1325
10.2205
10.308
10.395
10.4812
10.5664
10.6506
10.7337
10.8157
10.8965
10.9763
11.0551
11.1323
11.2055
10.0456
10.1366
10.2274
10.3178
10.4075
10.4965
10.5846
10.6716
10.7577
10.8428
10.9271
11.0113
11.0961
11.1828
11.272
10.9497
10.9875
11.0236
11.0579
11.0905
11.1214
11.1507
11.1786
11.205
11.2301
11.254
11.2768
11.2987
11.3197
11.3399
11.3596
11.3787
11.3975
11.416
11.4343
11.4526
11.4709
11.4893
11.5079
11.5269
11.5461
11.5658
11.5858
11.6064
11.6275
11.649
11.671
11.6935
11.7165
11.7398
11.7635
11.7874
11.8116
11.836
11.8603
11.8847
11.9089
11.9329
11.9564
11.9795
12.0019
12.0236
12.0443
12.064
12.0826
12.0998
12.1155
12.1297
12.142
12.1524
12.1607
12.1666
12.1699
12.1704
12.1678
12.1619
12.1525
12.1391
12.1216
12.0994
12.0724
12.0401
12.0019
11.9576
11.9065
11.8482
11.782
11.7072
11.6233
11.5295
11.4252
11.3094
11.1816
11.0408
10.8862
10.7171
10.5327
10.3323
10.115
9.88045
9.62797
9.35723
9.06798
8.76013
8.43378
10.9522
10.99
11.0261
11.0603
11.0928
11.1236
11.1529
11.1806
11.2068
11.2318
11.2555
11.2782
11.2999
11.3207
11.3408
11.3603
11.3792
11.3979
11.4162
11.4344
11.4525
11.4707
11.489
11.5075
11.5263
11.5455
11.5651
11.5851
11.6056
11.6267
11.6482
11.6703
11.6928
11.7158
11.7392
11.763
11.787
11.8113
11.8358
11.8603
11.8848
11.9092
11.9333
11.9571
11.9803
12.003
12.0248
12.0457
12.0656
12.0844
12.1018
12.1178
12.1321
12.1447
12.1554
12.164
12.1702
12.1738
12.1747
12.1725
12.167
12.158
12.1451
12.128
12.1064
12.08
12.0482
12.0108
11.9672
11.9169
11.8594
11.7941
11.7203
11.6374
11.5447
11.4414
11.3268
11.2001
11.0604
10.9071
10.7391
10.5558
10.3563
10.14
9.9061
9.65419
9.3838
9.09467
8.7867
8.45997
10.9573
10.9951
11.0311
11.0652
11.0975
11.1282
11.1571
11.1846
11.2105
11.2352
11.2586
11.2809
11.3022
11.3227
11.3424
11.3616
11.3802
11.3985
11.4165
11.4344
11.4523
11.4702
11.4882
11.5065
11.5252
11.5442
11.5636
11.5836
11.6041
11.6251
11.6467
11.6688
11.6914
11.7145
11.7381
11.762
11.7862
11.8107
11.8355
11.8603
11.8851
11.9098
11.9343
11.9584
11.982
12.005
12.0272
12.0485
12.0688
12.088
12.1058
12.1222
12.1371
12.1502
12.1614
12.1705
12.1774
12.1817
12.1833
12.1818
12.1772
12.169
12.157
12.1408
12.1203
12.095
12.0645
12.0285
11.9863
11.9376
11.8818
11.8183
11.7465
11.6656
11.575
11.4739
11.3615
11.2371
11.0998
10.9488
10.7831
10.602
10.4045
10.19
9.95767
9.70692
9.43727
9.1484
8.84019
8.5127
10.965
11.0028
11.0387
11.0726
11.1047
11.135
11.1636
11.1906
11.2161
11.2402
11.2631
11.2849
11.3057
11.3257
11.3449
11.3635
11.3817
11.3995
11.4171
11.4345
11.4519
11.4694
11.4871
11.5051
11.5234
11.5422
11.5614
11.5813
11.6017
11.6227
11.6443
11.6665
11.6892
11.7125
11.7363
11.7604
11.785
11.8098
11.8349
11.8601
11.8854
11.9106
11.9356
11.9603
11.9845
12.0081
12.0309
12.0528
12.0736
12.0933
12.1118
12.1288
12.1444
12.1582
12.1703
12.1803
12.1881
12.1934
12.1961
12.1957
12.1922
12.1853
12.1746
12.16
12.141
12.1174
12.0888
12.0547
12.0148
11.9685
11.9152
11.8544
11.7855
11.7076
11.6202
11.5224
11.4135
11.2926
11.1589
11.0114
10.8493
10.6715
10.4773
10.2656
10.0357
9.78677
9.51832
9.22991
8.92136
8.59271
10.9755
11.0133
11.049
11.0827
11.1144
11.1442
11.1723
11.1987
11.2236
11.247
11.2693
11.2903
11.3104
11.3297
11.3482
11.3661
11.3836
11.4008
11.4177
11.4345
11.4513
11.4683
11.4855
11.503
11.5209
11.5394
11.5584
11.578
11.5983
11.6193
11.641
11.6633
11.6863
11.7098
11.7338
11.7583
11.7832
11.8085
11.834
11.8598
11.8857
11.9116
11.9374
11.9629
11.9878
12.0122
12.0358
12.0584
12.08
12.1004
12.1197
12.1375
12.154
12.1689
12.182
12.1932
12.2023
12.2089
12.213
12.2142
12.2122
12.2069
12.198
12.1852
12.1682
12.1469
12.1207
12.0893
12.0523
12.0092
11.9594
11.9023
11.8372
11.7634
11.6802
11.5869
11.4826
11.3665
11.2377
11.0951
10.9378
10.7648
10.575
10.3674
10.1409
9.89469
9.62802
9.34035
9.03139
8.70116
10.9889
11.0267
11.0622
11.0955
11.1268
11.156
11.1834
11.209
11.233
11.2556
11.2769
11.2971
11.3163
11.3346
11.3523
11.3694
11.386
11.4023
11.4184
11.4345
11.4505
11.4668
11.4833
11.5003
11.5177
11.5357
11.5544
11.5738
11.5939
11.6149
11.6367
11.6592
11.6824
11.7062
11.7306
11.7555
11.7808
11.8066
11.8328
11.8593
11.886
11.9128
11.9395
11.966
11.992
12.0174
12.0419
12.0654
12.0879
12.1092
12.1294
12.1482
12.1658
12.1819
12.1964
12.2091
12.2198
12.2282
12.234
12.237
12.2369
12.2336
12.2268
12.2163
12.2018
12.1832
12.16
12.132
12.0986
12.0595
12.014
11.9614
11.9012
11.8326
11.7548
11.6671
11.5687
11.4587
11.336
11.1998
11.0489
10.8822
10.6983
10.4962
10.2744
10.032
9.76789
9.48136
9.17198
8.8397
11.0055
11.0432
11.0785
11.1114
11.142
11.1704
11.1969
11.2215
11.2445
11.266
11.2862
11.3053
11.3233
11.3406
11.3571
11.3732
11.3887
11.404
11.4192
11.4343
11.4495
11.4649
11.4806
11.4968
11.5135
11.531
11.5492
11.5683
11.5884
11.6093
11.6312
11.654
11.6775
11.7017
11.7266
11.7519
11.7778
11.8042
11.831
11.8583
11.886
11.914
11.942
11.9698
11.9971
12.0237
12.0493
12.0739
12.0974
12.1196
12.1408
12.1608
12.1796
12.1971
12.2133
12.2278
12.2405
12.251
12.2589
12.2641
12.2662
12.2652
12.2608
12.2529
12.2413
12.2258
12.2062
12.1822
12.1532
12.1189
12.0785
12.0316
11.9772
11.9148
11.8436
11.7627
11.6714
11.5688
11.4539
11.3256
11.1828
11.024
10.848
10.653
10.4377
10.2004
9.93995
9.65518
9.34545
9.01063
11.0255
11.0632
11.0982
11.1305
11.1603
11.1877
11.213
11.2364
11.2581
11.2782
11.2971
11.3148
11.3315
11.3475
11.3627
11.3775
11.3919
11.406
11.4199
11.4339
11.448
11.4624
11.4771
11.4924
11.5083
11.5251
11.5428
11.5615
11.5814
11.6023
11.6245
11.6476
11.6716
11.6964
11.7217
11.7476
11.774
11.8009
11.8285
11.8567
11.8856
11.915
11.9446
11.9741
12.0031
12.0312
12.0582
12.0839
12.1084
12.1316
12.1538
12.1749
12.1951
12.2143
12.2324
12.2492
12.2643
12.2773
12.2878
12.2954
12.3001
12.3016
12.2998
12.2947
12.2863
12.2744
12.2588
12.2393
12.2154
12.1868
12.1526
12.1122
12.0648
12.0097
11.9461
11.8732
11.7903
11.6966
11.5909
11.4723
11.3394
11.1908
11.0247
10.8392
10.6324
10.4023
10.1469
9.86484
9.55499
9.21703
11.0495
11.0871
11.1217
11.1532
11.1819
11.208
11.2318
11.2537
11.2737
11.2923
11.3095
11.3256
11.3408
11.3552
11.369
11.3823
11.3953
11.408
11.4207
11.4333
11.4461
11.4593
11.4728
11.487
11.5019
11.5178
11.5348
11.553
11.5726
11.5937
11.6162
11.6399
11.6646
11.6901
11.716
11.7424
11.7692
11.7967
11.8249
11.8542
11.8844
11.9156
11.9474
11.9791
12.0103
12.0403
12.0688
12.0957
12.1211
12.1452
12.1681
12.1903
12.2119
12.233
12.2534
12.2729
12.291
12.3071
12.3205
12.331
12.3384
12.3425
12.3435
12.3414
12.3362
12.3281
12.3169
12.3025
12.2845
12.2625
12.2355
12.2028
12.1635
12.1167
12.0618
11.9981
11.9248
11.8413
11.7465
11.6394
11.5187
11.3826
11.2291
11.056
10.8606
10.6403
10.3923
10.1144
9.80492
9.46315
11.0779
11.1155
11.1494
11.1799
11.2071
11.2315
11.2535
11.2734
11.2916
11.3082
11.3235
11.3378
11.3512
11.3639
11.376
11.3876
11.399
11.4102
11.4213
11.4324
11.4438
11.4555
11.4676
11.4804
11.4941
11.5088
11.5249
11.5424
11.5618
11.5829
11.606
11.6307
11.6565
11.683
11.7097
11.7365
11.7636
11.7912
11.8199
11.85
11.8819
11.9153
11.95
11.985
12.0191
12.0515
12.0817
12.1096
12.1356
12.1601
12.1836
12.2065
12.2294
12.2525
12.2757
12.2986
12.3206
12.3405
12.3575
12.3711
12.3812
12.388
12.3915
12.3922
12.3903
12.386
12.3795
12.3708
12.3595
12.3451
12.3266
12.3028
12.2727
12.2353
12.1901
12.1365
12.074
12.002
11.9197
11.8262
11.7199
11.5992
11.4618
11.3048
11.1247
10.9179
10.6806
10.4093
10.1012
9.75489
11.1116
11.1492
11.1822
11.2111
11.2364
11.2586
11.2782
11.2957
11.3115
11.3258
11.339
11.3512
11.3625
11.3733
11.3835
11.3933
11.4029
11.4124
11.4217
11.4312
11.4409
11.4509
11.4614
11.4726
11.4847
11.498
11.5127
11.5293
11.5481
11.5694
11.5934
11.6197
11.6475
11.6755
11.7031
11.7301
11.7569
11.7842
11.8128
11.8434
11.8768
11.9132
11.9521
11.9919
12.0303
12.0657
12.0976
12.1263
12.1523
12.1764
12.1996
12.2228
12.2465
12.2716
12.2982
12.3257
12.353
12.378
12.3992
12.4161
12.4289
12.4378
12.4436
12.4467
12.4477
12.4471
12.4453
12.4425
12.4388
12.4335
12.4252
12.4119
12.3922
12.3651
12.3303
12.2877
12.2368
12.1775
12.1091
12.031
11.9418
11.8399
11.7227
11.5866
11.4272
11.2393
11.0178
10.7572
10.4526
10.1008
11.1519
11.1893
11.2209
11.2475
11.27
11.2892
11.3058
11.3205
11.3334
11.3451
11.3558
11.3656
11.3747
11.3833
11.3915
11.3994
11.407
11.4145
11.4221
11.4296
11.4374
11.4455
11.4541
11.4634
11.4735
11.4849
11.4979
11.513
11.5308
11.5521
11.5774
11.6065
11.6379
11.6687
11.6973
11.724
11.7496
11.7753
11.8025
11.8327
11.8674
11.9075
11.9528
12.0008
12.0457
12.085
12.1183
12.1466
12.1714
12.194
12.2158
12.2379
12.2618
12.2885
12.3191
12.3532
12.3887
12.4207
12.4469
12.467
12.4818
12.4923
12.4994
12.5042
12.5073
12.5098
12.5122
12.5156
12.5204
12.5261
12.5308
12.5302
12.5221
12.5059
12.4819
12.4504
12.4117
12.3658
12.3126
12.2516
12.182
12.1025
12.0106
11.902
11.7704
11.6092
11.4112
11.1683
10.8717
10.5139
11.2007
11.2378
11.2668
11.2898
11.3082
11.3235
11.3364
11.3475
11.3572
11.3659
11.3738
11.381
11.3877
11.394
11.3999
11.4056
11.4112
11.4167
11.4222
11.4277
11.4335
11.4395
11.4458
11.4528
11.4606
11.4694
11.4799
11.4926
11.5085
11.529
11.5557
11.5898
11.6293
11.6648
11.6943
11.7194
11.7419
11.7641
11.7879
11.8156
11.85
11.894
11.9498
12.0138
12.0693
12.1127
12.1459
12.172
12.1936
12.2128
12.2312
12.2506
12.2727
12.2998
12.3346
12.3788
12.4292
12.4717
12.5033
12.5255
12.5409
12.5514
12.5586
12.5638
12.5679
12.5722
12.5779
12.5866
12.6003
12.6203
12.6438
12.6591
12.6635
12.6579
12.6441
12.6235
12.5969
12.5646
12.5271
12.4843
12.4363
12.3827
12.3223
12.2506
12.1563
12.0318
11.8691
11.6568
11.3788
11.0166
11.2625
11.2977
11.3215
11.3384
11.3511
11.3611
11.3694
11.3764
11.3825
11.3878
11.3927
11.3971
11.4012
11.405
11.4086
11.4121
11.4155
11.4188
11.4222
11.4256
11.4291
11.4327
11.4367
11.441
11.4459
11.4517
11.4586
11.4675
11.4795
11.4968
11.5234
11.5654
11.6264
11.6693
11.6978
11.7182
11.7348
11.7505
11.7677
11.7889
11.8185
11.8636
11.935
12.039
12.1102
12.1548
12.1837
12.2038
12.2193
12.2326
12.2453
12.2591
12.2762
12.3001
12.3367
12.3952
12.4809
12.5385
12.5731
12.5939
12.6068
12.6151
12.6206
12.6247
12.6283
12.6325
12.6389
12.6503
12.6712
12.7093
12.7686
12.8038
12.819
12.8216
12.8161
12.8051
12.7899
12.771
12.7491
12.7246
12.6985
12.6727
12.6502
12.6315
12.5855
12.5093
12.3984
12.2398
12.007
11.6537
11.348
11.3739
11.386
11.393
11.3977
11.4013
11.4042
11.4066
11.4086
11.4105
11.4121
11.4136
11.415
11.4162
11.4175
11.4186
11.4198
11.4209
11.422
11.4231
11.4243
11.4256
11.4269
11.4284
11.4301
11.4321
11.4346
11.4379
11.4428
11.4512
11.4688
11.5135
11.6495
11.6946
11.7128
11.7224
11.729
11.7349
11.7414
11.7501
11.7648
11.7951
11.8731
12.1115
12.1894
12.2196
12.2339
12.2423
12.2482
12.253
12.2576
12.2628
12.27
12.2819
12.3071
12.3724
12.5732
12.6381
12.6626
12.6735
12.6792
12.6825
12.6847
12.6863
12.6877
12.6896
12.6929
12.6999
12.7174
12.7675
12.9279
12.977
12.9927
12.9968
12.996
12.9928
12.9879
12.9817
12.9747
12.9671
12.9602
12.9578
12.9727
13.0516
13.0579
13.0366
12.9963
12.9297
12.8085
12.5416
8.05473
7.61564
7.15206
6.66538
6.15719
5.62928
5.08354
4.52195
3.94647
3.35908
2.76171
2.15627
1.5446
0.928514
0.309797
8.08023
7.64006
7.17511
6.68682
6.17685
5.64705
5.09936
4.53579
3.95834
3.36902
2.76976
2.16247
1.549
0.93114
0.31067
8.13156
7.68918
7.22144
6.72987
6.21629
5.68265
5.13101
4.56346
3.98206
3.38886
2.78582
2.17484
1.55776
0.936371
0.312408
8.20941
7.7636
7.29151
6.79488
6.27573
5.7362
5.17852
4.60492
4.01756
3.41852
2.80979
2.19329
1.57083
0.944164
0.314998
8.31485
7.86423
7.38606
6.88236
6.35548
5.80784
5.24192
4.66011
4.06469
3.45782
2.84151
2.21767
1.58808
0.954451
0.318416
8.4494
7.99236
7.50605
6.99298
6.45592
5.89772
5.32116
4.72886
4.12324
3.50652
2.88075
2.24778
1.60937
0.96713
0.322627
8.61515
8.14967
7.65273
7.12751
6.57744
6.00591
5.41609
4.81088
4.19284
3.56425
2.92714
2.28333
1.63446
0.982064
0.327584
8.81488
8.33838
7.82763
7.28683
6.72036
6.13232
5.52637
4.90568
4.27295
3.63047
2.98022
2.32391
1.66306
0.999071
0.333228
9.0523
8.56127
8.03248
7.47177
6.8848
6.2766
5.65135
5.01249
4.36277
3.70443
3.03932
2.369
1.6948
1.01792
0.33948
9.33247
8.82184
8.26919
7.68288
7.07041
6.43785
5.7899
5.1301
4.46116
3.78513
3.10362
2.41794
1.72919
1.03833
0.346246
9.66235
9.12435
8.53947
7.92009
7.27603
6.61443
5.94022
5.25683
4.56661
3.87127
3.17205
2.46992
1.76567
1.05996
0.353414
10.0519
9.47366
8.84419
8.18191
7.49914
6.80354
6.09968
5.39032
4.67715
3.96126
3.24337
2.52401
1.80358
1.08243
0.360857
10.5154
9.87413
9.18164
8.46412
7.73503
7.00086
6.26459
5.52757
4.79037
4.0532
3.31613
2.57914
1.84221
1.10531
0.368436
11.0735
10.3257
9.54402
8.75782
7.97594
7.20019
6.43018
5.66494
4.90351
4.14502
3.38877
2.63418
1.88078
1.12817
0.376006
11.7462
10.8111
9.91084
9.0471
8.21064
7.39373
6.59093
5.79847
5.01366
4.23457
3.45973
2.68802
1.91854
1.15055
0.383425
10.0469
10.1407
10.2342
10.3273
10.4197
10.5114
10.6021
10.6918
10.7805
10.8682
10.9553
11.0426
11.1318
11.2268
11.3386
10.0482
10.1446
10.2407
10.3364
10.4314
10.5256
10.6188
10.7109
10.8019
10.8918
10.9808
11.0697
11.1601
11.2553
11.3609
10.0496
10.1487
10.2475
10.3458
10.4435
10.5404
10.6362
10.7308
10.824
10.9159
11.0063
11.0958
11.1852
11.2764
11.3718
10.051
10.153
10.2546
10.3558
10.4563
10.5559
10.6544
10.7516
10.8471
10.9409
11.0325
11.1219
11.2091
11.2945
11.3793
10.0525
10.1574
10.262
10.3662
10.4696
10.5722
10.6735
10.7734
10.8715
10.9673
11.0602
11.1495
11.234
11.3131
11.3866
10.0541
10.1621
10.2698
10.3771
10.4836
10.5892
10.6937
10.7965
10.8974
10.9957
11.0905
11.1802
11.2629
11.3355
11.3959
10.0557
10.1669
10.2779
10.3884
10.4982
10.6071
10.7149
10.821
10.9252
11.0266
11.1241
11.2159
11.2986
11.3662
11.411
10.0574
10.172
10.2863
10.4002
10.5135
10.6259
10.7371
10.8469
10.9547
11.06
11.1618
11.258
11.3447
11.4129
11.4419
10.0591
10.1772
10.295
10.4125
10.5293
10.6453
10.7604
10.874
10.9861
11.096
11.2032
11.3066
11.4037
11.4867
11.5208
10.0609
10.1826
10.304
10.4251
10.5457
10.6655
10.7845
10.9023
11.0188
11.1338
11.2472
11.3594
11.4725
11.5943
11.7609
10.0627
10.1881
10.3133
10.4381
10.5625
10.6863
10.8094
10.9315
11.0526
11.1727
11.292
11.4117
11.535
11.6709
11.8409
10.0646
10.1937
10.3227
10.4514
10.5798
10.7076
10.8349
10.9614
11.0872
11.2121
11.3366
11.4614
11.5888
11.7238
11.8744
10.0665
10.1995
10.3323
10.465
10.5974
10.7293
10.8609
10.9918
11.1222
11.2518
11.3808
11.5092
11.6374
11.7657
11.8946
10.0685
10.2053
10.3421
10.4788
10.6152
10.7514
10.8872
11.0227
11.1576
11.292
11.4254
11.5573
11.6858
11.8071
11.9143
10.0704
10.2112
10.352
10.4926
10.6332
10.7736
10.9138
11.0538
11.1935
11.3327
11.4711
11.6075
11.7392
11.8583
11.9458
10.0724
10.2171
10.3619
10.5066
10.6513
10.7959
10.9405
11.0851
11.2296
11.374
11.518
11.6611
11.8012
11.9313
12.0194
10.0743
10.2231
10.3718
10.5205
10.6694
10.8183
10.9673
11.1164
11.2658
11.4155
11.5656
11.7166
11.8703
12.0333
12.2374
10.0763
10.229
10.3816
10.5344
10.6874
10.8405
10.9939
11.1476
11.3018
11.4566
11.6125
11.7703
11.9327
12.1069
12.3113
10.0783
10.2348
10.3914
10.5482
10.7052
10.8625
11.0202
11.1784
11.3373
11.497
11.6579
11.8207
11.9869
12.1594
12.3438
10.0802
10.2406
10.4011
10.5619
10.7229
10.8843
11.0462
11.2088
11.3721
11.5365
11.702
11.8688
12.0366
12.2036
12.3662
10.0821
10.2463
10.4107
10.5753
10.7402
10.9056
11.0717
11.2385
11.4062
11.5751
11.7452
11.9163
12.0866
12.2509
12.3943
10.084
10.2519
10.42
10.5884
10.7572
10.9266
11.0966
11.2675
11.4395
11.6129
11.7877
11.9641
12.1409
12.3127
12.4542
10.0858
10.2574
10.4292
10.6013
10.7738
10.947
11.1209
11.2958
11.4719
11.6495
11.8292
12.0116
12.1985
12.3955
12.6274
10.0876
10.2627
10.4381
10.6138
10.79
10.9668
11.1445
11.3232
11.5031
11.6848
11.8686
12.0559
12.249
12.4541
12.6858
10.0893
10.2679
10.4468
10.626
10.8057
10.9861
11.1673
11.3496
11.5332
11.7184
11.9057
12.0961
12.2911
12.4941
12.7105
10.091
10.273
10.4552
10.6378
10.8209
11.0047
11.1894
11.3751
11.562
11.7505
11.9407
12.1329
12.3275
12.5249
12.725
10.0926
10.2779
10.4634
10.6493
10.8357
11.0228
11.2107
11.3997
11.5898
11.7813
11.9741
12.168
12.3621
12.5537
12.7384
10.0942
10.2826
10.4713
10.6603
10.8499
11.0402
11.2313
11.4234
11.6167
11.8112
12.0068
12.203
12.3981
12.5873
12.7585
10.0957
10.2872
10.4789
10.671
10.8636
11.057
11.2511
11.4463
11.6426
11.8402
12.039
12.2387
12.4383
12.6332
12.8037
10.0972
10.2916
10.4863
10.6813
10.8769
11.0731
11.2703
11.4684
11.6677
11.8683
12.0704
12.2745
12.4817
12.696
12.9364
10.0986
10.2958
10.4933
10.6912
10.8896
11.0887
11.2887
11.4896
11.6918
11.8953
12.1005
12.3082
12.52
12.7406
12.9811
10.0999
10.2999
10.5001
10.7007
10.9018
11.1036
11.3063
11.51
11.7148
11.921
12.1288
12.3388
12.5521
12.7712
13.0001
10.1012
10.3038
10.5066
10.7098
10.9135
11.118
11.3232
11.5295
11.7369
11.9456
12.1556
12.3671
12.5802
12.795
13.0113
10.1025
10.3075
10.5128
10.7185
10.9247
11.1317
11.3395
11.5482
11.7581
11.9691
12.1813
12.3943
12.6071
12.8176
13.022
10.1037
10.3111
10.5187
10.7268
10.9354
11.1448
11.3549
11.5661
11.7784
11.9919
12.2064
12.4214
12.6355
12.8444
13.0383
10.1048
10.3145
10.5244
10.7347
10.9456
11.1572
11.3697
11.5832
11.7979
12.0138
12.231
12.4492
12.6673
12.8817
13.0757
10.1059
10.3177
10.5297
10.7422
10.9552
11.169
11.3837
11.5995
11.8165
12.0349
12.2549
12.4768
12.7017
12.933
13.1864
10.1069
10.3207
10.5348
10.7492
10.9643
11.1802
11.397
11.6149
11.834
12.0547
12.2773
12.5024
12.7317
12.9689
13.2233
10.1078
10.3235
10.5395
10.7559
10.9729
11.1907
11.4094
11.6293
11.8505
12.0733
12.2979
12.5251
12.756
12.9926
13.2385
10.1087
10.3262
10.5439
10.7621
10.9809
11.2005
11.421
11.6427
11.8658
12.0904
12.3168
12.5452
12.7761
13.01
13.2468
10.1095
10.3286
10.548
10.7678
10.9883
11.2095
11.4318
11.6552
11.88
12.1062
12.3341
12.5635
12.7942
13.0251
13.2538
10.1103
10.3309
10.5518
10.7731
10.9951
11.2179
11.4417
11.6667
11.8931
12.1209
12.3502
12.5809
12.8121
13.0416
13.2635
10.1109
10.3329
10.5552
10.7779
11.0013
11.2255
11.4508
11.6773
11.9051
12.1345
12.3654
12.5978
12.8312
13.0632
13.2846
10.1116
10.3348
10.5583
10.7823
11.0069
11.2324
11.459
11.6868
11.9161
12.1469
12.3795
12.614
12.851
13.0922
13.346
10.1121
10.3364
10.561
10.7861
11.0119
11.2386
11.4663
11.6954
11.9259
12.158
12.3921
12.6285
12.8679
13.1123
13.3665
10.1126
10.3378
10.5634
10.7895
11.0162
11.2439
11.4727
11.7028
11.9344
12.1678
12.4031
12.6408
12.8812
13.1255
13.375
10.113
10.339
10.5654
10.7923
11.0199
11.2484
11.4781
11.7092
11.9418
12.1761
12.4124
12.651
12.8918
13.135
13.3798
10.1133
10.34
10.5671
10.7946
11.0229
11.2522
11.4826
11.7144
11.9478
12.183
12.4202
12.6595
12.9008
13.1432
13.3845
10.1136
10.3408
10.5683
10.7964
11.0252
11.255
11.486
11.7185
11.9525
12.1884
12.4264
12.6666
12.9089
13.1523
13.3929
10.1137
10.3413
10.5692
10.7977
11.0269
11.2571
11.4885
11.7213
11.9559
12.1924
12.4311
12.6722
12.916
13.1631
13.4164
10.1138
10.3416
10.5697
10.7983
11.0278
11.2582
11.4899
11.723
11.9579
12.1948
12.434
12.6759
12.9208
13.1697
13.4238
10.1139
10.3417
10.5698
10.7985
11.028
11.2584
11.4902
11.7234
11.9584
12.1955
12.435
12.6773
12.9229
13.1724
13.4261
10.1138
10.3415
10.5695
10.7981
11.0274
11.2578
11.4894
11.7225
11.9575
12.1945
12.434
12.6764
12.9222
13.1721
13.4262
10.1137
10.3411
10.5688
10.7971
11.0261
11.2562
11.4875
11.7204
11.955
12.1917
12.4309
12.673
12.9186
13.1688
13.4244
10.1134
10.3404
10.5677
10.7955
11.0241
11.2538
11.4846
11.7169
11.951
12.1872
12.4257
12.667
12.9118
13.1616
13.4193
10.1131
10.3395
10.5662
10.7934
11.0214
11.2504
11.4806
11.7122
11.9456
12.1809
12.4185
12.6586
12.9016
13.1487
13.4055
10.1128
10.3384
10.5643
10.7908
11.018
11.2462
11.4755
11.7063
11.9387
12.173
12.4094
12.648
12.8884
13.1289
13.3629
10.1123
10.3371
10.5621
10.7876
11.0139
11.2411
11.4694
11.6991
11.9305
12.1637
12.3989
12.6361
12.8749
13.1137
13.3482
10.1118
10.3355
10.5595
10.7839
11.0091
11.2352
11.4623
11.6908
11.9209
12.1529
12.3868
12.6231
12.8615
13.1014
13.3411
10.1112
10.3337
10.5565
10.7798
11.0037
11.2284
11.4543
11.6814
11.9101
12.1405
12.3732
12.6084
12.8469
13.0891
13.3354
10.1106
10.3317
10.5532
10.7751
10.9976
11.2209
11.4453
11.6708
11.8979
12.1266
12.3576
12.5915
12.8295
13.0739
13.3279
10.1098
10.3296
10.5496
10.77
10.991
11.2127
11.4354
11.6592
11.8844
12.1112
12.34
12.5717
12.8077
13.052
13.3136
10.1091
10.3272
10.5457
10.7644
10.9838
11.2038
11.4247
11.6466
11.8697
12.0942
12.3204
12.5487
12.7801
13.0179
13.2776
10.1082
10.3247
10.5415
10.7585
10.9761
11.1943
11.4132
11.6331
11.854
12.0761
12.2993
12.5236
12.7478
12.9684
13.169
10.1073
10.3221
10.537
10.7522
10.9679
11.1841
11.4011
11.6188
11.8375
12.057
12.2775
12.4984
12.7181
12.9328
13.1325
10.1064
10.3193
10.5323
10.7456
10.9593
11.1735
11.3883
11.6039
11.8202
12.0374
12.2553
12.4738
12.6919
12.9075
13.1168
10.1054
10.3164
10.5274
10.7387
10.9504
11.1625
11.3751
11.5883
11.8023
12.017
12.2327
12.4495
12.6673
12.8864
13.1068
10.1044
10.3133
10.5224
10.7316
10.9411
11.151
11.3613
11.5722
11.7837
11.996
12.2094
12.4243
12.6418
12.8645
13.0962
10.1034
10.3102
10.5171
10.7242
10.9316
11.1392
11.3472
11.5556
11.7646
11.9743
12.1849
12.3971
12.6127
12.8361
13.0784
10.1023
10.307
10.5118
10.7167
10.9218
11.1271
11.3327
11.5386
11.745
11.9518
12.1592
12.3676
12.578
12.7946
13.0359
10.1012
10.3037
10.5063
10.709
10.9118
11.1148
11.3179
11.5213
11.725
11.9288
12.1328
12.3366
12.539
12.736
12.9088
10.1001
10.3004
10.5008
10.7012
10.9017
11.1023
11.303
11.5038
11.7048
11.9057
12.1064
12.3064
12.5037
12.694
12.8661
10.099
10.2971
10.4952
10.6933
10.8914
11.0897
11.2879
11.4862
11.6845
11.8827
12.0806
12.2779
12.4733
12.6647
12.8478
10.0979
10.2937
10.4895
10.6853
10.8812
11.077
11.2728
11.4686
11.6643
11.8598
12.0552
12.2505
12.4457
12.641
12.8365
10.0968
10.2903
10.4838
10.6774
10.8709
11.0643
11.2577
11.4509
11.644
11.837
12.0299
12.2231
12.418
12.6171
12.825
10.0956
10.2869
10.4781
10.6694
10.8606
11.0517
11.2426
11.4334
11.6239
11.8141
12.0042
12.1946
12.3872
12.587
12.806
10.0945
10.2835
10.4725
10.6614
10.8503
11.0391
11.2277
11.416
11.6039
11.7913
11.9781
12.1645
12.3515
12.5435
12.7607
10.0934
10.2801
10.4668
10.6535
10.8401
11.0266
11.2129
11.3988
11.5842
11.7689
11.9523
12.1339
12.3121
12.4824
12.6251
10.0922
10.2767
10.4611
10.6456
10.8299
11.0142
11.1982
11.382
11.5651
11.7472
11.9278
12.1055
12.2782
12.4404
12.5805
10.0911
10.2733
10.4555
10.6377
10.8198
11.0019
11.1838
11.3655
11.5466
11.7267
11.9051
12.0807
12.2514
12.4136
12.5629
10.09
10.2699
10.4498
10.6298
10.8098
10.9897
11.1696
11.3493
11.5286
11.7072
11.8844
12.0593
12.2304
12.3958
12.5542
10.0888
10.2665
10.4441
10.6219
10.7997
10.9776
11.1555
11.3334
11.5112
11.6886
11.8652
12.0404
12.2132
12.3829
12.5489
10.0877
10.263
10.4384
10.6139
10.7895
10.9653
11.1414
11.3176
11.494
11.6705
11.847
12.023
12.1983
12.3723
12.545
10.0865
10.2595
10.4326
10.6058
10.7792
10.9529
11.127
11.3016
11.4767
11.6524
11.8289
12.0062
12.1841
12.3627
12.5415
10.0853
10.2559
10.4266
10.5975
10.7687
10.9403
11.1123
11.2851
11.4589
11.6338
11.8103
11.9888
12.1695
12.3527
12.5379
10.0841
10.2523
10.4206
10.5891
10.7579
10.9272
11.0972
11.268
11.4402
11.614
11.7903
11.9697
12.1531
12.3412
12.5337
10.0828
10.2485
10.4143
10.5804
10.7467
10.9136
11.0813
11.25
11.4202
11.5926
11.768
11.9478
12.1334
12.3266
12.5279
10.0816
10.2447
10.4079
10.5714
10.7352
10.8996
11.0646
11.2309
11.3987
11.569
11.7427
11.9217
12.1085
12.3064
12.5188
10.0802
10.2408
10.4014
10.5622
10.7233
10.8849
11.0472
11.2106
11.3755
11.5428
11.7137
11.8902
12.0757
12.2759
12.5012
10.0789
10.2368
10.3947
10.5528
10.7111
10.8697
11.029
11.1891
11.3506
11.5142
11.6808
11.8525
12.0325
12.2281
12.4597
12.4243
11.2242
10.2135
9.28719
8.4078
7.55815
6.72876
5.91379
5.10935
4.31272
3.52188
2.7353
1.95177
1.17028
0.389966
12.6387
11.468
10.43
9.4728
8.56634
7.6935
6.84399
6.01127
5.19089
4.37972
3.5754
2.77616
1.98055
1.18739
0.395644
12.7279
11.6197
10.5902
9.62313
8.7015
7.81258
6.94752
6.10014
5.26602
4.44192
3.62538
2.81447
2.00762
1.20351
0.400998
12.7727
11.7168
10.7069
9.74185
8.81388
7.91505
7.03873
6.17976
5.33415
4.49885
3.67143
2.84994
2.03276
1.21853
0.405989
12.7989
11.7817
10.7925
9.83474
8.90596
8.00183
7.11785
6.25005
5.3951
4.55028
3.71333
2.88239
2.05586
1.23235
0.41059
12.816
11.8272
10.8562
9.90741
8.98087
8.07457
7.18569
6.31138
5.44898
4.59621
3.75104
2.91177
2.07685
1.24494
0.414786
12.8279
11.8603
10.9045
9.96455
9.04167
8.13515
7.24338
6.36438
5.49616
4.63682
3.78465
2.93809
2.09574
1.2563
0.418578
12.8367
11.885
10.9416
10.0098
9.09104
8.18543
7.29214
6.40986
5.53712
4.67243
3.81434
2.96148
2.11258
1.26646
0.421973
12.8433
11.904
10.9706
10.0459
9.13123
8.22711
7.3332
6.44867
5.57247
4.70343
3.84036
2.9821
2.12749
1.27548
0.424989
12.8485
11.9189
10.9936
10.0749
9.16404
8.26166
7.36769
6.48165
5.60281
4.73026
3.86304
3.00015
2.1406
1.28342
0.427649
12.8525
11.9306
11.012
10.0983
9.19091
8.2903
7.39662
6.5096
5.62874
4.75336
3.88268
3.01586
2.15204
1.29037
0.429981
12.8557
11.94
11.0268
10.1174
9.213
8.31408
7.42086
6.53323
5.65084
4.77317
3.89961
3.02946
2.16198
1.29642
0.432013
12.8583
11.9476
11.0388
10.133
9.23121
8.33385
7.44118
6.55318
5.66961
4.79011
3.91416
3.04119
2.17058
1.30167
0.433775
12.8604
11.9538
11.0486
10.1459
9.24627
8.3503
7.4582
6.56999
5.68554
4.80454
3.92661
3.05127
2.17799
1.30619
0.435296
12.8621
11.9588
11.0567
10.1564
9.25875
8.36402
7.47247
6.58417
5.69902
4.81682
3.93724
3.0599
2.18434
1.31008
0.436605
12.8636
11.963
11.0633
10.1652
9.26911
8.37546
7.48443
6.59611
5.71043
4.82724
3.9463
3.06727
2.18978
1.31341
0.437728
12.8647
11.9664
11.0688
10.1724
9.27774
8.38503
7.49447
6.60616
5.72007
4.83608
3.954
3.07355
2.19442
1.31626
0.438688
12.8657
11.9692
11.0734
10.1785
9.28495
8.39303
7.5029
6.61463
5.72822
4.84358
3.96054
3.0789
2.19838
1.31869
0.439508
12.8665
11.9716
11.0772
10.1835
9.29097
8.39974
7.50998
6.62177
5.7351
4.84992
3.96609
3.08345
2.20175
1.32077
0.440207
12.8672
11.9736
11.0803
10.1877
9.29601
8.40537
7.51594
6.62779
5.74092
4.85529
3.97081
3.08731
2.20462
1.32253
0.440802
12.8677
11.9752
11.083
10.1913
9.30024
8.41011
7.52096
6.63287
5.74584
4.85985
3.9748
3.09059
2.20706
1.32403
0.441309
12.8682
11.9766
11.0852
10.1942
9.30381
8.4141
7.5252
6.63717
5.75001
4.86371
3.9782
3.09338
2.20914
1.32531
0.441741
12.8686
11.9778
11.0871
10.1967
9.30682
8.41748
7.52879
6.64081
5.75355
4.86699
3.98109
3.09576
2.21091
1.3264
0.442109
12.8689
11.9788
11.0887
10.1988
9.30937
8.42035
7.53185
6.64391
5.75656
4.86979
3.98355
3.09779
2.21242
1.32733
0.442424
12.8692
11.9796
11.09
10.2007
9.31155
8.42279
7.53445
6.64656
5.75914
4.87219
3.98567
3.09953
2.21371
1.32813
0.442694
12.8694
11.9803
11.0912
10.2022
9.31342
8.4249
7.5367
6.64884
5.76136
4.87425
3.98749
3.10103
2.21483
1.32882
0.442928
12.8697
11.9809
11.0922
10.2036
9.31504
8.42672
7.53864
6.65083
5.76329
4.87605
3.98907
3.10234
2.21581
1.32942
0.44313
12.8698
11.9815
11.0931
10.2047
9.31647
8.42833
7.54035
6.65257
5.76499
4.87762
3.99046
3.10348
2.21666
1.32995
0.443308
12.87
11.982
11.0939
10.2058
9.31775
8.42976
7.54188
6.65412
5.7665
4.87903
3.9917
3.10451
2.21742
1.33042
0.443467
12.8702
11.9824
11.0946
10.2068
9.31891
8.43107
7.54327
6.65554
5.76787
4.8803
3.99282
3.10543
2.21811
1.33084
0.44361
12.8703
11.9829
11.0953
10.2077
9.32
8.4323
7.54457
6.65685
5.76915
4.88148
3.99386
3.10628
2.21874
1.33123
0.443742
12.8704
11.9833
11.096
10.2086
9.32106
8.43347
7.54582
6.65811
5.77037
4.88261
3.99485
3.10709
2.21934
1.3316
0.443867
12.8706
11.9837
11.0966
10.2094
9.32211
8.43464
7.54705
6.65935
5.77156
4.8837
3.99581
3.10788
2.21992
1.33196
0.443987
12.8707
11.9841
11.0973
10.2104
9.3232
8.43584
7.5483
6.6606
5.77276
4.8848
3.99676
3.10865
2.2205
1.33231
0.444106
12.8709
11.9846
11.0981
10.2113
9.32436
8.43711
7.54962
6.66191
5.774
4.88593
3.99774
3.10945
2.22108
1.33267
0.444226
12.8711
11.9851
11.0989
10.2124
9.32563
8.4385
7.55105
6.6633
5.77531
4.88712