/*--------------------------------*- C++ -*----------------------------------*\
| =========                 |                                                 |
| \\      /  F ield         | OpenFOAM: The Open Source CFD Toolbox           |
|  \\    /   O peration     | Version:  5.x                                   |
|   \\  /    A nd           | Web:      www.OpenFOAM.org                      |
|    \\/     M anipulation  |                                                 |
\*---------------------------------------------------------------------------*/
FoamFile
{
    version     2.0;
    format      ascii;
    class       volScalarField;
    location    "8.4";
    object      T;
}
// * * * * * * * * * * * * * * * * * * * * * * * * * * * * * * * * * * * * * //

dimensions      [0 0 0 1 0 0 0];

internalField   nonuniform List<scalar> 
6300
(
11.7866
15.3547
18.9071
22.4333
25.9228
29.3652
32.7497
36.066
39.3037
42.4526
45.5031
48.4461
51.2733
53.9779
56.5541
11.7918
15.3702
18.9329
22.4695
25.9694
29.4222
32.8171
36.1437
39.3913
42.5499
45.6093
48.5603
51.3945
54.1045
56.6845
11.8021
15.4011
18.9845
22.5419
26.0626
29.5363
32.952
36.2992
39.567
42.7449
45.8225
48.7899
51.6382
54.3595
56.9473
11.8175
15.4474
19.0618
22.6503
26.2024
29.7075
33.1547
36.533
39.8315
43.039
46.1445
49.1373
52.0074
54.7462
57.3462
11.838
15.509
19.1647
22.7947
26.3886
29.9358
33.4252
36.8458
40.1859
43.4339
46.5777
49.6057
52.5065
55.2698
57.8871
11.8636
15.5857
19.2928
22.9747
26.6209
30.221
33.7638
37.2379
40.6313
43.9315
47.1254
50.1998
53.1414
55.9379
58.5786
11.894
15.6773
19.4458
23.1897
26.8989
30.5627
34.1702
37.7097
41.1688
44.5342
47.7913
50.9251
53.9198
56.76
59.4318
11.9293
15.7833
19.623
23.4391
27.2215
30.9599
34.6437
38.2609
41.799
45.2436
48.5792
51.788
54.851
57.7485
60.4619
11.9692
15.9032
19.8237
23.7215
27.5873
31.4112
35.1826
38.8902
42.5212
46.0609
49.4922
52.7951
55.9461
58.9194
61.6889
12.0135
16.0364
20.0466
24.0355
27.9944
31.914
35.7845
39.5951
43.3335
46.9852
50.5323
53.9524
57.2171
60.2921
63.1395
12.062
16.1821
20.2904
24.3791
28.4401
32.4651
36.4453
40.371
44.2312
48.0126
51.6979
55.2633
58.676
61.8906
64.8502
12.1143
16.3392
20.5534
24.7498
28.9212
33.0602
37.1595
41.2112
45.2065
49.1348
52.9816
56.7254
60.331
63.7421
66.8726
12.17
16.5068
20.8339
25.145
29.4338
33.6942
37.9203
42.1066
46.2474
50.3369
54.3669
58.3237
62.1788
65.872
69.281
12.2289
16.6838
21.1301
25.5619
29.9741
34.3615
38.72
43.0462
47.3384
51.5968
55.8237
60.0217
64.1867
68.2839
72.1797
12.2906
16.8693
21.4401
25.998
30.5383
35.0569
39.5508
44.0185
48.4617
52.8868
57.3077
61.7509
66.2601
70.8952
75.6697
58.7944
60.738
62.5882
64.3458
66.0124
67.5905
69.0835
70.4953
71.8304
73.0937
74.2907
75.4267
76.5076
77.539
78.5268
79.4765
80.3939
81.2844
82.1533
83.0056
83.8462
84.6797
85.5101
86.3415
87.1772
88.0203
88.8732
89.7379
90.616
91.5082
92.4151
93.3364
94.2716
95.2199
96.1799
97.1501
98.1289
99.1142
100.104
101.096
102.087
103.075
104.056
105.029
105.989
106.934
107.861
108.768
109.651
110.51
111.341
112.142
112.912
113.648
114.349
115.011
115.632
116.21
116.743
117.227
117.659
118.038
118.359
118.619
118.816
118.946
119.004
118.986
118.888
118.704
118.429
118.056
117.579
116.991
116.285
115.453
114.489
113.383
112.129
110.718
109.143
107.397
105.471
103.361
101.059
98.5623
95.8665
92.9701
89.8728
86.5762
58.9266
60.8705
62.7196
64.4747
66.1377
67.711
69.1982
70.6035
71.9313
73.187
74.3759
75.5037
76.5763
77.5994
78.5789
79.5205
80.43
81.3129
82.1744
83.0198
83.8538
84.6811
85.506
86.3324
87.1638
88.0032
88.8532
89.7158
90.5925
91.4842
92.3912
93.3132
94.2497
95.1998
96.1619
97.1347
98.1163
99.1047
100.098
101.093
102.088
103.08
104.066
105.043
106.007
106.956
107.887
108.797
109.684
110.545
111.379
112.184
112.957
113.696
114.4
115.065
115.691
116.273
116.809
117.297
117.734
118.116
118.442
118.707
118.909
119.044
119.109
119.098
119.008
118.832
118.566
118.202
117.735
117.157
116.462
115.641
114.688
113.594
112.351
110.951
109.387
107.651
105.735
103.632
101.338
98.8455
96.1524
93.2564
90.1569
86.8556
59.193
61.1374
62.9842
64.7343
66.3898
67.9533
69.4288
70.8206
72.1339
73.374
74.5466
75.6578
76.7136
77.7199
78.6828
79.6082
80.5018
81.3693
82.2161
83.0474
83.8682
84.6832
85.4969
86.3132
87.1358
87.9678
88.812
89.6704
90.5445
91.4351
92.3424
93.2661
94.2053
95.1589
96.1255
97.1033
98.0904
99.085
100.085
101.088
102.091
103.091
104.085
105.071
106.044
107.001
107.939
108.857
109.75
110.617
111.457
112.267
113.046
113.792
114.502
115.175
115.807
116.397
116.941
117.437
117.882
118.273
118.607
118.882
119.095
119.241
119.318
119.322
119.246
119.087
118.838
118.494
118.046
117.489
116.815
116.017
115.086
114.014
112.794
111.417
109.875
108.16
106.263
104.178
101.897
99.4148
96.7276
93.8326
90.7289
87.4181
59.5976
61.5428
63.386
65.1283
66.772
68.3203
69.7776
71.1487
72.4394
73.6556
74.8035
75.8893
76.9196
77.9004
78.8382
79.739
80.6086
81.4529
82.2774
83.0874
83.8882
84.6845
85.481
86.282
87.0912
87.9121
88.7475
89.5995
90.4697
91.3588
92.2669
93.1934
94.137
95.0964
96.0697
97.0551
98.0507
99.0546
100.065
101.079
102.094
103.107
104.115
105.114
106.1
107.069
108.019
108.947
109.849
110.725
111.574
112.392
113.18
113.935
114.655
115.338
115.982
116.583
117.139
117.647
118.104
118.507
118.855
119.144
119.371
119.535
119.63
119.654
119.602
119.467
119.245
118.929
118.512
117.986
117.345
116.579
115.682
114.646
113.46
112.118
110.61
108.927
107.06
105.001
102.742
100.277
97.5991
94.7061
91.5964
88.2712
60.1467
62.093
63.9311
65.6623
67.2893
68.8162
70.2479
71.5904
72.8499
74.0332
75.1471
76.1984
77.194
78.1405
79.0443
79.9118
80.7492
81.5622
82.3566
83.138
83.9117
84.6827
85.456
86.236
87.027
87.8326
88.6559
89.4994
90.3646
91.2522
92.162
93.0928
94.043
95.0106
95.9932
96.9889
97.9957
99.0118
100.035
101.064
102.096
103.127
104.154
105.171
106.176
107.162
108.128
109.069
109.983
110.87
111.729
112.558
113.356
114.123
114.857
115.555
116.214
116.831
117.403
117.926
118.399
118.819
119.183
119.49
119.737
119.922
120.042
120.093
120.071
119.97
119.784
119.506
119.129
118.646
118.048
117.328
116.477
115.487
114.349
113.054
111.593
109.955
108.13
106.109
103.882
101.441
98.7777
95.8887
92.7714
89.4265
60.8491
62.797
64.6281
66.3442
67.9487
69.4468
70.8446
72.1491
73.3678
74.5083
75.5783
76.5853
77.5366
78.4393
79.3001
80.1256
80.922
81.6955
82.4519
83.197
83.9361
84.6749
85.4183
86.1714
86.9387
87.7246
88.5324
89.3651
90.2243
91.1106
92.0235
92.9612
93.9209
94.8998
95.8948
96.9035
97.924
98.955
99.9952
101.043
102.096
103.15
104.202
105.245
106.273
107.282
108.267
109.225
110.154
111.053
111.923
112.764
113.575
114.357
115.107
115.823
116.502
117.139
117.732
118.275
118.767
119.206
119.59
119.917
120.187
120.398
120.548
120.633
120.649
120.591
120.451
120.222
119.897
119.467
118.924
118.261
117.468
116.537
115.46
114.227
112.826
111.248
109.48
107.51
105.327
102.92
100.279
97.3971
94.2711
90.901
61.7171
63.667
65.4887
67.1845
68.7593
70.2195
71.5732
72.829
73.9957
75.0824
76.0977
77.0498
77.9466
78.7957
79.604
80.3784
81.1252
81.8507
82.5609
83.2615
83.9585
84.6574
85.3638
86.0832
86.821
87.5818
88.3702
89.1894
90.0417
90.9278
91.8464
92.7946
93.7682
94.7625
95.7734
96.7978
97.834
98.8817
99.9407
101.011
102.09
103.174
104.259
105.335
106.396
107.434
108.443
109.419
110.363
111.274
112.155
113.007
113.833
114.632
115.402
116.142
116.846
117.509
118.127
118.694
119.208
119.668
120.073
120.424
120.719
120.96
121.144
121.269
121.332
121.325
121.242
121.073
120.811
120.446
119.97
119.375
118.653
117.795
116.793
115.635
114.312
112.81
111.116
109.215
107.092
104.732
102.123
99.2541
96.1193
92.7179
62.767
64.7195
66.5284
68.1971
69.7324
71.1434
72.4405
73.6346
74.7366
75.7569
76.7054
77.5913
78.4228
79.2081
79.9542
80.6682
81.3564
82.0252
82.6806
83.3286
83.9751
84.6261
85.2877
85.9659
86.6669
87.3966
88.1605
88.9631
89.8076
90.695
91.6234
92.5882
93.5824
94.5983
95.6293
96.6716
97.7243
98.7887
99.8672
100.962
102.072
103.195
104.323
105.445
106.548
107.623
108.66
109.658
110.615
111.536
112.425
113.286
114.125
114.943
115.738
116.508
117.245
117.942
118.59
119.185
119.724
120.206
120.632
121.005
121.326
121.598
121.82
121.992
122.11
122.165
122.151
122.056
121.869
121.582
121.184
120.67
120.03
119.258
118.344
117.279
116.051
114.646
113.047
111.237
109.194
106.901
104.338
101.491
98.3484
94.9088
64.0209
65.9767
67.7677
69.3995
70.8822
72.2289
73.4536
74.5704
75.5926
76.5324
77.401
78.2083
78.9633
79.6741
80.3481
80.9923
81.6129
82.2163
82.8084
83.3951
83.9825
84.5769
85.1848
85.8129
86.4686
87.1592
87.892
88.6735
89.5088
90.4
91.345
92.3364
93.3623
94.409
95.4658
96.5274
97.5944
98.6719
99.7671
100.887
102.034
103.206
104.393
105.578
106.74
107.861
108.932
109.95
110.916
111.84
112.729
113.595
114.444
115.282
116.108
116.917
117.699
118.439
119.127
119.754
120.318
120.82
121.264
121.656
122
122.303
122.566
122.79
122.972
123.103
123.173
123.166
123.069
122.871
122.564
122.14
121.594
120.92
120.11
119.155
118.042
116.757
115.28
113.588
111.655
109.454
106.96
104.148
101.003
97.5171
65.5092
67.469
69.2341
70.8142
72.2257
73.4877
74.6198
75.64
76.5646
77.4079
78.1821
78.898
79.5647
80.1904
80.7824
81.3475
81.8917
82.4209
82.941
83.4577
83.977
84.5054
85.0497
85.6175
86.2172
86.8582
87.5503
88.3035
89.1265
90.0247
90.9968
92.0319
93.109
94.2022
95.2922
96.3721
97.4462
98.5265
99.6287
100.768
101.956
103.192
104.463
105.739
106.985
108.169
109.278
110.311
111.276
112.189
113.066
113.923
114.776
115.633
116.498
117.363
118.208
119.009
119.746
120.409
120.996
121.513
121.968
122.371
122.732
123.061
123.364
123.645
123.902
124.127
124.3
124.401
124.41
124.314
124.106
123.782
123.339
122.773
122.081
121.253
120.278
119.141
117.818
116.282
114.497
112.428
110.035
107.283
104.144
100.603
67.2755
69.2397
70.9646
72.4694
73.7819
74.9313
75.9445
76.8447
77.6513
78.3803
79.0448
79.6557
80.2223
80.7525
81.2529
81.7299
82.1891
82.6359
83.0756
83.5137
83.9558
84.4081
84.8779
85.3731
85.9036
86.4806
87.1177
87.8299
88.6329
89.5398
90.5546
91.6639
92.8294
93.9965
95.13
96.222
97.2857
98.346
99.4332
100.578
101.804
103.124
104.52
105.942
107.314
108.583
109.731
110.765
111.708
112.586
113.425
114.254
115.096
115.97
116.886
117.833
118.777
119.667
120.469
121.169
121.772
122.291
122.742
123.142
123.506
123.851
124.189
124.53
124.877
125.219
125.528
125.765
125.898
125.915
125.813
125.592
125.256
124.806
124.242
123.558
122.745
121.787
120.66
119.329
117.747
115.863
113.623
110.972
107.86
104.255
69.3863
71.3525
73.0095
74.3992
75.5706
76.5685
77.4294
78.1816
78.8471
79.4428
79.9819
80.4748
80.9299
81.3545
81.7545
82.1353
82.5017
82.8584
83.21
83.5611
83.9168
84.283
84.6664
85.0753
85.5199
86.0137
86.5739
87.2226
87.987
88.8964
89.9734
91.2118
92.5442
93.8364
95.0243
96.1095
97.1268
98.1236
99.1519
100.265
101.516
102.942
104.538
106.215
107.788
109.166
110.342
111.349
112.231
113.033
113.798
114.562
115.366
116.245
117.224
118.302
119.418
120.449
121.334
122.065
122.666
123.164
123.586
123.959
124.305
124.647
125.005
125.403
125.854
126.355
126.857
127.272
127.55
127.685
127.685
127.563
127.333
127.001
126.572
126.045
125.416
124.674
123.794
122.733
121.427
119.807
117.8
115.323
112.283
108.607
71.9544
73.9081
75.4372
76.6407
77.6067
78.4006
79.0681
79.6408
80.1409
80.5843
80.9828
81.3453
81.6789
81.9892
82.281
82.5586
82.8255
83.0855
83.3421
83.5989
83.8601
84.1304
84.4155
84.7229
85.0626
85.4482
85.8996
86.4458
87.1291
88.0088
89.1567
90.6214
92.314
93.823
95.0632
96.0917
96.9941
97.8525
98.7445
99.7524
100.972
102.51
104.436
106.632
108.54
110.038
111.194
112.107
112.865
113.533
114.165
114.811
115.525
116.37
117.417
118.713
120.179
121.439
122.414
123.146
123.703
124.14
124.498
124.812
125.107
125.413
125.762
126.194
126.758
127.482
128.309
128.97
129.406
129.644
129.727
129.688
129.551
129.331
129.038
128.675
128.247
127.754
127.183
126.489
125.555
124.303
122.65
120.478
117.622
113.889
75.2065
77.0727
78.3311
79.2215
79.8881
80.4121
80.8407
81.2019
81.5136
81.7877
82.0328
82.2548
82.4586
82.6477
82.8254
82.9942
83.1566
83.3148
83.471
83.6276
83.7874
83.9534
84.1297
84.3214
84.5362
84.7851
85.0861
85.4687
85.9855
86.7321
87.8806
89.6997
92.3449
94.1935
95.4041
96.252
96.9215
97.5297
98.1668
98.9311
99.9668
101.515
103.943
107.462
109.877
111.398
112.39
113.087
113.624
114.079
114.508
114.958
115.491
116.2
117.247
118.877
121.23
122.837
123.838
124.477
124.909
125.224
125.472
125.685
125.89
126.113
126.393
126.794
127.425
128.459
129.994
130.99
131.543
131.823
131.939
131.949
131.885
131.764
131.598
131.395
131.169
130.941
130.745
130.585
130.137
129.372
128.243
126.617
124.217
120.566
79.7311
81.11
81.7523
82.1222
82.3718
82.5586
82.7075
82.8314
82.9375
83.0304
83.1131
83.188
83.2565
83.3201
83.3797
83.4364
83.4909
83.544
83.5964
83.6491
83.7029
83.7589
83.8186
83.8839
83.9577
84.0444
84.152
84.2954
84.508
84.8738
85.6361
87.5855
93.5199
95.4796
96.2639
96.6658
96.934
97.1621
97.4028
97.7154
98.2203
99.2501
101.875
109.877
112.498
113.518
114.007
114.295
114.497
114.661
114.815
114.983
115.198
115.541
116.234
117.993
123.352
125.104
125.781
126.1
126.281
126.401
126.491
126.568
126.642
126.728
126.847
127.056
127.509
128.711
132.452
133.641
134.068
134.236
134.3
134.313
134.296
134.259
134.206
134.145
134.089
134.079
134.249
135.094
135.172
134.961
134.55
133.865
132.612
129.846
82.7344
78.2692
73.5422
68.5683
63.3653
57.9522
52.3495
46.5781
40.6592
34.6137
28.4623
22.2252
15.9219
9.57178
3.19369
83.0059
78.5286
73.7866
68.7954
63.5733
58.14
52.5165
46.7242
40.7845
34.7186
28.5472
22.2905
15.9682
9.59944
3.20289
83.5522
79.0504
74.2778
69.2513
63.9904
58.5162
52.8507
47.0161
41.0346
34.9278
28.7164
22.4209
16.0606
9.65453
3.2212
84.3803
79.8405
75.0205
69.9394
64.6189
59.0819
53.3523
47.4536
41.4089
35.2403
28.969
22.6152
16.1982
9.7366
3.24847
85.5011
80.9081
76.0219
70.8648
65.4616
59.8384
54.0212
48.0356
41.9057
35.6544
29.3032
22.872
16.3799
9.8449
3.28445
86.9301
82.2661
77.2919
72.0341
66.5224
60.7868
54.8569
48.7602
42.5226
36.1675
29.7163
23.189
16.604
9.97836
3.32877
88.6883
83.9319
78.8429
73.4551
67.8048
61.9277
55.8575
49.6244
43.2557
36.7753
30.2047
23.5631
16.868
10.1355
3.38094
90.804
85.9276
80.6902
75.1363
69.3118
63.2599
57.0191
50.6226
44.099
37.4722
30.7632
23.9901
17.1689
10.3144
3.4403
93.3154
88.2817
82.8514
77.0856
71.044
64.779
58.3345
51.7465
45.0439
38.2502
31.3849
24.4643
17.5026
10.5127
3.50604
96.274
91.0297
85.3453
79.3085
72.9973
66.4754
59.7917
52.9833
46.0785
39.0986
32.0608
24.9787
17.8641
10.7272
3.57716
99.7511
94.2147
88.1891
81.8031
75.1592
68.3315
61.3716
54.3151
47.1866
40.0038
32.7799
25.525
18.2475
10.9545
3.65248
103.848
97.8861
91.3903
84.553
77.5024
70.3176
63.0463
55.717
48.3475
40.9489
33.5289
26.0931
18.6457
11.1905
3.73066
108.714
102.088
94.9303
87.5136
79.9773
72.388
64.7768
57.1575
49.5359
41.9141
34.2928
26.6718
19.0512
11.4307
3.81023
114.559
106.817
98.7264
90.5912
82.5025
74.4781
66.5135
58.5985
50.7229
42.8775
35.0551
27.2495
19.456
11.6705
3.88968
121.587
111.892
102.564
93.6196
84.9607
76.5061
68.1984
59.9984
51.878
43.8167
35.7994
27.8143
19.8522
11.9054
3.96751
12.3496
17.0463
21.7358
26.4134
31.0747
35.7162
40.3352
44.9311
49.5068
54.0715
58.646
63.2735
68.0434
73.159
79.1818
12.4048
17.212
22.0125
26.8018
31.5757
36.3305
41.0636
45.7738
50.4634
55.1405
59.8247
64.5575
69.4229
74.5854
80.3389
12.4615
17.3823
22.2967
27.2004
32.0892
36.9592
41.807
46.63
51.4277
56.2034
60.9682
65.7479
70.5946
75.5997
80.8801
12.5197
17.5569
22.5881
27.6089
32.6153
37.6027
42.5668
47.5028
52.4061
57.2727
62.1
66.8902
71.6548
76.421
81.2287
12.5792
17.7356
22.8862
28.0271
33.1539
38.2618
43.3452
48.3972
53.409
58.3679
63.2563
68.0489
72.7121
77.2119
81.5407
12.6399
17.9181
23.1909
28.4546
33.705
38.9371
44.1445
49.3187
54.4473
59.5109
64.4778
69.2958
73.8813
78.1196
81.9166
12.7019
18.104
23.5015
28.8909
34.2683
39.6287
44.9659
50.2709
55.5297
60.7197
65.8014
70.7025
75.2901
79.3319
82.5095
12.7648
18.2931
23.8175
29.3351
34.8426
40.3358
45.8089
51.254
56.6587
62.0025
67.2488
72.3252
77.0762
81.1425
83.7125
12.8285
18.4846
24.1377
29.7858
35.4263
41.0559
46.6704
52.2641
57.8287
63.3518
68.8126
74.1724
79.336
83.9903
86.7744
12.8928
18.6779
24.4612
30.2414
36.0169
41.7857
47.5455
53.2934
59.0264
64.7427
70.4453
76.1541
81.9477
88.135
96.0967
12.9575
18.8722
24.7864
30.6997
36.6114
42.521
48.4278
54.3318
60.2345
66.1418
72.072
78.0751
84.2842
91.0453
99.1842
13.0222
19.0667
25.112
31.1585
37.2068
43.2573
49.3111
55.3701
61.438
67.5236
73.6465
79.8512
86.2355
92.9969
100.448
13.0866
19.2605
25.4364
31.6157
37.7998
43.9905
50.1899
56.4009
62.628
68.878
75.1626
81.501
87.9228
94.4676
101.165
13.1505
19.4527
25.758
32.0689
38.3876
44.7168
51.0596
57.4195
63.8006
70.2069
76.6397
83.0909
89.5228
95.8305
101.807
13.2136
19.6424
26.0755
32.5161
38.9674
45.4328
51.9164
58.4222
64.9544
71.5157
78.1025
84.6922
91.207
97.421
102.767
13.2757
19.8288
26.3874
32.9554
39.5366
46.1354
52.7566
59.4053
66.0867
72.8053
79.5616
86.3438
93.0982
99.6119
104.94
13.3364
20.0112
26.6925
33.3848
40.0928
46.8215
53.5767
60.3644
67.1918
74.067
81.0009
88.0126
95.1544
102.624
111.333
13.3955
20.1889
26.9896
33.8028
40.6338
47.4884
54.373
61.2947
68.2622
75.2865
82.3844
89.5892
96.9811
104.772
113.492
13.4528
20.3612
27.2777
34.2079
41.1577
48.1336
55.1424
62.192
69.2918
76.4531
83.6918
91.034
98.5285
106.273
114.426
13.5082
20.5276
27.5558
34.5987
41.6628
48.7549
55.8823
63.0533
70.2772
77.5643
84.9256
92.3708
99.9005
107.487
115.037
13.5616
20.6877
27.8232
34.9743
42.1477
49.3506
56.5907
63.8765
71.2172
78.6223
86.0994
93.6468
101.231
108.723
115.757
13.6127
20.8412
28.0793
35.3338
42.6114
49.9196
57.2663
64.6602
72.111
79.6287
87.2225
94.8953
102.623
110.275
117.226
13.6615
20.9877
28.3238
35.6766
43.0531
50.4608
57.9079
65.4031
72.9567
80.5804
88.2888
96.1032
104.066
112.312
121.425
13.7079
21.127
28.5562
36.0022
43.4723
50.9738
58.5148
66.1042
73.7523
81.4716
89.2795
97.2057
105.311
113.743
122.843
13.7519
21.2591
28.7764
36.3106
43.8688
51.4583
59.0869
66.7632
74.4969
82.2995
90.1862
98.1813
106.328
114.706
123.437
13.7936
21.384
28.9845
36.6018
44.2427
51.9146
59.6247
67.3811
75.1922
83.067
91.0157
99.0496
107.181
115.423
123.776
13.8328
21.5017
29.1805
36.8758
44.5944
52.3432
60.1292
67.9596
75.8415
83.7816
91.7841
99.8476
107.956
116.061
124.067
13.8697
21.6123
29.3646
37.1331
44.9243
52.7449
60.6016
68.5009
76.449
84.451
92.508
100.612
108.73
116.766
124.477
13.9042
21.7158
29.5369
37.3739
45.233
53.1206
61.0432
69.0068
77.0176
85.0803
93.1973
101.365
109.56
117.692
125.369
13.9365
21.8125
29.6979
37.5986
45.521
53.471
61.4549
69.4787
77.5484
85.6699
93.8495
102.096
110.431
118.932
127.959
13.9665
21.9025
29.8476
37.8077
45.7889
53.7969
61.8378
69.9173
78.0416
86.2174
94.4531
102.764
111.185
119.803
128.83
13.9944
21.986
29.9865
38.0016
46.0372
54.0989
62.1925
70.3234
78.4976
86.7212
95.0023
103.354
111.8
120.389
129.193
14.0201
22.0631
30.1147
38.1807
46.2665
54.3778
62.5199
70.6981
78.9176
87.1834
95.5006
103.875
112.313
120.821
129.399
14.0437
22.1339
30.2326
38.3452
46.4773
54.6342
62.821
71.0427
79.3038
87.6079
95.9572
104.35
112.775
121.203
129.574
14.0653
22.1986
30.3403
38.4956
46.67
54.8687
63.0966
71.3585
79.6584
87.9993
96.3816
104.8
113.233
121.621
129.818
14.0849
22.2573
30.438
38.6321
46.8451
55.0819
63.3474
71.6464
79.9828
88.36
96.779
105.237
113.72
122.17
130.351
14.1025
22.3101
30.5258
38.7549
47.0026
55.2739
63.5738
71.9068
80.2774
88.6896
97.1472
105.655
114.226
122.903
131.901
14.1181
22.357
30.6039
38.8641
47.1428
55.4451
63.7758
72.1397
80.5415
88.9858
97.4783
106.028
114.656
123.411
132.418
14.1318
22.398
30.6723
38.9598
47.2659
55.5954
63.9535
72.3449
80.7743
89.2466
97.7674
106.345
114.994
123.741
132.629
14.1435
22.4332
30.7309
39.042
47.3716
55.7249
64.1068
72.5222
80.9757
89.4719
98.0151
106.61
115.261
123.972
132.741
14.1533
22.4626
30.7799
39.1107
47.4601
55.8334
64.2355
72.6715
81.1458
89.6627
98.2249
106.833
115.483
124.159
132.828
14.1611
22.486
30.8191
39.1657
47.5311
55.9207
64.3395
72.7926
81.2848
89.82
98.4006
107.026
115.686
124.349
132.941
14.1669
22.5036
30.8484
39.2069
47.5845
55.9865
64.4183
72.8852
81.3921
89.9437
98.5433
107.192
115.883
124.587
133.184
14.1708
22.5151
30.8677
39.2342
47.62
56.0306
64.4716
72.9484
81.4668
90.0322
98.6501
107.326
116.068
124.895
133.9
14.1726
22.5206
30.877
39.2474
47.6373
56.0525
64.4986
72.9814
81.5071
90.0823
98.7143
107.413
116.191
125.077
134.122
14.1724
22.52
30.8761
39.2463
47.6363
56.0518
64.4987
72.9831
81.5114
90.0911
98.7304
107.441
116.238
125.146
134.185
14.1702
22.5133
30.865
39.2308
47.6166
56.0282
64.4714
72.9527
81.4785
90.0564
98.695
107.406
116.207
125.121
134.173
14.1658
22.5004
30.8435
39.2008
47.5782
55.9814
64.4165
72.8898
81.4078
89.9775
98.6071
107.307
116.093
124.997
134.081
14.1595
22.4813
30.8116
39.1562
47.5208
55.9114
64.3338
72.7944
81.2993
89.8552
98.4683
107.146
115.896
124.744
133.802
14.151
22.4559
30.7693
39.097
47.4446
55.8181
64.2234
72.6666
81.1539
89.6911
98.2828
106.931
115.629
124.343
132.929
14.1405
22.4244
30.7167
39.0232
47.3495
55.7015
64.0853
72.5067
80.9721
89.4871
98.056
106.68
115.348
124.027
132.625
14.128
22.3867
30.6538
38.9349
47.2356
55.5619
63.9196
72.3149
80.7541
89.2436
97.789
106.394
115.058
123.765
132.476
14.1134
22.3429
30.5807
38.8322
47.1031
55.3993
63.7265
72.091
80.4996
88.9594
97.4784
106.066
114.735
123.497
132.354
14.0968
22.2931
30.4975
38.7154
46.9523
55.2139
63.5061
71.8351
80.2078
88.632
97.1177
105.68
114.345
123.159
132.189
14.0783
22.2374
30.4044
38.5846
46.7833
55.0061
63.2588
71.5473
79.8785
88.2599
96.7016
105.22
113.849
122.67
131.874
14.0578
22.176
30.3018
38.4403
46.5968
54.7765
62.9852
71.2285
79.5126
87.844
96.23
104.681
113.217
121.911
131.091
14.0355
22.109
30.1898
38.2828
46.3931
54.5257
62.6861
70.8797
79.1121
87.3882
95.7114
104.08
112.474
120.811
128.736
14.0114
22.0366
30.0688
38.1126
46.1729
54.2546
62.3627
70.5026
78.6794
86.8978
95.1594
103.458
111.766
119.997
127.931
13.9857
21.9592
29.9392
37.9303
45.937
53.9638
62.0159
70.0982
78.2162
86.3752
94.5793
102.828
111.11
119.384
127.567
13.9583
21.8768
29.8015
37.7365
45.686
53.6545
61.6466
69.6674
77.7228
85.8195
93.9658
102.173
110.456
118.833
127.31
13.9293
21.7899
29.6562
37.5319
45.421
53.3276
61.2561
69.2112
77.199
85.2272
93.3079
101.463
109.736
118.208
127.006
13.899
21.6988
29.5037
37.3173
45.143
52.9845
60.8456
68.7308
76.6453
84.5964
92.596
100.669
108.873
117.355
126.458
13.8674
21.6038
29.3448
37.0935
44.853
52.6264
60.4171
68.2285
76.0645
83.9298
91.831
99.7814
107.817
116.066
125.114
13.8347
21.5054
29.1801
36.8616
44.5524
52.2553
59.9728
67.7076
75.4617
83.2363
91.0297
98.8323
106.608
114.221
121.072
13.8009
21.4038
29.0102
36.6224
44.2425
51.8728
59.5152
67.1716
74.8428
82.5277
90.2199
97.8995
105.51
112.903
119.717
13.7662
21.2996
28.8359
36.3769
43.9246
51.4807
59.0466
66.6238
74.2126
81.8121
89.4167
97.012
104.561
111.983
119.142
13.7307
21.193
28.6577
36.1262
43.6
51.0805
58.5689
66.0662
73.5734
81.0907
88.618
96.1542
103.697
111.244
118.789
13.6946
21.0846
28.4763
35.871
43.2698
50.6737
58.0836
65.5003
72.9253
80.3604
87.8108
95.2893
102.829
110.502
118.436
13.658
20.9745
28.2924
35.6123
42.9352
50.2616
57.592
64.9272
72.2682
79.6175
86.9818
94.3798
101.864
109.576
117.863
13.621
20.8633
28.1064
35.3509
42.5972
49.8454
57.0958
64.3485
71.6037
78.8623
86.1271
93.408
100.739
108.249
116.519
13.5837
20.7511
27.919
35.0876
42.2568
49.4266
56.5967
63.7665
70.935
78.1006
85.259
92.3992
99.4863
106.39
112.526
13.5461
20.6384
27.7307
34.823
41.9151
49.0064
56.0963
63.1837
70.2667
77.3419
84.4012
91.4247
98.3588
105.061
111.182
13.5085
20.5253
27.5419
34.5579
41.5729
48.586
55.5963
62.6023
69.602
76.5921
83.5661
90.51
97.3899
104.132
110.608
13.4707
20.4121
27.3529
34.2928
41.231
48.1665
55.0979
62.0238
68.9422
75.8514
82.7498
89.6371
96.5142
103.384
110.252
13.433
20.2989
27.1642
34.0281
40.89
47.7485
54.602
61.4488
68.287
75.1161
81.939
88.7687
95.6406
102.636
109.894
13.3954
20.1859
26.9758
33.7643
40.5504
47.3328
54.1094
60.8781
67.6363
74.383
81.1214
87.8685
94.6784
101.702
109.309
13.3577
20.0731
26.7878
33.5013
40.2125
46.9198
53.621
60.313
66.9919
73.6536
80.2954
86.9221
93.5651
100.36
107.922
13.3201
19.9604
26.6002
33.2392
39.8763
46.51
53.1376
59.7554
66.3577
72.936
79.4777
85.9619
92.3435
98.4829
103.78
13.2825
19.8476
26.4127
32.9776
39.5415
46.1031
52.6597
59.207
65.7382
72.2417
78.6976
85.0704
91.2873
97.1874
102.413
13.2448
19.7345
26.2249
32.716
39.2075
45.6985
52.1867
58.6683
65.1362
71.5782
77.9732
84.2846
90.4483
96.3575
101.871
13.2068
19.6207
26.036
32.4533
38.8729
45.2945
51.717
58.1375
64.5503
70.9453
77.3045
83.5988
89.7832
95.7993
101.602
13.1684
19.5058
25.8453
32.1883
38.5359
44.8888
51.2473
57.6104
63.9751
70.3351
76.6786
82.9868
89.2324
95.3861
101.435
13.1293
19.389
25.6517
31.9194
38.1942
44.4781
50.773
57.0806
63.4014
69.7343
76.0751
82.4156
88.7428
95.0425
101.307
13.0896
19.2699
25.4541
31.6449
37.8452
44.0584
50.2886
56.54
62.8175
69.126
75.4696
81.851
88.2696
94.7201
101.191
13.0488
19.1479
25.2515
31.363
37.4862
43.626
49.788
55.9797
62.2103
68.4912
74.8355
81.2581
87.7716
94.3805
101.069
13.0069
19.0225
25.043
31.0722
37.1149
43.1768
49.2654
55.3908
61.5665
67.8102
74.145
80.5995
87.2046
93.9827
100.922
12.9639
18.8933
24.8278
30.7715
36.7294
42.7079
48.7159
54.7655
60.8737
67.0639
73.369
79.8339
86.5149
93.4703
100.719
12.9195
18.7602
24.6058
30.4602
36.3285
42.2174
48.1362
54.0981
60.1221
66.2358
72.48
78.9156
85.632
92.7515
100.393
12.874
18.6235
24.3772
30.1387
35.9125
41.705
47.5252
53.386
59.3064
65.3151
71.4559
77.7999
84.4665
91.6675
99.7647
12.8275
18.4835
24.1427
29.8078
35.4826
41.1724
46.8847
52.631
58.4279
64.3007
70.2887
76.4576
82.9272
89.9582
98.2785
128.655
116.204
105.727
96.1311
87.0245
78.2279
69.6424
61.207
52.8811
44.6361
36.4511
28.3101
20.2007
12.1123
4.03612
130.89
118.749
107.989
98.0722
88.6836
79.645
70.8493
62.2283
53.7356
45.3383
37.0121
28.7385
20.5024
12.2917
4.09565
131.821
120.334
109.664
99.6442
90.0976
80.8915
71.9334
63.1591
54.5227
45.9901
37.5359
29.14
20.7861
12.4607
4.15178
132.289
121.347
110.884
100.886
91.2733
81.9639
72.8883
63.9929
55.2364
46.5866
38.0184
29.5117
21.0497
12.6181
4.20409
132.562
122.026
111.779
101.857
92.2367
82.8721
73.7166
64.729
55.8747
47.1253
38.4574
29.8517
21.2917
12.7629
4.2523
132.741
122.501
112.445
102.617
93.0203
83.6332
74.4267
65.371
56.4389
47.6063
38.8525
30.1594
21.5116
12.8948
4.29626
132.866
122.847
112.949
103.215
93.6563
84.2671
75.0304
65.9258
56.9328
48.0316
39.2044
30.4352
21.7094
13.0138
4.33598
132.957
123.106
113.337
103.688
94.1728
84.7933
75.5407
66.4018
57.3616
48.4044
39.5152
30.68
21.8858
13.1202
4.37153
133.027
123.304
113.641
104.065
94.5932
85.2293
75.9703
66.808
57.7315
48.7288
39.7876
30.8958
22.0419
13.2146
4.40311
133.08
123.459
113.881
104.369
94.9364
85.5906
76.3311
67.1531
58.049
49.0096
40.0249
31.0847
22.179
13.2977
4.43095
133.123
123.582
114.073
104.614
95.2174
85.8902
76.6336
67.4453
58.3202
49.2512
40.2303
31.2491
22.2987
13.3704
4.45533
133.156
123.68
114.228
104.813
95.4483
86.1388
76.8871
67.6923
58.5512
49.4583
40.4074
31.3913
22.4026
13.4337
4.47657
133.183
123.76
114.353
104.976
95.6385
86.3453
77.0993
67.9007
58.7473
49.6352
40.5593
31.5138
22.4924
13.4885
4.49498
133.205
123.824
114.456
105.11
95.7957
86.517
77.2769
68.0762
58.9135
49.7858
40.6892
31.619
22.5697
13.5357
4.51085
133.223
123.877
114.54
105.221
95.9257
86.6599
77.4256
68.2239
59.054
49.9137
40.8
31.7089
22.6359
13.5762
4.52448
133.238
123.92
114.609
105.312
96.0336
86.7789
77.5501
68.3481
59.1726
50.0221
40.8941
31.7855
22.6924
13.6108
4.53615
133.25
123.955
114.666
105.387
96.1231
86.8781
77.6542
68.4523
59.2726
50.1138
40.974
31.8506
22.7406
13.6403
4.54611
133.26
123.985
114.713
105.449
96.1975
86.9609
77.7412
68.5398
59.3567
50.1911
41.0415
31.9058
22.7814
13.6654
4.55457
133.268
124.009
114.752
105.501
96.2594
87.0298
77.814
68.6131
59.4274
50.2562
41.0985
31.9524
22.816
13.6867
4.56174
133.275
124.029
114.784
105.544
96.3108
87.0872
77.8747
68.6744
59.4866
50.3109
41.1464
31.9918
22.8452
13.7046
4.56779
133.281
124.046
114.811
105.58
96.3534
87.1349
77.9253
68.7256
59.5361
50.3567
41.1866
32.0248
22.8697
13.7197
4.57289
133.285
124.06
114.833
105.609
96.3887
87.1744
77.9673
68.7681
59.5774
50.3949
41.2202
32.0524
22.8902
13.7324
4.57716
133.289
124.071
114.851
105.633
96.4179
87.2071
78.002
68.8034
59.6116
50.4266
41.2481
32.0753
22.9073
13.7429
4.58071
133.292
124.08
114.866
105.653
96.4418
87.2339
78.0305
68.8323
59.6398
50.4528
41.2712
32.0943
22.9214
13.7516
4.58365
133.295
124.088
114.878
105.669
96.4612
87.2557
78.0537
68.8559
59.6627
50.4741
41.29
32.1098
22.933
13.7587
4.58606
133.297
124.094
114.888
105.682
96.4767
87.2732
78.0724
68.8749
59.6812
50.4913
41.3051
32.1223
22.9423
13.7645
4.588
133.299
124.098
114.896
105.692
96.4888
87.2869
78.087
68.8898
59.6957
50.5048
41.317
32.1321
22.9496
13.769
4.58952
133.3
124.102
114.901
105.7
96.498
87.2972
78.098
68.901
59.7066
50.515
41.326
32.1395
22.9551
13.7724
4.59068
133.301
124.104
114.905
105.705
96.5044
87.3045
78.1057
68.9089
59.7144
50.5222
41.3324
32.1448
22.9591
13.7748
4.5915
133.301
124.106
114.908
105.708
96.5084
87.3089
78.1105
68.9138
59.7191
50.5266
41.3363
32.148
22.9615
13.7763
4.59201
133.301
124.106
114.909
105.71
96.5099
87.3107
78.1124
68.9158
59.7211
50.5285
41.338
32.1494
22.9625
13.777
4.59223
133.301
124.106
114.908
105.709
96.5091
87.3098
78.1115
68.9149
59.7203
50.5278
41.3374
32.1489
22.9622
13.7768
4.59216
133.301
124.105
114.906
105.706
96.5059
87.3062
78.1077
68.9111
59.7167
50.5245
41.3345
32.1466
22.9605
13.7757
4.5918
133.3
124.102
114.902
105.701
96.5002
87.2998
78.101
68.9044
59.7102
50.5185
41.3293
32.1423
22.9573
13.7738
4.59115
133.299
124.099
114.897
105.694
96.4917
87.2905
78.0912
68.8944
59.7006
50.5097
41.3216
32.136
22.9526
13.7709
4.59018
133.297
124.095
114.89
105.685
96.4803
87.2778
78.0778
68.881
59.6877
50.4978
41.3112
32.1276
22.9464
13.767
4.58888
133.295
124.089
114.88
105.672
96.4655
87.2613