/*--------------------------------*- C++ -*----------------------------------*\
| =========                 |                                                 |
| \\      /  F ield         | OpenFOAM: The Open Source CFD Toolbox           |
|  \\    /   O peration     | Version:  5.x                                   |
|   \\  /    A nd           | Web:      www.OpenFOAM.org                      |
|    \\/     M anipulation  |                                                 |
\*---------------------------------------------------------------------------*/
FoamFile
{
    version     2.0;
    format      ascii;
    class       volScalarField;
    location    "3.1";
    object      gradTy;
}
// * * * * * * * * * * * * * * * * * * * * * * * * * * * * * * * * * * * * * //

dimensions      [0 -1 0 1 0 0 0];

internalField   nonuniform List<scalar> 
6300
(
3083.95
7245.96
11390.3
15505.2
19578.6
23598.4
27552.3
31428
35213.1
38895.3
42462.7
45903.7
49208.1
52366.4
55371.1
8.66761
26.0432
43.5355
61.2062
79.0901
97.1835
115.43
133.705
151.804
169.428
186.186
201.601
215.141
226.26
234.464
14.4005
43.2748
72.3602
101.772
131.582
161.8
192.348
223.035
253.53
283.338
311.795
338.077
361.247
380.327
394.421
20.0598
60.2927
100.856
141.934
183.66
226.079
269.12
312.55
355.932
398.587
439.564
477.651
511.422
539.363
560.045
25.605
76.9782
128.831
181.444
235.037
289.728
345.492
402.098
459.046
515.496
570.206
621.517
667.404
705.627
734.015
30.9855
93.1813
156.04
219.968
285.307
352.294
421.007
491.287
562.64
634.121
704.219
770.781
831.017
881.693
919.528
36.1402
108.717
182.175
257.072
333.916
413.118
494.937
579.383
666.08
754.098
841.735
926.328
1004.15
1070.55
1120.54
40.9974
123.368
206.863
292.221
380.152
471.309
566.221
665.201
768.171
874.418
982.255
1088.6
1188.64
1275.76
1342.22
45.4771
136.889
229.68
324.784
423.149
525.723
633.414
746.998
866.945
993.107
1124.21
1257.13
1386
1501.57
1591.63
49.4969
149.026
250.175
354.074
461.919
574.998
694.684
822.397
959.463
1106.8
1264.3
1429.65
1596.59
1752.83
1878.92
52.9795
159.537
267.912
379.402
495.437
617.64
747.896
888.402
1041.66
1210.29
1396.48
1600.49
1817.83
2034.14
2219.3
55.8624
168.223
282.524
400.173
522.766
652.202
790.823
941.615
1108.43
1296.18
1510.75
1757.95
2040.02
2346.52
2636.11
58.1078
174.964
293.777
415.982
543.233
677.55
821.544
978.76
1154.22
1355.2
1592.33
1880.47
2237.7
2675.67
3162.25
59.7108
179.741
301.628
426.73
556.611
693.192
839.005
997.621
1174.42
1378.02
1622.82
1933.8
2354.53
2956.09
3816.13
60.7038
182.654
306.255
432.685
563.267
699.573
843.625
998.25
1167.79
1359.58
1587.06
1877.3
2290.4
2977.87
4388.46
57979.4
60237.8
62382.6
64414
66333.6
68143.6
69847.6
71449.7
72954.8
74368.1
75695.5
76942.8
78116.2
79221.8
80265.7
81253.9
82192.3
83086.4
83941.8
84763.5
85556.3
86324.9
87073.3
87805.3
88524.4
89233.4
89934.8
90630.4
91321.9
92010.1
92695.6
93378.3
94058.1
94734.2
95406
96072.4
96732.4
97384.6
98028
98661.1
99282.5
99890.9
100485
101062
101622
102163
102683
103181
103657
104107
104533
104931
105303
105645
105957
106237
106485
106697
106873
107010
107107
107161
107170
107131
107042
106900
106701
106442
106119
105728
105265
104723
104099
103385
102577
101669
100653
99524.1
98274.8
96898.9
95389.7
93741
91946.7
90001.5
87900.3
85639.4
83215.7
80627.6
77874.9
74958.5
238.963
240.629
239.844
236.68
231.296
223.924
214.841
204.354
192.769
180.383
167.465
154.255
140.956
127.741
114.748
102.092
89.8657
78.1488
67.0095
56.5119
46.7185
37.6934
29.5022
22.2115
15.885
10.5779
6.32967
3.15504
1.03665
-0.0802878
-0.288343
0.288214
1.50587
3.21878
5.29633
7.63677
10.1734
12.8722
15.7213
18.7169
21.8478
25.0855
28.38
31.6644
34.8668
37.9248
40.7999
43.486
46.0126
48.4392
50.846
53.3206
55.9452
58.7853
61.8835
65.2584
68.9095
72.8265
77.0001
81.4325
86.1448
91.1795
96.5992
102.48
108.906
115.955
123.697
132.182
141.437
151.466
162.248
173.745
185.905
198.663
211.944
225.662
239.711
253.961
268.247
282.363
296.058
309.029
320.929
331.376
339.964
346.294
349.999
350.777
348.426
342.866
402.13
404.946
403.522
397.993
388.652
375.918
360.295
342.324
322.545
301.469
279.559
257.215
234.779
212.529
190.692
169.449
148.947
129.308
110.64
93.0442
76.62
61.4732
47.7153
35.4628
24.8309
15.9237
8.8201
3.55727
0.114349
-1.59957
-1.74839
-0.559043
1.70247
4.76532
8.39019
12.3976
16.6806
21.1983
25.9541
30.9648
36.2292
41.7051
47.302
52.8903
58.3264
63.4843
68.2852
72.7157
76.8318
80.7488
84.6207
88.6147
92.8846
97.55
102.683
108.308
114.41
120.952
127.904
135.257
143.043
151.335
160.245
169.915
180.497
192.136
204.96
219.058
234.478
251.223
269.255
288.501
308.869
330.251
352.527
375.559
399.185
423.198
447.337
471.268
494.574
516.747
537.194
555.249
570.202
581.337
587.989
589.607
585.815
576.458
571.321
575.355
573.102
564.783
550.878
532.06
509.118
482.884
454.175
423.746
392.266
360.303
328.328
296.72
265.778
235.738
206.785
179.072
152.732
127.893
104.687
83.2586
63.7672
46.3875
31.3009
18.6804
8.66836
1.3477
-3.28861
-5.36329
-5.126
-2.94078
0.754582
5.51192
10.9424
16.771
22.859
29.1904
35.8287
42.8563
50.3146
58.1594
66.2451
74.3442
82.1954
89.5669
96.3131
102.407
107.947
113.132
118.229
123.52
129.263
135.65
142.784
150.681
159.283
168.496
178.237
188.467
199.22
210.606
222.805
236.045
250.57
266.619
284.392
304.034
325.616
349.132
374.514
401.644
430.375
460.554
492.02
524.602
558.097
592.25
626.722
661.068
694.714
726.942
756.893
783.581
805.926
822.823
833.218
836.219
831.203
817.903
749.424
754.775
751.369
739.57
720.133
694.093
662.63
626.957
588.229
547.485
505.614
463.355
421.298
379.903
339.521
300.418
262.796
226.816
192.622
160.351
130.157
102.217
76.741
53.9738
34.1838
17.6455
4.60585
-4.76224
-10.415
-12.4909
-11.3433
-7.53188
-1.75748
5.25405
12.8861
20.7354
28.651
36.7048
45.1065
54.0913
63.8069
74.2297
85.1323
96.1182
106.718
116.513
125.243
132.861
139.535
145.607
151.519
157.739
164.678
172.635
181.75
192.001
203.238
215.245
227.829
240.887
254.446
268.669
283.831
300.284
318.411
338.578
361.096
386.179
413.926
444.315
477.217
512.437
549.754
588.96
629.863
672.284
716.017
760.795
806.242
851.83
896.847
940.367
981.243
1018.11
1049.45
1073.62
1089.04
1094.33
1088.47
1071.02
939.956
946.765
941.683
925.313
898.856
863.893
822.164
775.39
725.148
672.802
619.48
566.075
513.275
461.589
411.387
362.931
316.408
271.96
229.712
189.791
152.353
117.6
85.7907
57.2496
32.3617
11.5507
-4.76497
-16.2431
-22.7128
-24.2809
-21.417
-14.9702
-6.0717
4.0817
14.4962
24.5828
34.2226
43.6967
53.5233
64.252
76.259
89.5871
103.877
118.426
132.377
144.972
155.752
164.65
171.968
178.288
184.346
190.898
198.606
207.93
219.056
231.88
246.06
261.139
276.715
292.562
308.693
325.353
342.971
362.088
383.287
407.127
434.077
464.458
498.404
535.847
576.551
620.177
666.383
714.886
765.486
818.038
872.393
928.337
985.515
1043.37
1101.09
1157.56
1211.31
1260.57
1303.23
1336.96
1359.41
1368.43
1362.38
1340.49
1147.37
1155.82
1148.19
1125.53
1089.78
1043.39
988.919
928.777
865.06
799.493
733.43
667.891
603.613
541.107
480.709
422.632
367.006
313.915
263.429
215.635
170.667
128.728
90.1186
55.2504
24.6556
-1.02973
-21.1138
-34.9475
-42.08
-42.464
-36.6613
-25.9501
-12.2045
2.52176
16.5665
29.0617
40.0209
50.1689
60.6292
72.5604
86.797
103.548
122.236
141.581
159.977
176.031
188.959
198.7
205.826
211.337
216.446
222.38
230.195
240.616
253.905
269.796
287.572
306.306
325.198
343.814
362.163
380.645
399.938
420.876
444.343
471.181
502.099
537.584
577.825
622.666
671.654
724.18
779.678
837.767
898.273
961.165
1026.45
1094.07
1163.78
1235.07
1307.1
1378.6
1447.82
1512.5
1569.82
1616.52
1649.09
1664.17
1659.07
1632.37
1377.66
1388
1376.31
1344.53
1295.97
1234.48
1163.81
1087.29
1007.62
926.892
846.626
767.895
691.407
617.595
546.697
478.815
413.968
352.134
293.286
237.431
184.64
135.086
89.0841
47.1244
9.90755
-21.6471
-46.4338
-63.2715
-71.1348
-69.5255
-58.9432
-41.2695
-19.7191
1.97303
20.8981
35.7821
47.0168
56.2209
65.6469
77.5793
93.7449
114.751
139.682
166.134
190.979
211.624
226.785
236.548
242.04
244.994
247.392
251.184
258.06
269.204
285.039
305.029
327.733
351.276
374.11
395.48
415.47
434.797
454.563
476.048
500.571
529.385
563.566
603.885
650.641
703.534
761.683
823.918
889.257
957.182
1027.64
1100.85
1177.16
1256.8
1339.76
1425.72
1513.88
1602.92
1690.88
1775
1851.68
1916.41
1963.96
1988.97
1986.84
1954.89
1639.41
1651.82
1633.29
1587.66
1520.75
1438.72
1347.08
1250.3
1151.68
1053.59
957.587
864.652
775.333
689.879
608.337
530.626
456.592
386.054
318.84
254.822
193.96
136.342
82.241
32.1833
-12.9782
-51.9936
-83.1823
-104.5
-113.811
-109.489
-91.4176
-62.1528
-27.4195
5.4267
31.0666
47.7751
56.9541
61.97
67.0717
76.519
93.7391
120.321
154.954
193.019
228.046
255.134
272.4
280.566
281.926
279.471
276.346
275.565
279.797
291.056
310.205
336.369
366.706
397.285
425.144
449.15
469.748
488.334
506.726
526.858
550.634
579.87
616.205
660.925
714.629
776.839
845.831
919.19
995.115
1072.96
1153.01
1236.08
1323.07
1414.72
1511.43
1613.16
1719.36
1828.79
1939.42
2048.21
2150.75
2240.99
2311.24
2352.83
2357.52
2319.93
1945.77
1960.12
1929.23
1861.37
1767.23
1656.71
1537.71
1415.85
1294.89
1177.18
1064.04
956.115
853.611
756.45
664.385
577.069
494.113
415.123
339.726
267.609
198.551
132.476
69.5214
10.1395
-44.7652
-93.66
-134.193
-163.067
-176.165
-169.299
-140.057
-90.9584
-32.4508
19.2079
54.0458
70.5596
72.8355
67.5444
62.1865
64.2131
80.1988
114.243
165.233
224.225
276.493
312.734
331.066
334.329
327.254
314.859
301.871
292.675
291.362
301.492
325.216
361.649
405.274
447.158
481.672
507.674
526.869
542.092
556.328
572.362
592.777
620.07
656.71
704.965
766.304
840.312
923.624
1010.7
1098.14
1185.47
1273.97
1365.6
1462.2
1565.27
1675.77
1794.11
1920.09
2052.82
2190.53
2330.3
2467.41
2594.24
2699.71
2769.7
2788.98
2745.82
2318.87
2333.46
2278.3
2172.84
2037.16
1886.86
1732.36
1580.03
1433.39
1294.15
1162.94
1039.74
924.164
815.659
713.57
617.214
525.911
439.005
355.881
275.985
198.844
124.117
51.6591
-18.3475
-85.2005
-147.36
-201.984
-244.339
-267.258
-261.32
-217.281
-133.304
-27.6126
57.2163
103.415
113.85
99.6158
73.2187
46.6722
31.8115
40.66
83.7685
163.995
265.117
348.026
396.128
411.438
402.983
380.247
351.109
321.941
298.436
286.455
292.356
321.933
376.577
446.353
507.651
550.462
576.005
589.714
597.275
603.342
611.557
625.014
646.808
680.485
730.156
799.731
890.376
995.991
1101.66
1201.33
1296.26
1390.42
1487.91
1592
1705.09
1828.77
1964
2111.07
2269.63
2438.62
2616.18
2798.84
2978.18
3139.23
3259.52
3310.3
3263.89
2801.21
2807.11
2699.68
2527.7
2328.07
2122.93
1923.81
1735.95
1561.16
1399.51
1250.27
1112.33
984.506
865.601
754.476
650.063
551.359
457.427
367.381
280.386
195.66
112.487
30.2697
-51.3716
-132.389
-211.9
-287.434
-353.587
-399.894
-408.193
-352.003
-206.909
7.27321
150.856
204.288
192.664
143.913
79.1096
14.3327
-34.728
-48.2093
-0.150821
132.672
332.242
469.685
526.747
526.039
492.206
442.463
387.405
333.86
287.608
255.801
249.132
282.556
369.721
499.649
594.769
644.127
661.381
661.417
654.612
647.265
643.202
645.243
656.429
681.222
726.679
802.806
918.876
1068.27
1201.25
1311.34
1408.14
1502.08
1600.68
1708.82
1829.61
1965.13
2116.79
2285.46
2471.37
2674.32
2894.66
3134.99
3388.39
3637.34
3849.37
3971.5
3934.45
3491.04
3443.82
3213.9
2922.25
2626.83
2350.24
2098.95
1872.95
1669.9
1486.93
1321.23
1170.29
1031.93
904.273
785.659
674.634
569.886
470.205
374.443
281.482
190.201
99.4479
8.01971
-85.3227
-181.77
-282.191
-386.411
-491.433
-587.276
-647.95
-614.766
-380.023
143.794
374.279
398.81
324.905
211.294
84.9298
-40.6701
-152.534
-225.727
-206.161
5.20274
488.797
707.064
740.525
688.308
604.309
512.301
421.49
335.247
255.946
188.917
148.138
165.761
301.258
603.036
747.758
783.992
771.523
742.94
712.699
686.424
666.022
652.263
646.416
652.158
678.992
748.319
899.34
1164.15
1333.73
1440.45
1524.1
1606.94
1699.65
1807.35
1932.84
2078.15
2245.02
2434.92
2648.47
2884.88
3144.27
3452.21
3804.9
4188.52
4568.54
4861.79
4896.95
4679.12
4343.46
3816.87
3322.07
2898.35
2540.99
2237.6
1976.81
1749.68
1549.42
1370.87
1210.08
1063.93
929.89
805.889
690.148
581.104
477.329
377.463
280.155
183.984
87.3838
-11.4672
-114.793
-225.416
-346.996
-484.217
-642.475
-825.279
-1022.83
-1167.75
-969.385
702.717
894.277
735.078
514.319
297.041
89.6517
-115.448
-326.018
-536.81
-688.354
-514.269
1027.43
1210.57
1077.69
896.352
727.951
580.425
449.003
326.645
206.617
84.2362
-36.9475
-120.768
-6.64362
932.598
1056.99
994.002
904.882
826.861
765.084
717.129
679.278
647.89
619.711
592.715
570.106
576.18
715.942
1397.15
1556.72
1602.79
1641.21
1697.59
1777.03
1880.21
2007.5
2160.07
2340.05
2550.24
2792.61
3062.27
3323.88
3704.95
4176.76
4744.82
5412.56
6123.61
6563.32
7480.06
5517.83
4373.84
3619.39
3074.18
2653.88
2314.78
2032.11
1790.68
1580.55
1394.88
1228.74
1078.41
941
814.174
695.974
584.694
478.786
376.772
277.161
178.359
78.5406
-24.5274
-133.771
-253.296
-389.283
-551.734
-758.168
-1042.03
-1473.51
-2215.04
-3680.92
3393.59
1919.33
1159.96
698.69
368.52
91.0529
-182.373
-499.203
-933.227
-1639.47
-3003.13
3522.39
2169.12
1484.6
1085.75
821.515
625.341
463.446
314.666
160.654
-22.1911
-275.862
-692.366
-1502.74
2435.54
1636.02
1241.64
1022.25
887.378
797.546
733.267
683.202
638.867
591.269
526.919
419.872
211.484
-247.187
2381.3
1943.1
1776.13
1732.43
1754.96
1820.2
1918.29
2045.68
2202.45
2391.5
2619.1
2897.35
3251.13
3331.37
3826.97
4409.93
5157.43
6194.07
7775.98
10507.9
71573.5
67655.6
63522.6
59186.9
54662.8
49966.4
45114.4
40124.1
35012.9
29798
24496.4
19124.6
13698.7
8234.46
2747.35
333.283
318.595
300.241
278.945
255.493
230.644
205.067
179.301
153.738
128.633
104.114
80.2048
56.8472
33.9238
11.2763
560.154
535.049
503.66
467.298
427.369
385.214
341.989
298.608
255.724
213.741
172.849
133.063
94.2642
56.2338
18.6892
794.325
757.767
712.033
659.201
601.458
540.84
479.056
417.413
356.806
297.756
240.478
184.937
130.913
78.0583
25.9361
1039.29
989.627
927.472
855.984
778.396
697.609
615.963
535.166
456.317
379.995
306.368
235.292
166.395
99.1503
32.9337
1299.27
1233.94
1152.2
1058.83
958.503
855.207
751.995
650.947
553.28
459.525
369.702
283.466
200.223
119.215
39.5832
1579.58
1494.61
1388.54
1268.62
1141.55
1012.7
885.842
763.322
646.305
535.101
429.434
328.64
231.814
137.903
45.7685
1887.26
1776.37
1638.72
1485.52
1326.36
1168.17
1015.34
870.179
733.495
605.119
484.274
369.835
260.485
154.812
51.3567
2232
2084.85
1904.41
1708.37
1510.15
1318.27
1137.17
968.548
812.363
667.588
532.692
405.927
285.472
169.499
56.203
2627.86
2426.51
2185.63
1933.32
1687.56
1457.51
1246.47
1054.46
879.805
720.159
572.964
435.699
305.968
181.505
60.1583
3096.31
2807.65
2478.21
2151.68
1849.21
1577.68
1336.72
1122.97
932.214
760.258
603.287
457.925
321.186
190.392
63.0818
3670.57
3229.52
2767.85
2345.91
1979.89
1667.25
1399.71
1168.47
965.796
785.347
621.982
471.513
330.45
195.792
64.8569
4397.86
3671.88
3017.65
2484.17
2057.13
1711.65
1426.37
1185.36
977.129
793.327
627.761
475.682
333.302
197.465
65.409
5306.56
4042.4
3146.59
2515.92
2052.74
1695.8
1408.72
1169.45
964.004
783.046
620.035
470.138
329.602
195.351
64.7223
6108.28
4044.47
3010.29
2380.12
1942.05
1610.03
1343.23
1119.69
926.359
754.794
599.174
455.221
319.611
189.612
62.8508
61.154
183.925
308.092
434.613
564.491
698.814
838.824
986.063
1142.68
1312.15
1500.81
1721.65
2003.37
2413.57
3118.63
61.2061
184.003
307.943
433.764
562.148
693.685
828.79
967.579
1109.64
1253.62
1396.27
1529.78
1631.93
1624.16
1180.82
60.9908
183.282
306.482
431.123
557.601
686.058
816.175
946.799
1075.24
1195.97
1298.01
1359.64
1336.78
1137.17
575.132
60.5595
181.928
304.015
427.198
551.666
677.259
803.187
927.512
1046.19
1151.28
1227.77
1248.13
1164.35
901.826
377.916
59.9546
180.072
300.781
422.372
544.936
668.21
791.293
912.129
1026.54
1126.42
1196.49
1208.91
1116
847.984
341.748
59.2049
177.801
296.931
416.861
537.7
659.278
780.943
901.192
1016.96
1122.23
1205.23
1242.81
1189.23
959.555
428.67
58.3254
175.158
292.521
410.712
529.94
650.272
771.565
893.353
1014.65
1133.46
1245.51
1339.97
1384.73
1280.28
742.291
57.3194
172.146
287.532
403.834
521.4
640.585
761.831
885.849
1014.04
1149.36
1298.02
1471.6
1683.84
1902.07
1713.25
56.1827
168.745
281.903
396.073
511.725
629.454
750.16
875.441
1008.47
1155.98
1333.19
1576.38
1978.75
2806.51
4932.6
54.909
164.93
275.569
387.279
500.598
616.241
735.3
859.647
992.817
1141.96
1322.53
1570.61
1978.22
2809.31
4934.55
53.4946
160.685
268.49
377.364
487.849
600.646
716.754
837.718
966.07
1106.08
1264.98
1454.03
1683.59
1913.36
1721.23
51.9404
156.012
260.666
366.329
473.491
582.742
694.824
810.65
931.216
1057.08
1186.48
1309.29
1388.8
1310.37
765.052
50.2535
150.934
252.141
354.251
457.676
562.867
670.286
780.281
892.675
1005.62
1112.55
1194.62
1203.69
1031.59
492.752
48.4459
145.488
242.987
341.259
440.633
541.44
643.954
748.238
853.745
958.327
1055.86
1130.65
1144.36
1007.5
530.633
46.5334
139.725
233.295
327.498
422.593
518.825
616.388
715.341
815.452
915.922
1014.98
1109.08
1189.6
1219.52
974.345
44.5335
133.699
223.161
313.116
403.762
495.284
587.855
681.638
776.905
874.499
977.522
1096.95
1269.98
1622.59
2601.06
42.4649
127.466
212.682
298.254
384.32
471.014
558.477
646.904
736.742
829.303
928.68
1047.58
1225.65
1591.04
2589.66
40.3464
121.084
201.956
283.048
364.441
446.21
528.428
611.191
694.688
779.375
866.281
957.131
1051.25
1119.76
938.294
38.1966
114.609
191.076
267.632
344.3
421.093
498.001
574.968
651.81
727.907
801.146
864.412
894.648
822.088
464.105
36.0335
108.094
180.135
252.138
324.073
395.896
467.532
538.833
609.451
678.427
742.942
794.636
809.436
722.629
385.91
33.8746
101.594
169.221
236.69
303.923
370.83
437.297
503.175
568.235
632.049
693.646
750.487
794.792
796.73
609.876
31.7365
95.1568
158.418
221.406
284.001
346.07
407.473
468.089
527.888
587.213
647.661
715.053
809.58
1001.95
1551.14
29.6349
88.8308
147.803
206.396
264.445
321.773
378.199
433.571
487.876
541.605
596.86
660.784
756.436
959.393
1533.45
27.5846
82.6601
137.452
191.765
245.39
298.103
349.659
399.796
448.268
494.942
540.047
584.493
628.788
659.152
549.473
25.5993
76.686
127.435
177.612
226.97
275.24
322.107
367.182
409.912
449.377
483.698
508.317
510.826
456.176
252.504
23.6917
70.9466
117.814
164.027
209.308
253.351
295.802
336.198
373.829
407.39
434.096
447.504
432.57
356.697
164.802
21.8734
65.4764
108.647
151.091
192.505
232.57
270.926
307.137
340.577
370.17
393.737
406.382
396.644
337.799
172.739
20.1547
60.3062
99.9835
138.868
176.64
212.975
247.542
280.003
310.001
337.142
360.969
380.815
394.832
392.675
305.972
18.5455
55.4649
91.8698
127.418
161.773
194.607
225.622
254.582
281.411
306.423
330.973
359.308
404.267
506.284
803.972
17.0552
50.9801
84.3495
116.796
147.96
177.503
205.128
230.643
254.084
276.029
298.357
326.268
374.096
484.037
795.481
15.6932
46.88
77.4683
107.062
135.272
161.728
186.099
208.143
227.799
245.373
261.869
279.41
300.807
321.885
278.257
14.4694
43.1938
71.2753
98.2857
123.799
147.398
168.684
187.3
202.958
215.468
224.663
229.88
227.755
204.684
117.223
13.3936
39.952
65.823
90.5449
113.651
134.669
153.119
168.506
180.301
187.864
190.221
185.455
169.256
132.21
58.2677
12.4758
37.1849
61.1645
83.9207
104.947
123.717
139.674
152.201
160.578
163.873
160.724
148.973
125.241
85.3672
28.8955
11.7252
34.9211
57.3505
78.491
97.8016
114.711
128.6
138.768
144.377
144.35
137.199
120.812
92.4397
50.0574
0.445177
11.15
33.1858
54.4252
74.3235
92.3133
107.791
120.099
128.489
132.079
129.763
120.078
100.974
69.3706
19.7787
-61.8262
10.7565
31.9986
52.4235
71.471
88.5567
103.059
114.301
121.527
123.866
120.28
109.487
89.8089
58.7956
11.7465
-64.9513
10.5493
31.3734
51.3691
69.9685
86.5791
100.573
111.272
117.937
119.744
115.782
105.048
86.5031
59.3529
24.3158
-9.86454
10.5306
31.3168
51.2736
69.8324
86.4007
100.353
111.022
117.692
119.601
115.96
106.007
89.1526
65.374
36.2881
7.79384
10.7001
31.8285
52.1365
71.0614
88.0174
102.387
113.518
120.719
123.277
120.486
111.724
96.5786
75.0558
47.8339
16.4854
11.0556
32.9013
53.9455
73.6378
91.4046
106.641
118.708
126.932
130.624
129.113
121.827
108.389
88.6552
62.2153
26.2909
11.5922
34.5209
56.677
77.5287
96.5198
113.061
126.525
136.246
141.531
141.695
136.142
124.511
106.853
83.1335
47.6373
12.3029
36.6662
60.2962
82.6864
103.303
121.577
136.893
148.584
155.932
158.181
154.605
144.741
129.181
112.151
110.433
13.1781
39.3086
64.7564
89.0471
111.677
132.102
149.723
163.874
173.801
178.632
177.347
168.834
152.428
130.413
117.875
14.2055
42.412
69.9982
96.53
121.542
144.522
164.9
182.026
195.128
203.239
205.006
198.297
179.453
141.959
72.7792
15.3704
45.932
75.9485
105.035
132.772
158.693
182.269
202.89
219.828
232.146
238.433
236.061
219.299
175.383
80.6392
16.655
49.8154
82.5195
114.44
145.214
174.431
201.616
226.225
247.635
265.125
277.74
283.673
277.846
243.966
134.631
18.0384
53.9999
89.6078
124.602
158.687
191.514
222.671
251.685
278.054
301.359
321.537
339.278
355.684
364.763
299.574
19.4966
58.4136
97.0939
135.356
172.979
209.687
245.13
278.881
310.478
339.625
366.86
395.606
438.368
536.854
835.066
21.0024
62.9747
104.842
146.511
187.85
228.666
268.675
307.466
344.478
379.067
410.954
441.973
482.063
569.832
847.814
22.5255
67.5919
112.698
157.852
203.026
248.131
292.976
337.18
380.032
420.228
455.463
481.813
492.359
470.29
341.479
24.0326
72.1646
120.492
169.135
218.189
267.702
317.63
367.727
417.301
464.673
505.951
532.41
525.049
444.578
219.708
25.4883
76.5845
128.039
180.091
232.974
286.909
342.076
398.528
455.975
513.196
566.55
606.298
608.284
518.939
246.805
26.8557
80.7396
135.143
190.427
246.97
305.187
365.537
428.531
494.681
564.258
636.424
706.221
754.745
720.055
427.616
28.0986
84.5181
141.61
199.848
259.75
321.912
387.076
456.239
530.88
613.375
707.783
820.714
958.787
1099.97
999.142
29.1829
87.8151
147.255
208.075
270.906
336.486
405.756
480.048
561.502
654.073
766.125
917.538
1160.44
1647.68
2888.12
30.0781
90.538
151.919
214.87
280.102
348.435
420.877
498.797
584.296
681.102
796.986
950.624
1192.16
1671.96
2897.6
30.7588
92.6098
155.47
220.047
287.099
357.469
432.123
512.209
599.145
694.753
801.489
922.486
1058.19
1177.93
1030.51
31.2049
93.9706
157.812
223.476
291.749
363.474
439.534
520.796
607.89
700.567
795.959
883.986
935.098
869.218
492.068
31.4013
94.5758
158.873
225.068
293.969
366.421
443.276
525.272
612.692
704.406
795.439
871.009
893.12
776.53
375.065
31.3374
94.3941
158.604
224.761
293.694
366.274
443.401
525.932
614.455
708.652
805.582
895.08
947.381
881.599
500.155
31.0063
93.4058
156.972
222.51
290.864
362.941
439.739
522.39
612.233
710.95
820.839
944.923
1083.61
1205.85
1055.01
30.4055
91.6024
153.964
218.293
285.434
356.311
431.991
513.831
603.816
705.454
826.221
984.597
1231.24
1719.75
2970.42
29.5358
88.9875
149.585
212.113
277.397
346.332
419.956
499.606
587.294
686.653
805.49
962.971
1210.93
1704.42
2964.48
28.402
85.5757
143.862
204.016
266.818
333.09
403.732
479.802
562.67
654.32
757.938
878.532
1020.15
1156.8
1035.45
27.0118
81.3919
136.843
194.081
253.829
316.809
383.739
455.288
531.959
613.688
698.626
779.522
832.857
788.417
460.309
25.3746
76.4665
128.585
182.407
238.599
297.792
360.545
427.23
497.76
570.851
642.156
699.695
713.512
617.069
296.664
23.5005
70.8313
119.148
169.096
221.294
276.315
334.634
396.524
461.811
529.289
595.291
650.285
670.8
601.309
322.577
21.3985
64.5151
108.586
154.232
202.044
252.566
306.266
363.486
424.38
488.799
556.127
624.894
690.675
730.942
603.004
19.0758
57.5404
96.9391
137.876
180.929
226.634
275.48
327.933
384.545
446.344
516.03
601.669
728.38
977.521
1632.22
16.5372
49.922
84.2324
120.066
157.994
198.546
242.221
289.529
341.158
398.476
464.93
550.024
681.205
942.67
1618.89
13.7848
41.6663
70.4776
100.819
133.257
168.318
206.475
248.166
293.873
344.331
400.969
466.477
543.691
620.008
559.452
10.8177
32.7708
55.6714
80.1303
106.724
135.972
168.312
204.058
243.341
285.962
330.933
374.9
406.921
392.541
235.11
7.63195
23.2237
39.7943
57.9772
78.3709
101.511
127.823
157.539
190.544
226.028
261.674
291.704
302.474
264.509
128.039
4.22063
13.0038
22.8096
34.3067
48.1358
64.8796
85.0084
108.783
136.079
166.043
196.388
221.964
231.955
204.959
104.065
0.574133
2.08068
4.66269
9.03521
15.9017
25.9295
39.7009
57.6284
79.8178
105.856
134.482
163.13
187.201
196.8
154.602
-3.31892
-9.58196
-14.7149
-17.9493
-18.5022
-15.5886
-8.45568
3.5574
20.9384
43.935
72.6231
107.557
152.581
224.701
390.632
-7.47
-22.0221
-35.3981
-46.7768
-55.2873
-60.0049
-59.9654
-54.2013
-41.7908
-21.8755
6.48609
45.057
99.2337
187.573
377
-11.8882
-35.2716
-57.4558
-77.5771
-94.6801
-107.692
-115.414
-116.537
-109.686
-93.4924
-66.6818
-28.209
22.2472
80.3617
111.089
-16.5772
-49.3468
-80.9335
-110.455
-136.888
-159.021
-175.409
-184.371
-184.025
-172.427
-147.891
-109.733
-59.9865
-7.75257
20.8759
-21.5311
-64.2363
-105.833
-145.459
-182.059
-214.306
-240.524
-258.629
-266.137
-260.297
-238.506
-199.251
-143.89
-79.4241
-20.4334
-26.7305
-79.8881
-132.09
-182.547
-230.229
-273.75
-311.237
-340.207
-357.476
-359.197
-341.2
-299.907
-234.073
-147.257
-49.1404
-32.1383
-96.196
-159.547
-221.545
-281.267
-337.354
-387.831
-429.873
-459.57
-471.744
-460.028
-417.558
-338.789
-222.91
-77.9507
-37.6956
-112.988
-187.929
-262.107
-334.805
-404.828
-470.249
-528.074
-573.789
-600.837
-600.173
-560.372
-469.244
-318.733
-114.351
-43.3195
-130.015
-216.83
-303.677
-390.177
-475.467
-557.91
-634.648
-700.93
-749.126
-767.455
-738.787
-640.904
-451.944
-167.632
-48.9018
-146.951
-245.697
-345.471
-446.366
-548.055
-649.498
-748.445
-840.587
-918.11
-967.329
-965.228
-875.774
-651.349
-256.287
-54.3115
-163.394
-273.836
-386.469
-501.979
-620.782
-742.781
-866.926
-990.352
-1106.7
-1202.79
-1252.28
-1204.33
-969.219
-426.54
-59.3994
-178.887
-300.443
-425.449
-555.281
-691.256
-834.535
-985.861
-1144.98
-1309.29
-1470.57
-1606.95
-1662.81
-1500.63
-812.343
-64.0066
-192.936
-324.64
-461.062
-604.29
-756.626
-920.659
-1099.33
-1295.96
-1513.93
-1755.57
-2017.47
-2272.64
-2397.3
-1848.41
-67.9753
-205.05
-345.549
-491.931
-646.951
-813.838
-996.566
-1200.29
-1432.05
-1702.09
-2026.43
-2432.57
-2973.04
-3761.61
-5070.46
4318.69
3214.57
2549.58
2093.69
1750.68
1476.02
1246.45
1048.44
873.373
715.368
570.157
434.477
305.7
181.61
60.2391
1577.28
2053.14
1954
1741.94
1522.51
1318.81
1133.85
965.825
811.968
669.616
536.407
410.285
289.438
172.237
57.177
696.054
1290.97
1436.8
1395.28
1283.4
1148.55
1009.48
873.35
742.558
617.502
497.727
382.422
270.638
161.375
53.6238
368.423
840.626
1049.66
1097.46
1060.21
981.202
883.045
777.148
669.149
561.707
455.932
352.109
250.083
149.46
49.72
224.565
573.021
774.483
858.686
865.981
827.135
761.966
682.391
595.339
504.744
412.772
320.541
228.549
136.93
45.6069
150.616
407.483
580.716
673.298
703.783
691.33
650.876
592.813
523.977
448.728
369.784
288.8
206.752
124.193
41.4169
107.472
300.017
442.943
531.021
571.39
574.957
552.001
510.703
457.058
395.27
328.206
257.792
185.307
111.604
37.2665
79.8795
227.003
343.249
421.865
464.541
476.99
465.853
437.156
395.785
345.467
288.948
228.218
164.705
99.4528
33.2514
61.0605
175.426
269.681
337.658
378.673
395.393
391.89
372.402
340.717
299.962
252.611
200.571
145.307
87.9594
29.4448
47.6264
137.81
214.357
272.168
309.669
327.83
329.019
316.111
291.939
259.033
219.524
175.158
127.355
77.2743
25.8982
37.7118
109.661
172.039
220.777
254.089
272.046
275.931
267.634
249.222
222.684
189.804
152.13
110.981
67.4874
22.6428
30.209
88.1574
139.189
180.095
209.165
226.028
231.298
226.177
212.144
190.733
163.411
131.513
96.233
58.6373
19.6933
24.4207
71.4548
113.367
147.629
172.713
188.057
193.875
190.903
180.183
162.885
140.192
113.241
83.091
50.7224
17.0506
19.8871
58.307
92.8566
121.533
143.02
156.698
162.551
161.007
152.788
138.778
119.927
97.1883
71.4879
43.7112
14.7059
16.2933
47.8455
76.4219
100.427
118.746
130.771
136.36
135.741
129.41
118.03
102.359
83.1901
61.3251
37.5521
12.6431
13.4175
39.4494
63.1594
83.2688
98.8392
109.309
114.476
114.44
109.536
100.261
87.2161
71.0623
52.4858
32.1811
10.8418
11.0989
32.6647
52.3959
69.2601
82.472
91.528
96.2026
96.5171
92.6938
85.1055
74.2306
60.6152
44.8452
27.5277
9.27943
9.21877
27.1531
43.6218
57.7859
68.9887
76.7868
80.9541
81.4649
78.4636
72.2304
63.1462
51.6625
38.278
23.52
7.93243
7.68784
22.6586
36.4469
48.3664
57.8677
64.5647
68.2425
68.8489
66.4755
61.333
53.726
44.0283
32.6633
20.0875
6.77775
6.43784
18.9845
30.5684
40.6245
48.692
54.4371
57.6615
58.2998
56.4078
52.145
45.7556
37.5503
27.8883
17.1639
5.79352
5.41602
15.9783
25.7498
34.262
41.1272
46.0576
48.8738
49.5056
47.9842
44.4314
39.0445
32.0822
23.8501
14.6881
4.95949
4.58127
13.5206
21.8043
29.0414
34.9041
39.144
41.6008
42.204
40.969
37.9892
33.4255
27.4942
20.4562
12.6052
4.25739
3.90127
11.5172
18.5844
24.7736
29.8058
33.4663
35.6124
36.1763
35.1629
32.6447
28.7539
23.6731
17.6258
10.8663
3.671
3.35057
9.89391
15.9729
21.3072
25.6577
28.8376
30.7201
31.2411
30.3989
28.2508
24.9065
20.5214
15.2884
9.42924
3.18619
2.90911
8.59213
13.8769
18.522
22.3199
25.1071
26.7701
27.2493
26.5389
24.6847
21.7793
17.9565
13.3844
8.25781
2.79085
2.56119
7.5658
12.2233
16.3226
19.6812
22.1539
23.6387
24.0801
23.4699
21.8454
19.2864
15.9097
11.8637
7.32168
2.47484
2.29461
6.77922
10.9554
14.6349
17.6544
19.8831
21.228
21.6372
21.1012
19.6515
17.358
14.3249
10.6855
6.59604
2.22982
2.10016
6.20537
10.0299
13.4023
16.173
18.2218
19.4624
19.8461
19.3625
18.0393
15.9396
13.1583
9.81749
6.0612
2.04918
1.97119
5.82467
9.41578
12.5838
15.1886
17.1167
18.2866
18.6518
18.2017
16.9616
14.9902
12.3765
9.2354
5.70232
1.92794
1.90328
5.62416
9.09216
12.1522
14.6688
16.5323
17.6636
18.0174
17.5834
16.3859
14.4818
11.957
8.92242
5.50911
1.86262
1.89404
5.59688
9.04801
12.093
14.5966
16.4496
17.5733
17.9227
17.4882
16.2945
14.3986
11.8866
8.86885
5.47559
1.85122
1.94305
5.74157
9.28139
12.4036
14.9691
16.8655
18.0122
18.364
17.9121
16.683
14.7366
12.1617
9.07184
5.59992
1.89309
2.05174
6.06253
9.7994
13.0937
15.7978
17.7926
18.9934
19.3537
18.8661
17.5609
15.5033
12.788
9.53522
5.88434
1.98896
2.22342
6.56968
10.6183
14.1853
17.1091
19.26
20.5467
20.9208
20.377
18.9515
16.7177
13.7802
10.2694