/*--------------------------------*- C++ -*----------------------------------*\
| =========                 |                                                 |
| \\      /  F ield         | OpenFOAM: The Open Source CFD Toolbox           |
|  \\    /   O peration     | Version:  5.x                                   |
|   \\  /    A nd           | Web:      www.OpenFOAM.org                      |
|    \\/     M anipulation  |                                                 |
\*---------------------------------------------------------------------------*/
FoamFile
{
    version     2.0;
    format      ascii;
    class       volScalarField;
    location    "3.1";
    object      gradTx;
}
// * * * * * * * * * * * * * * * * * * * * * * * * * * * * * * * * * * * * * //

dimensions      [0 -1 0 1 0 0 0];

internalField   nonuniform List<scalar> 
6300
(
4159.16
4147.37
4123.75
4088.2
4040.6
3980.82
3908.76
3824.37
3727.73
3619.08
3498.9
3367.93
3227.27
3078.34
2922.91
4170.75
4159.01
4135.48
4100.05
4052.58
3992.91
3920.89
3836.44
3739.56
3630.45
3509.51
3377.47
3235.37
3084.69
2927.23
4193.87
4182.24
4158.91
4123.75
4076.58
4017.16
3945.28
3860.74
3763.46
3653.47
3531.07
3396.89
3251.92
3097.66
2936.03
4228.42
4216.97
4193.98
4159.28
4112.61
4053.68
3982.13
3897.62
3799.87
3688.72
3564.25
3426.92
3277.63
3117.86
2949.73
4274.22
4263.04
4240.56
4206.56
4160.72
4102.62
4031.75
3947.56
3849.49
3737.1
3610.14
3468.74
3313.64
3146.28
2969.01
4331.01
4320.2
4298.45
4265.48
4220.9
4164.13
4094.5
4011.17
3913.26
3799.88
3670.28
3524.12
3361.73
3184.47
2994.93
4398.39
4388.09
4367.34
4335.83
4293.05
4238.32
4170.74
4089.19
3992.33
3878.68
3746.8
3595.54
3424.55
3234.79
3029.13
4475.86
4466.23
4446.8
4417.22
4376.94
4325.15
4260.76
4182.32
4087.98
3975.53
3842.51
3686.53
3505.96
3300.87
3074.18
4562.76
4553.96
4536.2
4509.11
4472.13
4424.39
4364.63
4291.14
4201.54
4092.76
3960.98
3801.93
3611.71
3388.37
3134.25
4658.23
4650.43
4634.7
4610.69
4577.88
4535.42
4482.04
4415.85
4334.09
4232.8
4106.53
3948.32
3750.4
3506.5
3216.36
4761.28
4754.64
4741.24
4720.86
4693.06
4657.15
4612.03
4555.92
4485.95
4397.6
4283.82
4134.23
3934.89
3670.7
3333.27
4870.75
4865.37
4854.56
4838.22
4816.12
4787.88
4752.8
4709.61
4655.98
4587.61
4496.73
4369.68
4184.05
3907.97
3510.15
4985.36
4981.3
4973.19
4961.1
4945.09
4925.21
4901.45
4873.53
4840.52
4799.92
4745.59
4663.5
4523.45
4266.78
3802.97
5103.82
5101.04
5095.58
5087.67
5077.69
5066.19
5054.01
5042.29
5032.42
5025.72
5021.99
5015.05
4979.25
4832.52
4355.41
5224.82
5223.22
5220.18
5216.08
5211.55
5207.6
5205.88
5208.95
5220.92
5248.31
5301.37
5395.21
5545.74
5728.39
5604.46
2776.62
2641.73
2506.5
2372.26
2240.27
2111.68
1987.51
1868.64
1755.77
1649.42
1549.98
1457.69
1372.67
1294.93
1224.39
1160.91
1104.29
1054.26
1010.53
972.766
940.596
913.611
891.368
873.387
859.153
848.12
839.716
833.358
828.463
824.471
820.86
817.167
812.999
808.04
802.047
794.837
786.278
776.262
764.702
751.514
736.624
719.97
701.512
681.239
659.178
635.389
609.955
582.974
554.534
524.703
493.512
460.947
426.951
391.429
354.256
315.289
274.379
231.378
186.14
138.52
88.3642
35.5014
-20.2678
-79.1796
-141.512
-207.587
-277.765
-352.438
-432.019
-516.928
-607.582
-704.383
-807.708
-917.901
-1035.27
-1160.07
-1292.51
-1432.72
-1580.76
-1736.58
-1900
-2070.68
-2248.11
-2431.58
-2620.16
-2812.72
-3007.9
-3204.18
-3399.9
-3593.33
2778.9
2642.1
2504.97
2368.91
2235.26
2105.2
1979.8
1859.93
1746.29
1639.4
1539.62
1447.16
1362.13
1284.49
1214.17
1150.99
1094.74
1045.14
1001.9
964.674
933.093
906.75
885.2
867.962
854.517
844.307
836.745
831.227
827.142
823.901
820.959
817.832
814.121
809.514
803.782
796.768
788.361
778.476
767.035
753.956
739.156
722.562
704.119
683.811
661.665
637.754
612.184
585.075
556.541
526.667
495.495
463.013
429.157
393.816
356.849
318.098
277.404
234.614
189.588
142.19
92.2824
39.7085
-15.7185
-74.2275
-136.095
-201.649
-271.26
-345.337
-424.308
-508.614
-598.687
-694.943
-797.768
-907.517
-1024.51
-1149.01
-1281.25
-1421.38
-1569.49
-1725.57
-1889.46
-2060.87
-2239.32
-2424.11
-2614.34
-2808.83
-3006.2
-3204.86
-3403.07
-3599
2783.53
2642.79
2501.76
2362
2224.96
2091.93
1964.03
1842.16
1727
1619.06
1518.63
1425.88
1340.85
1263.48
1193.61
1131.05
1075.55
1026.83
984.565
948.417
918.014
892.952
872.79
857.047
845.193
836.653
830.809
827.006
824.581
822.881
821.303
819.32
816.516
812.589
807.348
800.69
792.56
782.92
771.715
758.866
744.266
727.809
709.406
689.023
666.691
642.508
616.629
589.229
560.478
530.503
499.369
467.066
433.508
398.555
362.023
323.72
283.461
241.087
196.467
149.494
100.061
48.0467
-6.70692
-64.412
-125.343
-189.838
-258.293
-331.15
-408.878
-491.955
-580.847
-675.995
-777.807
-886.654
-1002.87
-1126.75
-1258.55
-1398.48
-1546.68
-1703.21
-1868
-2040.83
-2221.29
-2408.74
-2602.26
-2800.68
-3002.52
-3206.07
-3409.39
-3610.46
2790.69
2643.77
2496.62
2351.07
2208.77
2071.18
1939.49
1814.63
1697.26
1587.81
1486.51
1393.43
1308.5
1231.59
1162.48
1100.9
1046.57
999.174
958.383
923.85
895.208
872.064
853.987
840.501
831.07
825.094
821.906
820.78
820.953
821.666
822.208
821.973
820.51
817.539
812.941
806.716
798.922
789.604
778.755
766.286
752.045
735.849
717.541
697.04
674.378
649.705
623.262
595.331
566.18
536.013
504.934
472.93
439.879
405.575
369.759
332.17
292.576
250.807
206.754
160.357
111.575
60.3516
6.57826
-49.9261
-109.43
-172.293
-238.954
-309.914
-385.71
-466.883
-553.954
-647.405
-747.668
-855.128
-970.137
-1093.02
-1224.08
-1363.6
-1511.81
-1668.88
-1834.88
-2009.72
-2193.11
-2384.5
-2583.03
-2787.48
-2996.27
-3207.47
-3418.85
-3628.01
2800.67
2644.93
2489.08
2335.33
2185.69
2041.82
1905.02
1776.23
1656.04
1544.76
1442.5
1349.16
1264.55
1188.42
1120.43
1060.26
1007.55
961.966
923.15
890.763
864.452
843.847
828.545
818.087
811.945
809.494
810.009
812.658
816.528
820.677
824.21
826.377
826.659
824.814
820.859
814.99
807.464
798.484
788.114
776.249
762.63
746.925
728.828
708.164
684.958
659.45
632.037
603.19
573.348
542.842
511.835
480.307
448.064
414.78
380.061
343.518
304.839
263.832
220.432
174.672
126.627
76.3498
23.8196
-31.0947
-88.6539
-149.25
-213.394
-281.682
-354.761
-433.276
-517.833
-608.962
-707.114
-812.68
-926.011
-1047.46
-1177.37
-1316.13
-1464.1
-1621.62
-1788.95
-1966.22
-2153.33
-2349.9
-2555.17
-2767.93
-2986.44
-3208.48
-3431.37
-3652.14
2813.92
2646.1
2478.38
2313.59
2154.19
2002.17
1858.93
1725.35
1601.89
1488.67
1385.56
1292.25
1208.36
1133.46
1067.09
1008.83
958.247
914.965
878.624
848.892
825.447
807.965
796.096
789.432
787.476
789.6
795.016
802.755
811.679
820.552
828.159
833.476
835.854
835.111
831.518
825.634
818.085
809.351
799.618
788.726
776.211
761.44
743.807
722.943
698.852
671.935
642.878
612.481
581.476
550.395
519.492
488.72
457.754
426.06
392.999
357.955
320.469
280.317
237.524
192.297
144.913
95.6131
44.5167
-8.42983
-63.4772
-121.072
-181.834
-246.518
-315.946
-390.934
-472.208
-560.36
-655.84
-758.997
-870.148
-989.636
-1117.87
-1255.33
-1402.57
-1560.16
-1728.64
-1908.45
-2099.82
-2302.66
-2516.42
-2739.97
-2971.42
-3208.16
-3446.82
-3683.57
2831.13
2647
2463.33
2283.94
2111.99
1949.79
1798.81
1659.81
1532.93
1417.96
1314.42
1221.71
1139.17
1066.15
1002.04
946.286
898.39
857.931
824.547
797.933
777.823
763.972
756.124
753.972
757.106
764.942
776.657
791.12
806.882
822.231
835.383
844.791
849.522
849.496
845.46
838.661
830.4
821.644
812.781
803.532
793.032
780.067
763.434
742.364
716.814
687.5
655.65
622.649
589.715
557.695
526.966
497.419
468.502
439.32
408.802
375.922
339.95
300.619
258.139
213.046
165.977
117.484
67.9006
17.2843
-34.6064
-88.3027
-144.597
-204.49
-269.093
-339.5
-416.638
-501.164
-593.463
-693.755
-802.229
-919.167
-1045.01
-1180.38
-1326.06
-1482.93
-1651.93
-1833.95
-2029.7
-2239.6
-2463.5
-2700.5
-2948.69
-3204.92
-3464.9
-3723.38
2853.34
2647.09
2442.02
2243.48
2055.63
1881.14
1721.39
1576.72
1446.75
1330.72
1227.63
1136.47
1056.22
985.972
924.923
872.385
827.787
790.672
760.689
737.578
721.159
711.307
707.923
710.877
719.94
734.677
754.315
777.595
802.659
827.055
847.975
862.825
870.02
869.636
863.366
853.779
843.414
834.081
826.488
820.128
813.396
803.967
789.446
768.231
740.192
706.713
670.081
632.722
596.64
563.139
532.744
505.218
479.638
454.513
428.015
398.355
364.281
325.469
282.534
236.655
189.11
140.943
92.7936
44.8567
-3.11065
-51.765
-102.151
-155.647
-213.848
-278.338
-350.392
-430.732
-519.534
-616.683
-722.071
-835.82
-958.381
-1090.54
-1233.36
-1388.17
-1556.4
-1739.58
-1939.14
-2156.27
-2391.6
-2644.83
-2914.24
-3196.19
-3484.98
-3773.19
2882.19
2645.37
2411.18
2187.54
1979.92
1791.19
1622.19
1472.38
1340.45
1224.76
1123.63
1035.45
958.811
892.502
835.508
787.012
746.372
713.112
686.904
667.558
655.01
649.305
650.57
658.96
674.58
697.333
726.707
761.479
799.378
836.861
869.29
891.86
901.413
898.236
886.031
870.004
854.927
844
838.411
837.249
837.639
835.191
825.093
803.92
771.402
730.467
685.559
640.956
599.85
564.117
534.394
510.221
490.126
471.694
451.791
427.156
395.447
356.27
311.184
262.679
213.157
164.394
117.401
72.4945
29.398
-12.7088
-55.1969
-99.9995
-149.514
-206.25
-272.177
-348.074
-433.546
-527.702
-629.824
-739.735
-857.878
-985.263
-1123.36
-1273.99
-1439.29
-1621.55
-1823.21
-2046.63
-2293.82
-2565.78
-2861.61
-3177.46
-3505.79
-3835.5
2920.35
2639.75
2365.03
2108.43
1876.89
1672.74
1495.29
1342.23
1210.7
1097.8
1000.91
917.763
846.491
785.577
733.819
690.291
654.301
625.369
603.21
587.722
578.982
577.244
582.932
596.614
618.927
650.432
691.307
740.841
796.673
853.927
904.779
939.622
951.115
939.82
914.184
884.844
860.448
846.222
843.947
852.129
865.959
877.425
876.684
855.941
814.73
759.938
700.599
644.153
595.327
556.443
528.057
509.359
498.227
491.003
482.391
466.155
437.38
395.595
344.772
290.18
236.13
185.316
139.022
97.5463
60.5035
26.9204
-4.88411
-37.5384
-74.7513
-120.896
-179.571
-251.591
-335.015
-427.206
-526.317
-631.746
-744.018
-864.511
-995.229
-1138.65
-1297.66
-1475.51
-1675.84
-1902.68
-2160.26
-2452.24
-2780.03
-3140.65
-3524.47
-3914.23
2972.33
2625.53
2292.69
1993.14
1734.32
1515.77
1333.15
1181.01
1054.06
947.74
858.347
782.934
719.214
665.43
620.25
582.686
552.037
527.847
509.887
498.148
492.85
494.469
503.766
521.816
550.021
590.019
643.419
711.113
791.899
880.191
963.299
1020.99
1033.61
1002.03
947.653
892.551
851.308
831.222
834.413
858.864
897.674
937.232
957.071
937.432
877.613
795.954
711.473
636.381
576.487
533.658
507.772
497.61
500.707
512.319
523.979
523.225
498.058
447.948
383.803
316.915
254.459
199.745
153.725
116.233
86.6481
64.0111
46.6769
31.5137
12.9019
-17.4667
-67.7135
-138.651
-223.823
-316.707
-413.67
-513.86
-618.27
-728.986
-848.751
-980.802
-1128.83
-1297.02
-1490.22
-1714.37
-1977.09
-2287.02
-2651.05
-3070.34
-3534.45
-4015.98
3046.47
2591.06
2172.29
1819.07
1533.71
1306.98
1127.1
983.468
867.649
773.267
695.611
631.23
577.597
532.864
495.685
465.099
440.449
421.334
407.587
399.278
396.74
400.622
411.975
432.382
464.113
510.292
574.932
662.512
776.296
913.9
1058.4
1167.22
1179.74
1097.05
982.144
880.285
811.691
782.69
794.258
844.914
928.307
1025.43
1094.3
1076.78
971.944
836.033
708.825
606.723
533.078
486.477
464.85
466.776
490.931
533.576
583.456
615.46
594.668
520.526
426.797
337.282
261.654
201.67
156.161
123.553
102.805
93.4861
95.1343
105.557
117.513
114.617
73.9703
-5.17986
-101.493
-200.297
-296.343
-389.856
-483.403
-580.382
-684.532
-799.894
-930.901
-1082.45
-1259.98
-1470.42
-1725.87
-2043.78
-2442.42
-2935.36
-3519.22
-4152.73
3159.52
2503.69
1957.4
1547.21
1248.61
1030.65
868.774
745.824
650.332
574.671
513.728
464.02
423.138
389.394
361.604
338.946
320.874
307.073
297.439
292.083
291.371
296.001
307.135
326.627
357.387
403.965
473.395
576.161
726.371
937.66
1204.84
1452.12
1462.93
1238.45
997.823
820.101
715.044
675.725
697.808
783.814
939.167
1154.29
1355.94
1341.85
1111.02
863.579
670.023
536.089
450.726
403.335
388.016
403.939
454.535
544.425
668.687
783.736
768.115
621.322
463.737
337.663
246.337
182.763
140.032
113.807
102.521
107.186
130.977
177.415
243.538
301.09
271.13
153.037
24.4541
-87.8287
-182.629
-265.771
-343.556
-421.412
-504.126
-596.405
-703.338
-830.386
-982.273
-1161.56
-1384.62
-1684.19
-2097.88
-2669.35
-3432.36
-4348.31
3348.49
2258.49
1546.4
1114.59
847.304
673.529
554.353
468.608
404.424
354.853
315.642
284.08
258.379
237.334
220.118
206.172
195.134
186.801
181.119
178.188
178.299
182.004
190.251
204.634
227.871
264.722
323.841
421.474
588.476
880.912
1379.91
2077.5
2084.9
1403.07
922.894
655.266
523.721
480.333
509.302
622.846
863.954
1302.54
1928.25
1919.01
1274.02
813.526
545.365
395.515
313.695
274.011
266.197
291.18
361.562
505.79
767.2
1140.19
1130.47
737.672
455.315
288.02
191.066
133.85
100.148
82.5599
79.2783
93.3604
134.226
220.95
381.93
613.612
595.236
326.388
126.956
-0.509658
-85.6805
-149.374
-203.581
-255.418
-309.911
-371.772
-446.759
-542.493
-665.03
-789.614
-933.112
-1160.2
-1526.04
-2127.45
-3125.13
-4654.99
3698.17
1468.98
731.73
444.997
311.305
237.749
191.766
160.322
137.456
120.101
106.527
95.685
86.9059
79.7479
73.9135
69.2037
65.4908
62.7052
60.8304
59.9069
60.0459
61.46
64.5227
69.8878
78.7438
93.4042
118.82
166.886
269.939
526.695
1268.98
3696.68
3699.32
1277.28
541.873
294.457
205.443
180.738
199.004
278.18
504.364
1181.34
3414.89
3411.65
1171.32
486.518
250.34
156.978
115.988
98.7982
97.1524
113.049
162.258
298.42
705.052
2047.77
2044.47
695.007
281.214
137.095
78.5783
51.084
37.065
30.7193
31.0404
40.9769
71.451
157.573
418.541
1286.25
1280.06
399.809
125.85
25.9222
-19.6422
-46.6231
-66.9992
-85.5772
-105.063
-128.207
-160.266
-215.947
-344.756
-390.342
-361.158
-436.358
-614.921
-1014.8
-2051.45
-5191.67
-3801.15
-4020.02
-4227.87
-4422.51
-4602.24
-4765.87
-4912.65
-5042.25
-5154.63
-5249.99
-5328.64
-5390.97
-5437.33
-5468.05
-5483.35
-3809.44
-4030.9
-4240.92
-4437.26
-4618.19
-4782.54
-4929.66
-5059.28
-5171.47
-5266.51
-5344.79
-5406.74
-5452.79
-5483.28
-5498.46
-3826.29
-4053.06
-4267.52
-4467.26
-4650.54
-4816.29
-4963.99
-5093.57
-5205.3
-5299.61
-5377.07
-5438.24
-5483.61
-5513.62
-5528.55
-3852.33
-4087.39
-4308.67
-4513.55
-4700.27
-4867.93
-5016.27
-5145.55
-5256.34
-5349.39
-5425.47
-5485.33
-5529.62
-5558.85
-5573.38
-3888.57
-4135.35
-4366.08
-4577.83
-4768.91
-4938.7
-5087.42
-5215.82
-5324.95
-5415.94
-5489.89
-5547.8
-5590.49
-5618.6
-5632.55
-3936.6
-4199.21
-4442.32
-4662.62
-4858.65
-5030.36
-5178.71
-5305.19
-5411.51
-5499.34
-5570.17
-5625.3
-5665.76
-5692.32
-5705.47
-3998.87
-4282.42
-4541.19
-4771.53
-4972.53
-5145.2
-5291.68
-5414.54
-5516.37
-5599.52
-5665.95
-5717.28
-5754.74
-5779.24
-5791.35
-4079.16
-4390.25
-4668.31
-4909.62
-5114.57
-5286.06
-5428.08
-5544.73
-5639.73
-5716.21
-5776.63
-5822.92
-5856.5
-5878.36
-5889.14
-4183.55
-4530.95
-4832.03
-5083.9
-5289.88
-5456.22
-5589.67
-5696.39
-5781.43
-5848.74
-5901.24
-5941.07
-5969.77
-5988.37
-5997.51
-4322.23
-4717.83
-5044.79
-5303.88
-5504.67
-5659.05
-5777.8
-5869.54
-5940.69
-5995.88
-6038.29
-6070.14
-6092.93
-6107.63
-6114.84
-4513.57
-4973.18
-5325.22
-5581.97
-5765.7
-5897.3
-5992.72
-6063.06
-6115.73
-6155.58
-6185.7
-6208.07
-6223.96
-6234.18
-6239.18
-4793.71
-5335.93
-5700.76
-5932.88
-6078.67
-6171.54
-6232.51
-6274.04
-6303.41
-6324.8
-6340.62
-6352.24
-6360.46
-6365.73
-6368.31
-5242.49
-5875.9
-6208.82
-6369.93
-6444.36
-6477.48
-6491.5
-6496.97
-6498.85
-6499.39
-6499.53
-6499.6
-6499.68
-6499.77
-6499.83
-6064.15
-6716.15
-6888.47
-6893.4
-6851.19
-6802.3
-6758.8
-6723.28
-6695.44
-6674.17
-6658.27
-6646.7
-6638.68
-6633.63
-6631.19
-7877.66
-8035.87
-7735.3
-7463.78
-7264.49
-7121.5
-7017.85
-6941.69
-6885.26
-6843.36
-6812.44
-6790.03
-6774.47
-6764.65
-6759.9
5336.98
5336.31
5335.16
5333.97
5333.49
5334.97
5340.45
5353.33
5379.34
5428.6
5519.86
5691.46
6035.32
6830.4
9172.1
5439.24
5439.28
5439.54
5440.47
5442.8
5447.79
5457.48
5475.29
5507.06
5563.14
5662.49
5840.94
6166.84
6757.95
7681.4
5541.32
5541.92
5543.29
5545.81
5550.09
5557.17
5568.7
5587.37
5617.71
5667.45
5749.99
5887.84
6113.96
6454.47
6834.62
5642.81
5643.85
5646.08
5649.73
5655.25
5663.27
5674.77
5691.18
5714.7
5748.78
5798.87
5873.25
5981.44
6123.24
6254.48
5743.39
5744.8
5747.69
5752.18
5758.47
5766.77
5777.24
5789.87
5804.18
5818.77
5830.7
5834.99
5825.38
5799.11
5768.16
5842.83
5844.54
5847.99
5853.19
5860.11
5868.57
5878.03
5887.22
5893.28
5890.4
5867.62
5806.18
5680.67
5478.03
5263.04
5940.9
5942.91
5946.9
5952.82
5960.49
5969.47
5978.84
5986.55
5988.38
5975.66
5931.18
5821.65
5589.34
5165.32
4611.31
6037.4
6039.71
6044.29
6051.04
6059.75
6069.92
6080.6
6089.79
6093.37
6082.79
6039.7
5922.19
5630.94
4942.66
3577.56
6132.12
6134.75
6139.98
6147.71
6157.78
6169.83
6183.22
6196.73
6207.97
6212.31
6199.71
6143.17
5948.06
5189.83
1598.54
6224.84
6227.81
6233.73
6242.56
6254.23
6268.62
6285.59
6305.04
6327.15
6353.4
6390.04
6460.15
6656.05
7404.21
10981.8
6315.32
6318.63
6325.27
6335.24
6348.58
6365.42
6386.06
6411.32
6443.23
6487.07
6556.92
6689.58
6980.31
7653.44
8998.87
6403.32
6406.97
6414.29
6425.36
6440.3
6459.37
6483.15
6512.81
6550.79
6602.49
6679.99
6809
7038.82
7435.57
7953.03
6488.61
6492.57
6500.53
6512.59
6528.93
6549.86
6575.98
6608.32
6648.59
6699.79
6767.1
6858.18
6981.2
7133.65
7269.35
6570.98
6575.21
6583.73
6596.64
6614.14
6636.55
6664.33
6698.13
6738.57
6785.72
6837.49
6884.94
6902.96
6843.13
6682.74
6650.22
6654.69
6663.67
6677.3
6695.74
6719.3
6748.32
6783.14
6823.67
6868.23
6910.7
6931.92
6878.58
6622.21
5987.57
6726.19
6730.84
6740.2
6754.39
6773.58
6798.04
6828.09
6864.02
6905.72
6951.99
6998.46
7030.46
6995
6663.75
4854.52
6798.75
6803.54
6813.19
6827.8
6847.55
6872.71
6903.61
6940.69
6984.38
7035.41
7096.07
7175.64
7316.62
7731.44
9584.11
6867.8
6872.69
6882.53
6897.42
6917.55
6943.17
6974.67
7012.57
7057.72
7111.93
7180.36
7277.94
7447.88
7800.41
8486.84
6933.28
6938.22
6948.16
6963.2
6983.52
7009.36
7041.1
7079.24
7124.54
7178.4
7244.2
7329.78
7452.15
7637.3
7869.06
6995.14
7000.09
7010.05
7025.11
7045.43
7071.26
7102.9
7140.75
7185.17
7236.38
7294.11
7355.86
7412.61
7441.63
7415.02
7053.38
7058.3
7068.19
7083.15
7103.32
7128.91
7160.21
7197.5
7240.86
7289.64
7341.04
7385.19
7392.14
7284.37
6945.28
7108.03
7112.88
7122.63
7137.36
7157.22
7182.4
7213.18
7249.86
7292.57
7340.89
7392.81
7440.15
7451.15
7287.53
6242.84
7159.13
7163.87
7173.4
7187.8
7207.2
7231.81
7261.89
7297.85
7340.14
7389.45
7447.57
7520.13
7631.22
7902.34
9011.4
7206.75
7211.35
7220.6
7234.56
7253.36
7277.2
7306.35
7341.26
7382.59
7431.71
7492.13
7573.13
7699.99
7935.04
8359.17
7251
7255.43
7264.32
7277.75
7295.82
7318.7
7346.64
7380.02
7419.42
7465.93
7522.2
7594.08
7693.44
7836.24
8004.21
7291.99
7296.22
7304.7
7317.51
7334.72
7356.48
7382.97
7414.43
7451.09
7493.2
7541.24
7595.74
7656.54
7719.77
7768.61
7329.86
7333.86
7341.89
7353.99
7370.26
7390.77
7415.68
7445.04
7478.75
7516.16
7555.63
7592.81
7617.76
7613.1
7569.63
7364.78
7368.53
7376.05
7387.39
7402.62
7421.83
7445.11
7472.47
7503.62
7537.5
7571.42
7598.16
7599.38
7533.18
7343.16
7396.91
7400.39
7407.36
7417.88
7432.01
7449.86
7471.53
7497.09
7526.37
7558.63
7592.02
7621.03
7627.65
7539.05
6987.42
7426.45
7429.63
7436.01
7445.64
7458.61
7475.04
7495.09
7518.96
7546.82
7578.8
7615.49
7659.24
7721.86
7866.27
8447.16
7453.61
7456.46
7462.2
7470.88
7482.6
7497.5
7515.82
7537.89
7564.19
7595.52
7633.89
7684.14
7759.12
7890.2
8117.04
7478.6
7481.11
7486.16
7493.81
7504.17
7517.39
7533.77
7553.71
7577.84
7607.19
7643.86
7691.69
7757.26
7847.48
7947.04
7501.66
7503.8
7508.11
7514.65
7523.53
7534.9
7549.07
7566.45
7587.66
7613.61
7645.9
7686.72
7738.12
7798.09
7848.78
7523.05
7524.8
7528.32
7533.67
7540.94
7550.28
7561.96
7576.36
7593.98
7615.46
7641.85
7674.21
7712.89
7754.99
7788.31
7543.05
7544.38
7547.06
7551.14
7556.69
7563.84
7572.8
7583.87
7597.39
7613.73
7633.48
7657.15
7685.12
7717.81
7753.56
7561.93
7562.82
7564.63
7567.38
7571.12
7575.95
7582.01
7589.51
7598.63
7609.48
7622.23
7636.92
7653.93
7678.33
7746.22
7579.99
7580.44
7581.34
7582.71
7584.58
7587
7590.05
7593.86
7598.45
7603.73
7609.49
7614.89
7617.46
7608.48
7546.63
7597.55
7597.54
7597.52
7597.49
7597.44
7597.4
7597.4
7597.48
7597.59
7597.5
7596.84
7594.67
7588.87
7575.2
7548.59
7614.93
7614.46
7613.5
7612.06
7610.08
7607.57
7604.52
7600.92
7596.65
7591.49
7585.09
7576.81
7565.63
7550.79
7534.59
7632.43
7631.5
7629.62
7626.76
7622.88
7617.92
7611.85
7604.63
7596.14
7586.17
7574.5
7560.81
7544.82
7527.22
7511.85
7650.37
7648.99
7646.2
7641.96
7636.19
7628.83
7619.8
7609.05
7596.46
7581.86
7565.17
7546.26
7525.01
7501.99
7480.99
7669.06
7667.24
7663.57
7657.98
7650.38
7640.67
7628.76
7614.56
7597.96
7578.84
7557.23
7533.17
7506.34
7475.25
7438.1
7688.8
7686.56
7682.04
7675.16
7665.8
7653.83
7639.12
7621.55
7601
7577.37
7550.85
7521.85
7490.53
7452.64
7372.01
7709.87
7707.23
7701.92
7693.82
7682.79
7668.66
7651.26
7630.43
7605.96
7577.73
7546.03
7511.98
7479.18
7459.63
7501.45
7732.53
7729.54
7723.49
7714.26
7701.68
7685.53
7665.6
7641.62
7613.3
7580.32
7542.68
7501.08
7458.52
7423.84
7413.94
7757.05
7753.73
7747.01
7736.77
7722.78
7704.8
7682.52
7655.62
7623.64
7585.96
7541.91
7490.69
7432.23
7370.73
7322.5
7783.62
7780.02
7772.74
7761.61
7746.39
7726.78
7702.43
7672.92
7637.68
7595.83
7545.95
7485.14
7407.95
7308.29
7200.59
7812.44
7808.61
7800.87
7789.02
7772.77
7751.8
7725.68
7693.96
7656.05
7611.05
7557.37
7490.78
7399.15
7251.38
7007
7843.65
7839.66
7831.57
7819.18
7802.15
7780.1
7752.57
7719.07
7679.08
7632.06
7577.54
7513.59
7429.19
7261.54
6646.97
7877.36
7873.28
7864.99
7852.25
7834.72
7811.92
7783.34
7748.42
7706.67
7658.03
7604.02
7550.37
7516.85
7581.97
8130.41
7913.63
7909.53
7901.19
7888.35
7870.62
7847.46
7818.24
7782.24
7738.74
7687.46
7629.97
7572.85
7535.74
7566.33
7732.28
7952.46
7948.42
7940.2
7927.53
7909.95
7886.88
7857.55
7820.97
7775.88
7720.89
7655.34
7581.11
7507.25
7456.23
7453.94
7993.8
7989.91
7982
7969.76
7952.76
7930.32
7901.59
7865.3
7819.53
7761.33
7686.41
7588.77
7462.54
7311.88
7178.71
8037.52
8033.88
8026.46
8014.97
7998.97
7977.8
7950.56
7915.88
7871.44
7813.04
7732.93
7615.89
7434.45
7155
6815.82
8083.46
8080.15
8073.4
8062.95
8048.39
8029.13
8004.38
7972.92
7932.64
7879.45
7804.72
7687.37
7474.07
7039.27
6222.32
8131.37
8128.47
8122.57
8113.42
8100.69
8083.9
8062.5
8035.72
8002.38
7960.46
7905.71
7825.06
7667.16
7188.63
5066.56
8180.96
8178.54
8173.62
8166
8155.4
8141.5
8124.01
8102.71
8077.66
8049.97
8024.27
8015.96
8082.52
8479
10544.3
8231.88
8230.01
8226.18
8220.24
8211.99
8201.22
8187.8
8171.9
8154.3
8137.7
8130.31
8154.38
8268.28
8609.83
9360.41
8283.77
8282.47
8279.82
8275.69
8269.92
8262.36
8252.96
8241.89
8229.78
8218.59
8214.05
8229.88
8295.39
8455.94
8703.94
8336.2
8335.51
8334.1
8331.86
8328.66
8324.37
8318.91
8312.2
8304.11
8294.42
8283.16
8270.33
8255.97
8240.64
8226.01
8388.75
8388.7
8388.56
8388.27
8387.71
8386.78
8385.34
8383.07
8379.06
8370.88
8352.88
8311.28
8216.66
8024.22
7744.28
8440.97
8441.57
8442.74
8444.43
8446.58
8449.13
8451.95
8454.75
8456.38
8453.69
8438.52
8388.49
8244.73
7867.95
7074.55
8492.42
8493.67
8496.15
8499.84
8504.74
8510.84
8518.21
8526.82
8536.19
8544.72
8547.86
8530.25
8434.1
8000.39
5860.24
8542.65
8544.53
8548.31
8553.99
8561.6
8571.26
8583.22
8597.93
8616.07
8639.03
8671.14
8726.01
8857.36
9317.27
11464.8
8591.19
8593.71
8598.75
8606.35
8616.59
8629.64
8645.94
8666.26
8692.06
8726.55
8778.13
8868.12
9051.97
9461.68
10268.2
8637.63
8640.75
8647.01
8656.45
8669.16
8685.35
8705.48
8730.38
8761.5
8801.76
8857.98
8944.52
9089.25
9330.02
9637.9
8681.53
8685.24
8692.66
8703.84
8718.86
8737.9
8761.34
8789.78
8824.06
8865.44
8916.32
8979.98
9059.38
9151.22
9227.59
8722.49
8726.76
8735.3
8748.13
8765.31
8786.97
8813.35
8844.73
8881.18
8922.09
8965.35
9003.98
9020.4
8982.64
8876.45
8760.14
8764.94
8774.55
8788.96
8808.21
8832.35
8861.51
8895.76
8934.7
8976.67
9017.15
9042.9
9018.57
8861.04
8457.68
8794.09
8799.42
8810.06
8826.01
8847.26
8873.82
8905.78
8943.16
8985.61
9031.87
9078.76
9116.1
9108.77
8909.58
7764.83
8823.99
8829.83
8841.49
8858.96
8882.17
8911.14
8945.93
8986.65
9033.38
9086.24
9146.59
9219.86
9331.78
9614.24
10800.4
8849.47
8855.83
8868.51
8887.48
8912.66
8944.01
8981.6
9025.6
9076.4
9135.02
9205.05
9296.33
9435.98
9690.99
10147.7
8870.19
8877.07
8890.79
8911.27
8938.42
8972.16
9012.47
9059.48
9113.51
9175.49
9248.38
9338.79
9459.72
9627.37
9817.47
8885.8
8893.21
8907.98
8930.02
8959.19
8995.34
9038.34
9088.13
9144.65
9208.01
9279.17
9359.66
9450.68
9547.81
9624.62
8895.91
8903.87
8919.75
8943.42
8974.7
9013.37
9059.16
9111.75
9170.59
9234.76
9303.11
9372.8
9437.06
9482.01
9490.35
8900.15
8908.7
8925.73
8951.13
8984.67
9026.06
9074.92
9130.69
9192.37
9258.27
9325.77
9389.3
9436.51
9441.24
9367.1
8898.12
8907.28
8925.54
8952.78
8988.78
9033.2
9085.57
9145.18
9210.78
9280.32
9350.84
9416.73
9465.12
9454.84
9197.52
8889.4
8899.2
8918.76
8947.97
8986.64
9034.44
9090.88
9155.18
9226.02
9301.34
9378.79
9455.93
9534.13
9639.61
9943.48
8873.54
8884.01
8904.91
8936.21
8977.76
9029.3
9090.41
9160.33
9237.71
9320.55
9406.61
9494.02
9583.88
9686.31
9816.2
8850.1
8861.23
8883.5
8916.95
8961.54
9017.16
9083.51
9159.96
9245.22
9337.18
9433.19
9530.03
9624.6
9713.65
9783.94
8818.61
8830.38
8853.99
8889.58
8937.29
8997.2
9069.28
9153.15
9247.67
9350.66
9458.86
9567.27
9668.86
9753.7
9805.26
8778.63
8790.98
8815.82
8853.43
8904.17
8968.44
9046.57
9138.61
9243.83
9360.2
9484.06
9608.88
9724.46
9816.53
9867.15
8729.76
8742.58
8768.44
8807.8
8861.28
8929.69
9013.9
9114.61
9231.84
9364.22
9508.27
9656.54
9796.07
9907.81
9968.93
8671.68
8684.8
8711.36
8752
8807.66
8879.63
8969.47
9078.83
9208.94
9359.82
9529.22
9709.91
9886.67
10033.9
10117.9
8604.19
8617.38
8644.18
8685.4
8742.35
8816.82
8911.2
9028.33
9171.21
9342.24
9541.99
9765.65
9997.44
10203.6
10329.8
8527.24
8540.21
8566.64
8607.54
8664.5
8739.86
8836.82
8959.65
9113.54
9304.38
9537.83
9815.37
10125.7
10428.3
10634.2
8440.98
8453.39
8478.74
8518.18
8573.53
8647.55
8744.21
8869.09
9029.82
9236.62
9502.72
9841.95
10259
10719.8
11086.2
8345.81
8357.27
8380.75
8417.42
8469.24
8539.19
8631.7
8753.34
8913.73
9127.35
9416.51
9814.09
10361.6
11076.4
11797.3
8242.41
8252.52
8273.27
8305.81
8352.02
8414.84
8498.7
8610.38
8760.3
8965.3
9254.67
9681.75
10347.6
11428.5
13013.7
8131.7
8140.08
8157.31
8184.38
8222.94
8275.55
8346.11
8440.59
8568.23
8744.34
8996.89
9383.2
10045.1
11430
15335.4
-12991.8
-9665.95
-8484.69
-7920.16
-7591.55
-7377.82
-7229.86
-7123.61
-7045.75
-6988.19
-6945.73
-6914.91
-6893.47
-6879.91
-6873.34
-11008.9
-9658.33
-8737.5
-8171.02
-7808.95
-7564.99
-7393.44
-7269.13
-7177.41
-7109.21
-7058.63
-7021.76
-6996.01
-6979.68
-6971.75
-9966.45
-9352.02
-8744.02
-8279.73
-7944.16
-7701.7
-7524.01
-7391.85
-7292.59
-7217.83
-7161.84
-7120.72
-7091.84
-7073.46
-7064.52
-9353.09
-9041.04
-8650.56
-8298.85
-8014.56
-7793.25
-7622.77
-7491.56
-7390.62
-7313.24
-7254.53
-7211
-7180.21
-7160.52
-7150.92
-8958.91
-8784.32
-8529.99
-8270.94
-8041.05
-7849.33
-7694.06
-7570.1
-7472.13
-7395.51
-7336.5
-7292.26
-7260.71
-7240.43
-7230.5
-8688.44
-8582.77
-8412.51
-8222.6
-8040.85
-7879.93
-7743.39
-7630.42
-7538.66
-7465.38
-7408.03
-7364.52
-7333.22
-7312.98
-7303.03
-8493.83
-8425.9
-8308.48
-8168.39
-8026.02
-7893.42
-7776.15
-7675.85
-7592.2
-7524
-7469.77
-7428.12
-7397.89
-7378.21
-7368.51
-8348.86
-8303.22
-8220.01
-8115.56
-8004.24
-7896.09
-7796.94
-7709.54
-7634.85
-7572.75
-7522.6
-7483.6
-7455.05
-7436.34
-7427.09
-8238.09
-8206.43
-8146.1
-8067.31
-7980.08
-7892.33
-7809.35
-7734.24
-7668.61
-7613.03
-7567.48
-7531.66
-7505.19
-7487.75
-7479.09
-8151.79
-8129.37
-8084.81
-8024.73
-7956.13
-7885.08
-7816.09
-7752.18
-7695.22
-7646.17
-7605.42
-7573.02
-7548.89
-7532.9
-7524.93
-8083.56
-8067.49
-8034.13
-7987.88
-7933.7
-7876.21
-7819.11
-7765.14
-7716.17
-7673.38
-7637.38
-7608.46
-7586.76
-7572.3
-7565.07
-8028.98
-8017.43
-7992.22
-7956.36
-7913.4
-7866.87
-7819.77
-7774.44
-7732.68
-7695.69
-7664.22
-7638.71
-7619.43
-7606.51
-7600.04
-7984.92
-7976.67
-7957.52
-7929.57
-7895.42
-7857.76
-7818.99
-7781.1
-7745.71
-7713.99
-7686.73
-7664.45
-7647.49
-7636.08
-7630.35
-7949.09
-7943.3
-7928.74
-7906.9
-7879.71
-7849.24
-7817.4
-7785.85
-7756.03
-7729.01
-7705.59
-7686.29
-7671.52
-7661.54
-7656.51
-7919.76
-7915.86
-7904.83
-7887.77
-7866.12
-7841.48
-7815.4
-7789.23
-7764.23
-7741.37
-7721.39
-7704.81
-7692.05
-7683.4
-7679.03
-7895.64
-7893.2
-7884.92
-7871.63
-7854.43
-7834.56
-7813.26
-7791.64
-7770.78
-7751.56
-7734.62
-7720.49
-7709.56
-7702.11
-7698.34
-7875.7
-7874.41
-7868.31
-7858.03
-7844.42
-7828.45
-7811.12
-7793.35
-7776.05
-7759.97
-7745.72
-7733.75
-7724.46
-7718.1
-7714.88
-7859.17
-7858.78
-7854.42
-7846.57
-7835.87
-7823.12
-7809.1
-7794.56
-7780.29
-7766.94
-7755.03
-7744.98
-7737.13
-7731.75
-7729.02
-7845.39
-7845.74
-7842.78
-7836.9
-7828.58
-7818.48
-7807.23
-7795.43
-7783.74
-7772.74
-7762.86
-7754.48
-7747.91
-7743.39
-7741.09
-7833.88
-7834.82
-7833
-7828.72
-7822.37
-7814.47
-7805.53
-7796.04
-7786.56
-7777.57
-7769.45
-7762.53
-7757.08
-7753.32
-7751.4
-7824.21
-7825.63
-7824.75
-7821.79
-7817.07
-7811.01
-7804.01
-7796.47
-7788.87
-7781.61
-7775.02
-7769.37
-7764.9
-7761.8
-7760.22
-7816.05
-7817.87
-7817.76
-7815.9
-7812.54
-7808.02
-7802.66
-7796.78
-7790.79
-7785.02
-7779.74
-7775.19
-7771.57
-7769.06
-7767.78
-7809.12
-7811.28
-7811.82
-7810.88
-7808.65
-7805.43
-7801.46
-7797
-7792.38
-7787.9
-7783.77
-7780.17
-7777.3
-7775.3
-7774.27
-7803.2
-7805.64
-7806.72
-7806.55
-7805.3
-7803.18
-7800.4
-7797.15
-7793.73
-7790.36
-7787.22
-7784.46
-7782.25
-7780.69
-7779.89
-7798.09
-7800.76
-7802.31
-7802.81
-7802.38
-7801.21
-7799.45
-7797.26
-7794.88
-7792.48
-7790.21
-7788.19
-7786.55
-7785.39
-7784.79
-7793.62
-7796.5
-7798.44
-7799.52
-7799.81
-7799.47
-7798.61
-7797.35
-7795.87
-7794.33
-7792.82
-7791.46
-7790.33
-7789.52
-7789.1
-7789.65
-7792.71
-7795.01
-7796.59
-7797.52
-7797.91
-7797.85
-7797.41
-7796.74
-7795.96
-7795.15
-7794.37
-7793.7
-7793.21
-7792.95
-7786.05
-7789.28
-7791.9
-7793.93
-7795.44
-7796.49
-7797.15
-7797.45
-7797.52
-7797.44
-7797.26
-7797.02
-7796.77
-7796.57
-7796.45
-7782.73
-7786.1
-7789.01