/*--------------------------------*- C++ -*----------------------------------*\
| =========                 |                                                 |
| \\      /  F ield         | OpenFOAM: The Open Source CFD Toolbox           |
|  \\    /   O peration     | Version:  5.x                                   |
|   \\  /    A nd           | Web:      www.OpenFOAM.org                      |
|    \\/     M anipulation  |                                                 |
\*---------------------------------------------------------------------------*/
FoamFile
{
    version     2.0;
    format      ascii;
    class       volScalarField;
    location    "11.2";
    object      gradTx;
}
// * * * * * * * * * * * * * * * * * * * * * * * * * * * * * * * * * * * * * //

dimensions      [0 -1 0 1 0 0 0];

internalField   nonuniform List<scalar> 
6300
(
99.7074
99.4116
98.8198
97.9317
96.7474
95.2673
93.4933
91.4293
89.0818
86.4618
83.5851
80.4742
77.1585
73.675
70.0676
99.9984
99.7028
99.1113
98.2233
97.0384
95.5566
93.779
91.7083
89.3501
86.7142
83.8154
80.6752
77.3227
73.7954
70.1384
100.58
100.285
99.6944
98.807
97.6217
96.1372
94.3531
92.2702
89.892
87.2254
84.283
81.0845
77.658
74.0417
70.2834
101.452
101.158
100.569
99.6839
98.4993
97.0128
95.2215
93.1232
90.7178
88.0082
85.0028
81.7178
78.1796
74.4268
70.5111
102.613
102.321
101.736
100.855
99.6742
98.1885
96.3922
94.279
91.8434
89.0825
85.9981
82.6004
78.9119
74.9711
70.835
104.062
103.773
103.194
102.321
101.149
99.6703
97.8752
95.7525
93.2901
90.4761
87.3026
83.7698
79.8926
75.7072
71.2767
105.793
105.51
104.941
104.082
102.926
101.463
99.6809
97.5613
95.0837
92.2248
88.9621
85.2795
81.1775
76.6847
71.87
107.804
107.527
106.972
106.134
105.004
103.572
101.819
99.7233
97.2539
94.3729
91.037
87.2047
82.8491
77.9802
72.6684
110.085
109.818
109.282
108.473
107.381
105.995
104.295
102.254
99.8311
96.9712
93.6041
89.6486
85.0302
79.7147
73.7594
112.628
112.373
111.861
111.088
110.047
108.727
107.109
105.162
102.84
100.072
96.7547
92.7512
87.9041
82.0851
75.2931
115.42
115.179
114.695
113.966
112.987
111.752
110.245
108.439
106.29
103.717
100.587
96.6927
91.746
85.4245
77.5446
118.449
118.222
117.768
117.087
116.179
115.043
113.673
112.056
110.159
107.914
105.178
101.682
96.9584
90.3181
81.0646
121.7
121.487
121.063
120.43
119.594
118.562
117.343
115.946
114.372
112.597
110.525
107.894
104.083
97.8206
87.0886
125.157
124.957
124.56
123.971
123.2
122.263
121.185
120.007
118.78
117.571
116.427
115.282
113.652
109.788
98.8141
128.808
128.619
128.243
127.687
126.965
126.097
125.123
124.109
123.166
122.473
122.323
123.149
125.45
128.859
126.017
66.6966
63.6114
60.5405
57.5151
54.565
51.7175
48.9968
46.4235
44.0145
41.7829
39.7385
37.8879
36.2349
34.781
33.5257
32.4668
31.6006
30.9221
30.4251
30.1022
29.9446
29.9421
30.083
30.3542
30.7408
31.2262
31.7926
32.4212
33.0927
33.7877
34.4879
35.1759
35.8365
36.4561
37.023
37.5265
37.9569
38.3047
38.5604
38.7146
38.7585
38.6844
38.4869
38.1632
37.7134
37.1408
36.4508
35.6501
34.7456
33.7429
32.6457
31.4555
30.171
28.7892
27.3054
25.7146
24.012
22.1934
20.2556
18.1958
16.0113
13.6986
11.2528
8.66635
5.92958
3.02989
-0.047693
-3.32004
-6.8052
-10.5215
-14.487
-18.7186
-23.2315
-28.0395
-33.1543
-38.5857
-44.3415
-50.4267
-56.8434
-63.5898
-70.6586
-78.0363
-85.7019
-93.6252
-101.767
-110.078
-118.5
-126.968
-135.408
-143.746
66.7186
63.5879
60.4721
57.404
54.4147
51.5326
48.7823
46.1848
43.7568
41.5113
39.4575
37.6015
35.9464
34.4934
33.2413
32.1878
31.3288
30.6593
30.1731
29.8628
29.7198
29.7341
29.8941
30.1868
30.597
31.1081
31.7016
32.3581
33.0573
33.7789
34.5037
35.2139
35.8939
36.5306
37.1125
37.6301
38.0742
38.4357
38.7049
38.8718
38.9266
38.8606
38.6671
38.343
37.8887
37.3083
36.6086
35.7982
34.8855
33.8774
32.7784
31.5898
30.31
28.9347
27.4583
25.8745
24.1779
22.3641
20.4303
18.3745
16.1952
13.8899
11.4546
8.88246
6.16386
3.28585
0.232681
-3.01357
-6.47212
-10.1625
-14.1035
-18.3127
-22.8059
-27.5967
-32.6972
-38.1174
-43.8654
-49.9475
-56.3668
-63.1232
-70.2112
-77.6192
-85.3275
-93.3074
-101.52
-109.914
-118.431
-127.002
-135.55
-143.996
66.7638
63.5398
60.332
57.1767
54.1076
51.1552
48.3454
45.6997
43.2344
40.9618
38.8899
37.0238
35.3654
33.9146
32.6695
31.6269
30.7826
30.1311
29.6663
29.381
29.2671
29.3148
29.513
29.8486
30.3066
30.8697
31.5186
32.2321
32.988
33.764
34.539
35.2937
36.0123
36.682
37.2932
37.8379
38.3089
38.6978
38.995
39.1889
39.2672
39.2185
39.0338
38.7086
38.2439
37.6458
36.9244
36.0922
35.1612
34.1414
33.0387
31.8543
30.5852
29.2247
27.7645
26.1959
24.5115
22.7068
20.7798
18.7304
16.5597
14.2678
11.8528
9.30912
6.62738
3.79383
0.791005
-2.40136
-5.80509
-9.44213
-13.3333
-17.4974
-21.9507
-26.7071
-31.7786
-37.1754
-42.9068
-48.9807
-55.4029
-62.1766
-69.3004
-76.7666
-84.5592
-92.6516
-101.006
-109.57
-118.281
-127.063
-135.833
-144.502
66.8354
63.4652
60.1136
56.8223
53.6299
50.5699
47.6702
44.9525
42.4325
40.1211
38.0244
36.1452
34.4837
33.0379
31.8045
30.7792
29.9571
29.3326
28.8996
28.6513
28.5802
28.6774
28.9325
29.3329
29.8635
30.5066
31.2411
32.0435
32.8882
33.7493
34.6018
35.4241
36.1994
36.9163
37.5679
38.1504
38.6599
39.0905
39.4321
39.6706
39.7891
39.7704
39.601
39.2737
38.7897
38.1591
37.3982
36.5267
35.5635
34.5235
33.4151
32.2394
30.9905
29.6573
28.2258
26.6826
25.0174
23.2248
21.3044
19.2602
17.0979
14.8224
12.4356
9.93421
7.30918
4.54533
1.62216
-1.48479
-4.80194
-8.35555
-12.1697
-16.265
-20.6583
-25.363
-30.3903
-35.7504
-41.4537
-47.5104
-53.9308
-60.7236
-67.8941
-75.4414
-83.3559
-91.6159
-100.185
-109.011
-118.024
-127.139
-136.258
-145.277
66.9384
63.3608
59.8054
56.3229
52.9588
49.7513
46.7306
43.9182
41.3284
38.9692
36.8438
34.9516
33.2897
31.8537
30.6382
29.6375
28.8457
28.2569
27.8654
27.6652
27.6496
27.8114
28.1414
28.6281
29.2572
30.0103
30.8644
31.7924
32.7635
33.7453
34.7065
35.6206
36.4691
37.2428
37.9405
38.5661
39.123
39.6095
40.0159
40.3234
40.5066
40.5378
40.394
40.0625
39.5451
38.8583
38.0297
37.0917
36.0748
35.0025
33.8869
32.7285
31.516
30.23
28.8467
27.344
25.7058
23.9255
22.0064
19.9593
17.7983
15.5368
13.1828
10.7369
8.19049
5.52602
2.71782
-0.26552
-3.45819
-6.89354
-10.6008
-14.6031
-18.9168
-23.5533
-28.5215
-33.8301
-39.4899
-45.5147
-51.9205
-58.7246
-65.9425
-73.5847
-81.6521
-90.1316
-98.9915
-108.178
-117.615
-127.203
-136.822
-146.344
67.0811
63.2211
59.3894
55.6502
52.0594
48.6615
45.4885
42.5612
39.8902
37.479
35.3255
33.4246
31.7689
30.3505
29.1613
28.1936
27.4405
26.8959
26.5546
26.4117
26.4625
26.7019
27.1231
27.7172
28.4712
29.367
30.3799
31.4778
32.622
33.7694
34.8774
35.9101
36.845
37.6768
38.4154
39.0792
39.6856
40.2423
40.7404
41.1536
41.4411
41.5556
41.4556
41.1172
40.5426
39.7601
38.8172
37.7686
36.6646
35.542
34.4191
33.294
32.1462
30.9413
29.6384
28.1994
26.5978
24.8252
22.8918
20.8213
18.6428
16.3835
14.0618
11.6837
9.24144
6.71335
4.06552
1.25511
-1.76492
-5.03976
-8.60689
-12.4922
-16.7098
-21.2654
-26.1615
-31.4028
-36.9994
-42.9686
-49.3349
-56.1276
-63.3777
-71.1131
-79.3521
-88.0962
-97.3236
-106.982
-116.986
-127.217
-137.523
-147.737
67.2761
63.0374
58.8373
54.7611
50.8796
47.2451
43.8906
40.8328
38.0759
35.6155
33.4419
31.5428
29.905
28.5159
27.364
26.4392
25.7336
25.241
24.9568
24.878
25.0027
25.3292
25.8547
26.5747
27.4797
28.5539
29.7715
31.0951
32.4743
33.8489
35.1552
36.3387
37.3678
38.2434
38.9962
39.673
40.3183
40.9575
41.5853
42.1631
42.6227
42.8805
42.8587
42.5105
41.8376
40.8911
39.7552
38.5238
37.2796
36.0805
34.953
33.8908
32.8572
31.7924
30.625
29.2876
27.7347
25.9555
23.9738
21.8377
19.603
17.3195
15.0212
12.7223
10.4155
8.07273
5.6471
3.07744
0.295264
-2.76496
-6.15451
-9.90243
-14.0155
-18.4862
-23.3036
-28.4628
-33.9709
-39.8493
-46.1334
-52.8697
-60.1119
-67.9139
-76.3216
-85.3619
-95.031
-105.284
-116.028
-127.116
-138.353
-149.508
67.5434
62.7953
58.1038
53.5887
49.3419
45.4234
41.8633
38.6691
35.8327
33.3371
31.1612
29.283
27.6816
26.3385
25.2382
24.3681
23.719
23.2847
23.0619
23.0503
23.2513
23.6684
24.3053
25.1643
26.2435
27.5328
29.0093
30.6307
32.332
34.0251
35.6081
36.9878
38.1102
38.9853
39.6845
40.3103
40.9583
41.6871
42.5005
43.3408
44.0931
44.606
44.73
44.3695
43.5248
42.293
40.8291
39.2957
37.828
36.5144
35.3916
34.4447
33.6114
32.7901
31.8551
30.6848
29.1966
27.376
25.2771
22.9951
20.6328
18.2759
15.9808
13.7717
11.641
9.55094
7.43576
5.20558
2.75574
-0.0159194
-3.18592
-6.78649
-10.8058
-15.2073
-19.9527
-25.0192
-30.4078
-36.1445
-42.2791
-48.8817
-56.0377
-63.8399
-72.3775
-81.719
-91.8941
-102.876
-114.569
-126.795
-139.294
-151.737
67.9152
62.4685
57.1138
52.0271
47.3292
43.0835
39.3075
35.9885
33.0971
30.5969
28.4504
26.6231
25.0848
23.8103
22.7796
21.9776
21.3939
21.0226
20.8621
20.915
21.1877
21.6902
22.435
23.4357
24.7033
26.2412
28.0368
30.05
32.2002
34.3581
36.3523
38.0059
39.2069
39.9786
40.4769
40.914
41.48
42.293
43.3754
44.6433
45.9064
46.8895
47.2969
46.9239
45.7674
44.0277
42.0011
39.9715
38.1528
36.6722
35.5754
34.8336
34.3472
33.9498
33.4227
32.5384
31.1359
29.1963
26.843
24.2672
21.654
19.1424
16.816
14.7077
12.8074
11.0649
9.38965
7.64973
5.67947
3.30666
0.402739
-3.06729
-7.04555
-11.4326
-16.1386
-21.1111
-26.3422
-31.8652
-37.7493
-44.0952
-51.0307
-58.7049
-67.2731
-76.8726
-87.5913
-99.4414
-112.339
-126.078
-140.309
-154.547
68.4455
62.0065
55.7353
49.9032
44.6631
40.065
36.0916
32.6906
29.797
27.3458
25.2786
23.5458
22.1069
20.93
19.9907
19.2718
18.762
18.456
18.3541
18.4622
18.7922
19.3619
20.1953
21.3216
22.7727
24.5773
26.7499
29.2705
32.0558
34.9254
37.5853
39.6739
40.9201
41.364
41.3555
41.3304
41.6442
42.509
43.9812
45.9509
48.1208
50.0003
50.9858
50.6044
48.8478
46.1739
43.1755
40.3422
37.9889
36.2757
35.2466
34.8531
34.9535
35.2948
35.5035
35.1369
33.8473
31.6111
28.728
25.5923
22.5281
19.7415
17.3362
15.3437
13.7459
12.4815
11.4363
10.4252
9.18257
7.39387
4.80653
1.38381
-2.6964
-7.19815
-11.9401
-16.83
-21.8554
-27.0648
-32.5532
-38.4577
-44.9584
-52.2803
-60.6809
-70.4119
-81.6561
-94.4944
-108.893
-124.648
-141.31
-158.131
69.2286
61.2995
53.7221
46.9245
41.07
36.1445
32.0493
28.6602
25.8579
23.5402
21.624
20.0441
18.7507
17.7063
16.8835
16.2638
15.8357
15.5947
15.5428
15.6892
16.0506
16.6531
17.533
18.7389
20.3318
22.3824
24.9605
28.1085
31.7886
35.7932
39.6394
42.5531
43.7868
43.3989
42.256
41.2571
41.0131
41.8485
43.8686
46.9683
50.7512
54.3961
56.641
56.2631
53.247
48.7853
44.1104
40.0197
36.9016
34.8926
34.001
34.16
35.2115
36.8291
38.4113
39.0629
37.9204
34.956
30.9758
26.8132
23.0013
19.7909
17.2612
15.4105
14.2039
13.5818
13.4331
13.5338
13.4716
12.6308
10.413
6.78161
2.2598
-2.61752
-7.52836
-12.3532
-17.1029
-21.8614
-26.757
-31.9604
-37.7021
-44.3001
-52.171
-61.7695
-73.4223
-87.2978
-103.487
-121.911
-142.075
-162.816
70.4437
60.0828
50.5829
42.5854
36.1372
31.0273
26.9892
23.7836
21.2201
19.1554
17.4839
16.129
15.0351
14.1625
13.4833
12.9791
12.6393
12.4602
12.4453
12.6056
12.9613
13.5439
14.4004
15.598
17.231
19.4271
22.3491
26.179
31.0527
36.8873
43.0347
47.8496
48.9865
46.519
42.9473
40.095
38.8259
39.4803
42.1995
46.9999
53.5784
60.8055
66.0707
65.7182
59.7257
51.7016
44.2024
38.2951
34.2156
31.899
31.2412
32.1802
34.6531
38.4128
42.6578
45.5707
44.6156
39.7624
33.4847
27.5281
22.6073
18.8591
16.2078
14.5492
13.8194
14.0001
15.0702
16.8764
18.8811
19.8501
18.0547
13.4612
7.72779
2.01144
-3.24021
-7.9839
-12.3371
-16.4598
-20.5165
-24.6866
-29.2113
-34.4854
-41.1713
-50.1664
-61.9853
-76.7666
-94.8591
-116.662
-142.004
-169.176
72.4607
57.6233
45.278
36.0138
29.2752
24.3649
20.7289
17.981
15.8629
14.2032
12.8872
11.8373
11.0002
10.3394
9.83039
9.45709
9.21072
9.08875
9.09496
9.24023
9.54444
10.0397
10.7759
11.8295
13.3187
15.4254
18.4293
22.7455
28.9318
37.5292
48.3468
58.4402
59.3745
51.2269
42.6006
36.6516
33.8668
34.137
37.5315
44.469
55.4694
70.0375
83.5868
83.2923
69.1275
53.8597
42.0003
33.9366
28.9896
26.5155
26.1806
27.9905
32.24
39.2962
48.8206
57.6468
56.922
46.6185
35.5298
26.7505
20.5239
16.347
13.7243
12.3499
12.1233
13.1371
15.6466
19.9326
25.7813
31.0491
29.7252
21.7816
13.1709
5.97116
0.316513
-4.17666
-7.90303
-11.1523
-14.112
-16.9012
-19.6402
-22.6363
-26.8449
-34.4953
-46.2799
-61.4644
-80.8846
-106.315
-139.291
-178.31
76.1152
51.5731
35.5337
25.803
19.7793
15.8662
13.1888
11.2707
9.845
8.75552
7.90684
7.23842
6.71071
6.29752
5.98153
5.75186
5.60262
5.53232
5.54392
5.64554
5.85206
6.18813
6.69359
7.43341
8.51634
10.1312
12.619
16.6179
23.3374
34.9726
54.6993
82.2172
82.8377
56.622
38.3965
28.6503
24.5072
24.293
27.7602
36.0858
52.2204
80.7335
121.035
120.836
80.1147
51.1076
34.3305
25.0886
20.2015
18.0505
18.0302
20.2867
25.7837
36.624
55.9867
83.474
83.0196
54.6035
34.248
22.2959
15.488
11.5962
9.44286
8.49701
8.64053
10.1199
13.664
20.7377
33.5169
51.739
50.9268
31.0616
16.5819
7.70565
2.2007
-1.47349
-4.15555
-6.26157
-7.95266
-9.18721
-9.6981
-9.04008
-7.56124
-12.8695
-25.677
-40.0607
-58.2528
-85.0976
-127.871
-192.538
83.359
33.2763
16.7035
10.2528
7.24319
5.58761
4.55446
3.85075
3.34244
2.96063
2.66649
2.43656
2.25604
2.1153
2.00811
1.93055
1.88057
1.85768
1.86299
1.89954
1.97287
2.09236
2.27354
2.54287
2.94769
3.5793
4.63217
6.57204
10.6632
20.7626
49.83
144.723
144.941
50.5087
21.9803
12.5793
9.4887
9.14706
10.9914
16.4561
31.1442
74.4511
216.798
216.727
74.2302
30.7423
15.8086
9.9684
7.47279
6.51644
6.60075
7.91542
11.6324
21.6778
51.4512
149.534
149.379
50.9788
20.8642
10.4326
6.25218
4.34142
3.42225
3.07514
3.23378
4.12901
6.5985
13.3258
33.4136
99.8364
99.5625
32.5854
11.9231
4.5852
1.44847
-0.198907
-1.23742
-1.96804
-2.45038
-2.51493
-1.43882
3.37463
21.4964
19.5559
-2.80326
-13.1712
-23.1588
-40.9401
-84.9171
-217.003
-152.701
-162.127
-171.074
-179.448
-187.176
-194.208
-200.513
-206.078
-210.902
-214.994
-218.368
-221.042
-223.03
-224.347
-225.003
-153.064
-162.601
-171.641
-180.087
-187.865
-194.928
-201.246
-206.811
-211.627
-215.704
-219.062
-221.719
-223.693
-225
-225.651
-153.802
-163.567
-172.796
-181.386
-189.264
-196.385
-202.726
-208.288
-213.081
-217.127
-220.448
-223.07
-225.016
-226.302
-226.942
-154.942
-165.063
-174.584
-183.392
-191.414
-198.613
-204.979
-210.525
-215.276
-219.265
-222.526
-225.091
-226.989
-228.242
-228.864
-156.531
-167.155
-177.078
-186.177
-194.381
-201.667
-208.045
-213.549
-218.226
-222.124
-225.292
-227.772
-229.6
-230.803
-231.4
-158.64
-169.941
-180.39
-189.85
-198.259
-205.62
-211.977
-217.394
-221.946
-225.705
-228.737
-231.096
-232.827
-233.963
-234.526
-161.377
-173.573
-184.686
-194.565
-203.178
-210.572
-216.84
-222.096
-226.451
-230.006
-232.846
-235.04
-236.642
-237.689
-238.206
-164.914
-178.282
-190.207
-200.541
-209.309
-216.64
-222.708
-227.69
-231.747
-235.013
-237.593
-239.569
-241.002
-241.936
-242.396
-169.521
-184.426
-197.313
-208.077
-216.87
-223.964
-229.654
-234.203
-237.828
-240.696
-242.934
-244.631
-245.855
-246.647
-247.037
-175.653
-192.582
-206.536
-217.575
-226.12
-232.685
-237.733
-241.632
-244.656
-247.002
-248.805
-250.159
-251.128
-251.754
-252.06
-184.113
-203.705
-218.668
-229.559
-237.343
-242.914
-246.952
-249.927
-252.155
-253.842
-255.116
-256.064
-256.737
-257.169
-257.381
-196.465
-219.449
-234.862
-244.643
-250.772
-254.669
-257.222
-258.96
-260.188
-261.083
-261.746
-262.232
-262.576
-262.797
-262.905
-216.115
-242.756
-256.681
-263.37
-266.424
-267.756
-268.299
-268.494
-268.546
-268.549
-268.541
-268.533
-268.53
-268.529
-268.529
-251.689
-278.771
-285.727
-285.72
-283.791
-281.624
-279.713
-278.16
-276.945
-276.017
-275.324
-274.82
-274.47
-274.25
-274.144
-329.238
-334.902
-321.726
-309.982
-301.387
-295.225
-290.759
-287.478
-285.047
-283.241
-281.909
-280.943
-280.272
-279.848
-279.643
132.323
132.141
131.779
131.242
130.543
129.704
128.764
127.801
126.95
126.465
126.827
129.005
135.241
152.067
204.464
135.641
135.464
135.109
134.582
133.889
133.047
132.087
131.074
130.132
129.503
129.656
131.504
136.784
148.458
168.385
139.078
138.904
138.556
138.033
137.335
136.467
135.442
134.293
133.092
131.992
131.305
131.616
133.883
139.112
146.208
142.632
142.462
142.12
141.599
140.894
139.991
138.879
137.544
135.977
134.191
132.254
130.365
128.921
128.463
129.022
146.299
146.135
145.802
145.29
144.584
143.657
142.467
140.952
139.01
136.488
133.168
128.799
123.271
117.104
112.289
150.075
149.92
149.603
149.112
148.423
147.499
146.277
144.651
142.442
139.335
134.804
128.034
118.06
104.802
92.2769
153.955
153.812
153.521
153.066
152.421
151.543
150.361
148.752
146.491
143.166
137.992
129.49
115.126
91.9884
63.6315
157.928
157.803
157.547
157.146
156.574
155.794
154.739
153.299
151.275
148.277
143.486
135.012
118.281
82.7954
15.36
161.983
161.881
161.67
161.338
160.868
160.229
159.378
158.247
156.729
154.629
151.531
146.264
134.455
95.787
-79.674
166.105
166.028
165.87
165.622
165.273
164.807
164.206
163.46
162.582
161.668
161.079
162.053
169.276
203.771
376.546
170.276
170.227
170.127
169.971
169.754
169.472
169.131
168.76
168.453
168.475
169.537
173.498
185.153
215.719
279.794
174.475
174.456
174.416
174.356
174.273
174.173
174.071
174.009
174.09
174.556
175.975
179.594
187.892
204.391
227.619
178.682
178.693
178.715
178.75
178.799
178.87
178.979
179.154
179.452
179.97
180.879
182.435
184.929
188.382
191.657
182.877
182.917
183
183.127
183.303
183.535
183.834
184.209
184.655
185.107
185.328
184.618
181.293
172.492
158.05
187.037
187.107
187.248
187.464
187.762
188.148
188.631
189.209
189.847
190.399
190.418
188.609
181.455
160.514
114.499
191.144
191.241
191.438
191.739
192.152
192.687
193.356
194.162
195.09
196.054
196.771
196.307
191.186
165.943
39.0771
195.177
195.3
195.549
195.929
196.451
197.128
197.978
199.026
200.303
201.874
203.938
207.231
214.884
241.937
369.575
199.119
199.265
199.561
200.014
200.636
201.442
202.458
203.723
205.303
207.345
210.246
215.12
225.104
248.074
294.868
202.954
203.121
203.459
203.976
204.684
205.603
206.76
208.196
209.974
212.214
215.177
219.454
226.298
237.658
252.75
206.667
206.852
207.226
207.797
208.58
209.593
210.863
212.425
214.317
216.574
219.19
221.997
224.349
224.642
221.209
210.245
210.445
210.849
211.465
212.308
213.396
214.756
216.417
218.4
220.677
223.063
224.849
223.823
214.207
187.38
213.679
213.89
214.317
214.969
215.858
217.005
218.435
220.181
222.27
224.698
227.346
229.645
229.256
215.716
135.017
216.959
217.179
217.623
218.3
219.222
220.408
221.888
223.699
225.895
228.559
231.863
236.301
243.814
263.856
348.624
220.08
220.306
220.761
221.453
222.394
223.602
225.105
226.944
229.188
231.968
235.587
240.813
249.665
267.04
299.286
223.038
223.267
223.727
224.426
225.373
226.583
228.081
229.901
232.101
234.787
238.188
242.797
249.59
259.889
272.444
225.831
226.06
226.521
227.219
228.161
229.358
230.826
232.588
234.668
237.102
239.944
243.257
247.072
251.162
254.424
228.458
228.686
229.144
229.834
230.763
231.936
233.362
235.046
236.981
239.127
241.364
243.362
244.354
243.002
238.773
230.92
231.145
231.597
232.277
233.188
234.332
235.712
237.322
239.139
241.082
242.942
244.156
243.258
236.832
220.29
233.219
233.44
233.885
234.552
235.442
236.557
237.895
239.45
241.2
243.086
244.963
246.409
245.992
237.68
190.424
235.357
235.574
236.01
236.663
237.533
238.619
239.92
241.434
243.157
245.089
247.276
249.947
254.201
265.564
314.441
237.337
237.55
237.977
238.616
239.466
240.524
241.791
243.267
244.961
246.908
249.245
252.378
257.467
267.387
285.914
239.162
239.371
239.789
240.415
241.245
242.277
243.509
244.941
246.579
248.45
250.652
253.442
257.369
263.226
270.36
240.834
241.04
241.45
242.063
242.875
243.883
245.082
246.466
248.026
249.753
251.646
253.707
255.925
258.169
259.868
242.357
242.559
242.963
243.565
244.362
245.349
246.519
247.86
249.349
250.934
252.514
253.855
254.455
253.481
250.665
243.733
243.932
244.33
244.923
245.708
246.68
247.83
249.146
250.595
252.111
253.541
254.508
254.07
250.065
239.614
244.963
245.16
245.553
246.14
246.917
247.879
249.021
250.331
251.787
253.339
254.882
256.13
256.154
251.116
221.415
246.05
246.245
246.635
247.216
247.988
248.946
250.087
251.408
252.902
254.566
256.42
258.594
261.744
269.288
300.293
246.994
247.188
247.575
248.153
248.921
249.877
251.021
252.357
253.892
255.653
257.729
260.371
264.275
271.158
283.218
247.797
247.99
248.374
248.95
249.715
250.67
251.816
253.16
254.715
256.513
258.636
261.264
264.73
269.425
274.626
248.459
248.651
249.034
249.607
250.37
251.322
252.466
253.809
255.361
257.139
259.186
261.565
264.325
267.33
269.757
248.981
249.172
249.553
250.124
250.884
251.832
252.972
254.307
255.839
257.57
259.499
261.594
263.741
265.629
266.683
249.364
249.554
249.933
250.501
251.258
252.202
253.336
254.66
256.171
257.857
259.687
261.579
263.328
264.5
264.451
249.608
249.797
250.175
250.74
251.493
252.433
253.561
254.876
256.373
258.035
259.825
261.654
263.307
264.211
262.293
249.714
249.902
250.278
250.84
251.59
252.526
253.648
254.959
256.452
258.116
259.929
261.844
263.798
265.873
269.435
249.683
249.87
250.243
250.803
251.549
252.48
253.599
254.907
256.404
258.086
259.953
261.999
264.198
266.493
268.637
249.515
249.701
250.072
250.629
251.37
252.297
253.411
254.717
256.217
257.92
259.847
262.037
264.523
267.211
269.436
249.212
249.396
249.765
250.317
251.054
251.976
253.084
254.384
255.881
257.589
259.552
261.862
264.7
268.241
271.889
248.773
248.956
249.322
249.87
250.602
251.517
252.618
253.908
255.39
257.075
259.006
261.313
264.38
269.19
276.982
248.201
248.382
248.745
249.288
250.014
250.922
252.014
253.291
254.75
256.383
258.192
260.228
262.842
268.06
287.592
247.497
247.676
248.034
248.572
249.291
250.191
251.274
252.54
253.979
255.56
257.213
258.734
259.487
256.981
238.899
246.661
246.838
247.192
247.723
248.434
249.325
250.401
251.662
253.1
254.681
256.318
257.766
258.386
256.712
250.727
245.697
245.87
246.218
246.741
247.442
248.324
249.393
250.656
252.113
253.756
255.548
257.364
258.873
259.428
258.503
244.605
244.775
245.116
245.629
246.317
247.186
248.245
249.506
250.989
252.721
254.755
257.166
260.015
263.165
265.74
243.389
243.555
243.886
244.386
245.059
245.909
246.949
248.197
249.683
251.468
253.692
256.656
260.94
267.293
274.867
242.052
242.212
242.533
243.017
243.668
244.493
245.503
246.715
248.16
249.902
252.109
255.222
260.42
270.565
289.357
240.598
240.751
241.059
241.524
242.15
242.942
243.91
245.065
246.423
248.007
249.89
252.333
256.457
267.823
316.998
239.031
239.176
239.47
239.912
240.508
241.261
242.18
243.268
244.52
245.896
247.276
248.267
247.459
238.816
191.123
237.356
237.493
237.769
238.186
238.748
239.459
240.326
241.352
242.523
243.776
244.927
245.442
243.896
236.921
219.988
235.58
235.708
235.965
236.353
236.877
237.542
238.357
239.329
240.46
241.72
243.012
244.041
244.097
241.936
237.189
233.709
233.826
234.062
234.419
234.9
235.514
236.271
237.191
238.299
239.636
241.273
243.308
245.83
248.738
251.188
231.75
231.856
232.069
232.39
232.825
233.379
234.068
234.915
235.971
237.338
239.251
242.228
247.29
255.853
266.98
229.712
229.806
229.994
230.277
230.659
231.145
231.747
232.49
233.42
234.653
236.485
239.694
246.311
261.178
290.593
227.604
227.685
227.846
228.088
228.414
228.824
229.325
229.927
230.651
231.545
232.757
234.785
239.595
256.395
334.723
225.434
225.501
225.635
225.836
226.102
226.433
226.826
227.275
227.758
228.21
228.457
227.936
224.548
208.875
131.093
223.212
223.266
223.373
223.531
223.739
223.992
224.283
224.594
224.877
225.011
224.685
223.073
218.027
204.48
175.776
220.947
220.988
221.068
221.186
221.338
221.519
221.721
221.926
222.094
222.127
221.799
220.587
217.403
210.607
200.609
218.649
218.677
218.732
218.811
218.91
219.025
219.151
219.279
219.398
219.487
219.521
219.466
219.281
218.953
218.58
216.326
216.342
216.373
216.415
216.465
216.519
216.574
216.634
216.716
216.879
217.3
218.429
221.252
227.325
236.371
213.987
213.992
214
214.008
214.011
214.005
213.989
213.968
213.971
214.086
214.583
216.208
220.961
233.625
260.525
211.64
211.635
211.622
211.598
211.557
211.493
211.402
211.281
211.142
211.023
211.076
211.809
215.172
230.032
303.437
209.292
209.277
209.246
209.193
209.113
208.995
208.83
208.604
208.291
207.836
207.093
205.577
201.393
185.778
111.823
206.948
206.927
206.88
206.803
206.688
206.524
206.296
205.981
205.533
204.844
203.642
201.194
195.547
182.032
154.501
204.616
204.588
204.53
204.434
204.292
204.092
203.817
203.446
202.937
202.204
201.052
199.025
195.161
188.016
178.13
202.298
202.266
202.2
202.092
201.931
201.706
201.402
201.002
200.491
199.849
199.064
198.129
197.049
195.9
194.961
199.997
199.964
199.895
199.78
199.61
199.371
199.048
198.632
198.129
197.588
197.177
197.327
198.981
203.633
211.208
197.715
197.683
197.615
197.502
197.332
197.088
196.754
196.318
195.789
195.233
194.896
195.476
198.826
209.33
232.781
195.451
195.423
195.362
195.259
195.099
194.863
194.527
194.066
193.46
192.722
191.975
191.695
193.7
206.032
270.705
193.202
193.181
193.134
193.05
192.915
192.703
192.383
191.909
191.218
190.213
188.726
186.323
181.398
166.382
99.9647
190.964
190.953
190.926
190.873
190.778
190.614
190.341
189.9
189.189
188.035
186.109
182.697
176.099
162.425
136.799
188.729
188.731
188.732
188.721
188.684
188.595
188.414
188.073
187.462
186.388
184.522
181.28
175.71
166.767
155.894
186.489
186.507
186.54
186.583
186.622
186.637
186.593
186.431
186.051
185.288
183.886
181.476
177.66
172.445
167.495
184.232
184.268
184.339
184.442
184.572
184.715
184.85
184.937
184.902
184.628
183.946
182.645
180.577
177.937
175.713
181.946
182.001
182.111
182.279
182.507
182.795
183.138
183.522
183.914
184.248
184.431
184.343
183.889
183.135
182.443
179.619
179.691
179.838
180.07
180.396
180.831
181.394
182.1
182.96
183.97
185.103
186.289
187.407
188.288
188.747
177.238
177.324
177.504
177.79
178.204
178.776
179.546
180.567
181.898
183.603
185.733
188.278
191.086
193.728
195.426
174.793
174.89
175.092
175.418
175.899
176.579
177.521
178.814
180.572
182.938
186.07
190.082
194.876
199.821
203.338
172.278
172.378
172.59
172.935
173.451
174.195
175.25
176.735
178.819
181.736
185.793
191.337
198.559
206.9
213.747
169.689
169.786
169.99
170.328
170.841
171.591
172.676
174.236
176.484
179.738
184.481
191.424
201.46
215.012
228.965
167.03
167.115
167.295
167.597
168.061
168.752
169.768
171.257
173.447
176.701
181.637
189.358
201.916
222.841
253.926
164.31
164.374
164.512
164.748
165.119
165.683
166.529
167.788
169.666
172.492
176.855
183.929
196.558
223.611
300.527
-544.452
-403.615
-353.402
-329.324
-315.277
-306.128
-299.788
-295.232
-291.891
-289.421
-287.598
-286.275
-285.353
-284.771
-284.488
-460.36
-403.139
-364.04
-339.933
-324.497
-314.081
-306.748
-301.43
-297.503
-294.582
-292.415
-290.835
-289.731
-289.03
-288.69
-416.113
-390.069
-364.256
-344.513
-330.223
-319.885
-312.3
-306.654
-302.411
-299.213
-296.817
-295.057
-293.82
-293.033
-292.65
-390.061
-376.829
-360.249
-345.297
-333.197
-323.768
-316.498
-310.897
-306.586
-303.279
-300.769
-298.908
-297.591
-296.748
-296.337
-373.308
-365.904
-355.104
-344.092
-334.309
-326.145
-319.526
-314.238
-310.057
-306.785
-304.264
-302.373
-301.024
-300.156
-299.732
-361.808
-357.327
-350.096
-342.023
-334.291
-327.439
-321.621
-316.804
-312.889
-309.761
-307.312
-305.453
-304.115
-303.25
-302.825
-353.531
-350.652
-345.665
-339.71
-333.653
-328.008
-323.012
-318.736
-315.168
-312.257
-309.942
-308.163
-306.871
-306.03
-305.616
-347.365
-345.431
-341.898
-337.458
-332.722
-328.118
-323.894
-320.168
-316.983
-314.333
-312.192
-310.527
-309.307
-308.508
-308.112
-342.653
-341.313
-338.752
-335.402
-331.691
-327.955
-324.42
-321.218
-318.419
-316.048
-314.103
-312.573
-311.442
-310.697
-310.327
-338.982
-338.035
-336.144
-333.59
-330.671
-327.646
-324.706
-321.981
-319.551
-317.458
-315.718
-314.334
-313.302
-312.619
-312.278
-336.081
-335.404
-333.989
-332.022
-329.716
-327.268
-324.834
-322.532
-320.442
-318.615
-317.077
-315.841
-314.913
-314.295
-313.985
-333.762
-333.276
-332.207
-330.683
-328.854
-326.871
-324.862
-322.927
-321.144
-319.563
-318.218
-317.127
-316.301
-315.748
-315.471
-331.891
-331.546
-330.734
-329.546
-328.091
-326.485
-324.829
-323.21
-321.697
-320.34
-319.173
-318.219
-317.492
-317.003
-316.757
-330.372
-330.131
-329.514
-328.585
-327.425
-326.124
-324.763
-323.412
-322.135
-320.977
-319.973
-319.145
-318.511
-318.082
-317.866
-329.131
-328.971
-328.503
-327.776
-326.851
-325.797
-324.679
-323.556
-322.482
-321.5
-320.641
-319.927
-319.378
-319.005
-318.817
-328.114
-328.015
-327.664
-327.096
-326.358
-325.506
-324.589
-323.658
-322.759
-321.93
-321.199
-320.588
-320.115
-319.793
-319.63
-327.277
-327.226
-326.967
-326.526
-325.939
-325.25
-324.501
-323.731
-322.981
-322.283
-321.664
-321.144
-320.74
-320.463
-320.323
-326.587
-326.574
-326.388
-326.048
-325.583
-325.029
-324.417
-323.783
-323.159
-322.574
-322.053
-321.612
-321.267
-321.031
-320.911
-326.017
-326.035
-325.907
-325.649
-325.283
-324.838
-324.341
-323.819
-323.302
-322.814
-322.376
-322.004
-321.711
-321.51
-321.408
-325.547
-325.589
-325.508
-325.316
-325.03
-324.675
-324.273
-323.845
-323.417
-323.012
-322.645
-322.331
-322.084
-321.914
-321.827
-325.16
-325.221
-325.178
-325.039
-324.819
-324.538
-324.213
-323.863
-323.511
-323.174
-322.867
-322.604
-322.396
-322.252
-322.179
-324.842
-324.919
-324.905
-324.809
-324.643
-324.422
-324.161
-323.876
-323.586
-323.307
-323.051
-322.831
-322.656
-322.534
-322.472
-324.581
-324.671
-324.682
-324.621
-324.498
-324.325
-324.117
-323.885
-323.647
-323.415
-323.202
-323.018
-322.87
-322.767
-322.714
-324.37
-324.47
-324.501
-324.468
-324.379
-324.246
-324.08
-323.892
-323.695
-323.503
-323.325
-323.17
-323.045
-322.958
-322.913
-324.202
-324.31
-324.356
-324.344
-324.283
-324.182
-324.05
-323.896
-323.733
-323.573
-323.423
-323.292
-323.186
-323.112
-323.073
-324.07
-324.184
-324.242
-324.248
-324.208
-324.131
-324.025
-323.898
-323.763
-323.628
-323.501
-323.388
-323.297
-323.233
-323.2
-323.971
-324.089
-324.156
-324.175
-324.15
-324.092
-324.006
-323.9
-323.784
-323.668
-323.559
-323.461
-323.381
-323.325
-323.296
-323.901
-324.023
-324.096
-324.123
-324.11
-324.064
-323.992
-323.9
-323.799
-323.697
-323.6
-323.513
-323.441
-323.391
-323.365
-323.859
-323.982
-324.059
-324.091