/*--------------------------------*- C++ -*----------------------------------*\
| =========                 |                                                 |
| \\      /  F ield         | OpenFOAM: The Open Source CFD Toolbox           |
|  \\    /   O peration     | Version:  5.x                                   |
|   \\  /    A nd           | Web:      www.OpenFOAM.org                      |
|    \\/     M anipulation  |                                                 |
\*---------------------------------------------------------------------------*/
FoamFile
{
    version     2.0;
    format      ascii;
    class       volScalarField;
    location    "9.2";
    object      gradTx;
}
// * * * * * * * * * * * * * * * * * * * * * * * * * * * * * * * * * * * * * //

dimensions      [0 -1 0 1 0 0 0];

internalField   nonuniform List<scalar> 
6300
(
257.644
256.887
255.371
253.095
250.058
246.259
241.7
236.39
230.343
223.584
216.153
208.105
199.514
190.476
181.102
258.39
257.634
256.12
253.846
250.809
247.007
242.442
237.117
231.045
224.247
216.761
208.638
199.954
190.803
181.301
259.882
259.128
257.618
255.348
252.313
248.509
243.932
238.581
232.461
225.589
217.994
209.725
200.852
191.472
181.709
262.116
261.366
259.864
257.604
254.577
250.774
246.185
240.802
234.62
227.645
219.893
211.406
202.247
192.517
182.348
265.088
264.346
262.857
260.614
257.605
253.814
249.223
243.812
237.564
230.466
222.519
213.748
204.206
193.993
183.254
268.791
268.06
266.593
264.38
261.404
257.643
253.069
247.649
241.346
234.125
225.961
216.85
206.828
195.985
184.485
273.213
272.499
271.065
268.897
265.977
262.274
257.751
252.358
246.035
238.717
230.34
220.855
210.26
198.627
186.132
278.337
277.646
276.257
274.156
271.32
267.714
263.291
257.984
251.709
244.359
235.815
225.961
214.722
202.12
188.337
284.141
283.479
282.15
280.138
277.421
273.961
269.703
264.569
258.447
251.184
242.589
232.441
220.539
206.786
191.332
290.593
289.968
288.713
286.814
284.252
280.993
276.98
272.13
266.312
259.331
250.905
240.666
228.194
213.145
195.515
297.658
297.075
295.905
294.142
291.77
288.765
285.082
280.648
275.331
268.909
261.023
251.115
238.417
222.077
201.611
305.294
304.756
303.68
302.065
299.908
297.201
293.925
290.036
285.44
279.941
273.15
264.342
252.273
235.126
211.072
313.454
312.962
311.98
310.517
308.583
306.193
303.366
300.118
296.441
292.253
287.284
280.817
271.196
255.071
227.145
322.093
321.643
320.75
319.427
317.699
315.608
313.215
310.616
307.939
305.335
302.904
300.434
296.611
286.805
258.219
331.168
330.754
329.935
328.728
327.166
325.31
323.258
321.178
319.35
318.23
318.548
321.393
327.994
337.305
329.922
172.33
164.291
156.278
148.373
140.652
133.187
126.04
119.264
112.904
106.993
101.556
96.6096
92.1636
88.2212
84.7804
81.8348
79.3743
77.3854
75.8515
74.753
74.0668
73.7669
73.8231
74.2018
74.8654
75.7724
76.8784
78.1366
79.4991
80.9187
82.3503
83.7525
85.0888
86.3275
87.4417
88.4082
89.206
89.8153
90.2165
90.3906
90.3194
89.9877
89.3849
88.506
87.3529
85.9339
84.2622
82.3539
80.2249
77.8889
75.3549
72.6266
69.7021
66.5746
63.2345
59.6707
55.8727
51.8313
47.5392
42.9903
38.1784
33.0955
27.7303
22.0662
16.0812
9.74699
3.03025
-4.10658
-11.7035
-19.8009
-28.4382
-37.652
-47.4754
-57.9374
-69.0627
-80.8718
-93.3802
-106.598
-120.53
-135.17
-150.502
-166.497
-183.109
-200.273
-217.904
-235.896
-254.123
-272.443
-290.7
-308.734
172.404
164.246
156.117
148.101
140.278
132.723
125.499
118.661
112.252
106.305
100.845
95.8851
91.4346
87.4951
84.0636
81.1327
78.6918
76.7269
75.2215
74.156
73.5078
73.2509
73.3558
73.7887
74.5118
75.4829
76.6563
77.9833
79.4138
80.8982
82.3893
83.8444
85.2261
86.5035
87.6511
88.6477
89.4741
90.1115
90.5404
90.7403
90.6911
90.375
89.7791
88.8975
87.7326
86.2946
84.6
82.6686
80.5202
78.1711
75.632
72.9067
69.9918
66.8785
63.5543
60.0059
56.2211
52.1904
47.9072
43.3674
38.5672
33.501
28.1596
22.5277
16.5833
10.2975
3.63509
-3.44396
-10.9822
-19.0228
-27.6069
-36.7727
-46.554
-56.98
-68.0756
-79.8616
-92.3548
-105.567
-119.505
-134.167
-149.542
-165.603
-182.307
-199.593
-217.376
-235.548
-253.98
-272.522
-291.012
-309.278
172.553
164.154
155.786
147.543
139.513
131.776
124.398
117.435
110.93
104.914
99.4076
94.4232
89.9656
86.0338
82.6222
79.7217
77.3203
75.4036
73.9549
72.955
72.382
72.211
72.413
72.9548
73.798
74.8992
76.2099
77.6777
79.2477
80.8649
82.4772
84.0384
85.5102
86.8629
88.0747
89.129
90.011
90.7047
91.1906
91.4453
91.4437
91.1618
90.5814
89.6938
88.5023
87.0215
85.2755
83.2928
81.1013
78.724
76.1746
73.457
70.5646
67.4834
64.1947
60.6794
56.9217
52.9111
48.6431
44.118
39.3374
34.3018
29.0062
23.4383
17.5766
11.3901
4.83974
-2.1199
-9.53733
-17.4611
-25.9371
-35.0059
-44.7025
-55.0562
-66.0917
-77.8302
-90.2901
-103.487
-117.433
-132.135
-147.587
-163.775
-180.662
-198.191
-216.28
-234.818
-253.668
-272.667
-291.635
-310.38
172.788
164.009
155.268
146.672
138.322
130.305
122.694
115.545
108.899
102.784
97.2147
92.1988
87.7357
83.8196
80.4412
77.5885
75.2476
73.4033
72.0389
71.1361
70.6745
70.6309
70.9781
71.6838
72.7097
74.0107
75.5344
77.2221
79.0105
80.8353
82.6355
84.3581
85.9626
87.4221
88.7218
89.8549
90.8156
91.5937
92.1701
92.5162
92.5965
92.375
91.8226
90.9246
89.6851
88.1273
86.2888
84.2145
81.9474
79.5216
76.9569
74.2562
71.407
68.3847
65.1589
61.6998
57.9843
54.0005
49.7477
45.2346
40.4736
35.4755
30.2439
24.7713
19.0369
13.0064
6.63355
-0.136502
-7.36285
-15.1038
-23.4125
-32.3336
-41.903
-52.1486
-63.0931
-74.7569
-87.1604
-100.324
-114.27
-129.015
-144.57
-160.934
-178.084
-195.975
-214.529
-233.631
-253.132
-272.848
-292.569
-312.068
173.122
163.805
154.534
145.441
136.644
128.244
120.319
112.925
106.099
99.8622
94.2212
89.1747
84.7143
80.8277
77.4999
74.715
72.4567
70.7088
69.4551
68.6788
68.3623
68.4853
69.024
69.9487
71.2224
72.7985
74.6197
76.6183
78.7179
80.8382
82.9021
84.8446
86.6205
88.2077
89.6055
90.8255
91.8798
92.7697
93.4779
93.9662
94.1805
94.0613
93.5581
92.6437
91.3231
89.6339
87.6386
85.4105
83.0188
80.5165
77.932
75.2665
72.4959
69.5767
66.4569
63.087
59.4313
55.475
51.2255
46.7066
41.9498
36.9842
31.8275
26.4803
20.9229
15.1152
8.99916
2.50402
-4.44702
-11.9284
-20.005
-28.7267
-38.1283
-48.2327
-59.0564
-70.6158
-82.9321
-96.0326
-109.951
-124.724
-140.383
-156.953
-174.434
-192.799
-211.979
-231.86
-252.276
-273.011
-293.81
-314.393
173.577
163.527
153.537
143.776
134.39
125.494
117.174
109.482
102.447
96.0777
90.3676
85.3027
80.8633
77.0276
73.7735
71.08
68.9278
67.2998
66.1808
65.5568
65.4143
65.7384
66.5112
67.7084
69.2969
71.2303
73.4466
75.866
78.3924
80.9189
83.3403
85.568
87.5465
89.2628
90.7419
92.0312
93.1772
94.204
95.0987
95.8071
96.2411
96.2969
95.8824
94.9445
93.4883
91.578
89.3205
86.8389
84.2465
81.6266
79.0209
76.4256
73.7958
71.0552
68.1128
64.8835
61.3089
57.37
53.0893
48.5194
43.7252
38.7666
33.6842
28.491
23.1685
17.6673
11.9104
5.80097
-0.767241
-7.89566
-15.6677
-24.1396
-33.3403
-43.2792
-53.9578
-65.3823
-77.5713
-90.5596
-104.398
-119.15
-134.881
-151.653
-169.505
-188.441
-208.414
-229.312
-250.951
-273.072
-295.352
-317.427
174.19
163.154
152.204
141.565
131.421
121.91
113.118
105.089
97.8329
91.3389
85.5809
80.5261
76.1395
72.3868
69.2368
66.6624
64.6411
63.1551
62.1908
61.7387
61.7915
62.3428
63.3843
64.9021
66.8717
69.2519
71.9782
74.9569
78.0633
81.1481
84.0541
86.6466
88.847
90.6558
92.1481
93.4397
94.6426
95.8247
96.984
98.0397
98.8425
99.2062
98.9566
97.9881
96.3039
94.0188
91.3217
88.4236
85.5107
82.7134
80.0915
77.6316
75.2526
72.8216
70.1791
67.1752
63.7087
59.755
55.3676
50.6532
45.7359
40.726
35.6993
30.6866
25.6706
20.5869
15.3291
9.75826
3.71928
-2.93584
-10.3219
-18.5021
-27.4883
-37.2586
-47.7832
-59.0456
-71.0565
-83.8588
-97.5269
-112.161
-127.877
-144.792
-163.008
-182.582
-203.508
-225.689
-248.923
-272.893
-297.179
-321.285
175.013
162.649
150.418
138.634
127.537
117.286
107.959
99.5765
92.117
85.5359
79.7775
74.7838
70.4994
66.8749
63.8683
61.4456
59.581
58.2563
57.4609
57.191
57.4484
58.2388
59.569
61.4425
63.8526
66.7725
70.1435
73.8607
77.7625
81.6313
85.2162
88.2865
90.7076
92.5013
93.8398
94.9724
96.1343
97.4748
99.0151
100.632
102.072
102.995
103.062
102.058
99.9814
97.0492
93.6089
90.0266
86.6053
83.5444
80.9262
78.7181
76.7816
74.8898
72.7632
70.1305
66.8077
62.7625
58.115
53.0773
47.8781
42.7081
37.693
32.8861
28.2691
23.7563
19.1978
14.3893
9.09289
3.0766
-3.83206
-11.7034
-20.5059
-30.1507
-40.5444
-51.629
-63.3994
-75.9081
-89.2611
-103.61
-119.14
-136.055
-154.548
-174.771
-196.788
-220.542
-245.824
-272.249
-299.256
-326.137
176.134
161.947
147.983
134.705
122.43
111.325
101.436
92.7312
85.1324
78.5446
72.8697
68.0167
63.9059
60.4703
57.6562
55.4228
53.7408
52.5928
51.9719
51.8816
52.3354
53.355
54.969
57.2079
60.0966
63.6409
67.8075
72.4956
77.5062
82.5202
87.1159
90.8578
93.4682
94.9987
95.8245
96.4593
97.3651
98.8337
100.931
103.477
106.044
108.011
108.708
107.67
104.887
100.808
96.0974
91.3942
87.178
83.735
81.1674
79.4108
78.2433
77.2932
76.0735
74.0768
70.9448
66.635
61.4222
55.732
49.9766
44.4657
39.3859
34.8107
30.7168
26.9904
23.4258
19.7225
15.5027
10.3739
4.04409
-3.56312
-12.3101
-21.9629
-32.3095
-43.2227
-54.6765
-66.7388
-79.5583
-93.3538
-108.405
-125.038
-143.593
-164.37
-187.559
-213.186
-241.068
-270.758
-301.501
-332.249
177.697
160.915
144.555
129.327
115.634
103.608
93.2052
84.2888
76.6888
70.2354
64.7753
60.1782
56.3373
53.1681
50.6058
48.6033
47.1296
46.1681
45.7166
45.7868
46.4052
47.6132
49.467
52.0354
55.394
59.6106
64.7176
70.6635
77.2417
84.0083
90.2418
95.055
97.7803
98.5074
98.0803
97.5524
97.7818
99.2826
102.199
106.287
110.875
114.851
116.847
115.79
111.655
105.472
98.5721
92.0571
86.6342
82.6619
80.2378
79.2526
79.389
80.0822
80.4998
79.6555
76.7751
71.8058
65.4145
58.4788
51.721
45.6009
40.3504
36.0413
32.634
29.9907
27.8528
25.7987
23.221
19.4003
13.7596
6.21847
-2.80916
-12.7754
-23.2575
-34.0363
-45.0754
-56.4768
-68.4471
-81.286
-95.3889
-111.249
-129.432
-150.488
-174.812
-202.576
-233.7
-267.742
-303.727
-340.045
179.953
159.271
139.489
121.732
106.43
93.5482
82.8283
73.9461
66.5901
60.4923
55.4352
51.2479
47.799
44.9895
42.7469
41.0206
39.7788
39.0073
38.708
38.9007
39.6243
40.9396
42.9337
45.7229
49.4536
54.2959
60.4171
67.9182
76.7029
86.2608
95.4096
102.255
104.966
103.674
100.478
97.551
96.364
97.6895
101.774
108.374
116.584
124.538
129.379
128.337
121.37
111.163
100.489
91.1438
83.998
79.3561
77.2331
77.4763
79.7302
83.265
86.7405
88.1631
85.6109
79.0216
70.1886
60.9674
52.545
45.4821
39.9578
35.9718
33.45
32.262
32.1578
32.6279
32.7283
31.0469
26.211
18.1404
8.04344
-2.84456
-13.7774
-24.4738
-34.9513
-45.3933
-56.0827
-67.3953
-79.8384
-94.1115
-111.131
-131.894
-157.107
-187.121
-222.118
-261.921
-305.46
-350.228
183.377
156.322
131.501
110.598
93.7381
80.3721
69.8026
61.4036
54.6772
49.2482
44.8403
41.2522
38.3379
35.9928
34.1427
32.7382
31.7494
31.1646
30.9894
31.2487
31.9894
33.287
35.2539
38.0526
41.9106
47.1373
54.1274
63.3217
75.0476
89.0991
103.891
115.404
117.912
111.58
102.483
95.0409
91.3243
92.1197
97.7231
108.14
122.658
138.705
150.376
149.41
135.748
117.521
100.491
87.0597
77.7536
72.4203
70.8184
72.8019
78.2239
86.5303
95.9344
102.391
100.257
89.4654
75.5192
62.3033
51.4098
43.1462
37.3489
33.7927
32.344
32.9714
35.6348
39.9883
44.8001
47.2348
43.3194
32.9796
20.0348
7.15094
-4.63737
-15.2253
-24.877
-33.952
-42.8187
-51.8741
-61.6498
-73.0157
-87.4345
-106.886
-132.483
-164.483
-203.608
-250.71
-305.414
-364.041
188.941
150.148
117.864
93.6361
76.0111
63.1647
53.6478
46.4494
40.8935
36.5315
33.0629
30.2842
28.0557
26.2814
24.8957
23.8557
23.1369
22.7307
22.6441
22.902
23.5513
24.669
26.3751
28.8552
32.3951
37.4374
44.6615
55.077
70.0408
90.8681
117.088
141.517
143.583
123.461
102.101
87.1627
79.7839
79.6229
86.7369
101.996
126.523
159.169
189.564
188.762
156.692
122.151
95.3075
77.0317
65.7854
60.1085
59.2383
63.1736
72.5611
88.212
109.369
128.986
127.367
104.448
79.7954
60.2931
46.4854
37.2569
31.5114
28.5777
28.2472
30.7478
36.6767
46.6874
60.293
72.5652
69.6775
51.5685
31.9376
15.5687
2.77421
-7.32482
-15.6321
-22.8093
-29.2814
-35.3139
-41.1692
-47.5212
-56.4875
-73.0265
-98.6334
-131.577
-173.606
-228.543
-299.706
-383.864
198.832
134.598
92.6227
67.1604
51.3996
41.1604
34.152
29.1279
25.389
22.5266
20.2906
18.5224
17.1184
16.0094
15.1496
14.5098
14.0735
13.8355
13.8016
13.9907
14.438
15.2026
16.3809
18.1303
20.715
24.5943
30.5982
40.2807
56.5879
84.8684
132.86
199.825
201.2
137.122
92.4665
68.3957
57.8469
56.6469
64.0186
82.5027
118.694
182.867
273.671
273.132
181.192
115.689
77.7836
56.8786
45.7948
40.873
40.736
45.692
57.8764
81.9615
125.017
186.157
185.142
121.926
76.6516
50.0808
34.9651
26.3509
21.6239
19.6128
20.0728
23.5863
31.8395
48.2082
77.7034
119.723
117.951
72.3472
39.1417
18.8387
6.30426
-2.00413
-8.01399
-12.6811
-16.3762
-19.0076
-19.972
-18.2606
-14.6338
-26.1066
-54.2159
-85.582
-125.012
-183.002
-275.274
-414.706
218.141
86.9909
43.5981
26.7117
18.8347
14.502
11.7976
9.95439
8.62149
7.61849
6.84367
6.23562
5.75544
5.37783
5.08621
4.87016
4.72388
4.64564
4.63771
4.70709
4.86698
5.13991
5.56348
6.20186
7.17013
8.69052
11.2366
15.9431
25.8912
50.4815
121.304
352.576
353.06
122.81
53.1866
30.1542
22.4454
21.3257
25.2959
37.5078
70.5666
168.211
489.3
489.109
167.615
69.4853
35.7755
22.5807
16.9295
14.7459
14.8983
17.7997
26.0528
48.39
114.621
332.825
332.478
113.565
46.5716
23.3711
14.0814
9.84633
7.82495
7.08872
7.50051
9.59873
15.3147
30.825
77.0755
229.937
229.34
75.2688
27.7647
10.9215
3.74848
0.00675166
-2.32915
-3.95211
-5.0022
-5.10107
-2.62734
8.24222
48.9637
44.7703
-5.10672
-27.9729
-49.6837
-88.0878
-182.922
-467.675
-328.096
-348.475
-367.814
-385.912
-402.613
-417.809
-431.433
-443.457
-453.879
-462.72
-470.009
-475.785
-480.08
-482.926
-484.343
-328.884
-349.502
-369.042
-387.295
-404.104
-419.365
-433.018
-445.042
-455.444
-464.253
-471.507
-477.247
-481.512
-484.336
-485.742
-330.486
-351.595
-371.542
-390.107
-407.13
-422.514
-436.216
-448.231
-458.587
-467.326
-474.501
-480.166
-484.368
-487.146
-488.529
-332.962
-354.838
-375.413
-394.445
-411.778
-427.331
-441.084
-453.065
-463.328
-471.945
-478.989
-484.53
-488.63
-491.335
-492.68
-336.411
-359.37
-380.811
-400.468
-418.192
-433.93
-447.708
-459.598
-469.7
-478.12
-484.962
-490.319
-494.267
-496.867
-498.157
-340.987
-365.404
-387.978
-408.411
-426.575
-442.474
-456.203
-467.903
-477.735
-485.855
-492.402
-497.498
-501.237
-503.691
-504.906
-346.926
-373.269
-397.271
-418.607
-437.207
-453.173
-466.709
-478.059
-487.464
-495.142
-501.276
-506.015
-509.473
-511.735
-512.852
-354.596
-383.463
-409.213
-431.525
-450.456
-466.284
-479.385
-490.143
-498.903
-505.954
-511.525
-515.793
-518.888
-520.904
-521.898
-364.583
-396.759
-424.578
-447.811
-466.79
-482.105
-494.387
-504.207
-512.032
-518.226
-523.057
-526.723
-529.364
-531.077
-531.918
-377.865
-414.4
-444.513
-468.333
-486.772
-500.939
-511.834
-520.249
-526.777
-531.841
-535.734
-538.658
-540.75
-542.1
-542.763
-396.181
-438.447
-470.724
-494.218
-511.009
-523.027
-531.737
-538.158
-542.967
-546.607
-549.359
-551.404
-552.858
-553.793
-554.25
-422.902
-472.466
-505.7
-526.788
-540.001
-548.403
-553.91
-557.658
-560.309
-562.241
-563.67
-564.721
-565.464
-565.942
-566.175
-465.373
-522.799
-552.805
-567.212
-573.787
-576.653
-577.82
-578.237
-578.349
-578.356
-578.338
-578.322
-578.315
-578.314
-578.315
-542.199
-600.531
-615.486
-615.443
-611.265
-606.581
-602.454
-599.099
-596.476
-594.475
-592.98
-591.893
-591.139
-590.664
-590.435
-709.539
-721.62
-693.145
-667.785
-649.229
-635.928
-626.29
-619.209
-613.962
-610.067
-607.191
-605.108
-603.661
-602.748
-602.306
339.854
339.466
338.697
337.565
336.102
334.369
332.475
330.617
329.149
328.721
330.559
337.146
354.266
398.887
536.246
348.009
347.639
346.905
345.818
344.403
342.706
340.82
338.917
337.326
336.675
338.17
344.142
359.041
390.459
443.09
356.411
356.056
355.348
354.289
352.888
351.164
349.166
346.99
344.84
343.128
342.66
344.929
352.332
367.286
386.632
365.049
364.709
364.024
362.987
361.585
359.803
357.624
355.035
352.041
348.706
345.238
342.142
340.369
341.052
343.756
373.913
373.59
372.934
371.926
370.535
368.707
366.357
363.35
359.467
354.365
347.548
338.426
326.69
313.403
302.909
382.992
382.691
382.077
381.121
379.777
377.961
375.535
372.263
367.729
361.205
351.447
336.515
314.076
283.806
254.926
392.269
391.999
391.445
390.575
389.334
387.626
385.291
382.042
377.363
370.277
358.928
339.807
306.892
253.233
187.039
401.722
401.493
401.021
400.275
399.203
397.716
395.669
392.804
388.655
382.3
371.796
352.668
314.102
231.358
73.3387
411.323
411.144
410.774
410.189
409.347
408.184
406.602
404.447
401.465
397.194
390.641
379.015
351.984
261.75
-149.94
421.037
420.916
420.665
420.269
419.702
418.931
417.923
416.653
415.158
413.661
412.999
416.046
433.746
515.366
921.441
430.824
430.766
430.645
430.455
430.185
429.831
429.412
429.005
428.837
429.535
432.768
442.89
471.108
543.651
694.602
440.639
440.647
440.661
440.682
440.711
440.764
440.883
441.178
441.9
443.638
447.74
457.152
477.675
517.469
572.773
450.437
450.511
450.66
450.889
451.207
451.637
452.221
453.041
454.244
456.086
459.012
463.685
470.846
480.502
489.536
460.172
460.31
460.59
461.02
461.612
462.389
463.382
464.626
466.127
467.769
469.059
468.474
462.27
443.951
412.76
469.798
469.998
470.403
471.023
471.874
472.977
474.357
476.02
477.898
479.683
480.394
477.152
462.094
416.327
314.514
479.273
479.531
480.053
480.852
481.946
483.359
485.122
487.253
489.717
492.328
494.461
494.02
483.231
427.611
145.755
488.556
488.867
489.497
490.461
491.779
493.485
495.62
498.24
501.417
505.293
510.302
518.057
535.489
595.989
880.066
497.609
497.969
498.696
499.808
501.329
503.297
505.768
508.826
512.615
517.457
524.22
535.36
557.822
609.09
713.252
506.399
506.801
507.614
508.855
510.552
512.746
515.496
518.89
523.064
528.273
535.084
544.785
560.135
585.442
618.982
514.896
515.335
516.22
517.57
519.414
521.793
524.764
528.399
532.777
537.962
543.926
550.27
555.517
556.06
548.215
523.076
523.543
524.487
525.926
527.888
530.413
533.557
537.377
541.913
547.094
552.49
556.499
554.151
532.488
472.214
530.917
531.407
532.396
533.903
535.953
538.589
541.865
545.845
550.583
556.062
562.003
567.126
566.182
535.714
354.571
538.403
538.91
539.931
541.484
543.596
546.305
549.671
553.772
558.72
564.692
572.068
581.949
598.701
643.561
833.697
545.524
546.041
547.082
548.662
550.806
553.55
556.951
561.096
566.129
572.332
580.378
591.982
611.685
650.503
722.742
552.271
552.793
553.842
555.432
557.581
560.322
563.7
567.789
572.706
578.677
586.202
596.374
611.379
634.216
662.18
558.641
559.163
560.211
561.795
563.929
566.635
569.942
573.891
578.532
583.925
590.172
597.391
605.616
614.353
621.266
564.634
565.153
566.192
567.76
569.862
572.513
575.723
579.499
583.815
588.566
593.452
597.69
599.482
595.738
585.383
570.253
570.765
571.791
573.334
575.398
577.985
581.096
584.716
588.779
593.095
597.167
599.67
597.175
581.698
542.54
575.5
576.005
577.015
578.53
580.551
583.077
586.102
589.61
593.548
597.776
601.956
605.102
603.867
584.088
472.735
580.382
580.879
581.871
583.358
585.336
587.804
590.757
594.19
598.095
602.475
607.446
613.56
623.42
650.053
765.053
584.904
585.392
586.367
587.826
589.764
592.177
595.063
598.427
602.291
606.748
612.125
619.397
631.308
654.635
698.253
589.072
589.552
590.51
591.943
593.843
596.204
599.023
602.301
606.057
610.365
615.471
621.994
631.252
645.106
661.985
592.891
593.364
594.307
595.716
597.583
599.897
602.649
605.828
609.419
613.41
617.817
622.674
627.986
633.459
637.678
596.366
596.833
597.764
599.154
600.993
603.268
605.963
609.052
612.483
616.15
619.833
623.02
624.593
622.663
616.544
599.501
599.964
600.886
602.262
604.081
606.329
608.987
612.022
615.364
618.861
622.177
624.467
623.615
614.76
591.403
602.298
602.759
603.676
605.043
606.852
609.089
611.735
614.763
618.117
621.682
625.216
628.077
628.178
616.91
550.284
604.761
605.22
606.135
607.5
609.307
611.545
614.202
617.262
620.703
624.505
628.706
633.586
640.618
657.486
727.009
606.889
607.348
608.264
609.632
611.444
613.693
616.372
619.479
623.019
627.035
631.707
637.581
646.21
661.477
688.395
608.681
609.142
610.062
611.436
613.258
615.524
618.23
621.379
624.984
629.092
633.857
639.643
647.176
657.358
668.723
610.138
610.601
611.526
612.909
614.746
617.031
619.764
622.945
626.578
630.674
635.282
640.473
646.285
652.398
657.192
611.257
611.723
612.655
614.049
615.902
618.21
620.971
624.182
627.831
631.885
636.283
640.853
645.166
648.337
649.242
612.035
612.506
613.445
614.851
616.723
619.056
621.849
625.098
628.78
632.838
637.148
641.393
644.823
645.83
642.17
612.471
612.945
613.892
615.312
617.203
619.564
622.396
625.696
629.448
633.599
638.039
642.479
646.146
646.546
632.808
612.562
613.039
613.994
615.426
617.336
619.726
622.6
625.965
629.818
634.142
638.913
644.083
649.72
657.061
675.131
612.304
612.785
613.746
615.19
617.117
619.533
622.448
625.877
629.838
634.357
639.493
645.343
652.094
660.104
669.287
611.696
612.179
613.146
614.598
616.539
618.976
621.923
625.402
629.45
634.126
639.558
645.957
653.576
662.313
670.075
610.737
611.221
612.191
613.648
615.597
618.046
621.01
624.517
628.605
633.352
638.935
645.703
654.264
665.18
676.511
609.425
609.909
610.879
612.337
614.288
616.739
619.706
623.21
627.282
631.98
637.47
644.183
653.299
667.737
691.074
607.76
608.242
609.21
610.664
612.61
615.056
618.012
621.492
625.501
630.039
635.137
640.975
648.62
664.096
722.101
605.743
606.223
607.184
608.63
610.567
613
615.939
619.389
623.332
627.692
632.273
636.492
638.486
630.899
577.219
603.376
603.852
604.804
606.237
608.158
610.573
613.495
616.928
620.852
625.174
629.641
633.535
634.987
629.693
611.765
600.663
601.132
602.072
603.487
605.385
607.777
610.679
614.109
618.072
622.538
627.39
632.252
636.155
637.24
634.118
597.609
598.069
598.991
600.382
602.249
604.607
607.48
610.903
614.923
619.615
625.115
631.614
639.262
647.688
654.562
594.218
594.667
595.568
596.926
598.752
601.062
603.883
607.264
611.286
616.113
622.128
630.157
641.811
659.196
680.036
590.499
590.935
591.809
593.127
594.9
597.142
599.882
603.164
607.068
611.768
617.726
626.164
640.362
668.284
720.239
586.461
586.881
587.723
588.993
590.701
592.858
595.487
598.615
602.276
606.532
611.583
618.149
629.364
660.663
796.779
582.116
582.517
583.323
584.537
586.169
588.229
590.731
593.68
597.05
600.726
604.369
606.887
604.402
580.232
447.983
577.476
577.856
578.62
579.772
581.32
583.275
585.647
588.435
591.59
594.926
597.918
599.081
594.48
574.838
527.717
572.555
572.912
573.63
574.713
576.17
578.013
580.259
582.92
585.982
589.348
592.719
595.257
594.985
588.508
574.981
567.37
567.702
568.368
569.375
570.732
572.453
574.566
577.11
580.142
583.748
588.083
593.364
599.781
607.055
613.103
561.938
562.242
562.853
563.776
565.02
566.603
568.557
570.944
573.882
577.624
582.773
590.662
603.966
626.434
655.675
556.279
556.553
557.104
557.935
559.055
560.477
562.233
564.381
567.042
570.506
575.543
584.181
601.768
641.09
718.804
550.414
550.656
551.143
551.876
552.859
554.102
555.621
557.444
559.623
562.279
565.795
571.465
584.46
629.065
836.149
544.364
544.574
544.993
545.623
546.464
547.518
548.782
550.245
551.852
553.437
554.535
553.645
545.182
504.189
298.906
538.154
538.33
538.68
539.206
539.904
540.769
541.79
542.931
544.076
544.916
544.638
541.064
528.477
493.385
417.989
531.806
531.947
532.229
532.65
533.207
533.894
534.701
535.597
536.492
537.153
537.016
534.723
527.385
510.555
484.952
525.344
525.452
525.665
525.983
526.402
526.919
527.535
528.248
529.051
529.929
530.874
531.866
532.871
533.798
534.372
518.793
518.867
519.012
519.227
519.509
519.859
520.286
520.82
521.538
522.642
524.682
528.983
538.393
557.271
584.426
512.176
512.216
512.294
512.407
512.551
512.728
512.948
513.25
513.737
514.69
516.903
522.535
537.323
574.977
653.574
505.516
505.523
505.535
505.547
505.553
505.549
505.538
505.537
505.594
505.846
506.734
509.711
520.357
564.234
777.537
498.835
498.812
498.76
498.674
498.544
498.359
498.106
497.769
497.295
496.543
495.101
491.542
480.297
435.815
221.871
492.157
492.104
491.993
491.814
491.555
491.198
490.72
490.08
489.17
487.705
484.921
478.693
463.305
425.061
345.846
485.502
485.422
485.256
484.993
484.616
484.105
483.433
482.564
481.411
479.767
477.119
472.187
462.171
442.743
415.033
478.887
478.784
478.571
478.235
477.754
477.106
476.27
475.229
473.974
472.511
470.889
469.194
467.559
466.161
465.198
472.33
472.208
471.957
471.559
470.989
470.222
469.235
468.029
466.664
465.351
464.693
466.143
472.767
489.262
514.913
465.842
465.708
465.43
464.986
464.346
463.474
462.338
460.926
459.299
457.72
457.018
459.481
471.106
505.987
582.662
459.434
459.294
459.001
458.532
457.846
456.895
455.618
453.959
451.883
449.464
447.131
446.441
453.279
493.671
703.874
453.109
452.971
452.681
452.211
451.515
450.525
449.151
447.266
444.689
441.135
436.088
428.158
412.135
363.414
147.811
446.866
446.739
446.472
446.032
445.37
444.407
443.024
441.041
438.154
433.828
427.033
415.48
393.683
349.035
265.695
440.697
440.591
440.366
439.992
439.419
438.564
437.303
435.429
432.6
428.223
421.268
409.899
391.088
361.511
325.908
434.588
434.512
434.35
434.075
433.645
432.99
431.993
430.468
428.104
424.393
418.554
409.472
395.956
378.159
361.599
428.519
428.48
428.396
428.25
428.013
427.637
427.037
426.077
424.526
422.026
418.08
412.108
403.782
393.936
385.992
422.464
422.466
422.47
422.472
422.463
422.423
422.319
422.082
421.591
420.649
418.999
416.363
412.652
408.377
405.068
416.393
416.438
416.532
416.687
416.917
417.241
417.679
418.25
418.951
419.751
420.588
421.35
421.9
422.133
422.047
410.28
410.362
410.538
410.835
411.29
411.964
412.936
414.315
416.227
418.814
422.214
426.47
431.354
436.094
439.166
404.096
404.207
404.448
404.857
405.497
406.465
407.899
409.996
413.017
417.298
423.233
431.137
440.893
451.199
458.618
397.822
397.949
398.226
398.703
399.461
400.627
402.389
405.022
408.917
414.62
422.869
434.504
450.036
468.292
483.421
391.448
391.575
391.853
392.34
393.128
394.362
396.262
399.159
403.545
410.159
420.14
435.147
457.272
487.542
518.928
384.974
385.081
385.322
385.753
386.469
387.62
389.432
392.251
396.608
403.348
413.907
430.832
458.837
505.998
576.427
378.414
378.483
378.645
378.953
379.495
380.405
381.89
384.263
388
393.871
403.239
418.807
447.085
508.278
683.03
-1173.52
-869.771
-761.452
-709.503
-679.193
-659.451
-645.771
-635.94
-628.733
-623.404
-619.471
-616.616
-614.629
-613.372
-612.763
-992.125
-868.719
-784.383
-732.382
-699.08
-676.608
-660.788
-649.314
-640.844
-634.542
-629.867
-626.458
-624.076
-622.566
-621.832
-896.675
-840.512
-784.841
-742.255
-711.43
-689.128
-672.767
-660.587
-651.433
-644.535
-639.367
-635.57
-632.903
-631.204
-630.378
-840.473
-811.944
-776.19
-743.941
-717.843
-697.505
-681.822
-669.742
-660.442
-653.31
-647.896
-643.881
-641.04
-639.222
-638.335
-804.331
-788.371
-765.084
-741.337
-720.24
-702.63
-688.355
-676.95
-667.931
-660.874
-655.436
-651.358
-648.449
-646.577
-645.661
-779.52
-769.866
-754.279
-736.872
-720.198
-705.422
-692.875
-682.486
-674.042
-667.296
-662.014
-658.005
-655.12
-653.254
-652.337
-761.661
-755.463
-744.717
-731.879
-718.82
-706.648
-695.875
-686.653
-678.959
-672.683
-667.691
-663.854
-661.068
-659.254
-658.36
-748.357
-744.198
-736.588
-727.019
-716.81
-706.884
-697.777
-689.744
-682.876
-677.162
-672.545
-668.954
-666.323
-664.6
-663.747
-738.19
-735.313
-729.799
-722.584
-714.586
-706.534
-698.913
-692.01
-685.974
-680.861
-676.669
-673.37
-670.931
-669.324
-668.526
-730.27
-728.24
-724.173
-718.673
-712.384
-705.865
-699.53
-693.656
-688.417
-683.904
-680.153
-677.169
-674.945
-673.47
-672.736
-724.011
-722.563
-719.522
-715.291
-710.325
-705.05
-699.806
-694.844
-690.339
-686.401
-683.085
-680.421
-678.42
-677.086
-676.42
-719.007
-717.974
-715.68
-712.401
-708.464
-704.194
-699.866
-695.697
-691.853
-688.446
-685.546
-683.194
-681.415
-680.223
-679.625
-714.972
-714.241
-712.502
-709.948
-706.818
-703.361
-699.796
-696.308
-693.047
-690.123
-687.607
-685.55
-683.984
-682.929
-682.399
-711.696
-711.191
-709.871
-707.876
-705.383
-702.583
-699.652
-696.743
-693.991
-691.497
-689.331
-687.547
-686.179
-685.255
-684.789
-709.021
-708.688
-707.691
-706.132
-704.145
-701.877
-699.471
-697.054
-694.741
-692.624
-690.772
-689.234
-688.05
-687.246
-686.84
-706.828
-706.627
-705.882
-704.667
-703.084
-701.25
-699.279
-697.274
-695.338
-693.551
-691.974
-690.658
-689.638
-688.944
-688.592
-705.024
-704.928
-704.38
-703.438
-702.18
-700.7
-699.088
-697.431
-695.815
-694.312
-692.977
-691.856
-690.983
-690.387
-690.084
-703.539
-703.525
-703.133
-702.41
-701.415
-700.223
-698.909
-697.542
-696.198
-694.939
-693.813
-692.862
-692.119
-691.609
-691.349
-702.314
-702.365
-702.099
-701.551
-700.769
-699.814
-698.745
-697.621
-696.506
-695.454
-694.508
-693.705
-693.074
-692.64
-692.419
-701.305
-701.408
-701.243
-700.836
-700.227
-699.465
-698.599
-697.677
-696.754
-695.878
-695.085
-694.408
-693.875
-693.506
-693.318
-700.475
-700.62
-700.535
-700.243
-699.774
-699.17
-698.471
-697.716
-696.955
-696.226
-695.563
-694.993
-694.543
-694.23
-694.071
-699.795
-699.974
-699.954
-699.754
-699.398
-698.923
-698.361
-697.744
-697.116
-696.51
-695.956
-695.477
-695.096
-694.832
-694.696
-699.242
-699.447
-699.48
-699.353
-699.09
-698.718
-698.267
-697.764
-697.244
-696.741
-696.276
-695.873
-695.551
-695.327
-695.211
-698.797
-699.024
-699.097
-699.03
-698.839
-698.551
-698.189
-697.777
-697.347
-696.926
-696.535
-696.194
-695.92
-695.729
-695.63
-698.445
-698.689
-698.795
-698.773
-698.64
-698.417
-698.126
-697.786
-697.426
-697.072
-696.74
-696.449
-696.214
-696.049
-695.964
-698.176
-698.432
-698.562
-698.575
-698.485
-698.313
-698.076
-697.792
-697.487
-697.183
-696.898
-696.646
-696.441
-696.297
-696.223
-697.979
-698.244
-698.392
-698.43
-698.372
-698.236
-698.038
-697.795
-697.53
-697.264
-697.013
-696.79
-696.608
-696.48
-696.413
-697.85
-698.121
-698.279
-698.334
-698.296
-698.184
-698.012
-697.795
-697.557
-697.317
-697.089
-696.886
-696.72
-696.602
-696.541
-697.784
-698.057
-698.221
-698.283