/*--------------------------------*- C++ -*----------------------------------*\
| =========                 |                                                 |
| \\      /  F ield         | OpenFOAM: The Open Source CFD Toolbox           |
|  \\    /   O peration     | Version:  5.x                                   |
|   \\  /    A nd           | Web:      www.OpenFOAM.org                      |
|    \\/     M anipulation  |                                                 |
\*---------------------------------------------------------------------------*/
FoamFile
{
    version     2.0;
    format      ascii;
    class       volScalarField;
    location    "8.7";
    object      gradTy;
}
// * * * * * * * * * * * * * * * * * * * * * * * * * * * * * * * * * * * * * //

dimensions      [0 -1 0 1 0 0 0];

internalField   nonuniform List<scalar> 
6300
(
1159.1
1476.82
1793.15
2107.16
2417.89
2724.43
3025.82
3321.13
3609.43
3889.81
4161.42
4423.42
4675.09
4915.79
5145.02
0.687928
2.06503
3.44556
4.83079
6.22025
7.611
8.99664
10.3664
11.704
12.9873
14.1879
15.2716
16.2009
16.9376
17.4475
1.14513
3.43782
5.73732
8.04648
10.3655
12.6905
15.0119
17.3127
19.5668
21.7372
23.7758
25.6237
27.2148
28.4807
29.3591
1.59985
4.80366
8.01917
11.252
14.5044
17.7731
21.0472
24.3052
27.5125
30.6182
33.5534
36.2317
38.5526
40.41
41.7048
2.05041
6.15762
10.2834
14.4377
18.6266
22.8497
27.0977
31.3475
35.5589
39.6685
43.5868
47.1956
50.3522
52.9001
54.6878
2.49447
7.4928
12.5187
17.5883
22.7137
27.9008
33.1453
38.4273
43.7056
48.9088
53.9278
58.6098
62.7588
66.148
68.5488
2.92904
8.80015
14.7099
20.6823
26.7384
32.8937
39.154
45.5094
51.9256
58.3312
64.6036
70.5544
75.9221
80.3813
83.5828
3.35051
10.0686
16.8379
23.6919
30.663
37.7803
45.066
52.5291
60.1542
67.8845
75.5982
83.0792
89.9905
95.869
100.172
3.75478
11.2856
18.8805
26.5836
34.4403
42.4971
50.799
59.3848
68.275
77.4514
86.8223
96.1702
105.088
112.929
118.833
4.13766
12.438
20.8143
29.3207
38.0163
46.967
56.2462
65.9336
76.1065
86.8206
98.0659
109.687
121.258
131.92
140.305
4.49539
13.5139
22.6173
31.8677
41.3359
51.1065
61.2831
71.9941
83.3939
95.6548
108.929
123.252
138.331
153.182
165.686
4.82521
14.5046
24.2727
34.1957
44.3515
54.8379
65.7833
77.3626
89.8168
103.472
118.74
136.055
155.628
176.787
196.649
5.12594
15.4059
25.7723
36.2895
47.035
58.1081
69.6469
81.8532
95.0353
109.672
126.499
146.596
171.331
201.683
235.531
5.39837
16.2205
27.1201
38.154
49.3889
60.9105
72.84
85.3647
98.7959
113.677
130.983
152.493
181.411
223.074
283.509
5.64527
16.957
28.3326
39.816
51.4543
63.3027
75.4349
87.9663
101.103
115.252
131.258
150.976
178.739
225.682
324.86
5344.3
5517.14
5681.64
5837.85
5985.94
6126.14
6258.73
6384.1
6502.64
6614.82
6721.1
6821.98
6917.99
7009.64
7097.45
7181.92
7263.56
7342.87
7420.32
7496.36
7571.43
7645.93
7720.25
7794.74
7869.71
7945.43
8022.12
8099.98
8179.11
8259.62
8341.52
8424.81
8509.44
8595.31
8682.32
8770.32
8859.15
8948.64
9038.59
9128.78
9218.98
9308.93
9398.37
9487.02
9574.61
9660.85
9745.5
9828.32
9909.07
9987.56
10063.6
10137
10207.5
10275
10339.3
10400.2
10457.4
10510.7
10559.9
10604.7
10644.8
10680
10710.1
10734.7
10753.5
10766.3
10772.6
10772.1
10764.3
10748.8
10725
10692.3
10650.2
10598.1
10535.3
10461.1
10374.9
10275.9
10163.4
10036.6
9894.99
9737.75
9564.24
9373.86
9166.1
8940.51
8696.77
8434.72
8154.32
7855.72
17.6831
17.7129
17.5572
17.222
16.7193
16.0663
15.2837
14.3935
13.4183
12.3795
11.2966
10.187
9.06553
7.94461
6.8347
5.74457
4.68175
3.65304
2.66496
1.72412
0.837536
0.0128359
-0.741759
-1.41761
-2.00608
-2.49919
-2.89048
-3.17595
-3.35491
-3.43055
-3.40997
-3.30343
-3.12303
-2.88078
-2.58682
-2.24811
-1.86805
-1.44725
-0.985192
-0.482303
0.0580286
0.628218
1.2164
1.80767
2.38635
2.93874
3.45564
3.93386
4.37659
4.79247
5.19376
5.59393
6.0053
6.43705
6.89406
7.37678
7.88221
8.40561
8.94264
9.49133
10.0534
10.6349
11.2456
11.8979
12.6056
13.3817
14.2372
15.1796
16.212
17.3334
18.539
19.8213
21.1716
22.5807
24.0393
25.5384
27.0679
28.6158
30.1668
31.7004
33.1905
34.6043
35.9032
37.0434
37.9786
38.6626
39.0535
39.1172
38.8314
38.1878
29.7655
29.8167
29.5478
28.9696
28.1044
26.9833
25.6434
24.124
22.4645
20.7019
18.8695
16.9965
15.1074
13.2225
11.3587
9.52969
7.74744
6.02252
4.36514
2.78583
1.29603
-0.0915932
-1.36303
-2.50319
-3.49666
-4.32877
-4.98727
-5.46411
-5.75727
-5.87206
-5.82142
-5.62468
-5.3049
-4.88504
-4.38404
-3.81403
-3.17952
-2.47893
-1.70802
-0.864402
0.048262
1.01745
2.02144
3.03176
4.01793
4.95321
5.81975
6.61172
7.33586
8.00954
8.65692
9.3043
9.97531
10.6871
11.4479
12.2572
13.107
13.9861
14.8842
15.7958
16.7231
17.6766
18.6744
19.7398
20.8984
22.1746
23.5886
25.1541
26.8764
28.7529
30.7739
32.9252
35.1905
37.5535
39.9992
42.5137
45.0821
47.6868
50.3043
52.9023
55.438
57.8564
60.0909
62.0653
63.6973
64.9042
65.6097
65.7516
65.2881
64.2038
42.3053
42.3808
41.9831
41.1298
39.8571
38.2148
36.2607
34.0555
31.6584
29.124
26.5005
23.8288
21.1428
18.47
15.8324
13.2477
10.7308
8.29508
5.9533
3.71916
1.60796
-0.3627
-2.17262
-3.79928
-5.21878
-6.40752
-7.34477
-8.01585
-8.41553
-8.55086
-8.44228
-8.12213
-7.62993
-7.00519
-6.2797
-5.47193
-4.58528
-3.611
-2.53475
-1.34515
-0.0421557
1.35728
2.81806
4.29132
5.72346
7.06731
8.29184
9.38783
10.3684
11.265
12.1206
12.9811
13.8871
14.8669
15.9326
17.0796
18.29
19.5397
20.8066
22.078
23.3553
24.6549
26.0062
27.4478
29.022
30.7691
32.722
34.9027
37.3187
39.9641
42.8211
45.8648
49.0682
52.4066
55.8597
59.4105
63.0433
66.7386
70.4688
74.1929
77.853
81.3717
84.6517
87.5786
90.0264
91.8659
92.976
93.2558
92.6369
91.0927
55.5198
55.6239
55.0714
53.8909
52.1391
49.8922
47.2365
44.2601
41.0467
37.6712
34.1975
30.6784
27.1563
23.6641
20.2272
16.8654
13.595
10.4299
7.38415
4.47322
1.71532
-0.867374
-3.24813
-5.39567
-7.27512
-8.85031
-10.0874
-10.9603
-11.4563
-11.5827
-11.3697
-10.8693
-10.1478
-9.2724
-8.29592
-7.24551
-6.1194
-4.89215
-3.52697
-1.99156
-0.273924
1.6062
3.59407
5.60737
7.55335
9.35038
10.9462
12.3272
13.5187
14.5764
15.5741
16.5892
17.6892
18.9196
20.2969
21.8073
23.413
25.065
26.7189
28.3483
29.9519
31.5548
33.2041
34.9611
36.8928
39.063
41.5236
44.308
47.4266
50.8664
54.5951
58.5698
62.7468
67.0901
71.5745
76.1845
80.9093
85.735
90.6365
95.5701
100.466
105.225
109.715
113.776
117.225
119.872
121.532
122.048
121.313
119.28
69.6713
69.81
69.0613
67.4722
65.1316
62.1558
58.6715
54.8037
50.6662
46.3572
41.9572
37.5301
33.1244
28.7761
24.5116
20.3499
16.3055
12.3911
8.61939
5.00552
1.56913
-1.66401
-4.66056
-7.37907
-9.77052
-11.7808
-13.3555
-14.448
-15.0302
-15.1042
-14.7117
-13.9355
-12.8881
-11.6861
-10.4195
-9.12907
-7.80014
-6.37297
-4.76541
-2.90156
-0.740945
1.69858
4.33197
7.01876
9.59605
11.9215
13.9078
15.5378
16.8599
17.9724
19.0004
20.0732
21.3014
22.7586
24.4673
26.3954
28.4669
30.5851
32.6642
34.653
36.5468
38.3855
40.2442
42.22
44.4174
46.9357
49.8558
53.2289
57.0687
61.3492
66.0113
70.9796
76.1821
81.5662
87.1041
92.7889
98.6255
104.617
110.753
116.996
123.272
129.46
135.391
140.848
145.574
149.292
151.727
152.638
151.849
149.286
85.0887
85.2704
84.2582
82.1319
79.0358
75.1485
70.6562
65.7332
60.5306
55.1721
49.7542
44.349
39.0078
33.7659
28.6464
23.6638
18.8278
14.1458
9.62637
5.28148
1.12958
-2.80185
-6.4738
-9.83377
-12.8151
-15.3386
-17.3179
-18.6707
-19.336
-19.2974
-18.6062
-17.3925
-15.8513
-14.1929
-12.5776
-11.0684
-9.62272
-8.11399
-6.37333
-4.23934
-1.61015
1.51115
4.99218
8.58692
12.0004
14.9799
17.3816
19.1903
20.5019
21.4888
22.3612
23.3319
24.5827
26.2341
28.3201
30.7757
33.4516
36.1599
38.7376
41.0928
43.219
45.1854
47.114
49.1576
51.4779
54.2278
57.5333
61.4753
66.0738
71.2796
76.9838
83.049
89.3529
95.8177
102.418
109.171
116.114
123.288
130.712
138.371
146.198
154.059
161.745
168.966
175.37
180.555
184.112
185.668
184.937
181.785
102.212
102.447
101.056
98.1855
94.0766
89.0101
83.2594
77.0642
70.6189
64.0725
57.5334
51.0761
44.7489
38.5804
32.585
26.768
21.1295
15.6681
10.3837
5.28143
0.374629
-4.31113
-8.73393
-12.8312
-16.5164
-19.6773
-22.1798
-23.8805
-24.6526
-24.4278
-23.2502
-21.3186
-18.9803
-16.6352
-14.5802
-12.9139
-11.5335
-10.1865
-8.54514
-6.28771
-3.18547
0.808179
5.49102
10.4184
15.0317
18.8723
21.7114
23.5607
24.6135
25.1719
25.5827
26.1895
27.2892
29.0861
31.6426
34.8408
38.3917
41.9247
45.1333
47.8638
50.1234
52.041
53.82
55.6983
57.9214
60.7214
64.2955
68.7776
74.2055
80.4933
87.4369
94.7755
102.292
109.874
117.513
125.279
133.272
141.596
150.33
159.503
169.074
178.91
188.764
198.262
206.917
214.158
219.378
221.988
221.509
217.688
121.666
121.959
119.982
116.019
110.493
103.854
96.5
88.7526
80.8505
72.9608
65.1935
57.6152
50.2613
43.1454
36.2667
29.6154
23.1769
16.9361
10.8798
5.00108
-0.697273
-6.19756
-11.4611
-16.4204
-20.9707
-24.9619
-28.1942
-30.4255
-31.4022
-30.9281
-28.9775
-25.8283
-22.1167
-18.6579
-16.0208
-14.3458
-13.3942
-12.6809
-11.6025
-9.55097
-6.04283
-0.885659
5.63925
12.7035
19.1771
24.2082
27.4679
29.0788
29.4383
29.0683
28.5229
28.3383
28.9926
30.8455
34.0421
38.3989
43.3585
48.1574
52.218
55.3138
57.5206
59.0969
60.3832
61.7426
63.5343
66.1006
69.7501
74.7181
81.0987
88.7622
97.3208
106.245
115.136
123.845
132.426
141.056
149.949
159.313
169.314
180.058
191.565
203.732
216.291
228.767
240.494
250.669
258.397
262.75
262.89
258.3
144.403
144.735
141.765
136.098
128.51
119.722
110.303
100.658
91.0585
81.6673
72.576
63.8259
55.4259
47.3643
39.6168
32.152
24.936
17.9346
11.1169
4.45787
-2.05728
-8.42767
-14.6287
-20.6006
-26.2324
-31.3415
-35.6518
-38.7787
-40.243
-39.5563
-36.4327
-31.1499
-24.8913
-19.4993
-16.0786
-14.7383
-14.9141
-15.7039
-16.0636
-14.9147
-11.2778
-4.55227
5.00746
15.8352
25.396
32.0906
35.5944
36.3948
35.3094
33.2127
30.9389
29.2746
28.9653
30.6649
34.7661
41.0841
48.5514
55.448
60.6864
64.0383
65.8201
66.5648
66.8354
67.1586
68.0254
69.9139
73.2996
78.6178
86.1379
95.7353
106.671
117.753
128.237
137.99
147.261
156.445
165.941
176.103
187.217
199.503
213.094
227.981
243.924
260.34
276.294
290.688
302.265
309.566
311.067
305.622
172.023
172.259
167.425
158.936
148.249
136.494
124.424
112.498
100.963
89.9395
79.4649
69.5306
60.1018
51.1297
42.5586
34.33
26.3856
18.6687
11.1256
3.70785
-3.62509
-10.9008
-18.1253
-25.2694
-32.2451
-38.8696
-44.8119
-49.5239
-52.1791
-51.6915
-46.9953
-37.8747
-26.4166
-17.5008
-13.1396
-12.9468
-15.5488
-19.345
-22.6959
-23.8597
-20.9594
-12.2991
2.55034
20.7918
35.7422
44.5675
47.6131
46.4256
42.6364
37.6121
32.477
28.2598
26.045
27.0264
32.2975
42.114
54.5655
65.1256
71.8705
75.0227
75.6116
74.7141
73.2107
71.7908
71.0443
71.57
74.0651
79.3455
88.1838
100.779
115.81
130.118
142.387
152.827
162.219
171.378
180.971
191.516
203.428
217.066
232.749
250.702
270.867
292.573
314.331
334.756
352.281
364.725
369.238
363.037
207.59
207.076
198.342
184.931
169.521
153.711
138.336
123.767
110.129
97.4183
85.5731
74.5053
64.1186
54.3166
45.0061
36.0981
27.5073
19.1523
10.9541
2.83631
-5.27447
-13.4463
-21.7364
-30.179
-38.7616
-47.378
-55.741
-63.2284
-68.638
-69.8844
-63.9267
-47.9633
-24.2791
-8.94265
-4.19668
-7.12962
-14.4627
-23.6262
-32.4761
-38.6553
-38.9341
-28.9568
-4.79044
30.4876
54.9082
65.3666
65.7271
60.2025
51.7413
42.171
32.6931
24.3618
18.5225
17.2108
23.2838
39.3493
63.3025
80.2965
88.2269
89.697
87.5424
83.7348
79.4648
75.4521
72.2301
70.3892
70.8188
74.9485
84.8187
102.311
125.989
145.414
159.168
169.169
177.51
185.68
194.624
204.956
217.148
231.678
249.131
270.229
295.586
324.721
354.278
382.992
409.603
431.294
442.824
437.005
258.21
253.72
235.988
213.8
191.359
170.299
151.08
133.691
117.952
103.646
90.5572
78.4948
67.2894
56.7922
46.871
37.4063
28.2872
19.408
10.665
1.95309
-6.83721
-15.8225
-25.1283
-34.8874
-45.2296
-56.251
-67.9301
-79.9242
-91.0909
-98.45
-95.2657
-69.1696
-10.1215
14.8647
15.8026
5.02257
-10.7416
-28.3596
-46.1025
-61.9477
-71.6777
-66.0477
-28.1336
55.8155
94.1767
100.703
92.3121
78.2046
62.4401
46.5938
31.2552
16.8728
4.47788
-3.24119
-0.121512
25.2232
82.0571
108.515
113.882
109.586
101.849
93.4171
85.3439
77.9707
71.4229
65.9348
62.2401
62.2809
70.4725
94.9326
142.286
168.871
181.346
187.895
193.039
198.86
206.27
215.707
227.494
242.071
260.252
283.613
314.852
356.25
395.426
434.239
473.994
512.478
541.378
542.451
344.975
319.423
280.042
243.022
211.203
184.228
161.184
141.232
123.711
108.115
94.061
81.2482
69.4385
58.4368
48.0776
38.2163
28.7213
19.4677
10.3315
1.18344
-8.1181
-17.7359
-27.8659
-38.7538
-50.7173
-64.1738
-79.6625
-97.8078
-119.022
-142.194
-159.593
-137.824
53.0866
73.3018
52.6758
24.3524
-4.35013
-32.9114
-62.459
-94.0432
-126.536
-149.625
-117.765
146.789
179.285
157.517
127.127
98.5913
73.2558
50.2853
28.4405
6.52261
-16.299
-39.2997
-55.5297
-34.2468
144.552
167.101
153.448
134.43
117.154
102.581
90.214
79.2997
69.089
58.8973
48.2815
37.8754
32.6988
54.5864
188.485
212.642
212.051
208.642
207.588
209.748
214.992
223.068
233.817
247.268
263.905
285.645
319.481
390.966
437.086
484.116
540.2
607.447
679.989
723.665
548.986
405.026
320.685
264.743
224.062
192.488
166.829
145.268
126.69
110.361
95.7725
82.5531
70.4211
59.1532
48.5647
38.4968
28.8061
19.357
10.0141
0.634106
-8.9439
-18.9116
-29.5118
-41.0705
-54.0536
-69.1686
-87.567
-111.269
-144.132
-194.246
-280.318
-450.036
362.093
190.547
100.631
44.2269
1.83719
-36.0423
-75.8818
-124.827
-194.935
-312.322
-542.474
571.923
342.528
226.74
159.269
114.365
80.663
52.3535
25.7295
-2.52726
-36.8183
-85.1076
-164.956
-320.54
432.044
277.813
200.733
156.76
128.565
108.564
92.9886
79.6122
66.7248
52.4679
34.0187
5.93757
-44.0491
-147.058
392.706
292.044
246.806
225.988
217.502
216.187
219.628
226.573
236.238
247.869
260.202
270.247
269.884
462.195
477.421
520.94
590.313
694.768
860.142
1150.9
7507.56
7102.72
6673.97
6222.72
5750.58
5259.33
4750.83
4227.02
3689.82
3141.14
2582.88
2016.85
1444.84
868.587
289.809
37.0943
35.4324
33.3664
30.9781
28.3552
25.5824
22.7336
19.868
17.0288
14.2434
11.5253
8.87669
6.29059
3.75354
1.24762
62.3424
59.5011
55.9676
51.8897
47.4247
42.7214
37.9077
33.0841
28.3217
23.6643
19.1319
14.7251
10.4299
6.2214
2.06756
88.3983
84.2595
79.1107
73.1863
66.7305
59.969
53.0904
46.2381
39.5092
32.9601
26.6128
20.4621
14.4826
8.63455
2.86883
115.649
110.023
103.025
95.0105
86.3387
77.3309
68.2445
59.2664
50.5154
42.0534
33.8968
26.0278
18.4038
10.9654
3.64208
144.56
137.154
127.952
117.487
106.279
94.7676
83.2873
72.0644
61.23
50.8394
40.8923
31.3481
22.1395
13.1809
4.37632
175.715
166.077
154.138
140.704
126.519
112.17
98.0698
84.4709
71.4975
59.1795
47.483
36.332
25.6246
15.2425
5.05864
209.883
197.3
181.814
164.67
146.919
129.321
112.349
96.2499
81.1067
66.8953
53.5258
40.8711
28.7837
17.1056
5.67437
248.114
231.419
211.145
189.238
167.163
145.843
125.754
107.072
89.7822
73.7666
58.8518
44.8415
31.5324
18.7213
6.20751
291.915
269.106
242.099
213.963
186.645
161.125
137.748
116.497
97.1816
79.535
63.2711
48.109
33.7821
20.0393
6.64171
343.564
310.982
274.173
237.864
204.322
174.259
147.608
123.983
102.909
83.9179
66.5863
50.5395
35.4467
21.0116
6.96157
406.543
357.078
305.74
258.993
218.516
183.977
154.438
128.914
106.549
86.6383
68.6144
52.0143
36.4526
21.598
7.15439
485.74
405.033
332.702
273.842
226.764
188.688
157.247
130.684
107.731
87.4691
69.216
52.4488
36.7504
21.7729
7.21216
583.762
444.599
346.179
276.902
226.002
186.756
155.174
128.839
106.218
86.2877
68.3294
51.813
36.3261
21.5305
7.13338
668.308
443.409
330.503
261.575
213.578
177.152
147.849
123.277
102.012
83.1309
65.9984
50.146
35.2095
20.889
6.92421
5.85349
17.5775
29.3517
41.2062
53.166
65.2491
77.4659
89.8231
102.339
115.09
128.326
142.768
160.32
185.855
231.652
6.02953
18.1026
30.2154
42.3871
54.6236
66.9093
79.1936
91.371
103.251
114.511
124.616
132.631
136.556
130.416
90.5704
6.19574
18.5996
31.0376
43.5218
56.0456
68.5686
80.9934
93.1233
104.591
114.731
122.354
125.331
119.779
98.38
47.6087
6.35325
19.0725
31.8269
44.6281
57.4665
70.2944
82.9958
95.3334
106.851
116.696
123.314
123.95
114.003
86.7391
35.5108
6.50177
19.5207
32.5831
45.7074
58.8933
72.1061
85.2488
98.1108
110.269
120.899
128.425
129.917
120.25
91.7376
37.1572
6.63947
19.9384
33.2956
46.7428
60.2999
73.9645
87.6946
101.375
114.746
127.254
137.723
143.629
139.581
114.837
52.507
6.76314
20.3154
33.9447
47.7009
61.6303
75.7755
90.1732
104.851
119.818
135.021
150.188
164.248
173.283
164.033
97.4972
6.86872
20.6383
34.5052
48.5373
62.8092
77.4093
92.455
108.125
124.724
142.809
163.418
188.352
219.678
253.008
231.692
6.95184
20.8934
34.9502
49.2062
63.7586
78.7313
94.301
110.752
128.596
148.84
173.643
208.013
264.677
379.924
672.875
7.00859
21.068
35.2562
49.6681
64.4146
79.6367
95.5324
112.409
130.797
151.701
177.219
212.187
268.988
383.426
674.298
7.03594
21.1527
35.4063
49.8967
64.7386
80.0722
96.08
113.015
131.249
151.354
174.229
201.194
233.267
264.394
236.495
7.03203
21.1419
35.3912
49.8801
64.7197
80.0375
95.9812
112.716
130.398
149.079
168.394
186.648
198.197
186.345
107.776
6.99618
21.0339
35.2091
49.6189
64.3673
79.5663
95.3307
111.756
128.852
146.361
163.291
176.755
179.374
154.624
74.1832
6.92872
20.8299
34.8635
49.1214
63.7005
78.7008
94.2192
110.327
127.014
144.042
160.592
174.387
179.554
161.574
87.7586
6.83072
20.5335
34.3612
48.4
62.7397
77.4736
92.6959
108.494
124.937
142.053
159.801
178.008
195.805
207.293
171.959
6.70388
20.1499
33.7116
47.4685
61.5037
75.9056
90.7704
106.212
122.391
139.62
158.69
181.909
216.432
285.524
470.449
6.55031
19.6857
32.9258
46.3427
60.0118
74.0143
88.4426
103.414
119.112
135.905
154.693
177.957
213.049
283.309
469.746
6.3725
19.1482
32.0165
45.0407
58.2869
71.8257
85.7355
100.11
115.071
130.802
147.584
165.788
185.238
200.408
169.926
6.17324
18.5461
30.9982
43.5835
56.3575
69.3777
82.704
96.3954
110.494
124.965
139.484
152.75
160.396
149.206
84.9438
5.95556
17.8885
29.8868
41.9944
54.2558
66.7155
79.417
92.3959
105.656
119.093
132.25
143.611
148.631
134.857
73.3103
5.72266
17.1851
28.6988
40.2977
52.0152
63.8839
75.9356
88.1989
100.694
113.412
126.26
138.874
149.914
153.68
120.754
5.47774
16.4458
27.4512
38.5178
49.6683
60.9239
72.3054
83.8391
95.5738
107.639
120.431
135.225
156.245
197.98
313.046
5.224
15.6802
26.1604
36.6789
47.2475
57.875
68.568
79.3378
90.2222
101.359
113.208
127.251
148.187
191.351
310.233
4.96447
14.8976
24.8424
34.8044
44.7848
54.7793
64.776
74.7553
84.6938
94.5806
104.46
114.488
124.69
132.137
111.059
4.70195
14.1065
23.5121
32.9163
42.3113
51.6807
60.9946
70.1996
79.1994
87.8054
95.6069
101.6
103.105
92.7276
51.4925
4.43888
13.3144
22.1823
31.0339
39.8545
48.6196
57.2874
65.7851
73.9769
81.587
88.0073
91.8279
89.7685
74.7458
34.8074
4.17726
12.5274
20.8634
29.1723
37.4355
45.6249
53.697
61.5815
69.1568
76.1929
82.2113
86.1368
85.4326
74.0649
38.7301
3.9186
11.75
19.5628
27.3419
35.0669
42.7106
50.2356
57.5911
64.7097
71.5039
77.8668
83.6589
88.5
90.0263
71.9058
3.66393
10.9851
18.2854
25.5484
32.7541
39.8778
46.8907
53.7641
60.4863
67.1128
73.9172
81.8394
93.8674
119.629
192.366
3.41384
10.2345
17.0334
23.7941
30.4974
37.1211
43.6416
50.0411
56.328
62.5965
69.1898
77.1669
89.6953
116.608
191.226
3.16857
9.49875
15.8076
22.0792
28.2953
34.4351
40.4756
46.395
52.1814
57.8532
63.5
69.3321
75.5318
80.457
68.2111
2.92805
8.77765
14.6073
20.4022
26.1456
31.8173
37.3928
42.8404
48.1132
53.1257
57.6802
61.2404
62.2519
56.228
31.4283
2.69199
8.07021
13.4308
18.7606
24.0449
29.2654
34.3979
39.406
44.2246
48.7152
52.5496
54.9173
53.8561
45.0366
21.0731
2.45988
7.37486
12.2752
17.1503
21.9881
26.7739
31.4885
36.1024
40.5628
44.7592
48.4362
50.9741
50.8469
44.3609
23.3443
2.23104
6.68949
11.1369
15.5654
19.9667
24.3312
28.6482
32.9044
37.0833
41.1627
45.1127
48.8805
52.2524
53.7748
43.4427
2.00468
6.01163
10.0114
13.9991
17.9703
21.921
25.8493
29.7594
33.6719
37.6552
41.9146
47.0607
54.9409
71.4199
116.702
1.77993
5.33862
8.89392
12.4439
15.9876
19.5256
23.0624
26.6119
30.2106
33.9547
38.0996
43.3412
51.6566
69.0611
115.817
1.55594
4.66783
7.77986
10.8928
14.0084
17.1305
20.2662
23.4294
26.6473
29.975
33.5222
37.4859
42.0593
46.318
40.5784
1.33191
3.99678
6.66496
9.33942
12.0243
14.7253
17.4501
20.2081
23.0071
25.8419
28.6544
31.2062
32.6794
30.5172
17.7122
1.10712
3.32329
5.54546
7.7785
10.0285
12.303
14.6104
16.9576
19.3413
21.7233
23.9668
25.6744
25.8232
22.1063
10.5534
0.880959
2.6455
4.4182
6.20551
8.0153
9.85724
11.7424
13.6812
15.6757
17.7002
19.6504
21.2241
21.6506
19.1362
10.0289
0.652935
1.96192
3.2806
4.6166
5.9794
7.381
8.83671
10.3654
11.9887
13.7278
15.5946
17.5696
19.5191
20.7437
17.1082
0.42271
1.27149
2.13076
3.00882
3.91617
4.86673
5.87976
6.98321
8.22049
9.66575
11.4627
13.9316
17.89
25.725
45.4232
0.190114
0.573683
0.967676
1.38043
1.82259
2.30865
2.8595
3.50754
4.30719
5.3587
6.86341
9.25811
13.5673
22.4661
44.1431
-0.0448364
-0.131468
-0.208608
-0.268636
-0.301806
-0.294864
-0.228723
-0.0739775
0.218338
0.736149
1.64517
3.25409
6.05611
10.3317
12.8644
-0.281928
-0.843306
-1.39693
-1.93659
-2.45438
-2.93988
-3.37894
-3.75154
-4.02769
-4.15881
-4.05993
-3.57941
-2.47948
-0.593668
1.21049
-0.52077
-1.56061
-2.59511
-3.61994
-4.62965
-5.61753
-6.57576
-7.49656
-8.37499
-9.21413
-10.0308
-10.8438
-11.5617
-11.4631
-7.50978
-0.760817
-2.2817
-3.80015
-5.31398
-6.82036
-8.31609
-9.79896
-11.2715
-12.7501
-14.2856
-16.0049
-18.1751
-21.2117
-25.0102
-23.9152
-1.00141
-3.00455
-5.00851
-7.01338
-9.0187
-11.0239
-13.0297
-15.0426
-17.086
-19.2301
-21.6663
-24.9053
-30.3331
-41.9562
-72.7763
-1.24179
-3.72689
-6.21636
-8.71261
-11.2173
-13.7315
-16.2559
-18.7928
-21.3526
-23.9723
-26.7707
-30.1161
-35.1529
-45.5716
-74.1832
-1.48114
-4.44624
-7.4196
-10.4061
-13.4096
-16.4323
-19.4735
-22.5273
-25.5779
-28.5907
-31.4957
-34.1528
-36.2357
-36.5536
-28.5559
-1.71856
-5.15991
-8.61379
-12.0879
-15.5887
-19.1205
-22.6827
-26.2644
-29.8297
-33.2844
-36.3933
-38.5886
-38.5447
-33.3108
-17.0362
-1.95305
-5.86492
-9.794
-13.7512
-17.7465
-21.7877
-25.8787
-30.0129
-34.1586
-38.2187
-41.9254
-44.5799
-44.458
-37.7355
-17.876
-2.18352
-6.55801
-10.9547
-15.3882
-19.8724
-24.4206
-29.0447
-33.7536
-38.5473
-43.3984
-48.1885
-52.4996
-54.9554
-51.2832
-29.7525
-2.40884
-7.23569
-12.09
-16.99
-21.9539
-27.0009
-32.1521
-37.4355
-42.8962
-48.6208
-54.7845
-61.7078
-69.7087
-77.2329
-68.0002
-2.62781
-7.89432
-13.1935
-18.5473
-23.9779
-29.5089
-35.1678
-40.9943
-47.0619
-53.5385
-60.853
-70.1679
-84.793
-114.82
-194.281
-2.83921
-8.53026
-14.2592
-20.0513
-25.9322
-31.928
-38.0672
-44.3857
-50.9436
-57.8743
-65.5326
-74.9404
-89.1822
-118.077
-195.53
-3.04185
-9.13989
-15.281
-21.4937
-27.8067
-34.2476
-40.842
-47.6109
-54.5664
-61.7049
-68.9971
-76.3561
-83.396
-87.6123
-72.0857
-3.23453
-9.71963
-16.2529
-22.8665
-29.5924
-36.4605
-43.4955
-50.7065
-58.0622
-65.4287
-72.4152
-77.9932
-79.5709
-70.8583
-37.9784
-3.41606
-10.2659
-17.169
-24.1614
-31.2792
-38.5575
-46.0267
-53.7015
-61.5503
-69.4162
-76.8113
-82.4082
-82.8915
-70.8872
-33.7854
-3.58528
-10.7751
-18.0232
-25.3692
-32.8544
-40.5217
-48.4151
-56.5754
-65.0263
-73.7306
-82.4559
-90.3739
-94.8839
-88.3445
-50.7515
-3.7411
-11.2439
-18.8092
-26.4802
-34.303
-42.3289
-50.618
-59.2473
-68.3262
-78.0301
-88.6606
-100.706
-114.549
-127.366
-112.099
-3.88256
-11.6694
-19.5218
-27.4856
-35.6104
-43.9531
-52.5846
-61.6066
-71.1917
-81.6858
-93.8824
-109.789
-134.926
-185.89
-318.538
-4.00896
-12.0492
-20.1569
-28.3791
-36.7665
-45.3765
-54.2797
-63.5747
-73.4257
-84.1589
-96.527
-112.463
-137.365
-187.689
-319.224
-4.11985
-12.3821
-20.7124
-29.1578
-37.7678
-46.5961
-55.7023
-65.1565
-75.0467
-85.4961
-96.6938
-108.908
-122.149
-133.09
-114.342
-4.21507
-12.6677
-21.1879
-29.822
-38.6175
-47.6224
-56.8831
-66.4351
-76.279
-86.3133
-96.1536
-104.641
-108.528
-99.1072
-55.2468
-4.29468
-12.9062
-21.5842
-30.3741
-39.3214
-48.4709
-57.8613
-67.5107
-77.3786
-87.2648
-96.5521
-103.569
-104.149
-89.0399
-42.4245
-4.35892
-13.0984
-21.9028
-30.8166
-39.8847
-49.1519
-58.6593
-68.4343
-78.4649
-88.6318
-98.527
-106.965
-110.666
-100.851
-56.1531
-4.40815
-13.2453
-22.1454
-31.1518
-40.3094
-49.6658
-59.271
-69.1799
-79.4563
-90.187
-101.513
-113.651
-126.567
-136.887
-116.832
-4.44287
-13.3484
-22.3141
-31.3817
-40.596
-50.0065
-59.6717
-69.67
-80.1316
-91.3282
-103.935
-119.796
-144.271
-194.015
-325.848
-4.46378
-13.4098
-22.4119
-31.5095
-40.746
-50.17
-59.8405
-69.8381
-80.2959
-91.4896
-104.097
-119.959
-144.426
-194.137
-325.897
-4.47183
-13.4321
-22.4431
-31.5408
-40.7654
-50.1619
-59.7819
-69.6862
-79.9488
-90.6691
-101.997
-114.145
-127.05
-137.278
-116.995
-4.46831
-13.4192
-22.4138
-31.4839
-40.6652
-49.9981
-59.5255
-69.285
-79.2834
-89.426
-99.3276
-107.805
-111.532
-101.608
-56.5009
-4.45484
-13.3758
-22.3319
-31.3494
-40.4595
-49.6989
-59.1075
-68.7175
-78.5172
-88.3498
-97.6463
-104.764
-105.493
-90.3712
-43.1552
-4.43345
-13.3081
-22.207
-31.1503
-40.1636
-49.2817
-58.5491
-68.0176
-77.7276
-87.6452
-97.4776
-106.159
-110.46
-101.421
-56.9581
-4.40664
-13.2233
-22.0513
-30.9021
-39.7947
-48.7603
-57.8505
-67.1495
-76.7933
-86.9992
-98.1075
-110.595
-124.689
-137.072
-118.992
-4.37744
-13.1306
-21.8794
-30.6247
-39.3748
-48.1519
-57.0063
-66.0413
-75.468
-85.7257
-97.779
-113.914
-140.107
-193.876
-333.736
-4.34941
-13.0406
-21.7096
-30.3437
-38.9355
-47.4895
-56.036
-64.6604
-73.5648
-83.2047
-94.615
-110.248
-136.374
-190.893
-332.541
-4.32659
-12.966
-21.5638
-30.0917
-38.522
-46.8316
-55.011
-63.0845
-71.1499
-79.4534
-88.5178
-99.2934
-112.923
-127.404
-114.989
-4.31328
-12.9201
-21.4662
-29.907
-38.1919
-46.2635
-54.0588
-61.5135
-68.569
-75.1728
-81.2313
-86.3566
-88.878
-82.5924
-48.5206
-4.31362
-12.916
-21.4415
-29.8302
-38.0094
-45.8865
-53.3423
-60.2189
-66.3009
-71.2698
-74.5918
-75.2271
-70.9485
-57.0759
-25.781
-4.33113
-12.9653
-21.5114
-29.8985
-38.0359
-45.8015
-53.027
-59.4753
-64.8046
-68.5096
-69.817
-67.5092
-59.6806
-43.6575
-17.1156
-4.36812
-13.0754
-21.6912
-30.1397
-38.3199
-46.0907
-53.2507
-59.5076
-64.4352
-67.4132
-67.5515
-63.6239
-54.1025
-37.5433
-13.7897
-4.42515
-13.2486
-21.987
-30.5668
-38.8873
-46.8032
-54.1004
-60.4618
-65.4184
-68.2875
-68.1083
-63.6219
-53.4108
-36.4246
-13.1203
-4.50073
-13.4808
-22.3923
-31.1733
-39.735
-47.9443
-55.5989
-62.3901
-67.8496
-71.2769
-71.6548
-67.5939
-57.4228
-39.6926
-14.4898
-4.59104
-13.7604
-22.8877
-31.9313
-40.8265
-49.4696
-57.6956
-65.2417
-71.6905
-76.382
-78.2819
-75.8072
-66.6828
-48.1489
-18.4816
-4.69008
-14.0689
-23.4408
-32.7919
-42.0919
-51.2833
-60.2631
-68.8535
-76.7495
-83.4237
-87.9448
-88.6363
-82.4752
-64.3351
-27.5397
-4.78999
-14.3818
-24.0078
-33.6871
-43.4318
-53.2425
-63.0992
-72.9453
-82.6549
-91.958
-100.265
-106.222
-106.584
-93.4738
-49.2948
-4.88162
-14.6706
-24.5373
-34.536
-44.7248
-55.1683
-65.9406
-77.1297
-88.8398
-101.181
-114.213
-127.689
-140.045
-144.184
-108.834
-4.95528
-14.905
-24.9746
-35.2522
-45.8399
-56.8641
-68.4902
-80.9496
-94.5834
-109.923
-127.849
-149.928
-179.209
-222.31
-294.98
471.168
351.79
279.564
229.871
192.379
162.297
137.116
115.371
96.1303
78.7533
62.7758
47.8416
33.6639
19.9998
6.63399
172.239
224.704
214.191
191.167
167.229
144.945
124.676
106.237
89.3371
73.6893
59.0388
45.1622
31.8623
18.9614
6.29468
76.0944
141.348
157.5
153.095
140.925
126.191
110.962
96.0319
81.672
67.9312
54.7631
42.0813
29.783
17.7598
5.9016
40.3202
92.0855
115.082
120.412
116.398
107.779
97.0374
85.4283
73.5752
61.7738
50.1486
38.7332
27.5122
16.4433
5.4702
24.5972
62.7995
84.9288
94.216
95.0648
90.8398
83.7128
74.9922
65.4407
55.4925
45.3872
35.2494
25.1351
15.0598
5.01604
16.5071
44.6736
63.6917
73.8775
77.2534
75.9133
71.4928
65.1314
57.5803
49.3191
40.6475
31.7485
22.7303
13.6543
4.55365
11.783
32.8999
48.5868
58.2664
62.7151
63.1243
60.619
56.0953
50.2115
43.4295
36.0648
28.3296
20.3651
12.2656
4.09578
8.75957
24.8961
37.6524
46.2865
50.9805
52.3579
51.1452
48.0024
43.4654
37.9435
31.7386
25.0694
18.0934
10.9255
3.65292
6.69604
19.2391
29.58
37.0418
41.5479
43.389
43.0106
40.8766
37.4023
32.9309
27.7341
22.0216
15.9545
9.65794
3.23307
5.222
15.1109
23.5062
29.8487
33.9649
35.9604
36.0941
34.6806
32.0306
28.4215
24.0872
19.2197
13.9745
8.47928
2.84181
4.13334
12.0195
18.8574
24.2009
27.8539
29.824
30.2512
29.3424
27.3243
24.4149
20.8101
16.6795
12.1679
7.39923
2.48252
3.30881
9.65599
15.2458
19.7266
22.911
24.7582
25.3353
24.774
23.2364
20.8907
17.8977
14.4036
10.5394
6.42184
2.15675
2.67199
7.81818
12.4039
16.1522
18.896
20.574
21.2093
20.883
19.7091
17.8157
15.3327
12.3844
9.08671
5.54675
1.86454
2.17248
6.3694
10.1432
13.2749
15.6207
17.1132
17.7506
17.5801
16.6809
15.1497
13.0906
10.6076
7.80202
4.7703
1.60485
1.77574
5.21431
8.3281
10.9431
12.9377
14.2459
14.8526
14.7829
14.0912
12.8501
11.1423
9.05465
6.67417
4.08663
1.37584
1.45734
4.28462
6.85919
9.04195
10.731
11.8655
12.4239
12.4173
11.8827
10.8743
9.45772
7.70479
5.68995
3.48843
1.1752
1.19961
3.53033
5.66219
7.48341
8.90909
9.885
10.3871
10.4183
10.0028
9.18159
8.00648
6.53661
4.83524
2.96774
1.00035
0.989424
2.91405
4.68079
6.19938
7.39933
8.23325
8.67724
8.72902
8.4046
7.73445
6.75973
5.52904
4.0958
2.51633
0.848607
0.816864
2.40736
3.87161
5.13648
6.14358
6.85208
7.23951
7.30082
7.04624
6.49862
5.69059
4.66201
3.45779
2.12614
0.717325
0.674311
1.98827
3.20079
4.25248
5.09505
5.69371
6.02809
6.09181
5.89122
5.44346
4.77446
3.91684
2.90818
1.78949
0.603966
0.555818
1.63957
2.64159
3.51359
4.21577
4.71873
5.00447
5.06621
4.90769
4.54182
3.98919
3.27646
2.43492
1.49921
0.506153
0.456678
1.34759
2.17261
2.89256
3.47472
3.8945
4.13627
4.19344
4.06803
3.76977
3.315
2.72544
2.027
1.24871
0.421694
0.373115
1.10132
1.77656
2.36713
2.84634
3.19379
3.39615
3.44735
3.34829
3.10631
2.73433
2.24995
1.67448
1.03201
0.348595
0.302061
0.891804
1.43926
1.91898
2.30938
2.59375
2.76093
2.8055
2.7277
2.53303
2.23165
1.83767
1.36843
0.84372
0.285051
0.240985
0.711631
1.14895
1.5328
1.84598
2.07502
2.21077
2.24855
2.1882
2.03379
1.79319
1.47759
1.10086
0.678988
0.229437
0.187764
0.55458
0.895731
1.19565
1.44094
1.62102
1.72856
1.75967
1.71396
1.59433
1.40677
1.15991
0.86461
0.533455
0.180292
0.140587
0.415332
0.671116
0.896386
1.08113
1.21734
1.29937
1.32409
1.29097
1.20199
1.06148
0.875837
0.653222
0.403186
0.136291