/*--------------------------------*- C++ -*----------------------------------*\
| =========                 |                                                 |
| \\      /  F ield         | OpenFOAM: The Open Source CFD Toolbox           |
|  \\    /   O peration     | Version:  5.x                                   |
|   \\  /    A nd           | Web:      www.OpenFOAM.org                      |
|    \\/     M anipulation  |                                                 |
\*---------------------------------------------------------------------------*/
FoamFile
{
    version     2.0;
    format      ascii;
    class       volScalarField;
    location    "8.7";
    object      gradTx;
}
// * * * * * * * * * * * * * * * * * * * * * * * * * * * * * * * * * * * * * //

dimensions      [0 -1 0 1 0 0 0];

internalField   nonuniform List<scalar> 
6300
(
317.5
316.569
314.706
311.908
308.173
303.5
297.892
291.356
283.91
275.585
266.427
256.506
245.911
234.759
223.188
318.418
317.489
315.628
312.832
309.099
304.424
298.807
292.254
284.778
276.406
267.181
257.169
246.459
235.168
223.439
320.253
319.327
317.472
314.683
310.953
306.277
300.647
294.063
286.531
278.069
268.712
258.519
247.577
236.005
223.955
323.001
322.081
320.236
317.461
313.743
309.07
303.429
296.809
289.203
280.615
271.068
260.608
249.316
237.312
224.761
326.656
325.746
323.92
321.168
317.474
312.819
307.179
300.529
292.844
284.11
274.325
263.518
251.755
239.157
225.904
331.209
330.314
328.516
325.804
322.155
317.541
311.927
305.27
297.524
288.643
278.595
267.373
255.02
241.648
227.457
336.644
335.77
334.015
331.363
327.787
323.251
317.706
311.089
303.326
294.332
284.026
272.349
259.293
244.947
229.53
342.938
342.094
340.399
337.832
334.366
329.957
324.543
318.042
310.345
301.321
290.818
278.692
264.847
249.309
232.301
350.063
349.257
347.639
345.188
341.875
337.654
332.454
326.177
318.681
309.776
299.221
286.741
272.083
255.129
236.059
357.979
357.22
355.697
353.392
350.28
346.316
341.431
335.518
328.412
319.868
309.537
296.957
281.605
263.054
241.296
366.638
365.934
364.521
362.39
359.522
355.884
351.421
346.037
339.568
331.735
322.088
309.933
294.315
274.176
248.915
375.988
375.342
374.05
372.111
369.518
366.263
362.318
357.628
352.073
345.403
337.134
326.359
311.536
290.409
260.713
385.968
385.382
384.212
382.469
380.164
377.316
373.946
370.071
365.677
360.658
354.671
346.821
335.048
315.198
280.712
396.52
395.989
394.934
393.373
391.337
388.875
386.063
383.017
379.891
376.867
374.058
371.192
366.623
354.608
319.301
407.587
407.103
406.146
404.738
402.92
400.767
398.4
396.027
393.989
392.845
393.488
397.249
405.628
417.295
408.201
212.356
202.424
192.522
182.748
173.198
163.959
155.11
146.715
138.828
131.492
124.736
118.582
113.04
108.116
103.805
100.101
96.9893
94.4546
92.4757
91.0284
90.0843
89.6112
89.5722
89.926
90.6266
91.6235
92.8624
94.2866
95.8377
97.4585
99.0944
100.695
102.217
103.622
104.878
105.956
106.833
107.486
107.891
108.026
107.87
107.406
106.621
105.51
104.075
102.326
100.279
97.9543
95.3697
92.5419
89.4819
86.1941
82.6764
78.9209
74.916
70.6487
66.1062
61.2775
56.1535
50.7267
44.9894
38.9314
32.5387
25.7913
18.6623
11.1179
3.11773
-5.38311
-14.4325
-24.079
-34.3697
-45.3484
-57.0549
-69.524
-82.7853
-96.8635
-111.777
-127.539
-144.154
-161.616
-179.906
-198.988
-218.809
-239.29
-260.33
-281.802
-303.557
-325.423
-347.215
-368.742
212.452
202.375
192.329
182.418
172.743
163.393
154.449
145.977
138.03
130.65
123.865
117.695
112.148
107.227
102.928
99.2422
96.1553
93.6505
91.7068
90.3003
89.4029
88.9826
89.0032
89.4233
90.1966
91.2716
92.5926
94.1003
95.734
97.4333
99.1413
100.806
102.382
103.833
105.129
106.243
107.153
107.839
108.276
108.441
108.311
107.865
107.087
105.973
104.523
102.752
100.677
98.3247
95.7168
92.8733
89.8071
86.5226
83.0163
79.2775
75.2917
71.0428
66.5163
61.7007
56.5879
51.1726
45.4497
39.4123
33.0486
26.3402
19.2602
11.7739
3.83886
-4.59275
-13.572
-23.1504
-33.3774
-44.2987
-55.9547
-68.3805
-81.6061
-95.6565
-110.552
-126.307
-142.929
-160.418
-178.758
-197.919
-217.85
-238.477
-259.699
-281.386
-303.385
-325.517
-347.588
-369.392
212.649
202.274
191.933
181.742
171.811
162.237
153.102
144.476
136.411
128.946
122.105
115.905
110.35
105.439
101.165
97.517
94.4795
92.0344
90.161
88.8355
88.0308
87.716
87.8556
88.4088
89.3287
90.5622
92.0503
93.7292
95.5322
97.3924
99.247
101.04
102.724
104.265
105.637
106.819
107.794
108.545
109.049
109.278
109.203
108.796
108.036
106.914
105.432
103.609
101.474
99.0594
96.4
93.5225
90.4436
87.168
83.6882
79.9874
76.0437
71.8345
67.3408
62.55
57.4564
52.0597
46.3617
40.3619
34.0543
27.4233
20.4429
13.0759
5.27521
-3.01339
-11.848
-21.2867
-31.3841
-42.1892
-53.7437
-66.0828
-79.2361
-93.2292
-108.084
-123.821
-140.453
-157.987
-176.421
-195.733
-215.882
-236.8
-258.387
-280.512
-303.011
-325.689
-348.331
-370.707
212.957
202.114
191.312
180.686
170.359
160.44
151.018
142.162
133.924
126.336
119.419
113.18
107.619
102.729
98.497
94.9088
91.9467
89.5917
87.8228
86.6173
85.95
85.7918
86.1093
86.863
88.0059
89.4828
91.2301
93.1763
95.2444
97.3564
99.4381
101.426
103.27
104.938
106.414
107.688
108.756
109.605
110.213
110.548
110.569
110.232
109.505
108.368
106.829
104.914
102.668
100.144
97.3942
94.4586
91.3608
88.1047
84.6756
81.0447
77.1758
73.0337
68.591
63.8333
58.7596
53.3793
47.7067
41.7539
35.5245
29.0089
22.1819
15.0022
7.41424
-0.647436
-9.25343
-18.4734
-28.3706
-38.9988
-50.4008
-62.61
-75.6539
-89.5571
-104.344
-120.04
-136.671
-154.257
-172.813
-192.335
-212.8
-234.15
-256.292
-279.091
-302.368
-325.903
-349.445
-372.724
213.395
201.887
190.431
179.191
168.313
157.921
148.111
138.953
130.493
122.756
115.751
109.475
103.919
99.0663
94.8983
91.3952
88.5363
86.3014
84.6699
83.6211
83.1326
83.1793
83.7317
84.7534
86.1988
88.011
90.1203
92.4443
94.8902
97.3603
99.7614
102.015
104.065
105.886
107.477
108.852
110.028
111.006
111.768
112.269
112.446
112.228
111.557
110.4
108.763
106.691
104.258
101.551
98.6526
95.6251
92.503
89.2878
85.9511
82.4421
78.699
74.6633
70.2929
65.5699
60.5024
55.1182
49.4539
43.543
37.4058
31.0423
24.4284
17.5159
10.2355
2.50264
-5.77421
-14.6838
-24.3034
-34.6927
-45.8934
-57.933
-70.8314
-84.6089
-99.2907
-114.91
-131.508
-149.126
-167.806
-187.575
-208.434
-230.35
-253.242
-276.973
-301.343
-326.096
-350.927
-375.499
213.99
201.576
189.233
177.167
165.561
154.557
144.259
134.734
126.017
118.117
111.028
104.731
99.2019
94.4138
90.3387
86.9501
84.224
82.1387
80.6748
79.8148
79.5412
79.8356
80.6754
82.0306
83.8603
86.1081
88.6982
91.5336
94.4975
97.4603
100.294
102.892
105.186
107.161
108.846
110.3
111.58
112.715
113.694
114.452
114.886
114.874
114.306
113.12
111.321
108.985
106.24
103.231
100.093
96.925
93.7762
90.6429
87.4721
84.1739
80.641
76.7729
72.5003
67.8005
62.6995
57.2588
51.5546
45.6566
39.612
33.4354
27.1042
20.5591
13.7083
6.4362
-1.38336
-9.87122
-19.1266
-29.2168
-40.1764
-52.0168
-64.7405
-78.3553
-92.8836
-108.368
-124.869
-142.462
-161.227
-181.237
-202.538
-225.137
-248.977
-273.924
-299.756
-326.166
-352.767
-379.124
214.786
201.155
187.626
174.475
161.933
150.169
139.289
129.347
120.357
112.305
105.158
98.8759
93.4143
88.731
84.7868
81.5479
78.9858
77.078
75.8072
75.1608
75.1291
75.7037
76.8737
78.6214
80.9167
83.7091
86.9197
90.4346
94.1027
97.7426
101.164
104.203
106.764
108.848
110.545
111.995
113.335
114.648
115.933
117.098
117.966
118.316
117.941
116.717
114.647
111.865
108.598
105.094
101.574
98.1937
95.0239
92.049
89.1737
86.2411
83.0632
79.4628
75.3205
70.6066
65.3839
59.7773
53.9329
47.98
42.0072
36.0501
30.0873
24.042
17.7873
11.1582
3.97012
-3.95276
-12.7469
-22.4877
-33.1894
-44.8267
-57.3642
-70.7831
-85.0968
-100.357
-116.653
-134.104
-152.85
-173.031
-194.768
-218.13
-243.109
-269.589
-297.328
-325.949
-354.948
-383.732
215.851
200.579
185.466
170.9
157.18
144.501
132.961
122.584
113.343
105.185
98.0398
91.835
86.5023
81.9801
78.2162
75.1678
72.8024
71.097
70.0376
69.6186
69.8412
70.7116
72.237
74.421
77.2545
80.7047
84.6997
89.1119
93.7453
98.3361
102.58
106.198
109.026
111.089
112.595
113.846
115.125
116.615
118.344
120.168
121.787
122.797
122.797
121.529
118.992
115.443
111.292
106.976
102.851
99.1561
95.9879
93.3086
90.9548
88.6588
86.0909
82.9308
78.9613
74.1436
68.6189
62.6366
56.4657
50.3306
44.3787
38.672
33.1885
27.8255
22.4053
16.6849
10.3818
3.22071
-5.00332
-14.3739
-24.854
-36.3382
-48.7165
-61.92
-75.9438
-90.8511
-106.769
-123.878
-142.401
-162.581
-184.65
-208.787
-235.071
-263.432
-293.621
-325.177
-357.427
-389.528
217.293
199.767
182.512
166.1
150.923
137.188
124.953
114.178
104.767
96.6027
89.5627
83.5346
78.4195
74.1342
70.6119
67.8014
65.6659
64.183
63.3433
63.1499
63.618
64.7734
66.6495
69.2825
72.7015
76.913
81.8758
87.4673
93.446
99.4255
104.895
109.327
112.384
114.128
115.011
115.651
116.608
118.234
120.612
123.53
126.481
128.728
129.474
128.166
124.791
119.881
114.224
108.576
103.508
99.3567
96.245
94.0967
92.6496
91.4652
89.9688
87.5618
83.8211
78.6965
72.5108
65.7654
58.9455
52.4159
46.3959
40.9718
36.1151
31.6909
27.4548
23.0502
18.0289
11.925
4.3917
-4.66156
-15.0716
-26.561
-38.8784
-51.8733
-65.5156
-79.8869
-95.165
-111.612
-129.561
-149.404
-171.546
-196.347
-224.033
-254.636
-287.933
-323.392
-360.108
-396.832
219.292
198.559
178.338
159.514
142.582
127.709
114.839
103.804
94.3933
86.3968
79.625
73.9164
69.1386
65.1866
61.9801
59.4601
57.5873
56.3405
55.7157
55.7261
56.4029
57.795
59.9697
63.0094
67.0046
72.0366
78.1434
85.2622
93.1421
101.246
108.7
114.431
117.63
118.404
117.77
116.998
117.123
118.765
122.099
126.84
132.185
136.815
139.104
137.775
132.798
125.391
117.137
109.34
102.839
98.0576
95.112
93.8723
93.9633
94.7182
95.1551
94.1104
90.6715
84.775
77.2065
68.9997
61.0055
53.7658
47.5535
42.4533
38.4181
35.2845
32.7462
30.3032
27.2348
22.6872
15.9757
7.00491
-3.73388
-15.5904
-28.0631
-40.8923
-54.0353
-67.6139
-81.8752
-97.1769
-113.992
-132.91
-154.608
-179.743
-208.789
-241.948
-279.123
-319.786
-362.768
-406.148
222.162
196.602
172.148
150.194
131.272
115.339
102.077
91.0854
81.978
74.4236
68.153
62.9546
58.6656
55.1632
52.3572
50.1845
48.605
47.6001
47.1711
47.3409
48.1554
49.6877
52.042
55.3581
59.8124
65.6096
72.9512
81.958
92.5128
103.998
114.983
123.176
126.365
124.703
120.724
117.049
115.449
116.854
121.559
129.273
138.916
148.27
153.939
152.632
144.298
132.119
119.389
108.234
99.6891
94.112
91.5193
91.7284
94.318
98.4262
102.472
104.104
101.058
93.2586
82.8192
71.9258
61.9773
53.6343
47.1085
42.3998
39.4214
38.0199
37.8995
38.4561
38.5699
36.5651
30.8126
21.2174
9.21377
-3.73175
-16.7335
-29.4577
-41.9257
-54.3556
-67.0842
-80.5599
-95.3888
-112.408
-132.714
-157.502
-187.616
-223.47
-265.279
-312.83
-364.842
-418.319
226.489
193.042
162.351
136.502
115.652
99.1195
86.044
75.6506
67.3237
60.5988
55.1343
50.6807
47.0576
44.1347
41.8204
40.0525
38.7937
38.0285
37.7627
38.0253
38.8725
40.3947
42.7273
46.0657
50.6844
56.9565
65.3583
76.4216
90.541
107.466
125.28
139.125
142.079
134.337
123.235
114.107
109.445
110.188
116.682
128.923
146.058
165.027
178.813
177.605
161.329
139.637
119.367
103.368
92.2625
85.8663
83.8892
86.1539
92.4832
102.221
113.26
120.832
118.285
105.541
89.0829
73.489
60.6353
50.8847
44.0455
39.8535
38.1531
38.9095
42.0768
47.2456
52.9546
55.8388
51.1823
38.8972
23.5177
8.2083
-5.80274
-18.3909
-29.8693
-40.6648
-51.2149
-61.9914
-73.6288
-87.1679
-104.362
-127.587
-158.169
-196.408
-243.16
-299.438
-364.794
-434.832
233.48
185.504
145.575
115.608
93.8079
77.9175
66.144
57.2367
50.3594
44.9569
40.6574
37.2092
34.4392
32.2282
30.4949
29.1859
28.2702
27.7362
27.5919
27.8666
28.6163
29.9334
31.9627
34.9277
39.1737
45.2345
53.9307
66.4815
84.5257
109.651
141.288
170.754
173.19
148.802
122.899
104.729
95.6532
95.2381
103.524
121.523
150.554
189.242
225.272
224.271
186.152
145.102
113.192
91.4514
78.0513
71.2542
70.1483
74.7237
85.7368
104.14
129.038
152.127
150.194
123.168
94.0997
71.1044
54.8227
43.9412
37.1693
33.7182
33.346
36.3263
43.3706
55.256
71.4054
85.9695
82.5359
61.0321
37.72
18.2788
3.07931
-8.92127
-18.795
-27.3262
-35.0173
-42.1811
-49.1275
-56.6613
-67.3235
-87.0717
-117.692
-157.08
-207.317
-272.964
-357.989
-458.533
245.842
166.375
114.446
82.9474
63.4508
50.7845
42.1142
35.8974
31.2695
27.7245
24.9533
22.7594
21.0143
19.6326
18.5573
17.7519
17.1958
16.8818
16.8168
17.0226
17.5418
18.4454
19.8495
21.9441
25.0481
29.7159
36.9504
48.6287
68.3101
102.456
160.417
241.298
242.92
165.445
111.424
82.2537
69.3863
67.7553
76.3762
98.233
141.138
217.28
325.049
324.377
215.193
137.399
92.3692
67.5216
54.3296
48.4444
48.224
54.0211
68.3463
96.702
147.418
219.446
218.235
143.73
90.369
59.0501
41.2322
31.0785
25.5099
23.1483
23.7101
27.8901
37.692
57.1246
92.1367
142.015
139.908
85.7691
46.3473
22.2407
7.35512
-2.51384
-9.65333
-15.1959
-19.5779
-22.6823
-23.7784
-21.6474
-17.1983
-30.8981
-64.5824
-102.127
-149.274
-218.577
-328.826
-495.411
269.871
107.585
53.8932
33.0004
23.2554
17.8953
14.5495
12.2688
10.619
9.37692
8.41667
7.66224
7.0655
6.59506
6.23037
5.95841
5.77189
5.66848
5.65076
5.727
5.91306
6.23602
6.74123
7.50612
8.66964
10.5002
13.5698
19.2496
31.2623
60.9664
146.532
425.969
426.54
148.309
64.1602
36.2984
26.9367
25.5075
30.1659
44.6303
83.8561
199.768
580.969
580.731
199.026
82.5121
42.4809
26.8055
20.0842
17.4758
17.633
21.0363
30.75
57.0629
135.101
392.225
391.812
133.842
54.8943
27.5524
16.6038
11.6126
9.23173
8.36822
8.86312
11.3573
18.1444
36.5568
91.4585
272.913
272.203
89.3108
32.9194
12.9236
4.40688
-0.036624
-2.81068
-4.73652
-5.97722
-6.07455
-3.07542
10.0295
59.0621
54.0546
-5.91143
-33.3438
-59.3203
-105.217
-218.526
-558.742
-391.854
-416.181
-439.266
-460.87
-480.807
-498.946
-515.209
-529.561
-542.001
-552.553
-561.254
-568.147
-573.274
-576.67
-578.362
-392.795
-417.408
-440.733
-462.522
-482.588
-500.805
-517.102
-531.454
-543.871
-554.386
-563.044
-569.894
-574.985
-578.356
-580.034
-394.709
-419.909
-443.721
-465.882
-486.203
-504.567
-520.923
-535.265
-547.626
-558.057
-566.621
-573.382
-578.397
-581.713
-583.363
-397.667
-423.783
-448.344
-471.065
-491.757
-510.322
-526.739
-541.04
-553.291
-563.576
-571.983
-578.596
-583.489
-586.718
-588.323
-401.787
-429.196
-454.794
-478.262
-499.42
-518.207
-534.654
-548.847
-560.904
-570.953
-579.119
-585.512
-590.225
-593.327
-594.867
-407.253
-436.406
-463.357
-487.752
-509.436
-528.416
-544.804
-558.769
-570.504
-580.194
-588.008
-594.089
-598.551
-601.48
-602.93
-414.349
-445.804
-474.461
-499.935
-522.14
-541.199
-557.357
-570.904
-582.129
-591.291
-598.61
-604.265
-608.392
-611.09
-612.424
-423.513
-457.984
-488.73
-515.371
-537.97
-556.865
-572.503
-585.342
-595.796
-604.209
-610.856
-615.948
-619.641
-622.046
-623.231
-435.446
-473.872
-507.09
-534.83
-557.488
-575.769
-590.428
-602.146
-611.483
-618.872
-624.635
-629.007
-632.158
-634.2
-635.204
-451.319
-494.952
-530.912
-559.353
-581.365
-598.274
-611.274
-621.314
-629.1
-635.139
-639.781
-643.267
-645.761
-647.371
-648.16
-473.208
-523.689
-562.233
-590.284
-610.326
-624.666
-635.057
-642.712
-648.445
-652.782
-656.061
-658.496
-660.227
-661.34
-661.885
-505.144
-564.344
-604.03
-629.203
-644.97
-654.989
-661.551
-666.013
-669.166
-671.462
-673.159
-674.407
-675.289
-675.856
-676.133
-555.904
-624.492
-660.319
-677.508
-685.342
-688.745
-690.119
-690.601
-690.721
-690.717
-690.685
-690.658
-690.644
-690.638
-690.637
-647.718
-717.382
-735.22
-735.141
-730.124
-724.505
-719.554
-715.529
-712.38
-709.977
-708.18
-706.872
-705.965
-705.394
-705.118
-847.689
-862.076
-828.016
-797.685
-775.488
-759.572
-748.036
-739.557
-733.273
-728.606
-725.159
-722.661
-720.926
-719.831
-719.301
418.161
417.711
416.822
415.515
413.832
411.848
409.7
407.63
406.078
405.84
408.425
416.887
438.353
493.776
663.823
428.074
427.65
426.807
425.563
423.948
422.024
419.906
417.809
416.143
415.682
417.911
425.697
444.509
483.691
548.989
438.271
437.866
437.059
435.855
434.267
432.323
430.085
427.678
425.361
423.644
423.525
426.837
436.507
455.455
479.668
448.737
448.351
447.576
446.403
444.82
442.814
440.368
437.474
434.15
430.484
426.744
423.551
422.05
423.549
427.331
459.459
459.094
458.356
457.222
455.656
453.597
450.95
447.557
443.163
437.364
429.571
419.079
405.498
390.044
377.793
470.422
470.086
469.398
468.328
466.819
464.777
462.039
458.324
453.139
445.614
434.259
416.739
390.234
354.305
319.919
481.607
481.308
480.693
479.725
478.34
476.426
473.792
470.1
464.729
456.511
443.216
420.627
381.505
317.482
238.34
492.988
492.737
492.219
491.399
490.215
488.563
486.268
483.028
478.281
470.922
458.615
435.985
390.055
291.15
101.977
504.53
504.338
503.942
503.312
502.4
501.131
499.389
496.991
493.632
488.756
481.169
467.511
435.384
327.494
-165.577
516.192
516.069
515.813
515.406
514.819
514.014
512.952
511.607
510.021
508.461
507.926
511.848
533.315
631.315
1117.92
527.927
527.878
527.775
527.611
527.374
527.063
526.699
526.378
526.375
527.441
531.574
543.985
578.083
665.253
846.263
539.683
539.711
539.766
539.85
539.965
540.132
540.405
540.915
541.97
544.278
549.459
561.046
585.981
634.005
700.514
551.405
551.511
551.724
552.051
552.505
553.114
553.931
555.059
556.678
559.104
562.881
568.821
577.831
589.902
601.162
563.041
563.222
563.587
564.148
564.922
565.935
567.229
568.849
570.807
572.977
574.787
574.449
567.539
546.345
509.841
574.537
574.79
575.3
576.082
577.155
578.546
580.287
582.388
584.773
587.085
588.169
584.624
567.153
513.405
393.385
585.844
586.164
586.809
587.797
589.15
590.899
593.08
595.717
598.773
602.03
604.75
604.452
591.944
526.473
193.798
596.916
597.296
598.066
599.242
600.852
602.935
605.542
608.739
612.614
617.334
623.41
632.742
653.498
725.086
1060.61
607.708
608.143
609.024
610.369
612.209
614.591
617.58
621.275
625.848
631.681
639.793
653.082
679.736
740.388
863.456
618.183
618.666
619.643
621.134
623.173
625.809
629.112
633.185
638.19
644.428
652.565
664.121
682.348
712.326
752
628.307
628.831
629.888
631.501
633.705
636.546
640.094
644.433
649.657
655.839
662.947
670.509
676.783
677.511
668.331
638.053
638.609
639.731
641.442
643.774
646.777
650.512
655.051
660.438
666.589
672.997
677.772
675.053
649.559
578.527
647.397
647.977
649.149
650.932
653.36
656.48
660.357
665.065
670.668
677.144
684.165
690.22
689.122
653.212
439.636
656.322
656.92
658.124
659.956
662.446
665.641
669.608
674.442
680.271
687.303
695.986
707.617
727.348
780.226
1004.42
664.817
665.424
666.648
668.504
671.023
674.247
678.243
683.11
689.018
696.299
705.742
719.369
742.538
788.25
873.398
672.874
673.485
674.713
676.574
679.091
682.3
686.255
691.04
696.792
703.775
712.575
724.476
742.056
768.866
801.759
680.491
681.1
682.322
684.17
686.66
689.817
693.675
698.281
703.69
709.972
717.238
725.618
735.144
745.24
753.215
687.669
688.271
689.48
691.301
693.746
696.827
700.56
704.948
709.96
715.467
721.11
725.943
727.821
723.065
710.464
694.411
695.005
696.193
697.98
700.371
703.368
706.972
711.164
715.866
720.851
725.525
728.302
725.085
706.321
659.219
700.726
701.308
702.473
704.221
706.553
709.468
712.96
717.01
721.554
726.431
731.239
734.804
733.127
709.237
575.521
706.619
707.189
708.329
710.038
712.312
715.148
718.544
722.494
726.99
732.043
737.797
744.927
756.576
788.403
926.36
712.099
712.658
713.773
715.441
717.659
720.422
723.727
727.582
732.017
737.15
743.381
751.892
765.995
793.846
846.129
717.175
717.722
718.813
720.444
722.608
725.299
728.511
732.249
736.538
741.475
747.363
754.954
765.847
782.302
802.47
721.854
722.39
723.46
725.057
727.172
729.794
732.913
736.515
740.588
745.122
750.143
755.702
761.818
768.16
773.082
726.143
726.671
727.722
729.289
731.362
733.926
736.961
740.438
744.296
748.413
752.531
756.043
757.613
754.983
747.379
730.05
730.57
731.606
733.151
735.191
737.711
740.686
744.077
747.802
751.683
755.322
757.711
756.307
745.241
716.661
733.577
734.092
735.118
736.647
738.667
741.161
744.106
747.467
751.178
755.104
758.962
761.992
761.691
747.642
666.364
736.73
737.242
738.262
739.783
741.793
744.277
747.218
750.596
754.382
758.552
763.16
768.566
776.606
796.709
881.103
739.509
740.021
741.039
742.559
744.569
747.056
750.011
753.424
757.297
761.678
766.785
773.29
783.125
801.108
833.51
741.916
742.429
743.45
744.974
746.991
749.492
752.467
755.914
759.837
764.281
769.419
775.68
783.966
795.475
808.69
743.95
744.465
745.492
747.025
749.057
751.578
754.58
758.054
761.992
766.384
771.255
776.644
782.55
788.635
793.319
745.608
746.127
747.162
748.709
750.761
753.31
756.346
759.856
763.808
768.136
772.712
777.227
780.993
782.75
781.473
746.889
747.412
748.458
750.022
752.1
754.684
757.766
761.332
765.341
769.696
774.191
778.311
780.811
778.951
769.015
747.787
748.317
749.375
750.958
753.065
755.691
758.833
762.483
766.61
771.141
775.913
780.498
783.638
780.741
749.93
748.301
748.836
749.906
751.51
753.648
756.32
759.53
763.283
767.576
772.398
777.746
783.667
790.638
801.895
837.355
748.424
748.965
750.047
751.671
753.839
756.555
759.832
763.689
768.153
773.271
779.163
786.084
794.644
806.22
822.053
748.154
748.699
749.792
751.433
753.626
756.381
759.714
763.655
768.251
773.587
779.845
787.343
796.536
807.569
818.025
747.486
748.036
749.136
750.79
753.003
755.785
759.156
763.148
767.813
773.244
779.645
787.401
797.132
809.295
821.539
746.419
746.971
748.076
749.737
751.962
754.759
758.148
762.156
766.82
772.207
778.486
786.067
796.02
810.945
833.836
744.951
745.503
746.609
748.273
750.501
753.303
756.693
760.689
765.302
770.532
776.404
783.062
791.437
807.042
862.31
743.081
743.631
744.735
746.395
748.62
751.417
754.799
758.776
763.331
768.391
773.757
778.845
781.811
775.576
725.523
740.81
741.357
742.454
744.105
746.318
749.104
752.475
756.442
760.985
766.017
771.284
776.077
778.557
774.517
758.182
738.141
738.683
739.768
741.404
743.598
746.364
749.72
753.689
758.278
763.459
769.122
774.895
779.811
781.976
779.781
735.078
735.611
736.681
738.293
740.458
743.192
746.522
750.486
755.135
760.547
766.864
774.284
782.955
792.441
800.138
731.626
732.149
733.196
734.777
736.901
739.587
742.866
746.789
751.44
756.987
763.821
772.784
785.514
804.127
826.123
727.794
728.302
729.322
730.861
732.931
735.549
738.745
742.567
747.098
752.513
759.28
768.645
783.969
813.443
867.668
723.589
724.081
725.068
726.557
728.558
731.088
734.17
737.835
742.118
747.08
752.915
760.347
772.577
805.551
947.151
719.025
719.497
720.445
721.875
723.796
726.224
729.174
732.656
736.644
741.02
745.422
748.695
746.759
722.203
585.192
714.115
714.564
715.467
716.829
718.661
720.976
723.789
727.105
730.878
734.922
738.693
740.639
736.63
716.928
668.43
708.874
709.298
710.15
711.436
713.168
715.361
718.037
721.218
724.899
728.995
733.213
736.696
737.379
731.628
718.273
703.32
703.716
704.511
705.713
707.333
709.39
711.917
714.966
718.609
722.961
728.223
734.676
742.576
751.588
759.127
697.472
697.837
698.57
699.678
701.171
703.071
705.417
708.282
711.804
716.277
722.386
731.629
746.98
772.55
805.501
691.353
691.684
692.35
693.354
694.705
696.423
698.539
701.123
704.313
708.437
714.354
724.319
744.267
788.365
875.041
684.984
685.28
685.874
686.766
687.964
689.475
691.319
693.525
696.151
699.332
703.49
710.056
724.763
774.591
1005.06
678.393
678.651
679.169
679.946
680.983
682.277
683.828
685.617
687.581
689.528
690.934
690.117
680.849
635.355
407.063
671.603
671.824
672.265
672.925
673.8
674.881
676.154
677.57
678.998
680.081
679.903
676.024
662.074
623.042
539.149
664.641
664.824
665.19
665.734
666.451
667.332
668.361
669.497
670.631
671.489
671.424
668.904
660.698
641.861
613.256
657.534
657.68
657.97
658.4
658.966
659.66
660.476
661.407
662.433
663.518
664.63
665.712
666.686
667.443
667.778
650.307
650.416
650.633
650.953
651.37
651.882
652.495
653.233
654.169
655.511
657.837
662.573
672.806
693.298
722.81
642.986
643.06
643.205
643.416
643.686
644.014
644.408
644.902
645.601
646.8
649.352
655.596
671.781
712.87
798.615
635.596
635.635
635.711
635.816
635.942
636.081
636.233
636.412
636.663
637.13
638.284
641.695
653.443
701.411
934.242
628.16
628.167
628.177
628.181
628.166
628.118
628.021
627.852
627.553
626.964
625.629
621.983
609.932
561.556
328.132
620.701
620.679
620.628
620.538
620.391
620.169
619.843
619.366
618.62
617.296
614.56
608.087
591.628
550.185
463.901
613.24
613.191
613.086
612.912
612.648
612.271
611.751
611.047
610.067
608.59
606.066
601.106
590.654
569.934
540.026
605.795
605.724
605.574
605.328
604.963
604.452
603.77
602.901
601.836
600.593
599.244
597.917
596.792
596.044
595.659
598.381
598.294
598.108
597.806
597.357
596.731
595.902
594.872
593.707
592.649
592.387
594.567
602.648
621.882
651.298
591.01
590.913
590.705
590.364
589.853
589.131
588.157
586.919
585.48
584.134
583.816
587.099
600.739
640.629
727.642
583.689
583.59
583.376
583.02
582.475
581.684
580.578
579.086
577.165
574.887
572.724
572.416
580.584
626.63
864.685
576.42
576.328
576.127
575.785
575.247
574.438
573.249
571.534
569.076
565.542
560.325
551.825
534.104
479.272
235.418
569.198
569.123
568.957
568.665
568.187
567.434
566.269
564.479
561.712
557.346
550.188
537.616
513.379
463.158
368.98
562.01
561.963
561.856
561.653
561.297
560.697
559.705
558.085
555.436
551.069
543.792
531.488
510.679
477.55
437.412
554.837
554.829
554.801
554.727
554.557
554.212
553.56
552.387
550.329
546.794
540.868
531.244
516.516
496.789
478.241
547.652
547.69
547.76
547.846
547.917
547.919
547.761
547.286
546.226
544.16
540.494
534.524
525.805
515.19
506.46
540.423
540.512
540.69
540.956
541.304
541.719
542.166
542.572
542.801
542.617
541.702
539.691
536.392
532.26
528.886
533.115
533.254
533.54
533.989
534.625
535.477
536.581
537.965
539.638
541.563
543.652
545.731
547.539
548.784
549.237
525.695
525.877
526.258
526.873
527.774
529.041
530.783
533.141
536.279
540.375
545.59
551.939
559.057
565.835
570.173
518.131
518.345
518.796
519.537
520.649
522.257
524.542
527.756
532.233
538.392
546.721
557.591
570.79
584.561
594.389
510.402
510.63
511.116
511.924
513.159
514.984
517.64
521.478
526.996
534.882
546.069
561.605
582.105
606.003
625.698
502.498
502.719
503.194
503.994
505.239
507.114
509.901
514.018
520.091
529.062
542.377
562.149
591.041
630.341
670.952
494.425
494.615
495.028
495.737
496.863
498.594
501.221
505.182
511.152
520.207
534.183
556.339
592.728
653.744
744.672
486.205
486.339
486.639
487.171
488.046
489.435
491.599
494.935
500.048
507.918
520.288
540.623
577.295
656.35
881.8
-1402.06
-1039.09
-909.635
-847.534
-811.292
-787.679
-771.313
-759.549
-750.923
-744.541
-739.831
-736.411
-734.031
-732.525
-731.796
-1185.33
-1037.84
-937.036
-874.871
-835.054
-808.18
-789.256
-775.529
-765.393
-757.85
-752.253
-748.171
-745.319
-743.51
-742.632
-1071.28
-1004.13
-937.582
-886.669
-849.811
-823.14
-803.569
-788.998
-778.046
-769.79
-763.603
-759.058
-755.865
-753.832
-752.842
-1004.12
-969.999
-927.246
-888.684
-857.474
-833.149
-814.389
-799.937
-788.81
-780.274
-773.794
-768.988
-765.587
-763.411
-762.35
-960.939
-941.834
-913.977
-885.572
-860.338
-839.273
-822.195
-808.55
-797.758
-789.312
-782.804
-777.922
-774.44
-772.2
-771.103
-931.293
-919.723
-901.066
-880.237
-860.288
-842.609
-827.596
-815.164
-805.06
-796.985
-790.664
-785.865
-782.411
-780.177
-779.079
-909.955
-902.513
-889.64
-874.271
-858.642
-844.074
-831.18
-820.144
-810.935
-803.423
-797.446
-792.853
-789.518
-787.347
-786.277
-894.058
-889.053
-879.927
-868.464
-856.239
-844.356
-833.453
-823.837
-815.615
-808.774
-803.247
-798.948
-795.798
-793.735
-792.714
-881.909
-878.436
-871.815
-863.164
-853.582
-843.937
-834.81
-826.544
-819.317
-813.195
-808.174
-804.224
-801.305
-799.381
-798.425
-872.445
-869.983
-865.091
-858.491
-850.95
-843.137
-835.547
-828.511
-822.236
-816.831
-812.338
-808.764
-806.101
-804.336
-803.456
-864.965
-863.199
-859.533
-854.449
-848.489
-842.162
-835.876
-829.93
-824.533
-819.814
-815.843
-812.651
-810.255
-808.658
-807.86
-858.984
-857.713
-854.94
-850.993
-846.264
-841.139
-835.948
-830.95
-826.342
-822.259
-818.784
-815.966
-813.835
-812.407
-811.691
-854.161
-853.251
-851.141
-848.061
-844.296
-840.142
-835.863
-831.679
-827.769
-824.263
-821.249
-818.783
-816.907
-815.644
-815.008
-850.243
-849.603
-847.995
-845.583
-842.579
-839.211
-835.691
-832.2
-828.898
-825.906
-823.31
-821.171
-819.533
-818.426
-817.867
-847.042
-846.609
-845.386
-843.496
-841.097
-838.367
-835.474
-832.571
-829.795
-827.255
-825.034
-823.19
-821.771
-820.808
-820.321
-844.418
-844.143
-843.221
-841.742
-839.827
-837.616
-835.243
-832.834
-830.509
-828.364
-826.473
-824.895
-823.673
-822.841
-822.419
-842.257
-842.108
-841.422
-840.27
-838.744
-836.956
-835.014
-833.022
-831.08
-829.276
-827.675
-826.33
-825.285
-824.57
-824.207
-840.476
-840.424
-839.927
-839.036
-837.826
-836.384
-834.799
-833.155
-831.539
-830.027
-828.677
-827.537
-826.647
-826.037
-825.726
-839.005
-839.031
-838.684
-838.004
-837.049
-835.891
-834.601
-833.249
-831.909
-830.647
-829.513
-828.55
-827.795
-827.276
-827.012
-837.789
-837.879
-837.652
-837.143
-836.396
-835.471
-834.425
-833.316
-832.208
-831.157
-830.208
-829.398
-828.76
-828.32
-828.096
-836.786
-836.926
-836.797
-836.426
-835.848
-835.114
-834.27
-833.363
-832.45
-831.577
-830.785
-830.105
-829.568
-829.196
-829.006
-835.96
-836.141
-836.091
-835.831
-835.392
-834.813
-834.135
-833.396
-832.645
-831.923
-831.262
-830.693
-830.241
-829.928
-829.767
-835.282
-835.496
-835.51
-835.341
-835.013
-834.563
-834.02
-833.42
-832.803
-832.205
-831.655
-831.179
-830.799
-830.534
-830.398
-834.731
-834.971
-835.036
-834.94
-834.703
-834.355
-833.924
-833.436
-832.929
-832.434
-831.976
-831.576
-831.256
-831.033
-830.917
-834.287
-834.548
-834.654
-834.616
-834.451
-834.186
-833.844
-833.447
-833.03
-832.618
-832.235
-831.898
-831.627
-831.437
-831.339
-833.937
-834.214
-834.352
-834.359
-834.251
-834.051
-833.779
-833.455
-833.108
-832.763
-832.439
-832.153
-831.922
-831.759
-831.674
-833.669
-833.958
-834.12
-834.161
-834.097
-833.947
-833.728
-833.46
-833.167
-832.874
-832.597
-832.35
-832.149
-832.007
-831.934
-833.474
-833.772
-833.951
-834.017
-833.983
-833.869
-833.69
-833.462
-833.21
-832.955
-832.711
-832.493
-832.315
-832.189
-832.124
-833.346
-833.65
-833.84
-833.922