/*--------------------------------*- C++ -*----------------------------------*\
| =========                 |                                                 |
| \\      /  F ield         | OpenFOAM: The Open Source CFD Toolbox           |
|  \\    /   O peration     | Version:  5.x                                   |
|   \\  /    A nd           | Web:      www.OpenFOAM.org                      |
|    \\/     M anipulation  |                                                 |
\*---------------------------------------------------------------------------*/
FoamFile
{
    version     2.0;
    format      ascii;
    class       volScalarField;
    location    "1.2";
    object      gradTx;
}
// * * * * * * * * * * * * * * * * * * * * * * * * * * * * * * * * * * * * * //

dimensions      [0 -1 0 1 0 0 0];

internalField   nonuniform List<scalar> 
2048
(
-0.000874824
-0.00247536
-0.00361153
-0.00397098
-0.00324111
-0.00110077
0.0027452
0.00855674
0.0165409
0.0268335
0.0394877
0.0544678
0.0716434
0.0907817
0.111534
0.133419
0.155809
0.17792
0.198834
0.217544
0.233033
0.244387
0.250915
0.252251
0.248415
0.239812
0.227168
0.211416
0.193577
0.174644
0.155489
0.136822
0.119164
0.102862
0.0881077
0.0749732
0.0634386
0.0534231
0.0448078
0.0374546
0.0312191
0.0259596
0.021543
0.0178478
0.0147655
0.0122009
0.0100712
0.00830553
0.00684355
0.00563411
0.00463414
0.00380754
0.00312404
0.00255839
0.00208947
0.00169967
0.00137426
0.0011009
0.000869231
0.000670466
0.000497028
0.000342255
0.000200276
6.59004e-05
-0.00271114
-0.00769712
-0.0113186
-0.0126443
-0.0107445
-0.00466299
0.00649029
0.0235003
0.0469921
0.0773761
0.114815
0.159208
0.210177
0.267044
0.328792
0.394012
0.460848
0.526975
0.589638
0.64579
0.692336
0.726474
0.746074
0.750006
0.738331
0.712301
0.674145
0.626733
0.573178
0.516481
0.45927
0.403651
0.351163
0.302809
0.259133
0.22032
0.186287
0.156776
0.131421
0.109803
0.0914856
0.076047
0.0630908
0.0522564
0.0432231
0.0357096
0.0294722
0.0243025
0.0200227
0.0164828
0.0135565
0.0111378
0.0091381
0.0074833
0.0061116
0.00497139
0.00401955
0.00322
0.00254242
0.00196113
0.00145394
0.0010012
0.000585406
0.000192353
-0.00480579
-0.0137152
-0.0204183
-0.0233842
-0.0210761
-0.0119012
0.00564409
0.032892
0.0709044
0.120379
0.181596
0.254403
0.338201
0.431916
0.533935
0.641999
0.753098
0.863401
0.968294
1.06259
1.14096
1.1985
1.23145
1.23782
1.2177
1.17332
1.1086
1.02855
0.93857
0.843773
0.748575
0.656455
0.5699
0.490481
0.419009
0.3557
0.300348
0.252471
0.211425
0.176492
0.146942
0.122069
0.101218
0.0837995
0.069288
0.0572259
0.0472182
0.0389273
0.0320664
0.0263935
0.0217051
0.0178309
0.0146285
0.0119788
0.00978273
0.00795745
0.00643382
0.00515402
0.00406953
0.00313926
0.0023278
0.00160345
0.000936357
0.000306736
-0.00731229
-0.0209918
-0.0316915
-0.0373087
-0.0356981
-0.0246062
-0.00187192
0.0344344
0.0858521
0.153388
0.237451
0.337845
0.453781
0.583852
0.725943
0.877062
1.03314
1.18888
1.33775
1.47222
1.5844
1.66691
1.71403
1.72265
1.69293
1.62827
1.53467
1.4197
1.29134
1.15705
1.02312
0.894372
0.774148
0.664463
0.566258
0.479665
0.404258
0.339262
0.283707
0.236548
0.196741
0.163298
0.135308
0.111955
0.0925205
0.0763817
0.0630019
0.0519245
0.0427626
0.0351904
0.0289348
0.0237671
0.0194966
0.015964
0.0130368
0.0106041
0.00857359
0.00686818
0.00542308
0.00418351
0.00310261
0.0021386
0.00124768
0.000407282
-0.0103292
-0.0298314
-0.0456699
-0.0552021
-0.055669
-0.0441118
-0.0176378
0.0263603
0.0899623
0.174513
0.280548
0.407824
0.555383
0.72156
0.903867
1.09873
1.30118
1.50451
1.70018
1.87807
2.02725
2.13728
2.19989
2.21056
2.16951
2.08167
1.95567
1.80224
1.63246
1.45643
1.2824
1.11651
0.962817
0.823593
0.699736
0.591144
0.49705
0.416294
0.347524
0.289331
0.240344
0.19928
0.164976
0.136402
0.112655
0.0929565
0.0766408
0.063143
0.0519865
0.0427708
0.0351608
0.0288768
0.0236853
0.0193922
0.0158355
0.0128801
0.0104138
0.00834246
0.00658734
0.0050817
0.0037689
0.00259988
0.00151586
0.000493087
-0.013908
-0.0404002
-0.0626653
-0.077563
-0.0817119
-0.0713829
-0.0428432
0.00731118
0.0817888
0.182303
0.309491
0.463029
0.641793
0.843941
1.06677
1.30636
1.55703
1.8108
2.05708
2.28282
2.47342
2.61454
2.69459
2.70711
2.65237
2.53736
2.37418
2.17755
1.96232
1.74158
1.52567
1.32192
1.13489
0.966892
0.818564
0.689376
0.57808
0.483035
0.402441
0.334489
0.277462
0.229781
0.190038
0.156992
0.12957
0.106852
0.088055
0.0725182
0.0596856
0.0490919
0.0403484
0.0331315
0.0271716
0.0222445
0.0181636
0.0147734
0.0119444
0.00956891
0.00755615
0.00582915
0.00432313
0.00298446
0.00173918
0.000563735
-0.0180574
-0.0527397
-0.082793
-0.104638
-0.114263
-0.107083
-0.0783709
-0.0237578
0.0602162
0.175658
0.32325
0.502495
0.712079
0.950055
1.21372
1.49907
1.80007
2.1077
2.40929
2.6885
2.92629
3.1033
3.20343
3.21756
3.14604
2.99864
2.79212
2.54633
2.28071
2.01175
1.7519
1.50952
1.28938
1.09354
0.922089
0.773862
0.646982
0.539224
0.448277
0.371901
0.308018
0.254756
0.210465
0.17371
0.14326
0.118068
0.0972476
0.0800545
0.0658651
0.0541589
0.0445026
0.0365359
0.0299594
0.0245245
0.0200241
0.0162862
0.0131676
0.0105492
0.00833075
0.00642683
0.00476602
0.00329258
0.00191761
0.000619245
-0.0227472
-0.0667761
-0.105987
-0.136446
-0.153509
-0.151623
-0.124864
-0.067656
0.0243821
0.153772
0.321114
0.525583
0.765581
1.03913
1.34377
1.67583
2.02933
2.39457
2.75698
3.09654
3.3888
3.60793
3.73168
3.74719
3.65487
3.46841
3.21082
2.90863
2.58683
2.26573
1.95983
1.67818
1.4254
1.20288
1.00987
0.844345
0.703635
0.584835
0.48507
0.401642
0.332107
0.274305
0.226357
0.18665
0.153811
0.126681
0.104286
0.0858101
0.0705746
0.058014
0.0476587
0.0391195
0.0320734
0.0262525
0.0214339
0.0174324
0.0140944
0.0112921
0.0089181
0.00688002
0.00510143
0.00352661
0.00205227
0.000659988
-0.0279102
-0.0823281
-0.132014
-0.172794
-0.199407
-0.205205
-0.182782
-0.125026
-0.026389
0.116072
0.30267
0.531968
0.801925
1.1106
1.45604
1.83541
2.2434
2.67021
3.09961
3.50769
3.8635
4.13272
4.28476
4.3014
4.18314
3.94916
3.63098
3.2638
2.8793
2.50191
2.14796
1.82673
1.54211
1.29441
1.08167
0.900784
0.748131
0.620043
0.513037
0.423944
0.349959
0.288646
0.237914
0.19599
0.161379
0.132826
0.109284
0.0898825
0.0738964
0.0607261
0.0498744
0.0409303
0.0335533
0.0274612
0.0224197
0.018234
0.0147426
0.0118119
0.00932931
0.00719712
0.00533547
0.00369047
0.00214518
0.0006866
-0.0334453
-0.0991138
-0.160479
-0.213289
-0.251707
-0.267842
-0.25245
-0.196406
-0.0926485
0.0621877
0.26778
0.521649
0.821047
1.16409
1.54971
1.97648
2.44053
2.93278
3.43593
3.92207
4.35252
4.68203
4.86847
4.886
4.73519
4.44299
4.05265
3.61049
3.15616
2.71833
2.31468
1.95399
1.63882
1.36781
1.13747
0.94335
0.780759
0.645195
0.532544
0.439167
0.361911
0.298084
0.245407
0.201968
0.166168
0.136677
0.112392
0.0923967
0.0759354
0.0623828
0.0512226
0.0420287
0.034449
0.0281918
0.0230154
0.0187184
0.0151345
0.0121263
0.00957823
0.00738866
0.00547582
0.0037891
0.00219894
0.000699936
-0.0392208
-0.116759
-0.190836
-0.257342
-0.309952
-0.339385
-0.334099
-0.282295
-0.174885
-0.00809599
0.216579
0.494964
0.823213
1.19952
1.62409
2.09762
2.61865
3.17989
3.76389
4.33897
4.85754
5.26029
5.4892
5.50737
5.31544
4.95158
4.4751
3.94658
3.41485
2.91268
2.45824
2.05889
1.71499
1.42298
1.17745
0.972407
0.801976
0.660782
0.544077
0.447769
0.36838
0.30299
0.249159
0.204861
0.168416
0.138437
0.113778
0.0934954
0.0768107
0.0630832
0.0517854
0.0424826
0.0348164
0.0284903
0.0232584
0.0189162
0.0152947
0.012255
0.00968043
0.00746646
0.00553113
0.00382812
0.00221662
0.000701075
-0.0450787
-0.134808
-0.222401
-0.304175
-0.37348
-0.419526
-0.427901
-0.38322
-0.273592
-0.094867
0.149468
0.4526
0.809052
1.21711
1.67869
2.19744
2.77543
3.40854
4.08058
4.75682
5.37971
5.87213
6.15412
6.17268
5.92853
5.47608
4.89672
4.2691
3.65227
3.08243
2.57694
2.14047
1.7703
1.46004
1.20201
0.9885
0.812388
0.667414
0.548216
0.450278
0.369837
0.303776
0.249527
0.204975
0.168382
0.138323
0.113626
0.0933306
0.0766486
0.0629322
0.0516497
0.0423637
0.0347146
0.028405
0.0231885
0.0188597
0.0152494
0.012219
0.0096522
0.00744294
0.00551059
0.0038136
0.00220173
0.000691356
-0.0508401
-0.152736
-0.254359
-0.352821
-0.441416
-0.507794
-0.534004
-0.499802
-0.389335
-0.198119
0.0671259
0.395617
0.779573
1.21739
1.71325
2.27461
2.90833
3.61519
4.38217
5.17295
5.91947
6.52235
6.87149
6.89022
6.5793
6.01695
5.3149
4.57423
3.86483
3.22488
2.66913
2.19801
1.80468
1.47934
1.21174
0.992335
0.812725
0.665793
0.545605
0.447272
0.366787
0.300879
0.246883
0.202625
0.166331
0.136556
0.11212
0.0920567
0.0755774
0.062036
0.0509031
0.0417444
0.034203
0.0279848
0.0228453
0.0185813
0.0150245
0.0120389
0.00950997
0.00733064
0.00542362
0.0037519
0.00215822
0.000672428
-0.0563124
-0.169968
-0.285789
-0.402135
-0.512662
-0.603543
-0.652547
-0.632839
-0.522836
-0.317778
-0.0294865
0.325456
0.736171
1.20127
1.7278
2.32796
3.01479
3.79585
4.66389
5.58345
6.4763
7.21596
7.65101
7.66968
7.27279
6.57375
5.72576
4.85722
4.04849
3.33734
2.73338
2.23107
1.81834
1.48148
1.20744
0.984758
0.803815
0.656687
0.536935
0.439355
0.359751
0.294744
0.241604
0.198127
0.162528
0.133359
0.109444
0.089826
0.0737232
0.0604987
0.0496316
0.0406952
0.0333398
0.0272771
0.0222679
0.0181124
0.0146457
0.0117352
0.00926977
0.00714185
0.00527964
0.00364961
0.00209048
0.000646259
-0.0612973
-0.1859
-0.315686
-0.450801
-0.585872
-0.705916
-0.783673
-0.783393
-0.675065
-0.453715
-0.139096
0.243955
0.680619
1.17
1.72269
2.35661
3.09225
3.94615
4.92001
5.98297
7.04845
7.95808
8.50418
8.52259
8.01415
7.14477
6.12403
5.11241
4.19892
3.41719
2.76856
2.23953
1.81181
1.46731
1.19005
0.96673
0.786559
0.640907
0.522915
0.427139
0.349253
0.285811
0.234059
0.191791
0.15723
0.128945
0.105776
0.0867847
0.0712066
0.0584198
0.047917
0.0392836
0.0321802
0.0263273
0.021493
0.017483
0.0141369
0.0113271
0.00894689
0.00688835
0.00508785
0.00351346
0.00200329
0.000615054
-0.0656006
-0.199928
-0.342994
-0.497351
-0.659438
-0.813791
-0.927519
-0.9529
-0.847349
-0.605751
-0.260082
0.153355
0.615047
1.12514
1.69862
2.35997
3.13839
4.06156
5.14391
6.36448
7.63251
8.75379
9.44491
9.46285
8.80851
7.72668
6.50278
5.33328
4.31166
3.4621
2.77395
2.22369
1.78591
1.43786
1.16068
0.939295
0.761901
0.619281
0.50426
0.411231
0.335801
0.274507
0.224604
0.183911
0.150681
0.123514
0.101281
0.0830701
0.0681406
0.0558923
0.0458359
0.0375724
0.0307757
0.0251775
0.020555
0.016721
0.0135208
0.0108327
0.00855567
0.00658125
0.00485714
0.00335021
0.00190153
0.00058106
-0.0690421
-0.211473
-0.366649
-0.540195
-0.731466
-0.925711
-1.08418
-1.14329
-1.0415
-0.773631
-0.39042
0.0562936
0.541891
1.06854
1.65662
2.33789
3.15124
4.13753
5.32816
6.7191
8.22281
9.60779
10.4901
10.5075
9.66064
8.31392
6.85325
5.51256
4.38229
3.47017
2.74931
2.18423
1.74175
1.39439
1.12053
0.903556
0.730809
0.592639
0.481669
0.392217
0.319884
0.261236
0.213573
0.174763
0.143109
0.117255
0.0961145
0.0788089
0.0646296
0.0530019
0.0434586
0.0356194
0.0291737
0.0238664
0.0194855
0.0158521
0.0128179
0.0102685
0.00810937
0.00623085
0.00459586
0.00316651
0.00178986
0.000546233
-0.0714654
-0.220015
-0.385621
-0.577659
-0.799767
-1.03979
-1.25365
-1.35717
-1.26
-0.956965
-0.527604
-0.0442005
0.463829
1.0023
1.59805
2.29069
3.12936
4.1698
5.4648
7.03595
8.81084
10.5239
11.6608
11.6773
10.5744
8.89807
7.16473
5.64243
4.40673
3.44009
2.69497
2.12227
1.68073
1.3383
1.0709
0.860642
0.694244
0.561789
0.455814
0.370653
0.30196
0.246374
0.201275
0.164601
0.134722
0.11034
0.0904159
0.0741165
0.0607682
0.0498263
0.0408489
0.0334767
0.0274168
0.0224288
0.0183128
0.0148993
0.0120468
0.00964934
0.00762007
0.00584659
0.00431165
0.0029687
0.00167225
0.000511851
-0.0727473
-0.225121
-0.398972
-0.608041
-0.861856
-1.15358
-1.43566
-1.59797
-1.50615
-1.15512
-0.668551
-0.144743
0.383689
0.928604
1.52453
2.21917
3.07197
4.15467
5.54556
7.30216
9.38439
11.5042
12.9829
12.9986
11.552
9.46705
7.42446
5.71483
4.38149
3.3713
2.61184
2.03932
1.60447
1.2711
1.01311
0.81168
0.653146
0.527503
0.42733
0.347056
0.282451
0.230269
0.187993
0.153656
0.125709
0.102921
0.0843118
0.0690962
0.0566409
0.0464348
0.0380635
0.0311909
0.0255432
0.020896
0.0170624
0.0138831
0.0112242
0.00898869
0.00709865
0.00543706
0.00401123
0.00276243
0.00155153
0.000478158
-0.0728055
-0.226476
-0.405904
-0.629687
-0.914978
-1.26397
-1.62952
-1.87024
-1.78438
-1.367
-0.809483
-0.241643
0.304337
0.849709
1.43793
2.12464
2.9791
4.08927
5.56235
7.50293
9.92671
12.5477
14.4892
14.5039
12.5925
10.0042
7.61783
5.72187
4.30394
3.26407
2.50145
1.93725
1.51477
1.19439
0.948512
0.757771
0.60841
0.490508
0.396804
0.321903
0.261744
0.213231
0.173981
0.142135
0.116237
0.0951357
0.0779142
0.0638395
0.0523227
0.0428885
0.0351526
0.028803
0.0235864
0.0192952
0.0157564
0.0128217
0.0103647
0.00829824
0.00655477
0.00500998
0.00370024
0.00255241
0.00142909
0.000444204
-0.0716032
-0.223896
-0.405817
-0.641074
-0.956163
-1.36699
-1.83379
-2.17999
-2.10056
-1.5908
-0.945804
-0.330993
0.228557
0.767797
1.34023
2.00889
2.85165
3.97187
5.50775
7.6219
10.4155
13.6484
16.2211
16.2346
13.6899
10.4874
7.72863
5.65635
4.17264
3.11963
2.36591
1.81822
1.41357
1.10978
0.878403
0.699967
0.560878
0.451476
0.364772
0.295622
0.240182
0.19554
0.159462
0.130219
0.106455
0.0871052
0.071321
0.0584264
0.0478787
0.0392409
0.0321596
0.0263486
0.0215755
0.0176502
0.0144144
0.0117309
0.00948121
0.00758825
0.00599684
0.0045722
0.00338309
0.0023421
0.00130495
0.000408015
-0.0691523
-0.217349
-0.398353
-0.640913
-0.982327
-1.45774
-2.04582
-2.53503
-2.4624
-1.82351
-1.07198
-0.408786
0.158906
0.684887
1.23351
1.87414
2.69142
3.80216
5.37561
7.64175
10.8223
14.7924
18.2312
18.2435
14.8303
10.8881
7.73972
5.51235
3.98756
2.94013
2.20781
1.68463
1.30285
1.01885
0.804046
0.639255
0.511322
0.411014
0.331716
0.268597
0.218072
0.177439
0.144635
0.118067
0.0964918
0.0789333
0.064617
0.0529258
0.0433653
0.0355379
0.0291223
0.0238584
0.0195357
0.0159817
0.0130529
0.0106241
0.00858465
0.00686756
0.00543203
0.00412977
0.00306304
0.00213353
0.00117824
0.000367161
-0.0655119
-0.206955
-0.383425
-0.628248
-0.990421
-1.53024
-2.26108
-2.94558
-2.88001
-2.06028
-1.18146
-0.471096
0.0975812
0.602749
1.11983
1.72296
2.5011
3.58139
5.16169
7.54516
11.1115
15.9535
20.5866
20.5978
15.9878
11.171
7.6339
5.28583
3.75025
2.72865
2.03019
1.53902
1.18462
0.923165
0.72662
0.57654
0.460444
0.369668
0.298061
0.241162
0.195679
0.15914
0.129668
0.105815
0.0864566
0.0707093
0.0578745
0.0473965
0.0388304
0.0318186
0.0260724
0.0213585
0.0174881
0.0143068
0.011686
0.00951289
0.00768449
0.00614374
0.00486628
0.00368795
0.00274227
0.00192734
0.00104804
0.000319686
-0.0607852
-0.192978
-0.361241
-0.60256
-0.977636
-1.57746
-2.47229
-3.4249
-3.36654
-2.29351
-1.26668
-0.514293
0.0462872
0.522832
1.00118
1.55817
2.28419
3.31248
4.86428
7.31605
11.2406
17.0881
23.3736
23.3836
17.1186
11.2937
7.39525
4.97529
3.4639
2.48907
1.83638
1.38396
1.06082
0.82416
0.647212
0.512642
0.408865
0.327915
0.264179
0.213609
0.173232
0.140826
0.114706
0.0935804
0.0764432
0.0625084
0.0511547
0.0418883
0.0343144
0.0281157
0.0230367
0.0188707
0.0154507
0.0126402
0.0103257
0.00840687
0.0067887
0.00542322
0.00430432
0.00325114
0.00242222
0.00172298
0.00091443
0.000265174
-0.0551119
-0.175808
-0.332296
-0.56385
-0.941661
-1.59139
-2.66816
-3.99014
-3.93907
-2.51165
-1.31914
-0.535316
0.00612605
0.446225
0.879409
1.38272
2.04481
2.99999
4.48474
6.94127
11.1608
18.1269
26.7023
26.711
18.1536
11.2073
7.01076
4.58229
3.13336
2.22591
1.62989
1.22202
0.933294
0.723175
0.566799
0.448285
0.35713
0.28617
0.230388
0.186184
0.150924
0.122648
0.099872
0.0814593
0.0665295
0.0543936
0.0445083
0.0364422
0.0298505
0.0244566
0.0200375
0.0164132
0.0134382
0.010994
0.00898179
0.00731399
0.00590388
0.00471147
0.00374977
0.0028229
0.00210401
0.00151922
0.000779331
0.000205597
-0.0486594
-0.155936
-0.297348
-0.512696
-0.880979
-1.56341
-2.83175
-4.66341
-4.61962
-2.69754
-1.3298
-0.531981
-0.0224767
0.373641
0.756189
1.19961
1.78758
2.64997
4.02786
6.41246
10.819
18.9646
30.7137
30.7213
18.9876
10.8588
6.47216
4.11178
2.76495
1.94415
1.41423
1.05565
0.803749
0.621413
0.486244
0.384099
0.305706
0.244784
0.196956
0.159094
0.128918
0.104734
0.0852648
0.0695319
0.0567794
0.0464163
0.0379769
0.0310919
0.0254662
0.0208634
0.0170928
0.0140005
0.0114626
0.00937792
0.00766223
0.00624071
0.00503544
0.00401308
0.00320528
0.00240586
0.00178894
0.00131474
0.000646788
0.000145542
-0.0416114
-0.133922
-0.257377
-0.450268
-0.795185
-1.48482
-2.93839
-5.47304
-5.43647
-2.82628
-1.28959
-0.503299
-0.0398008
0.305435
0.63298
1.01172
1.51734
2.2697
3.50197
5.72803
10.1615
19.4472
35.588
35.5943
19.4664
10.1949
5.77798
3.57225
2.36615
1.64901
1.19286
0.887135
0.673722
0.519934
0.406294
0.320621
0.254988
0.204052
0.164105
0.13251
0.107344
0.0871873
0.0709663
0.0578629
0.0472447
0.0386179
0.0315938
0.0258643
0.0211833
0.0173538
0.014217
0.0116446
0.00953357
0.0077999
0.00637347
0.00519219
0.00418768
0.00333189
0.00267269
0.00200168
0.00147883
0.00110874
0.000522242
9.14446e-05
-0.0341569
-0.110359
-0.213517
-0.378293
-0.68528
-1.3479
-2.95296
-6.45514
-6.42566
-2.86259
-1.19047
-0.449771
-0.0468038
0.241646
0.511023
0.821794
1.23897
1.86726
2.91874
4.89509
9.14058
19.3546
41.5537
41.5588
19.37
9.16745
4.9354
2.97551
1.94528
1.34567
0.96902
0.718523
0.544562
0.419649
0.32758
0.2583
0.2053
0.164213
0.132017
0.106569
0.0863101
0.0700898
0.0570413
0.0465035
0.0379661
0.0310311
0.0253854
0.0207806
0.017019
0.0139418
0.0114214
0.00935462
0.0076586
0.00626603
0.00512054
0.00417248
0.00336391
0.00267107
0.00215327
0.00161107
0.00117633
0.000901397
0.000410725
4.97545e-05
-0.0264783
-0.085841
-0.166991
-0.298966
-0.553896
-1.14728
-2.82664
-7.65538
-7.63284
-2.75751
-1.02682
-0.373614
-0.0450322
0.182058
0.391342
0.632311
0.957176
1.45115
2.29264
3.93083
7.72304
18.3799
48.8994
48.9033
18.3917
7.7436
3.96169
2.33613
1.51097
1.03913
0.74564
0.55163
0.417427
0.321323
0.250625
0.197502
0.156905
0.125459
0.100834
0.0813786
0.0658973
0.0535058
0.0435399
0.0354931
0.028975
0.0236809
0.0193715
0.015857
0.0129862
0.010638
0.0087146
0.00713748
0.00584336
0.00478097
0.00390725
0.00318463
0.00256659
0.00203314
0.00164795
0.00123381
0.000884804
0.000694009
0.000314287
2.43384e-05
-0.0187427
-0.0609296
-0.11903
-0.214807
-0.405381
-0.882001
-2.49292
-9.1311
-9.11529
-2.44442
-0.797479
-0.27884
-0.0364754
0.126281
0.274755
0.445445
0.676274
1.02974
1.64007
2.86313
5.90342
16.1051
57.9871
57.9898
16.1133
5.91784
2.88479
1.67061
1.07179
0.733933
0.525307
0.387994
0.293278
0.225581
0.175848
0.138516
0.110009
0.0879397
0.070665
0.0570219
0.0461686
0.0374833
0.0304993
0.0248611
0.0202944
0.0165857
0.013567
0.0111053
0.00909456
0.00744986
0.00610283
0.00499829
0.00409199
0.0033481
0.00273641
0.0022309
0.00179745
0.00142002
0.00115754
0.000868984
0.000608036
0.000488771
0.00022956
1.39799e-05
-0.0110953
-0.0361378
-0.070807
-0.12847
-0.245682
-0.558197
-1.86299
-10.9536
-10.9443
-1.83443
-0.508413
-0.17113
-0.0233705
0.0738271
0.161894
0.263034
0.400077
0.610879
0.978162
1.72978
3.72066
11.9712
69.2666
69.2682
11.976
3.72916
1.74254
0.996162
0.635673
0.434097
0.310202
0.228882
0.172888
0.132916
0.103576
0.0815654
0.0647657
0.0517648
0.0415912
0.0335581
0.0271687
0.0220564
0.0179459
0.0146278
0.0119405
0.00975814
0.00798193
0.00653351
0.00535047
0.00438282
0.00359031
0.00294048
0.00240728
0.0019697
0.00160994
0.00131286
0.00105758
0.000832998
0.000682915
0.000515206
0.000349495
0.000288275
0.000147011
1.138e-05
-0.00365708
-0.0119178
-0.023384
-0.0425404
-0.0819267
-0.192457
-0.820454
-13.2109
-13.2079
-0.811064
-0.17609
-0.0574159
-0.00797981
0.0241841
0.0532306
0.0865724
0.131791
0.201496
0.323474
0.575943
1.2795
5.24538
83.292
83.2925
5.24698
1.2823
0.580137
0.329393
0.209651
0.142984
0.102098
0.0752966
0.0568576
0.0437021
0.0340496
0.0268106
0.0212866
0.0170123
0.0136681
0.0110277
0.00892771
0.00724757
0.00589676
0.00480638
0.00392333
0.00320624
0.0026226
0.00214668
0.00175796
0.00144002
0.00117963
0.000966112
0.000790919
0.000647167
0.000528992
0.000431508
0.000347577
0.000272754
0.000225043
0.000171
0.000111468
9.50643e-05
5.39379e-05
5.5046e-06
)
;

boundaryField
{
    left
    {
        type            calculated;
        value           uniform 0;
    }
    right
    {
        type            calculated;
        value           uniform 0;
    }
    interface
    {
        type            calculated;
        value           nonuniform List<scalar> 
64
(
-0.00365708
-0.0119178
-0.023384
-0.0425404
-0.0819267
-0.192457
-0.820454
-13.2109
-13.2079
-0.811064
-0.17609
-0.0574159
-0.00797981
0.0241841
0.0532306
0.0865724
0.131791
0.201496
0.323474
0.575943
1.2795
5.24538
83.292
83.2925
5.24698
1.2823
0.580137
0.329393
0.209651
0.142984
0.102098
0.0752966
0.0568576
0.0437021
0.0340496
0.0268106
0.0212866
0.0170123
0.0136681
0.0110277
0.00892771
0.00724757
0.00589676
0.00480638
0.00392333
0.00320624
0.0026226
0.00214668
0.00175796
0.00144002
0.00117963
0.000966112
0.000790919
0.000647167
0.000528992
0.000431508
0.000347577
0.000272754
0.000225043
0.000171
0.000111468
9.50643e-05
5.39379e-05
5.5046e-06
)
;
    }
    bottom
    {
        type            calculated;
        value           nonuniform List<scalar> 
64
(
-0.000874824
-0.00247536
-0.00361153
-0.00397098
-0.00324111
-0.00110077
0.0027452
0.00855674
0.0165409
0.0268335
0.0394877
0.0544678
0.0716434
0.0907817
0.111534
0.133419
0.155809
0.17792
0.198834
0.217544
0.233033
0.244387
0.250915
0.252251
0.248415
0.239812
0.227168
0.211416
0.193577
0.174644
0.155489
0.136822
0.119164
0.102862
0.0881077
0.0749732
0.0634386
0.0534231
0.0448078
0.0374546
0.0312191
0.0259596
0.021543
0.0178478
0.0147655
0.0122009
0.0100712
0.00830553
0.00684355
0.00563411
0.00463414
0.00380754
0.00312404
0.00255839
0.00208947
0.00169967
0.00137426
0.0011009
0.000869231
0.000670466
0.000497028
0.000342255
0.000200276
6.59004e-05
)
;
    }
    defaultFaces
    {
        type            empty;
    }
}


// ************************************************************************* //
