/*--------------------------------*- C++ -*----------------------------------*\
| =========                 |                                                 |
| \\      /  F ield         | OpenFOAM: The Open Source CFD Toolbox           |
|  \\    /   O peration     | Version:  5.x                                   |
|   \\  /    A nd           | Web:      www.OpenFOAM.org                      |
|    \\/     M anipulation  |                                                 |
\*---------------------------------------------------------------------------*/
FoamFile
{
    version     2.0;
    format      ascii;
    class       volScalarField;
    location    "1.2";
    object      gradTy;
}
// * * * * * * * * * * * * * * * * * * * * * * * * * * * * * * * * * * * * * //

dimensions      [0 -1 0 1 0 0 0];

internalField   nonuniform List<scalar> 
2048
(
-17.1262
-17.1301
-17.1374
-17.1465
-17.1556
-17.1619
-17.162
-17.1518
-17.1268
-17.082
-17.0122
-16.9123
-16.7773
-16.6025
-16.3839
-16.1184
-15.804
-15.4404
-15.029
-14.5735
-14.0798
-13.556
-13.0123
-12.4598
-11.9103
-11.3749
-10.8634
-10.3839
-9.94189
-9.54084
-9.18202
-8.86494
-8.58779
-8.34784
-8.14179
-7.96608
-7.81714
-7.69153
-7.58605
-7.49778
-7.42415
-7.36289
-7.31201
-7.26984
-7.23494
-7.20609
-7.18227
-7.16262
-7.14642
-7.13308
-7.1221
-7.11308
-7.10567
-7.0996
-7.09463
-7.09059
-7.0873
-7.08466
-7.08255
-7.08091
-7.07966
-7.07876
-7.07818
-7.0779
-17.1222
-17.1267
-17.135
-17.1458
-17.1571
-17.1662
-17.1695
-17.163
-17.142
-17.1013
-17.0358
-16.9399
-16.8087
-16.6371
-16.421
-16.157
-15.843
-15.4781
-15.0638
-14.6034
-14.1031
-13.5712
-13.0184
-12.4564
-11.8979
-11.3545
-10.8366
-10.3524
-9.9077
-9.50561
-9.14715
-8.83153
-8.55659
-8.3193
-8.11611
-7.94329
-7.79713
-7.67411
-7.57097
-7.4848
-7.413
-7.35333
-7.30381
-7.26281
-7.22889
-7.20087
-7.17774
-7.15867
-7.14295
-7.13001
-7.11937
-7.11062
-7.10344
-7.09755
-7.09273
-7.08881
-7.08563
-7.08306
-7.08102
-7.07943
-7.07822
-7.07735
-7.07678
-7.07651
-17.1142
-17.1197
-17.1301
-17.144
-17.1595
-17.1738
-17.1834
-17.1839
-17.1706
-17.1379
-17.0804
-16.9924
-16.8683
-16.703
-16.4919
-16.2311
-15.9178
-15.5509
-15.131
-14.6615
-14.1484
-13.6008
-13.0301
-12.4498
-11.8736
-11.3147
-10.7845
-10.2916
-9.84177
-9.43789
-9.08039
-8.76777
-8.49722
-8.26514
-8.06751
-7.90025
-7.75941
-7.64131
-7.54263
-7.46042
-7.39209
-7.3354
-7.28846
-7.24963
-7.21755
-7.19108
-7.16925
-7.15126
-7.13645
-7.12425
-7.11423
-7.10599
-7.09923
-7.09369
-7.08916
-7.08547
-7.08247
-7.08006
-7.07814
-7.07664
-7.0755
-7.07468
-7.07415
-7.07389
-17.1022
-17.1091
-17.1223
-17.1405
-17.1619
-17.1837
-17.2022
-17.2129
-17.2106
-17.1895
-17.1436
-17.0668
-16.9532
-16.7971
-16.5934
-16.3375
-16.0258
-15.6562
-15.2288
-14.7463
-14.2148
-13.6441
-13.0473
-12.4397
-11.8375
-11.256
-10.708
-10.2027
-9.74606
-9.34016
-8.98456
-8.67673
-8.41288
-8.18855
-7.99905
-7.83982
-7.7066
-7.59552
-7.50315
-7.42651
-7.36303
-7.31053
-7.26715
-7.23136
-7.20184
-7.17752
-7.15748
-7.14099
-7.12742
-7.11626
-7.10708
-7.09955
-7.09337
-7.08831
-7.08417
-7.08079
-7.07806
-7.07585
-7.0741
-7.07273
-7.07169
-7.07094
-7.07045
-7.07022
-17.0857
-17.0943
-17.111
-17.1346
-17.1635
-17.1947
-17.2245
-17.2482
-17.2601
-17.2539
-17.2229
-17.1606
-17.0605
-16.9165
-16.7227
-16.4737
-16.1649
-15.7928
-15.3564
-14.8575
-14.3023
-13.7013
-13.0697
-12.4259
-11.7892
-11.178
-10.6069
-10.0863
-9.6216
-9.21408
-8.86187
-8.561
-8.30635
-8.09236
-7.91352
-7.76468
-7.64119
-7.53897
-7.45452
-7.38483
-7.32737
-7.28004
-7.24107
-7.209
-7.18262
-7.16092
-7.14307
-7.1284
-7.11634
-7.10644
-7.0983
-7.09162
-7.08615
-7.08166
-7.078
-7.07501
-7.07259
-7.07064
-7.06908
-7.06787
-7.06695
-7.06628
-7.06585
-7.06565
-17.0644
-17.0749
-17.0956
-17.1255
-17.163
-17.2054
-17.2489
-17.2883
-17.3174
-17.3291
-17.3163
-17.2715
-17.188
-17.0589
-16.8778
-16.638
-16.3338
-15.96
-15.5138
-14.9958
-14.4116
-13.773
-13.0976
-12.4078
-11.7277
-11.0795
-10.4805
-9.94198
-9.4688
-9.06076
-8.71407
-8.4228
-8.18015
-7.97923
-7.81355
-7.67731
-7.56548
-7.47378
-7.39863
-7.33705
-7.28658
-7.24521
-7.2113
-7.18349
-7.16068
-7.14197
-7.12662
-7.11401
-7.10367
-7.09519
-7.08822
-7.08251
-7.07783
-7.074
-7.07087
-7.06832
-7.06625
-7.06459
-7.06326
-7.06222
-7.06143
-7.06087
-7.06049
-7.06032
-17.038
-17.0505
-17.0755
-17.1122
-17.1594
-17.2146
-17.2738
-17.3316
-17.3808
-17.4136
-17.4219
-17.3976
-17.3334
-17.2221
-17.0564
-16.8287
-16.5315
-16.1575
-15.7016
-15.1623
-14.5443
-13.8602
-13.1311
-12.3847
-11.6514
-10.9586
-10.3271
-9.76877
-9.28758
-8.88104
-8.5427
-8.2642
-8.03666
-7.85164
-7.7016
-7.58008
-7.48167
-7.40192
-7.33723
-7.2847
-7.24198
-7.20719
-7.17883
-7.15568
-7.13677
-7.12131
-7.10866
-7.0983
-7.08981
-7.08286
-7.07716
-7.07249
-7.06867
-7.06554
-7.06299
-7.06091
-7.05922
-7.05786
-7.05678
-7.05593
-7.05529
-7.05482
-7.05452
-7.05438
-17.0061
-17.0208
-17.0502
-17.0941
-17.1517
-17.2209
-17.2979
-17.3766
-17.449
-17.5059
-17.5381
-17.537
-17.4948
-17.404
-17.2567
-17.0442
-16.757
-16.3854
-15.9209
-15.359
-14.7025
-13.9648
-13.1709
-12.3559
-11.5583
-10.8129
-10.1444
-9.56531
-9.07761
-8.67556
-8.34925
-8.08721
-7.87818
-7.71201
-7.58005
-7.47521
-7.39177
-7.32519
-7.27192
-7.22918
-7.19478
-7.16701
-7.14455
-7.12633
-7.11153
-7.09949
-7.08967
-7.08166
-7.07511
-7.06976
-7.06538
-7.0618
-7.05887
-7.05648
-7.05452
-7.05293
-7.05164
-7.0506
-7.04977
-7.04912
-7.04862
-7.04827
-7.04804
-7.04794
-16.9688
-16.9854
-17.0191
-17.0703
-17.1388
-17.2232
-17.3198
-17.422
-17.5205
-17.6046
-17.6635
-17.6881
-17.6702
-17.6024
-17.4765
-17.2828
-17.0096
-16.6439
-16.1731
-15.5882
-14.8891
-14.089
-13.2178
-12.32
-11.4457
-10.6391
-9.92964
-9.32987
-8.83842
-8.44501
-8.13523
-7.8939
-7.70703
-7.5627
-7.45117
-7.36481
-7.29768
-7.24528
-7.20416
-7.17174
-7.14605
-7.1256
-7.10924
-7.09611
-7.08554
-7.07699
-7.07007
-7.06445
-7.05988
-7.05616
-7.05313
-7.05065
-7.04863
-7.04697
-7.04563
-7.04453
-7.04364
-7.04292
-7.04235
-7.0419
-7.04156
-7.04132
-7.04115
-7.04109
-16.9259
-16.9444
-16.982
-17.0401
-17.1196
-17.2201
-17.3381
-17.4666
-17.5944
-17.7087
-17.797
-17.8493
-17.8577
-17.8153
-17.7138
-17.5427
-17.2881
-16.9331
-16.4597
-15.8531
-15.1077
-14.2359
-13.2729
-12.2758
-11.3103
-10.4333
-9.67957
-9.06049
-8.56956
-8.1902
-7.90233
-7.68644
-7.52558
-7.40604
-7.31715
-7.25085
-7.20116
-7.16369
-7.13525
-7.1135
-7.09675
-7.08375
-7.07358
-7.06559
-7.05927
-7.05424
-7.05022
-7.04699
-7.0444
-7.0423
-7.0406
-7.03922
-7.0381
-7.03718
-7.03644
-7.03583
-7.03534
-7.03494
-7.03463
-7.03438
-7.03419
-7.03406
-7.03397
-7.03395
-16.8778
-16.8976
-16.9386
-17.003
-17.0932
-17.2103
-17.3515
-17.5091
-17.6698
-17.8175
-17.9375
-18.0193
-18.0555
-18.0403
-17.9661
-17.8217
-17.5911
-17.253
-16.7827
-16.1571
-15.363
-14.4095
-13.3378
-12.2214
-11.1479
-10.1906
-9.39033
-8.75514
-8.27077
-7.91223
-7.65249
-7.46715
-7.33624
-7.24435
-7.18008
-7.13517
-7.10378
-7.08179
-7.06634
-7.05542
-7.04767
-7.04213
-7.03815
-7.03526
-7.03314
-7.03158
-7.03041
-7.02954
-7.02887
-7.02836
-7.02797
-7.02766
-7.02742
-7.02723
-7.02707
-7.02695
-7.02684
-7.02676
-7.02669
-7.02664
-7.0266
-7.02658
-7.02656
-7.02658
-16.8248
-16.8455
-16.8888
-16.9585
-17.0587
-17.1924
-17.3585
-17.5484
-17.7459
-17.9305
-18.0845
-18.1969
-18.2618
-18.2751
-18.2307
-18.1174
-17.9169
-17.6031
-17.1436
-16.5042
-15.6605
-14.6149
-13.4144
-12.1545
-10.953
-9.90524
-9.05765
-8.41183
-7.94209
-7.61255
-7.38794
-7.23856
-7.14147
-7.07988
-7.04194
-7.01949
-7.00699
-7.00077
-6.99841
-6.99832
-6.99951
-7.00133
-7.00341
-7.0055
-7.00748
-7.00929
-7.0109
-7.01229
-7.0135
-7.01452
-7.01539
-7.01612
-7.01672
-7.01722
-7.01764
-7.01797
-7.01824
-7.01846
-7.01863
-7.01877
-7.01888
-7.01896
-7.01901
-7.01906
-16.7674
-16.7883
-16.8328
-16.9062
-17.015
-17.1652
-17.3575
-17.5835
-17.8225
-18.0477
-18.2377
-18.3812
-18.4747
-18.5173
-18.5048
-18.4268
-18.2631
-17.9827
-17.5439
-16.8987
-16.0067
-14.8586
-13.5057
-12.0721
-10.719
-9.57032
-8.67693
-8.02879
-7.58408
-7.29311
-7.11124
-7.00333
-6.94377
-6.91483
-6.9046
-6.90532
-6.91204
-6.92165
-6.9323
-6.94288
-6.95282
-6.96181
-6.96975
-6.97665
-6.98257
-6.98761
-6.99186
-6.99544
-6.99842
-7.00091
-7.00297
-7.00468
-7.00609
-7.00726
-7.0082
-7.00898
-7.0096
-7.01011
-7.01051
-7.01082
-7.01107
-7.01125
-7.01138
-7.01146
-16.7064
-16.7267
-16.7708
-16.8459
-16.9613
-17.1269
-17.3469
-17.613
-17.8992
-18.1695
-18.397
-18.5712
-18.6925
-18.7642
-18.7853
-18.7467
-18.6269
-18.3902
-17.9846
-17.3453
-16.4097
-15.149
-13.6153
-11.9704
-10.4374
-9.17781
-8.24337
-7.60472
-7.1979
-6.9564
-6.82532
-6.76428
-6.74564
-6.75128
-6.76975
-6.79404
-6.82
-6.8453
-6.86869
-6.88966
-6.90804
-6.92391
-6.93746
-6.94895
-6.95861
-6.96671
-6.97347
-6.97909
-6.98376
-6.98762
-6.99082
-6.99345
-6.99562
-6.9974
-6.99885
-7.00004
-7.00099
-7.00177
-7.00238
-7.00287
-7.00325
-7.00352
-7.00371
-7.00382
-16.6425
-16.6613
-16.7033
-16.7776
-16.8969
-17.0761
-17.3247
-17.6359
-17.9765
-18.2968
-18.5629
-18.7663
-18.9134
-19.0131
-19.0688
-19.0733
-19.0049
-18.8234
-18.4661
-17.8486
-16.8785
-15.4965
-13.7484
-11.8441
-10.0975
-8.71841
-7.75219
-7.13901
-6.78553
-6.60549
-6.53338
-6.52433
-6.5495
-6.59118
-6.63891
-6.68682
-6.7318
-6.77241
-6.80814
-6.83907
-6.86551
-6.88791
-6.90678
-6.92258
-6.93576
-6.94673
-6.95583
-6.96337
-6.9696
-6.97474
-6.97899
-6.98248
-6.98535
-6.98771
-6.98963
-6.9912
-6.99247
-6.99349
-6.99431
-6.99495
-6.99545
-6.99581
-6.99606
-6.99619
-16.5767
-16.5932
-16.631
-16.7014
-16.8209
-17.0109
-17.2886
-17.6507
-18.055
-18.4311
-18.7362
-18.966
-19.1356
-19.2614
-19.3519
-19.4028
-19.3929
-19.2789
-18.9878
-18.4127
-17.4235
-15.9148
-13.9121
-11.6861
-9.68572
-8.18159
-7.19892
-6.63203
-6.34986
-6.24404
-6.23893
-6.28641
-6.35766
-6.43628
-6.51341
-6.58465
-6.64816
-6.70352
-6.75105
-6.79143
-6.82547
-6.85401
-6.87783
-6.89766
-6.91411
-6.92774
-6.93901
-6.94832
-6.956
-6.96233
-6.96754
-6.97182
-6.97534
-6.97823
-6.98058
-6.9825
-6.98406
-6.98531
-6.98631
-6.9871
-6.98771
-6.98814
-6.98845
-6.9886
-16.5101
-16.5231
-16.5546
-16.6176
-16.7329
-16.9296
-17.2357
-17.6555
-18.136
-18.5745
-18.9179
-19.1698
-19.3574
-19.5064
-19.6311
-19.7309
-19.7864
-19.7527
-19.5478
-19.0414
-18.0563
-16.4208
-14.1164
-11.4863
-9.18498
-7.55567
-6.57987
-6.0854
-5.89477
-5.87624
-5.94561
-6.05339
-6.17228
-6.28815
-6.39434
-6.48829
-6.56963
-6.63904
-6.6977
-6.74695
-6.78808
-6.82231
-6.85073
-6.87426
-6.89372
-6.9098
-6.92306
-6.93399
-6.94299
-6.9504
-6.9565
-6.96151
-6.96562
-6.96898
-6.97173
-6.97398
-6.97579
-6.97726
-6.97843
-6.97934
-6.98006
-6.98055
-6.98091
-6.98106
-16.4436
-16.4521
-16.4751
-16.527
-16.6326
-16.83
-17.1625
-17.6481
-18.2214
-18.7302
-19.1094
-19.3772
-19.577
-19.7453
-19.9028
-20.0533
-20.1802
-20.2395
-20.1428
-19.7368
-18.7894
-17.0359
-14.3754
-11.2304
-8.57377
-6.82815
-5.89262
-5.50233
-5.42519
-5.50679
-5.65716
-5.82802
-5.99528
-6.1481
-6.28259
-6.39835
-6.49659
-6.57921
-6.64826
-6.70573
-6.75341
-6.79287
-6.82549
-6.85242
-6.87462
-6.89292
-6.90799
-6.92039
-6.93059
-6.93898
-6.94588
-6.95154
-6.95619
-6.95999
-6.9631
-6.96563
-6.96768
-6.96934
-6.97066
-6.97169
-6.97251
-6.97305
-6.97345
-6.97361
-16.3783
-16.3815
-16.3938
-16.4304
-16.5198
-16.7102
-17.0649
-17.625
-18.3145
-18.9021
-19.3125
-19.5877
-19.7925
-19.9756
-20.1639
-20.3657
-20.569
-20.7331
-20.7677
-20.4993
-19.6355
-17.7871
-14.7098
-10.8979
-7.82524
-5.98623
-5.13672
-4.88782
-4.94706
-5.14068
-5.37727
-5.61282
-5.82831
-6.01719
-6.17883
-6.31522
-6.4293
-6.52418
-6.60281
-6.66782
-6.72147
-6.76569
-6.80213
-6.83212
-6.8568
-6.8771
-6.8938
-6.90752
-6.9188
-6.92807
-6.93569
-6.94193
-6.94706
-6.95126
-6.95468
-6.95748
-6.95974
-6.96157
-6.96303
-6.96416
-6.96506
-6.96565
-6.96608
-6.96624
-16.3151
-16.3122
-16.3118
-16.3292
-16.3952
-16.5684
-16.9376
-17.5816
-18.42
-19.0955
-19.5288
-19.8004
-20.0021
-20.1948
-20.4113
-20.6642
-20.9473
-21.2265
-21.4152
-21.3267
-20.6066
-18.7072
-15.1498
-10.4584
-6.90639
-5.0178
-4.31438
-4.24887
-4.46722
-4.78309
-5.10944
-5.41003
-5.67274
-5.89622
-6.08351
-6.23916
-6.36786
-6.47399
-6.56134
-6.63318
-6.69222
-6.74074
-6.78059
-6.81333
-6.84022
-6.86232
-6.88046
-6.89537
-6.90761
-6.91766
-6.92591
-6.93268
-6.93823
-6.94278
-6.94649
-6.94951
-6.95197
-6.95395
-6.95553
-6.95675
-6.95773
-6.95835
-6.9588
-6.95898
-16.2551
-16.2453
-16.2306
-16.2248
-16.2597
-16.403
-16.7744
-17.5107
-18.5452
-19.3167
-19.7599
-20.0143
-20.2038
-20.4007
-20.6422
-20.945
-21.3096
-21.7121
-22.0763
-22.2134
-21.713
-19.8362
-15.7404
-9.86726
-5.77735
-3.91278
-3.43127
-3.59453
-3.99321
-4.43919
-4.85688
-5.22153
-5.52963
-5.78574
-5.99688
-6.17023
-6.31228
-6.42858
-6.52379
-6.60175
-6.66561
-6.71794
-6.76083
-6.79601
-6.82486
-6.84854
-6.86797
-6.88391
-6.897
-6.90774
-6.91655
-6.92378
-6.9297
-6.93456
-6.93852
-6.94175
-6.94437
-6.94648
-6.94817
-6.94947
-6.95051
-6.95116
-6.95163
-6.95183
-16.1989
-16.1818
-16.1515
-16.1191
-16.115
-16.2133
-16.568
-17.4019
-18.7008
-19.5733
-20.0068
-20.2277
-20.3955
-20.5914
-20.8545
-21.2049
-21.6508
-22.1817
-22.74
-23.1493
-22.9607
-21.2209
-16.5484
-9.05738
-4.39142
-2.66503
-2.49728
-2.9358
-3.53297
-4.11388
-4.6224
-5.04882
-5.39971
-5.68607
-5.91903
-6.10842
-6.26245
-6.38785
-6.49004
-6.57343
-6.64154
-6.69722
-6.74279
-6.7801
-6.81067
-6.83573
-6.85628
-6.87313
-6.88696
-6.8983
-6.9076
-6.91523
-6.92148
-6.9266
-6.93078
-6.93419
-6.93695
-6.93919
-6.94097
-6.94233
-6.94343
-6.94411
-6.94458
-6.94483
-16.1471
-16.1227
-16.076
-16.0143
-15.9636
-15.9993
-16.3102
-17.2394
-18.9028
-19.8736
-20.2696
-20.4383
-20.5753
-20.7653
-21.0465
-21.4413
-21.9664
-22.6275
-23.3938
-24.1201
-24.3497
-22.9139
-17.6741
-7.92882
-2.6961
-1.27481
-1.527
-2.28533
-3.09451
-3.81162
-4.40828
-4.89298
-5.2834
-5.5973
-5.8499
-6.05359
-6.21823
-6.35163
-6.45995
-6.54808
-6.6199
-6.6785
-6.72639
-6.76555
-6.79761
-6.82386
-6.84538
-6.86302
-6.87748
-6.88934
-6.89907
-6.90704
-6.91357
-6.91892
-6.92329
-6.92685
-6.92974
-6.93207
-6.93394
-6.93535
-6.93649
-6.93722
-6.93769
-6.93799
-16.1003
-16.0686
-16.0054
-15.9126
-15.8086
-15.7628
-15.9923
-16.9999
-19.1753
-20.2269
-20.5471
-20.6435
-20.741
-20.9209
-21.2168
-21.6523
-22.2524
-23.0417
-24.0237
-25.1062
-25.8704
-24.9705
-19.2666
-6.33258
-0.636075
0.248289
-0.540042
-1.65694
-2.6855
-3.53623
-4.21623
-4.75464
-5.18085
-5.51932
-5.78927
-6.0055
-6.1794
-6.31975
-6.43336
-6.52557
-6.60057
-6.66169
-6.71156
-6.7523
-6.78563
-6.81291
-6.83525
-6.85356
-6.86856
-6.88087
-6.89095
-6.89922
-6.90599
-6.91153
-6.91607
-6.91976
-6.92275
-6.92517
-6.92711
-6.92857
-6.92974
-6.93051
-6.93098
-6.93133
-16.0588
-16.0202
-15.9408
-15.8165
-15.6541
-15.5073
-15.6064
-16.6484
-19.5534
-20.6417
-20.8362
-20.8395
-20.8907
-21.0574
-21.3649
-21.8367
-22.506
-23.4175
-24.6158
-26.0834
-27.5008
-27.4431
-21.5465
-4.04797
1.84081
1.88215
0.439189
-1.06487
-2.31286
-3.29069
-4.04737
-4.63407
-5.09192
-5.45187
-5.73684
-5.96386
-6.14568
-6.29196
-6.41007
-6.50575
-6.58344
-6.64667
-6.69822
-6.7403
-6.77469
-6.80283
-6.82587
-6.84474
-6.8602
-6.87288
-6.88326
-6.89178
-6.89875
-6.90446
-6.90913
-6.91293
-6.91601
-6.9185
-6.9205
-6.922
-6.92319
-6.92401
-6.92448
-6.92486
-16.0227
-15.9778
-15.8832
-15.7282
-15.5046
-15.2391
-15.1464
-16.1337
-20.0888
-21.1244
-21.1311
-21.0224
-21.0227
-21.1743
-21.4907
-21.9939
-22.725
-23.7494
-25.1563
-27.0233
-29.2033
-30.3705
-24.8379
-0.75116
4.77322
3.589
1.38231
-0.522966
-1.98234
-3.07707
-3.90218
-4.53109
-5.01622
-5.3945
-5.69221
-5.92832
-6.11678
-6.268
-6.38987
-6.48842
-6.56836
-6.63334
-6.68628
-6.72947
-6.76474
-6.79359
-6.8172
-6.83654
-6.85238
-6.86536
-6.876
-6.88471
-6.89185
-6.8977
-6.90247
-6.90637
-6.90953
-6.91208
-6.91412
-6.91566
-6.91685
-6.91774
-6.91821
-6.91859
-15.9921
-15.9416
-15.8334
-15.6497
-15.3652
-14.9671
-14.611
-15.3816
-20.8565
-21.6768
-21.4234
-21.1876
-21.1356
-21.2715
-21.5943
-22.1241
-22.9086
-24.0329
-25.6328
-27.8952
-30.9221
-33.7613
-29.6106
4.02756
8.16983
5.31307
2.25845
-0.0437106
-1.69825
-2.89646
-3.78054
-4.44521
-4.95317
-5.34666
-5.65487
-5.89844
-6.09234
-6.2476
-6.37251
-6.47341
-6.55516
-6.62157
-6.67563
-6.71971
-6.7557
-6.78513
-6.8092
-6.82891
-6.84505
-6.85828
-6.86912
-6.878
-6.88527
-6.89123
-6.8961
-6.90007
-6.90329
-6.90588
-6.90795
-6.90954
-6.91072
-6.91167
-6.91215
-6.91249
-15.9667
-15.9116
-15.7917
-15.5826
-15.2408
-14.7032
-14.0078
-14.2853
-21.9635
-22.2919
-21.7018
-21.3309
-21.2283
-21.3492
-21.6767
-22.2279
-23.0567
-24.2657
-26.0352
-28.6679
-32.5828
-37.5698
-36.5368
10.9604
11.9847
6.97979
3.03641
0.362689
-1.46322
-2.74897
-3.68181
-4.37563
-4.90201
-5.30769
-5.62426
-5.87376
-6.07196
-6.23041
-6.35774
-6.46048
-6.54366
-6.61119
-6.66613
-6.71091
-6.74747
-6.77734
-6.80178
-6.82178
-6.83816
-6.85158
-6.86258
-6.87159
-6.87897
-6.88501
-6.88995
-6.89398
-6.89725
-6.89987
-6.90197
-6.9036
-6.90476
-6.90576
-6.90627
-6.90651
-15.9464
-15.8877
-15.7583
-15.5282
-15.1361
-14.4621
-13.3584
-12.6946
-23.5604
-22.9485
-21.9521
-21.4481
-21.3003
-21.4082
-21.7388
-22.3066
-23.1701
-24.4469
-26.3562
-29.3128
-34.094
-41.6601
-46.5646
20.9955
16.0821
8.49771
3.68747
0.689076
-1.27814
-2.63381
-3.60489
-4.32129
-4.86184
-5.27684
-5.5998
-5.8538
-6.05526
-6.21613
-6.34527
-6.4494
-6.53366
-6.60203
-6.65764
-6.70295
-6.73993
-6.77014
-6.79485
-6.81508
-6.83164
-6.84521
-6.85632
-6.86543
-6.87289
-6.87899
-6.88398
-6.88805
-6.89136
-6.89401
-6.89612
-6.8978
-6.89894
-6.89996
-6.90051
-6.90064
-15.9308
-15.8696
-15.7331
-15.487
-15.0547
-14.26
-12.7064
-10.4007
-25.8565
-23.6034
-22.1585
-21.5361
-21.3519
-21.4495
-21.7821
-22.3618
-23.2505
-24.5773
-26.5926
-29.8067
-35.3534
-45.759
-61.0104
35.4491
20.1887
9.76462
4.18843
0.931841
-1.14227
-2.54951
-3.54839
-4.28106
-4.83176
-5.25342
-5.58091
-5.8381
-6.04188
-6.20445
-6.33489
-6.44
-6.52502
-6.59399
-6.65006
-6.69575
-6.73302
-6.76347
-6.78838
-6.80876
-6.82545
-6.83912
-6.85032
-6.85949
-6.867
-6.87315
-6.87818
-6.88229
-6.88562
-6.88829
-6.89039
-6.89212
-6.89325
-6.89425
-6.89487
-6.89492
-15.9196
-15.8569
-15.7158
-15.4591
-14.9993
-14.1133
-12.1272
-7.11821
-29.1378
-24.1819
-22.3054
-21.5932
-21.3838
-21.4744
-21.8082
-22.3955
-23.3004
-24.6595
-26.7446
-30.1353
-36.2602
-49.3927
-81.6725
56.1194
23.8304
10.6792
4.52465
1.09105
-1.05351
-2.4941
-3.51078
-4.25381
-4.81094
-5.2368
-5.56715
-5.82637
-6.0316
-6.19525
-6.32649
-6.43222
-6.51772
-6.58706
-6.64343
-6.68935
-6.72681
-6.75741
-6.78243
-6.80291
-6.81968
-6.83342
-6.84467
-6.85388
-6.86143
-6.86761
-6.87266
-6.87679
-6.88014
-6.88282
-6.88491
-6.88669
-6.88781
-6.88876
-6.88945
-6.88949
-15.9124
-15.849
-15.7057
-15.4439
-14.9702
-14.0348
-11.7406
-2.46373
-33.7881
-24.5645
-22.3803
-21.6193
-21.3973
-21.4845
-21.8188
-22.4097
-23.3223
-24.6971
-26.8162
-30.2952
-36.7334
-51.8075
-110.967
85.4226
26.2535
11.1606
4.69266
1.1705
-1.00838
-2.46505
-3.49025
-4.23822
-4.79842
-5.22628
-5.55799
-5.81816
-6.02408
-6.18824
-6.31987
-6.42589
-6.51162
-6.58113
-6.63764
-6.68367
-6.72122
-6.75189
-6.77698
-6.7975
-6.81431
-6.82807
-6.83935
-6.84858
-6.85615
-6.86234
-6.8674
-6.87154
-6.8749
-6.87758
-6.87966
-6.88149
-6.88261
-6.88347
-6.88426
-6.88433
)
;

boundaryField
{
    left
    {
        type            calculated;
        value           nonuniform List<scalar> 
32
(
-17.1262
-17.1222
-17.1142
-17.1022
-17.0857
-17.0644
-17.038
-17.0061
-16.9688
-16.9259
-16.8778
-16.8248
-16.7674
-16.7064
-16.6425
-16.5767
-16.5101
-16.4436
-16.3783
-16.3151
-16.2551
-16.1989
-16.1471
-16.1003
-16.0588
-16.0227
-15.9921
-15.9667
-15.9464
-15.9308
-15.9196
-15.9124
)
;
    }
    right
    {
        type            calculated;
        value           nonuniform List<scalar> 
32
(
-7.0779
-7.07651
-7.07389
-7.07022
-7.06565
-7.06032
-7.05438
-7.04794
-7.04109
-7.03395
-7.02658
-7.01906
-7.01146
-7.00382
-6.99619
-6.9886
-6.98106
-6.97361
-6.96624
-6.95898
-6.95183
-6.94483
-6.93799
-6.93133
-6.92486
-6.91859
-6.91249
-6.90651
-6.90064
-6.89492
-6.88949
-6.88433
)
;
    }
    interface
    {
        type            calculated;
        value           nonuniform List<scalar> 
64
(
-15.9098
-15.8462
-15.7024
-15.4393
-14.9623
-14.0138
-11.6137
0.261346
-36.5104
-24.6886
-22.3986
-21.6248
-21.3996
-21.486
-21.8204
-22.4121
-23.3267
-24.7052
-26.8325
-30.3334
-36.8534
-52.5955
-128.118
102.578
27.0458
11.2849
4.73495
1.19101
-0.996201
-2.45674
-3.48399
-4.23316
-4.79409
-5.22243
-5.55447
-5.81486
-6.02095
-6.18523
-6.31695
-6.42304
-6.50882
-6.57838
-6.63492
-6.68098
-6.71855
-6.74924
-6.77433
-6.79487
-6.81168
-6.82546
-6.83674
-6.84598
-6.85355
-6.85974
-6.86481
-6.86895
-6.87232
-6.87499
-6.87706
-6.87891
-6.88004
-6.88085
-6.88169
-6.88179
)
;
    }
    bottom
    {
        type            calculated;
        value           nonuniform List<scalar> 
64
(
-17.1272
-17.131
-17.1379
-17.1467
-17.1552
-17.1608
-17.16
-17.1489
-17.1228
-17.0769
-17.0061
-16.9051
-16.7691
-16.5935
-16.3743
-16.1084
-15.7939
-15.4306
-15.02
-14.5657
-14.0737
-13.5521
-13.0107
-12.4607
-11.9135
-11.3801
-10.8703
-10.392
-9.95073
-9.54997
-9.19107
-8.87363
-8.59592
-8.35529
-8.1485
-7.97204
-7.82238
-7.6961
-7.59
-7.50119
-7.42708
-7.3654
-7.31416
-7.27169
-7.23653
-7.20746
-7.18346
-7.16365
-7.14733
-7.13389
-7.12282
-7.11373
-7.10626
-7.10014
-7.09513
-7.09105
-7.08774
-7.08507
-7.08295
-7.08129
-7.08003
-7.07913
-7.07855
-7.07826
)
;
    }
    defaultFaces
    {
        type            empty;
    }
}


// ************************************************************************* //
