/*--------------------------------*- C++ -*----------------------------------*\
| =========                 |                                                 |
| \\      /  F ield         | OpenFOAM: The Open Source CFD Toolbox           |
|  \\    /   O peration     | Version:  5.x                                   |
|   \\  /    A nd           | Web:      www.OpenFOAM.org                      |
|    \\/     M anipulation  |                                                 |
\*---------------------------------------------------------------------------*/
FoamFile
{
    version     2.0;
    format      ascii;
    class       volScalarField;
    location    "1.2";
    object      T;
}
// * * * * * * * * * * * * * * * * * * * * * * * * * * * * * * * * * * * * * //

dimensions      [0 0 0 1 0 0 0];

internalField   nonuniform List<scalar> 
2048
(
9.87695
9.87693
9.87688
9.87681
9.87675
9.87671
9.87672
9.8768
9.87699
9.87731
9.87782
9.87855
9.87953
9.88079
9.88236
9.88427
9.88653
9.88914
9.89209
9.89536
9.89889
9.90264
9.90653
9.91048
9.91441
9.91824
9.9219
9.92534
9.92851
9.93139
9.93397
9.93625
9.93824
9.93997
9.94146
9.94273
9.9438
9.94471
9.94547
9.94611
9.94664
9.94709
9.94745
9.94776
9.94801
9.94822
9.94839
9.94853
9.94865
9.94875
9.94883
9.94889
9.94895
9.94899
9.94903
9.94906
9.94908
9.9491
9.94911
9.94913
9.94914
9.94914
9.94915
9.94915
9.63627
9.63619
9.63603
9.63583
9.63564
9.6355
9.63549
9.6357
9.63622
9.63717
9.63864
9.64076
9.64362
9.64732
9.65196
9.6576
9.66428
9.672
9.68074
9.69043
9.70092
9.71206
9.72363
9.73538
9.74706
9.75845
9.76932
9.77952
9.78891
9.79743
9.80505
9.81178
9.81766
9.82275
9.82713
9.83085
9.83401
9.83667
9.83891
9.84078
9.84234
9.84364
9.84472
9.84561
9.84635
9.84696
9.84747
9.84788
9.84823
9.84851
9.84874
9.84893
9.84909
9.84922
9.84932
9.84941
9.84948
9.84953
9.84958
9.84961
9.84964
9.84966
9.84967
9.84968
9.40619
9.40604
9.40577
9.40541
9.40503
9.40475
9.40466
9.40492
9.40569
9.40714
9.40945
9.41281
9.4174
9.42338
9.4309
9.44007
9.45096
9.4636
9.47794
9.49386
9.51115
9.52952
9.5486
9.568
9.58728
9.60605
9.62395
9.6407
9.65609
9.67003
9.68246
9.69342
9.70298
9.71123
9.7183
9.72432
9.72942
9.73371
9.73731
9.74032
9.74282
9.74491
9.74664
9.74807
9.74926
9.75024
9.75105
9.75171
9.75226
9.75271
9.75309
9.75339
9.75364
9.75385
9.75402
9.75416
9.75427
9.75436
9.75443
9.75448
9.75453
9.75456
9.75458
9.75459
9.18631
9.18608
9.18565
9.18509
9.18449
9.18397
9.18372
9.18391
9.18479
9.1866
9.18959
9.19402
9.20014
9.2082
9.21839
9.23088
9.2458
9.26317
9.28295
9.30497
9.32896
9.35449
9.38105
9.40805
9.43488
9.46095
9.48576
9.50891
9.53013
9.54927
9.56629
9.58124
9.59424
9.60543
9.615
9.62313
9.62999
9.63576
9.64059
9.64463
9.64798
9.65077
9.65309
9.655
9.65659
9.65789
9.65897
9.65986
9.6606
9.6612
9.66169
9.6621
9.66244
9.66271
9.66294
9.66312
9.66327
9.66339
9.66348
9.66356
9.66361
9.66365
9.66368
9.66369
8.97621
8.97589
8.97528
8.97446
8.97355
8.97272
8.97218
8.97217
8.973
8.97498
8.97845
8.98375
8.9912
9.0011
9.01375
9.02935
9.04808
9.07001
9.0951
9.12314
9.15379
9.18649
9.22058
9.25524
9.28966
9.32304
9.35471
9.38415
9.41103
9.43517
9.45654
9.47524
9.49143
9.50533
9.51717
9.5272
9.53564
9.54273
9.54865
9.55359
9.55769
9.5611
9.56392
9.56626
9.56818
9.56978
9.57109
9.57217
9.57306
9.5738
9.5744
9.5749
9.5753
9.57564
9.57591
9.57613
9.57631
9.57646
9.57657
9.57666
9.57673
9.57678
9.57681
9.57683
8.77552
8.77509
8.77426
8.77313
8.77184
8.77058
8.76961
8.76924
8.76984
8.77179
8.77553
8.78147
8.79
8.80152
8.81638
8.83486
8.8572
8.88352
8.91379
8.9478
8.98512
9.02509
9.06683
9.1093
9.15143
9.19219
9.23072
9.26638
9.29877
9.3277
9.35319
9.37538
9.3945
9.41084
9.42472
9.43642
9.44626
9.45449
9.46135
9.46707
9.47181
9.47574
9.47899
9.48168
9.48389
9.48572
9.48723
9.48848
9.4895
9.49034
9.49103
9.4916
9.49207
9.49245
9.49276
9.49302
9.49323
9.49339
9.49352
9.49363
9.49371
9.49376
9.4938
9.49382
8.58388
8.58332
8.58223
8.58073
8.57896
8.57716
8.57562
8.57471
8.57487
8.57659
8.58036
8.58669
8.59607
8.60895
8.62576
8.64687
8.6726
8.70313
8.73847
8.77842
8.82248
8.86986
8.91946
8.96997
9.02001
9.06828
9.11372
9.15554
9.19329
9.22681
9.25616
9.28156
9.30333
9.32185
9.3375
9.35067
9.36169
9.37088
9.37854
9.38489
9.39016
9.39452
9.39812
9.4011
9.40355
9.40557
9.40724
9.40861
9.40974
9.41067
9.41143
9.41206
9.41257
9.413
9.41334
9.41362
9.41385
9.41403
9.41418
9.41429
9.41438
9.41444
9.41448
9.4145
8.40093
8.40022
8.39885
8.39691
8.39458
8.39211
8.38984
8.38821
8.38773
8.38897
8.39254
8.39901
8.40896
8.42293
8.44143
8.46492
8.4938
8.52834
8.56863
8.6145
8.6654
8.7204
8.77815
8.83701
8.89525
8.95123
9.00363
9.05156
9.09453
9.1324
9.16533
9.19365
9.21778
9.23819
9.25537
9.26975
9.28175
9.29174
9.30003
9.3069
9.31258
9.31727
9.32115
9.32435
9.32698
9.32916
9.33094
9.33241
9.33362
9.33462
9.33544
9.33611
9.33666
9.33711
9.33748
9.33778
9.33802
9.33822
9.33838
9.3385
9.33859
9.33866
9.3387
9.33872
8.22634
8.22547
8.22377
8.22134
8.21837
8.21511
8.21196
8.2094
8.20805
8.20857
8.21168
8.21803
8.2283
8.24309
8.26301
8.28859
8.32036
8.3587
8.40381
8.45556
8.51342
8.5763
8.64257
8.7102
8.77699
8.84092
8.9004
8.95439
9.00239
9.04437
9.08058
9.11149
9.13766
9.15968
9.17811
9.19348
9.20626
9.21686
9.22564
9.23289
9.23889
9.24383
9.24791
9.25127
9.25403
9.25631
9.25818
9.25972
9.26099
9.26203
9.26289
9.26359
9.26417
9.26464
9.26503
9.26534
9.2656
9.2658
9.26597
9.26609
9.26619
9.26626
9.26631
9.26633
8.05978
8.05873
8.05668
8.05372
8.05002
8.04585
8.04165
8.03796
8.03551
8.03507
8.03745
8.04344
8.05375
8.06909
8.09013
8.11752
8.1519
8.19379
8.24354
8.30116
8.36611
8.43718
8.51242
8.58932
8.66511
8.73729
8.80395
8.86394
8.91678
8.96257
9.00173
9.0349
9.06279
9.08611
9.10554
9.12166
9.13502
9.14606
9.15518
9.1627
9.1689
9.17401
9.17822
9.18168
9.18453
9.18687
9.1888
9.19038
9.19169
9.19276
9.19364
9.19436
9.19495
9.19543
9.19583
9.19615
9.19642
9.19663
9.19679
9.19693
9.19703
9.1971
9.19714
9.19717
7.90093
7.8997
7.89728
7.89374
7.88924
7.88405
7.87863
7.87361
7.86981
7.86815
7.86956
7.87492
7.88502
7.90064
7.92251
7.95139
7.98806
8.03323
8.08743
8.15085
8.22302
8.30265
8.38741
8.47418
8.55951
8.64029
8.71425
8.78014
8.83758
8.88685
8.9286
8.96367
8.99294
9.01727
9.03741
9.05406
9.0678
9.07912
9.08845
9.09612
9.10244
9.10764
9.11191
9.11542
9.11831
9.12069
9.12264
9.12424
9.12556
9.12664
9.12753
9.12826
9.12886
9.12935
9.12975
9.13007
9.13034
9.13055
9.13072
9.13086
9.13096
9.13103
9.13108
9.1311
7.74948
7.74807
7.74527
7.74112
7.73576
7.72945
7.72265
7.71608
7.71068
7.70753
7.70771
7.7122
7.72186
7.73748
7.75989
7.78994
7.82856
7.87667
7.93508
8.00419
8.08373
8.17231
8.26723
8.36462
8.46013
8.54989
8.63126
8.70291
8.76466
8.81705
8.86099
8.89758
8.92788
8.9529
8.97351
8.99046
9.0044
9.01585
9.02525
9.03298
9.03933
9.04454
9.04882
9.05233
9.05522
9.0576
9.05955
9.06115
9.06246
9.06354
9.06443
9.06516
9.06575
9.06624
9.06664
9.06697
9.06723
9.06744
9.06761
9.06774
9.06784
9.06792
9.06796
9.06799
7.60513
7.60354
7.60036
7.5956
7.58933
7.5818
7.57347
7.56511
7.55785
7.55295
7.55166
7.55504
7.56402
7.57941
7.60206
7.63294
7.67314
7.72383
7.78612
7.86077
7.94777
8.04576
8.1516
8.26049
8.36692
8.46609
8.55495
8.63218
8.69789
8.75296
8.79867
8.83637
8.86736
8.89277
8.91358
8.93063
8.9446
8.95603
8.9654
8.97308
8.97938
8.98454
8.98878
8.99226
8.99511
8.99746
8.99938
9.00096
9.00226
9.00332
9.0042
9.00491
9.0055
9.00598
9.00637
9.0067
9.00696
9.00716
9.00733
9.00746
9.00756
9.00763
9.00768
9.0077
7.46759
7.46583
7.46227
7.45689
7.44971
7.44087
7.43085
7.42048
7.41107
7.40414
7.40114
7.40322
7.41131
7.42623
7.44885
7.48022
7.5216
7.57443
7.64022
7.72018
7.8147
7.92256
8.0402
8.16166
8.27988
8.38893
8.48531
8.56786
8.6371
8.69438
8.74139
8.7798
8.81111
8.83662
8.8574
8.87435
8.88818
8.89947
8.9087
8.91625
8.92243
8.92749
8.93164
8.93504
8.93783
8.94012
8.942
8.94354
8.94481
8.94585
8.9467
8.9474
8.94797
8.94844
8.94882
8.94913
8.94939
8.94959
8.94975
8.94988
8.94998
8.95005
8.95009
8.95011
7.33655
7.33463
7.33074
7.32477
7.31665
7.30646
7.29459
7.28197
7.27011
7.26087
7.25593
7.25652
7.26355
7.27779
7.30012
7.33163
7.37376
7.42826
7.49708
7.58201
7.68405
7.80228
7.93274
8.06803
8.19907
8.31847
8.42234
8.50985
8.5821
8.64107
8.68889
8.72758
8.75888
8.7842
8.80473
8.82139
8.83494
8.84597
8.85497
8.86231
8.86832
8.87323
8.87725
8.88054
8.88324
8.88545
8.88727
8.88876
8.88998
8.89099
8.89181
8.89248
8.89304
8.89349
8.89386
8.89416
8.8944
8.8946
8.89476
8.89488
8.89497
8.89504
8.89508
8.8951
7.21173
7.20968
7.20548
7.19896
7.18994
7.17835
7.16451
7.14937
7.13473
7.12289
7.1158
7.11476
7.12059
7.13398
7.15575
7.18706
7.2295
7.28514
7.35642
7.44588
7.55531
7.6844
7.82887
7.97955
8.12458
8.25482
8.36604
8.45803
8.53271
8.59277
8.6409
8.67946
8.71039
8.73526
8.75532
8.77154
8.78468
8.79535
8.80403
8.8111
8.81688
8.8216
8.82546
8.82862
8.8312
8.83333
8.83506
8.83649
8.83766
8.83862
8.83941
8.84005
8.84058
8.84101
8.84137
8.84166
8.84189
8.84208
8.84223
8.84235
8.84243
8.8425
8.84254
8.84256
7.09284
7.09069
7.08624
7.07923
7.06936
7.05637
7.04043
7.02249
7.0047
6.98994
6.98052
6.97774
6.98228
6.99468
7.01567
7.04645
7.08873
7.14492
7.21803
7.31143
7.428
7.56839
7.72825
7.89621
8.0566
8.1981
8.31641
8.41227
8.48868
8.54921
8.59712
8.63513
8.66538
8.68956
8.70896
8.72458
8.73719
8.74741
8.75571
8.76247
8.76797
8.77246
8.77613
8.77914
8.78159
8.78361
8.78526
8.78661
8.78772
8.78863
8.78938
8.78999
8.79049
8.7909
8.79124
8.79151
8.79173
8.79191
8.79205
8.79216
8.79225
8.79231
8.79235
8.79236
6.97962
6.97739
6.97275
6.96534
6.95469
6.94034
6.9222
6.90117
6.87979
6.86179
6.84988
6.84531
6.8485
6.8598
6.87982
6.90974
6.95141
7.00753
7.08171
7.17831
7.30159
7.45365
7.63046
7.81804
7.99538
8.1485
8.27344
8.37239
8.44977
8.5101
8.55727
8.59432
8.62359
8.64684
8.66541
8.68031
8.69231
8.70201
8.70986
8.71625
8.72145
8.72569
8.72915
8.73198
8.73429
8.73619
8.73774
8.73901
8.74005
8.74091
8.74161
8.74219
8.74266
8.74304
8.74336
8.74362
8.74382
8.74399
8.74413
8.74423
8.74431
8.74436
8.7444
8.74442
6.87178
6.86951
6.86475
6.85704
6.84575
6.83011
6.8097
6.78524
6.75976
6.73818
6.72366
6.71729
6.71914
6.72928
6.74816
6.77692
6.81751
6.87292
6.94734
7.04622
7.17553
7.33948
7.53504
7.74519
7.94125
8.10619
8.23709
8.33821
8.41568
8.47513
8.52103
8.55675
8.58476
8.60689
8.62448
8.63855
8.64985
8.65896
8.66633
8.67231
8.67718
8.68114
8.68437
8.68702
8.68918
8.69094
8.69239
8.69358
8.69455
8.69535
8.696
8.69654
8.69698
8.69734
8.69763
8.69787
8.69806
8.69822
8.69834
8.69844
8.69851
8.69857
8.6986
8.69862
6.76907
6.76679
6.76199
6.75411
6.74231
6.72551
6.70281
6.67459
6.64437
6.61883
6.60165
6.59353
6.5941
6.60304
6.62065
6.64798
6.68705
6.74108
6.81484
6.9149
7.0493
7.22511
7.44142
7.6779
7.89466
8.07141
8.20729
8.30947
8.3861
8.44397
8.48811
8.52214
8.54864
8.56947
8.58597
8.59912
8.60965
8.61813
8.62498
8.63053
8.63504
8.63871
8.6417
8.64414
8.64614
8.64778
8.64912
8.65021
8.65111
8.65185
8.65245
8.65295
8.65335
8.65368
8.65395
8.65418
8.65435
8.6545
8.65461
8.6547
8.65477
8.65482
8.65485
8.65486
6.67121
6.66898
6.66422
6.65629
6.64418
6.62641
6.60147
6.56911
6.53334
6.50347
6.48363
6.47391
6.47328
6.48105
6.49728
6.52293
6.56006
6.61205
6.68418
6.78417
6.92236
7.10965
7.34887
7.61656
7.85621
8.04437
8.18394
8.28589
8.3607
8.41628
8.45819
8.49022
8.51501
8.53439
8.54969
8.56184
8.57156
8.57937
8.58567
8.59077
8.59491
8.59827
8.60102
8.60326
8.60509
8.60658
8.60781
8.60881
8.60964
8.61031
8.61086
8.61131
8.61168
8.61199
8.61224
8.61244
8.6126
8.61273
8.61284
8.61292
8.61298
8.61303
8.61306
8.61307
6.57798
6.57581
6.57118
6.56337
6.55115
6.53267
6.5056
6.46874
6.42638
6.39179
6.3694
6.35829
6.35662
6.36325
6.37802
6.4018
6.43659
6.48591
6.55541
6.65389
6.79421
6.99209
7.25647
7.56182
7.82659
8.02526
8.16684
8.26713
8.3391
8.39174
8.43098
8.46073
8.48362
8.50145
8.51546
8.52657
8.53544
8.54255
8.54828
8.55292
8.55668
8.55973
8.56222
8.56425
8.56591
8.56727
8.56838
8.56929
8.57003
8.57064
8.57114
8.57155
8.57189
8.57216
8.57239
8.57257
8.57272
8.57284
8.57294
8.57301
8.57306
8.57311
8.57313
8.57314
6.48911
6.48707
6.48265
6.47508
6.46301
6.44413
6.41519
6.37347
6.32314
6.28347
6.25876
6.24655
6.24404
6.2496
6.26287
6.2846
6.31672
6.36276
6.42863
6.52406
6.66442
6.87129
7.16297
7.51463
7.80665
8.01424
8.15574
8.2528
8.32093
8.37
8.4062
8.43344
8.45429
8.47046
8.48314
8.49317
8.50116
8.50756
8.51271
8.51687
8.52025
8.52299
8.52522
8.52704
8.52853
8.52974
8.53074
8.53155
8.53222
8.53276
8.53321
8.53358
8.53388
8.53412
8.53433
8.53449
8.53462
8.53473
8.53481
8.53488
8.53493
8.53497
8.53499
8.535
6.4044
6.4025
6.39836
6.39121
6.37953
6.36066
6.33024
6.2834
6.22321
6.17819
6.15154
6.13861
6.13547
6.14006
6.15181
6.17134
6.2005
6.24272
6.30401
6.39473
6.53264
6.746
7.06664
7.47643
7.79738
8.01138
8.15031
8.24248
8.30578
8.35073
8.38357
8.40812
8.42682
8.44127
8.45257
8.46149
8.46859
8.47427
8.47884
8.48253
8.48551
8.48794
8.48991
8.49152
8.49284
8.49391
8.49479
8.49551
8.4961
8.49658
8.49698
8.4973
8.49757
8.49779
8.49797
8.49811
8.49823
8.49832
8.4984
8.49846
8.4985
8.49853
8.49855
8.49856
6.32361
6.32188
6.31811
6.3115
6.30049
6.28207
6.25076
6.19869
6.12607
6.0756
6.04758
6.03437
6.03085
6.03456
6.04479
6.06205
6.088
6.12595
6.18175
6.26609
6.39867
6.61487
6.96513
7.44932
7.79985
8.01661
8.15008
8.2357
8.29328
8.33362
8.36284
8.38455
8.40102
8.41372
8.42362
8.43143
8.43763
8.44259
8.44657
8.44979
8.45239
8.45451
8.45623
8.45763
8.45877
8.45971
8.46047
8.4611
8.46161
8.46203
8.46237
8.46266
8.46289
8.46308
8.46323
8.46336
8.46346
8.46354
8.46361
8.46366
8.46369
8.46372
8.46374
8.46375
6.24653
6.24501
6.24166
6.23572
6.22564
6.20819
6.17678
6.1197
6.03105
5.97534
5.94675
5.93378
5.93013
5.93308
5.94181
5.95671
5.97929
6.01257
6.06211
6.13844
6.26249
6.47653
6.85514
7.43634
7.81518
8.0297
8.15452
8.23195
8.28301
8.31836
8.34377
8.36255
8.37675
8.38767
8.39617
8.40287
8.40818
8.41242
8.41583
8.41857
8.4208
8.4226
8.42407
8.42527
8.42624
8.42704
8.42769
8.42823
8.42867
8.42902
8.42932
8.42956
8.42976
8.42992
8.43005
8.43016
8.43024
8.43031
8.43037
8.43041
8.43044
8.43047
8.43049
8.43049
6.17299
6.17169
6.1688
6.16364
6.15473
6.1388
6.10833
6.04697
5.9373
5.87708
5.84898
5.83678
5.83325
5.83554
5.84279
5.85532
5.87441
5.90273
5.94534
6.01217
6.12434
6.32972
6.73207
7.44184
7.84439
8.05017
8.16298
8.23073
8.27461
8.30467
8.32614
8.34195
8.35386
8.363
8.37011
8.3757
8.38013
8.38367
8.38651
8.3888
8.39065
8.39215
8.39337
8.39437
8.39518
8.39585
8.39639
8.39683
8.3972
8.3975
8.39774
8.39794
8.3981
8.39824
8.39835
8.39844
8.39851
8.39857
8.39861
8.39865
8.39868
8.3987
8.39871
8.39871
6.10278
6.10171
6.09933
6.09504
6.08751
6.07363
6.04539
5.98135
5.84367
5.78054
5.75421
5.74334
5.74015
5.74188
5.74771
5.75785
5.77339
5.79657
5.83174
5.88778
5.98471
6.17342
6.58954
7.47197
7.88825
8.07729
8.17473
8.23152
8.26772
8.29231
8.30977
8.32259
8.33223
8.33961
8.34534
8.34984
8.35341
8.35626
8.35854
8.36038
8.36187
8.36308
8.36406
8.36486
8.36552
8.36605
8.36649
8.36684
8.36714
8.36738
8.36757
8.36773
8.36786
8.36797
8.36806
8.36813
8.36819
8.36824
8.36827
8.3683
8.36832
8.36834
8.36835
8.36835
6.03574
6.03491
6.03306
6.02969
6.02371
6.01238
5.98786
5.92405
5.74863
5.68553
5.66246
5.65344
5.65078
5.65203
5.65647
5.66426
5.67623
5.69417
5.72158
5.76582
5.84442
6.00716
6.41879
7.53527
7.94702
8.11001
8.18901
8.23381
8.26201
8.28103
8.29448
8.30433
8.31172
8.31738
8.32176
8.32521
8.32794
8.33011
8.33186
8.33326
8.3344
8.33532
8.33607
8.33668
8.33718
8.33759
8.33792
8.33819
8.33842
8.3386
8.33875
8.33887
8.33897
8.33905
8.33912
8.33918
8.33922
8.33926
8.33929
8.33931
8.33932
8.33934
8.33935
8.33935
5.9717
5.97112
5.9698
5.9674
5.96309
5.95473
5.93552
5.87683
5.65018
5.59197
5.57379
5.56705
5.56507
5.56591
5.56902
5.5745
5.58294
5.59563
5.61512
5.64688
5.70459
5.83137
6.20788
7.64346
8.02006
8.147
8.20499
8.23715
8.2572
8.27065
8.28013
8.28706
8.29226
8.29623
8.29931
8.30172
8.30364
8.30516
8.30638
8.30737
8.30817
8.30881
8.30934
8.30977
8.31011
8.3104
8.31063
8.31082
8.31098
8.31111
8.31121
8.3113
8.31137
8.31143
8.31147
8.31151
8.31154
8.31157
8.31159
8.3116
8.31161
8.31162
8.31163
8.31163
5.91052
5.91017
5.90939
5.90796
5.90537
5.90028
5.88793
5.84206
5.54563
5.50005
5.4883
5.48416
5.48295
5.48343
5.48526
5.48849
5.49348
5.50099
5.51257
5.53156
5.56663
5.64783
5.94073
7.81241
8.10536
8.18667
8.22189
8.24112
8.25302
8.26098
8.26659
8.27068
8.27374
8.27608
8.2779
8.27932
8.28044
8.28134
8.28206
8.28264
8.28311
8.28349
8.2838
8.28405
8.28426
8.28442
8.28456
8.28467
8.28477
8.28484
8.2849
8.28495
8.28499
8.28503
8.28506
8.28508
8.2851
8.28511
8.28512
8.28513
8.28514
8.28514
8.28515
8.28515
5.85204
5.85193
5.85167
5.8512
5.85034
5.84864
5.84432
5.823
5.43148
5.41025
5.40614
5.40475
5.40434
5.4045
5.4051
5.40616
5.4078
5.41028
5.4141
5.42039
5.4321
5.46037
5.59602
8.06325
8.19891
8.22722
8.23898
8.24535
8.24927
8.2519
8.25374
8.25509
8.2561
8.25686
8.25746
8.25793
8.2583
8.25859
8.25883
8.25902
8.25917
8.2593
8.2594
8.25948
8.25955
8.25961
8.25965
8.25969
8.25972
8.25974
8.25976
8.25978
8.25979
8.25981
8.25981
8.25982
8.25983
8.25983
8.25984
8.25984
8.25984
8.25984
8.25984
8.25984
)
;

boundaryField
{
    left
    {
        type            zeroGradient;
    }
    right
    {
        type            zeroGradient;
    }
    interface
    {
        type            fixedValue;
        value           nonuniform List<scalar> 
64
(
5.82347
5.82347
5.82347
5.82347
5.82347
5.82347
5.82347
5.82347
5.36591
5.36591
5.36591
5.36591
5.36591
5.36591
5.36591
5.36591
5.36591
5.36591
5.36591
5.36591
5.36591
5.36591
5.36591
8.24748
8.24748
8.24748
8.24748
8.24748
8.24748
8.24748
8.24748
8.24748
8.24748
8.24748
8.24748
8.24748
8.24748
8.24748
8.24748
8.24748
8.24748
8.24748
8.24748
8.24748
8.24748
8.24748
8.24748
8.24748
8.24748
8.24748
8.24748
8.24748
8.24748
8.24748
8.24748
8.24748
8.24748
8.24748
8.24748
8.24748
8.24748
8.24748
8.24748
8.24748
)
;
    }
    bottom
    {
        type            fixedValue;
        value           uniform 10;
    }
    defaultFaces
    {
        type            empty;
    }
}


// ************************************************************************* //
