/*--------------------------------*- C++ -*----------------------------------*\
| =========                 |                                                 |
| \\      /  F ield         | OpenFOAM: The Open Source CFD Toolbox           |
|  \\    /   O peration     | Version:  5.x                                   |
|   \\  /    A nd           | Web:      www.OpenFOAM.org                      |
|    \\/     M anipulation  |                                                 |
\*---------------------------------------------------------------------------*/
FoamFile
{
    version     2.0;
    format      ascii;
    class       volScalarField;
    location    "10.3";
    object      gradTy;
}
// * * * * * * * * * * * * * * * * * * * * * * * * * * * * * * * * * * * * * //

dimensions      [0 -1 0 1 0 0 0];

internalField   nonuniform List<scalar> 
6300
(
1077.47
1232.19
1386.22
1539.11
1690.4
1839.63
1986.34
2130.08
2270.39
2406.84
2539
2666.5
2788.97
2906.11
3017.69
0.336835
1.01091
1.68608
2.3626
3.0399
3.71627
4.38838
5.05084
5.69572
6.31227
6.88678
7.40296
7.84284
8.18824
8.42288
0.560913
1.6836
2.8086
3.9367
5.06742
6.19838
7.32456
8.43743
9.52418
10.5669
11.5425
12.4227
13.176
13.7697
14.1744
0.784113
2.35386
3.92788
5.50802
7.09451
8.68504
10.2737
11.8498
13.3962
14.8883
16.293
17.5689
18.6679
19.5397
20.1369
1.00576
3.01976
5.04087
7.07276
9.11722
11.1731
13.2351
15.2913
17.322
19.2965
21.1716
22.8909
24.3863
25.583
26.4091
1.22488
3.6784
6.14289
8.62463
11.1281
13.6548
16.2015
18.7578
21.3032
23.8031
26.205
28.4358
30.4021
31.9956
33.1075
1.44019
4.3259
7.22738
10.1544
13.1153
16.1158
19.1575
22.2343
25.3289
28.4065
31.4081
34.2439
36.7888
38.888
40.3749
1.65013
4.95748
8.28605
11.6498
15.0622
18.5351
22.0775
25.6921
29.3704
33.0844
36.7756
40.3409
43.6194
46.3907
48.3956
1.8529
5.5676
9.30918
13.0962
16.9479
20.8841
24.9243
29.085
33.3745
37.7833
42.2672
46.7224
50.9552
54.6573
57.419
2.0467
6.15059
10.2865
14.4772
18.7483
23.1282
27.6494
32.3476
37.2578
42.4053
47.7852
53.3241
58.819
63.8621
67.7999
2.2299
6.70134
11.2084
15.7775
20.4389
25.2298
30.1963
35.3965
40.9018
46.7927
53.1418
59.9672
67.1321
74.1692
80.0663
2.40139
7.21619
12.068
16.9845
21.9993
27.1547
32.5079
38.1386
44.1581
50.7197
58.0198
66.2681
75.5701
85.6127
95.0209
2.56075
7.69376
12.8622
18.0927
23.4179
28.8803
34.5406
40.4899
46.8701
53.9057
61.9469
71.5122
83.2642
97.6864
113.781
2.70849
8.13562
13.5937
19.1056
24.6981
30.4067
36.2827
42.4083
48.9246
56.0837
64.3473
74.5661
88.2837
108.083
136.899
2.84599
8.54618
14.271
20.0369
25.8613
31.7642
37.7732
43.9339
50.334
57.1549
64.7894
74.1175
87.217
109.456
156.769
3114.72
3198.91
3279.06
3355.22
3427.46
3495.9
3560.69
3622.01
3680.07
3735.08
3787.3
3836.95
3884.3
3929.61
3973.13
4015.11
4055.81
4095.47
4134.33
4172.61
4210.54
4248.31
4286.13
4324.16
4362.56
4401.48
4441.02
4481.28
4522.32
4564.19
4606.9
4650.44
4694.78
4739.89
4785.69
4832.13
4879.1
4926.51
4974.27
5022.24
5070.31
5118.32
5166.14
5213.6
5260.56
5306.85
5352.34
5396.89
5440.38
5482.67
5523.67
5563.27
5601.36
5637.83
5672.56
5705.44
5736.34
5765.11
5791.63
5815.76
5837.34
5856.24
5872.29
5885.36
5895.26
5901.83
5904.86
5904.13
5899.42
5890.45
5876.95
5858.61
5835.11
5806.1
5771.24
5730.16
5682.48
5627.81
5565.77
5495.97
5418.01
5331.53
5236.17
5131.6
5017.54
4893.75
4760.06
4616.37
4462.67
4299.05
8.52516
8.52861
8.44206
8.26844
8.01366
7.68604
7.2955
6.85275
6.36861
5.85336
5.31643
4.76612
4.20956
3.65277
3.10077
2.55782
2.02761
1.5135
1.01875
0.546726
0.101026
-0.314409
-0.6953
-1.03713
-1.33535
-1.58574
-1.78481
-1.93031
-2.02166
-2.06022
-2.04933
-1.99391
-1.89977
-1.77265
-1.61731
-1.43688
-1.23269
-1.00474
-0.75258
-0.47641
-0.178168
0.137848
0.464965
0.794837
1.11871
1.42895
1.72037
1.99115
2.24295
2.48042
2.71022
2.93965
3.17538
3.42233
3.68304
3.95764
4.24432
4.5403
4.84305
5.15134
5.46598
5.79012
6.12904
6.48951
6.87902
7.30476
7.77275
8.28717
8.84992
9.46057
10.1167
10.8144
11.5491
12.3157
13.1093
13.925
14.7572
15.5994
16.443
17.277
18.087
18.8553
19.5609
20.18
20.6876
21.0586
21.2702
21.304
21.1478
20.797
14.3512
14.3575
14.2086
13.9097
13.4718
12.9099
12.2419
11.4868
10.6635
9.7897
8.88156
7.95299
7.01579
6.07976
5.15298
4.24217
3.35311
2.49104
1.66109
0.868621
0.119498
-0.579719
-1.22174
-1.79869
-2.30245
-2.7253
-3.06065
-3.30406
-3.45412
-3.5131
-3.48713
-3.38555
-3.21952
-3.0001
-2.73623
-2.43333
-2.09298
-1.71375
-1.29309
-0.829687
-0.325757
0.211548
0.769998
1.33367
1.88558
2.41083
2.89946
3.34811
3.76036
4.14559
4.51697
4.88876
5.2738
5.68129
6.1156
6.57609
7.05821
7.55549
8.06199
8.57445
9.09381
9.62564
10.1797
10.7686
11.4063
12.1062
12.8796
13.7339
14.6724
15.694
16.7937
17.964
19.1963
20.4819
21.8127
23.1809
24.5785
25.9958
27.4196
28.8324
30.2108
31.5249
32.7387
33.8107
34.6965
35.3511
35.7332
35.8089
35.5557
34.9648
20.3993
20.4096
20.1904
19.7507
19.108
18.2862
17.3133
16.2186
15.0304
13.7751
12.4758
11.152
9.82018
8.49338
7.18221
5.89529
4.63987
3.42251
2.2497
1.12839
0.0664384
-0.927015
-1.84147
-2.66517
-3.3856
-3.99033
-4.46836
-4.8117
-5.01716
-5.08773
-5.03322
-4.86939
-4.61558
-4.291
-3.91078
-3.48318
-3.00874
-2.48192
-1.89465
-1.24088
-0.52098
0.255208
1.0679
1.88983
2.69119
3.44581
4.13644
4.7578
5.31694
5.83099
6.32334
6.81902
7.34008
7.90185
8.51066
9.16359
9.85045
10.5576
11.2725
11.9878
12.7038
13.4293
14.1801
14.9773
15.8439
16.802
17.8697
19.0592
20.3752
21.8148
23.3688
25.0241
26.7665
28.5827
30.4616
32.394
34.371
36.3819
38.4112
40.4366
42.4262
44.3381
46.1196
47.7086
49.0369
50.0347
50.6361
50.7864
50.4483
49.607
26.7744
26.7903
26.4883
25.8824
25.0001
23.8782
22.5584
21.0829
19.4922
17.822
16.1031
14.3609
12.6155
10.8828
9.1749
7.50148
5.87031
4.2884
2.76278
1.30133
-0.0865348
-1.38931
-2.59309
-3.68155
-4.63648
-5.43894
-6.07111
-6.51898
-6.77551
-6.84359
-6.73784
-6.48395
-6.11472
-5.66318
-5.1548
-4.60173
-4.00121
-3.33849
-2.59338
-1.74872
-0.798773
0.244719
1.35089
2.4739
3.56238
4.57118
5.47133
6.25525
6.93656
7.54568
8.12294
8.71068
9.34564
10.0525
10.84
11.7
12.6113
13.5463
14.4801
15.3977
16.2978
17.194
18.1114
19.0837
20.1473
21.3371
22.6818
24.1997
25.8973
27.768
29.7952
31.956
34.2274
36.59
39.0303
41.5396
44.1115
46.7381
49.4051
52.0884
54.7499
57.3354
59.7737
61.9779
63.8496
65.285
66.1847
66.4634
66.0616
64.9547
33.6035
33.6275
33.2222
32.4106
31.2358
29.7539
28.0259
26.112
24.0668
21.9375
19.7626
17.5728
15.3911
13.235
11.1168
9.04567
7.02878
5.07226
3.18256
1.3675
-0.362776
-1.99485
-3.51137
-4.89075
-6.10746
-7.13324
-7.93968
-8.50221
-8.80564
-8.85017
-8.6562
-8.26503
-7.73284
-7.11771
-6.46368
-5.78916
-5.08383
-4.3143
-3.43609
-2.40888
-1.21204
0.143124
1.60869
3.10672
4.54726
5.85188
6.97245
7.8993
8.65895
9.30504
9.90617
10.533
11.2462
12.0857
13.0634
14.1611
15.3363
16.5351
17.7096
18.8309
19.896
20.9261
21.9621
23.0567
24.2671
25.6474
27.2421
29.0795
31.1678
33.4938
36.0265
38.7261
41.5543
44.4829
47.4968
50.592
53.7703
57.0327
60.3724
63.7683
67.1795
70.541
73.761
76.7222
79.2862
81.3029
82.6233
83.116
82.686
81.2912
41.0454
41.0806
40.5391
39.4597
37.912
35.9822
33.7598
31.3287
28.7614
26.1173
23.4426
20.7717
18.1291
15.5315
12.9899
10.5111
8.09962
5.7593
3.49439
1.31116
-0.780752
-2.76702
-4.62731
-6.33432
-7.85342
-9.14342
-10.1595
-10.8585
-11.2086
-11.2002
-10.8585
-10.2492
-9.47043
-8.6283
-7.80217
-7.02108
-6.25903
-5.44679
-4.49357
-3.31351
-1.85355
-0.117818
1.8193
3.82178
5.72727
7.39696
8.75183
9.78338
10.5441
11.1284
11.6516
12.2303
12.9642
13.919
15.113
16.5097
18.0261
19.5578
21.0143
22.3441
23.5431
24.6485
25.727
26.8616
28.1407
29.6477
31.4514
33.5963
36.0943
38.92
42.0158
45.309
48.7344
52.2506
55.8439
59.5222
63.3055
67.2134
71.2558
75.4231
79.6778
83.947
88.1177
92.0349
95.5075
98.3199
100.25
101.094
100.696
98.9826
49.3121
49.3625
48.6289
47.1815
45.1369
42.6304
39.7934
36.7409
33.5665
30.3414
27.1175
23.9303
20.8028
17.7482
14.7732
11.8802
9.06902
6.33881
3.68975
1.12461
-1.34949
-3.71912
-5.96241
-8.04687
-9.92755
-11.5464
-12.8338
-13.7156
-14.1257
-14.0282
-13.4445
-12.4754
-11.2975
-10.1141
-9.07407
-8.22385
-7.50481
-6.78064
-5.87601
-4.61954
-2.89052
-0.667122
1.93737
4.67799
7.24825
9.39676
10.9982
12.0588
12.6846
13.0411
13.3186
13.7057
14.3653
15.4095
16.8721
18.6873
20.6951
22.6901
24.5025
26.0468
27.3262
28.4109
29.412
30.4596
31.6874
33.2218
35.1702
37.6057
40.5498
43.9577
47.7213
51.702
55.7842
59.9076
64.0683
68.3014
72.6607
77.2
81.9589
86.9514
92.154
97.494
102.838
107.987
112.678
116.606
119.439
120.858
120.601
118.526
58.7039
58.7711
57.7448
55.7614
53.0256
49.7529
46.1355
42.3274
38.4432
34.5629
30.7389
27.0028
23.3712
19.8502
16.4388
13.132
9.92226
6.80207
3.76503
0.807845
-2.06767
-4.85204
-7.52501
-10.0515
-12.3774
-14.4249
-16.0909
-17.2504
-17.7723
-17.5548
-16.5838
-15.0008
-13.1312
-11.3918
-10.0713
-9.2363
-8.75661
-8.37308
-7.7639
-6.60484
-4.63825
-1.76407
1.86047
5.78051
9.3775
12.1853
14.0241
14.961
15.2137
15.0682
14.8285
14.7893
15.2133
16.2983
18.124
20.5884
23.3831
26.086
28.3773
30.1316
31.3899
32.294
33.0305
33.7982
34.7926
36.2001
38.1876
40.8828
44.3373
48.4831
53.1141
57.9482
62.7739
67.5103
72.1874
76.8978
81.7555
86.8687
92.324
98.1754
104.431
111.033
117.837
124.594
130.946
136.464
140.663
143.034
143.118
140.631
69.6786
69.7518
68.2361
65.4225
61.6848
57.3693
52.7494
48.0204
43.3111
38.7
34.2305
29.9219
25.7777
21.7917
17.9515
14.2414
10.6444
7.14357
3.72343
0.371718
-2.91868
-6.14689
-9.29985
-12.3464
-15.2292
-17.854
-20.0784
-21.7042
-22.4845
-22.1675
-20.6053
-17.9398
-14.7786
-12.0674
-10.3706
-9.73842
-9.87125
-10.2918
-10.4451
-9.7546
-7.69464
-3.94338
1.35609
7.34609
12.6409
16.3667
18.3461
18.8459
18.3136
17.2281
16.0471
15.203
15.1063
16.1175
18.453
22.0106
26.2001
30.071
33.0222
34.927
35.96
36.4147
36.6006
36.8062
37.2993
38.339
40.1819
43.0622
47.1251
52.3053
58.2095
64.2019
69.8869
75.1931
80.2531
85.2766
90.4765
96.0383
102.112
108.811
116.201
124.273
132.899
141.775
150.408
158.214
164.509
168.494
169.331
166.389
83.004
83.0171
80.5925
76.4105
71.1724
65.4208
59.5181
53.6832
48.0358
42.6319
37.4893
32.603
27.9555
23.5225
19.2762
15.1877
11.228
7.36881
3.58342
-0.15239
-3.85881
-7.54948
-11.2271
-14.8763
-18.4515
-21.8584
-24.9267
-27.3742
-28.7755
-28.5717
-26.2142
-21.5915
-15.7771
-11.2812
-9.13624
-9.13831
-10.5709
-12.5946
-14.3405
-14.8755
-13.1857
-8.35145
-0.14219
9.91288
18.1637
23.0625
24.7984
24.2168
22.2096
19.5253
16.7803
14.5406
13.404
14.0298
17.0222
22.5226
29.4755
35.3799
39.1727
40.9771
41.3619
40.9216
40.1413
39.3996
39.0181
39.3205
40.6813
43.5377
48.3027
55.0834
63.1764
70.8963
77.543
83.2281
88.3686
93.3984
98.6733
104.467
110.998
118.449
126.983
136.711
147.598
159.299
171.056
182.134
191.676
198.48
200.978
197.643
100.152
99.7884
95.4752
88.9154
81.396
73.6865
66.1862
59.0737
52.4077
46.186
40.3776
34.9393
29.8239
24.9839
20.3734
15.9485
11.6669
7.48804
3.37246
-0.718179
-4.82082
-8.96987
-13.1943
-17.5114
-21.9145
-26.3489
-30.667
-34.5488
-37.3758
-38.0754
-35.0831
-26.9576
-14.8758
-7.10841
-4.80918
-6.47716
-10.4184
-15.2962
-19.9784
-23.1987
-23.2034
-17.6184
-4.29769
15.0782
28.5132
34.3127
34.5878
31.6401
27.0808
21.9099
16.7861
12.2899
9.16439
8.53462
11.9802
20.943
34.2606
43.729
48.1859
49.0709
47.9514
45.9172
43.626
41.4739
39.7516
38.7773
39.0269
41.2639
46.5771
55.9709
68.6789
79.1345
86.5819
92.0451
96.6409
101.165
106.12
111.833
118.553
126.524
136.044
147.474
161.118
176.739
192.675
208.261
222.779
234.659
241.019
237.923
124.534
122.243
113.589
102.798
91.8896
81.6475
72.2926
63.8179
56.1366
49.1419
42.7303
36.8083
31.2933
26.1127
21.2017
16.5013
11.9566
7.51501
3.12464
-1.26743
-5.71658
-10.2821
-15.0281
-20.0226
-25.3322
-31.0066
-37.0349
-43.2414
-49.0387
-52.8944
-51.3429
-38.0205
-7.76197
4.93811
5.23012
-0.543009
-8.91755
-18.2793
-27.7216
-36.1522
-41.27
-38.0252
-17.1734
28.7969
49.856
53.5157
49.016
41.3818
32.831
24.2248
15.8864
8.0642
1.32948
-2.83041
-1.00806
13.0905
44.5862
59.2917
62.34
60.0482
55.855
51.2803
46.9076
42.9264
39.4053
36.469
34.5081
34.5577
38.9726
52.0824
77.4209
91.7005
98.4732
102.107
105.012
108.304
112.469
117.744
124.3
132.363
142.348
155.042
171.786
193.716
214.791
235.915
257.67
278.776
294.667
295.376
166.287
153.852
134.777
116.844
101.419
88.3272
77.1282
67.4172
58.8744
51.2563
44.3765
38.0898
32.2803
26.8527
21.7262
16.8295
12.0977
7.46839
2.87958
-1.73394
-6.44398
-11.3336
-16.503
-22.0784
-28.2232
-35.1525
-43.1442
-52.5206
-63.495
-75.4968
-84.55
-73.4691
24.6369
34.8524
24.0035
9.13759
-5.99434
-21.1452
-36.9199
-53.874
-71.3764
-83.7838
-66.2183
78.3873
96.2524
84.4667
67.9564
52.4424
38.6605
26.1537
14.2435
2.273
-10.2124
-22.8089
-31.6731
-19.8137
79.0887
91.6393
84.1823
73.7616
64.3067
56.3511
49.6247
43.7156
38.2163
32.7557
27.0936
21.5653
18.8468
30.5837
102.086
115.073
114.882
113.212
112.825
114.181
117.218
121.807
127.871
135.432
144.745
156.773
174.978
211.92
236.827
262.652
293.485
330.395
370.169
394.176
264.41
195.017
154.312
127.274
107.583
92.2766
79.8174
69.3305
60.2777
52.3049
45.1662
38.682
32.7155
27.1577
21.9184
16.9195
12.0902
7.3629
2.66974
-2.0616
-6.9128
-11.9817
-17.3927
-23.3134
-29.9834
-37.7672
-47.2579
-59.4962
-76.4693
-102.342
-146.747
-234.231
183.597
95.0977
48.5598
19.2006
-3.0439
-23.1122
-44.4186
-70.804
-108.817
-172.7
-298.198
310.481
185.341
122.217
85.4591
61.0062
42.6521
27.2221
12.6866
-2.777
-21.5941
-48.1611
-92.1791
-178.059
237.934
152.794
110.289
86.0809
70.5967
59.6496
51.1624
43.9128
36.9698
29.3314
19.4851
4.52568
-22.0957
-76.9776
211.006
157.419
133.417
122.466
118.121
117.635
119.727
123.741
129.279
135.975
143.226
149.603
151.18
247.447
257.53
282.168
320.539
377.874
468.358
627.203
4108.32
3886.59
3651.82
3404.78
3146.34
2877.47
2599.2
2312.57
2018.64
1718.44
1413.01
1103.34
790.411
475.166
158.542
20.2015
19.2967
18.172
16.8717
15.4436
13.9339
12.3826
10.8221
9.27576
7.75865
6.27815
4.83543
3.42673
2.04471
0.679632
33.9512
32.4044
30.4809
28.2608
25.8299
23.2689
20.6477
18.0209
15.4272
12.8905
10.4217
8.02132
5.68161
3.38907
1.12629
48.1401
45.8872
43.0845
39.8594
36.3447
32.6632
28.9177
25.186
21.5213
17.9543
14.497
11.1466
7.88935
4.70366
1.56279
62.9786
59.9169
56.108
51.7452
47.0242
42.1198
37.1721
32.2828
27.5168
22.9079
18.465
14.1786
10.0256
5.97344
1.98405
78.7197
74.6902
69.6824
63.9864
57.8847
51.6172
45.3659
39.2543
33.3537
27.6943
22.2761
17.0771
12.0607
7.1805
2.38406
95.6819
90.4392
83.9423
76.6307
68.9086
61.0963
53.4183
46.0127
38.9471
32.2379
25.8667
19.7925
13.9595
8.30371
2.75581
114.284
107.441
99.0152
89.6841
80.021
70.4394
61.1974
52.4298
44.1822
36.4416
29.1591
22.2656
15.6808
9.31883
3.0913
135.099
126.021
114.991
103.067
91.0494
79.4407
68.501
58.326
48.9092
40.1856
32.0611
24.4289
17.1785
10.1993
3.38182
158.948
146.547
131.852
116.537
101.664
87.768
75.0365
63.4623
52.9414
43.3291
34.4694
26.2095
18.4045
10.9175
3.61843
187.076
169.359
149.328
129.562
111.298
94.9263
80.4108
67.5426
56.0631
45.718
36.2764
27.5343
19.3118
11.4474
3.79276
221.389
194.481
166.535
141.081
119.037
100.225
84.1351
70.2317
58.0481
47.2014
37.3822
28.3384
19.8602
11.7671
3.89789
264.562
220.632
181.243
149.184
123.539
102.798
85.6698
71.1987
58.6941
47.6554
37.711
28.5758
20.0229
11.8626
3.92944
318.04
242.233
188.612
150.866
123.134
101.751
84.5445
70.1966
57.872
47.0132
37.2288
28.23
19.7921
11.7308
3.88658
364.253
241.643
180.098
142.53
116.374
96.5242
80.5573
67.1687
55.5817
45.2944
35.9596
27.3223
19.184
11.3814
3.77267
2.96498
8.90134
14.8562
20.8398
26.8588
32.9153
39.0056
45.1216
51.2573
57.4303
63.7391
70.5062
78.629
90.4457
111.882
3.06815
9.20968
15.3656
21.5413
27.7348
33.9323
40.1006
46.1767
52.0517
57.5468
62.3733
66.0424
67.5531
64.0061
44.0413
3.16764
9.50777
15.8608
22.2297
28.6072
34.9684
41.2583
47.3701
53.1085
58.1258
61.8085
63.0752
59.9881
48.9653
23.5031
3.26369
9.79666
16.3446
22.9114
29.4899
36.053
42.5383
48.8213
54.6648
59.6297
62.9192
63.1296
57.9317
43.9506
17.9251
3.3558
10.0749
16.8149
23.5844
30.3824
37.1902
43.9576
50.5762
56.8294
62.2952
66.1662
66.9382
61.9725
47.2987
19.1691
3.44265
10.3383
17.2642
24.2369
31.267
38.3543
45.4787
52.5834
59.5389
66.0659
71.5636
74.729
72.7531
59.9896
27.5019
3.52223
10.5806
17.6805
24.8487
32.111
39.4915
47.0123
54.6927
62.5441
70.549
78.5789
86.0876
91.0229
86.3759
51.4701
3.59206
10.7938
18.0488
25.3944
32.8718
40.5298
48.4337
56.6819
65.4408
75.012
85.9542
99.2304
115.944
133.773
122.683
3.6496
10.9697
18.3537
25.8479
33.506
41.3961
49.6145
58.3149
67.7714
78.5204
91.7065
109.983
140.088
201.247
356.584
3.69253
11.1011
18.5817
26.1868
33.9781
42.0329
50.4589
59.4214
69.2025
80.3336
93.9214
112.517
142.663
203.314
357.417
3.71903
11.1823
18.7226
26.3959
34.266
42.4105
50.929
59.9577
69.6941
80.4381
92.656
107.026
124.051
140.475
125.485
3.72792
11.2098
18.7707
26.4674
34.3625
42.5271
51.0431
60.0007
69.484
79.5166
89.8932
99.6879
105.853
99.4488
57.4216
3.71865
11.1819
18.7241
26.4005
34.2707
42.3984
50.8489
59.6768
68.8905
78.3538
87.5317
94.8673
96.3806
83.1573
39.9235
3.69125
11.0991
18.5837
26.1983
33.9991
42.0443
50.391
59.0832
68.1217
77.3867
86.4469
94.0872
97.139
87.7039
47.85
3.64613
10.9626
18.3524
25.8662
33.5568
41.4797
49.6916
58.2473
67.1935
76.5595
86.3458
96.4907
106.566
113.372
94.5571
3.58407
10.775
18.0346
25.4104
32.9522
40.7131
48.752
57.1386
65.9719
75.4379
85.9932
98.9397
118.26
156.829
259.525
3.50611
10.5393
17.6356
24.8387
32.1944
39.7524
47.5695
55.718
64.3089
73.5576
83.9777
96.9595
116.583
155.751
259.192
3.41353
10.2594
17.162
24.1603
31.2951
38.6104
46.1554
53.9888
62.1872
70.8616
80.1809
90.3644
101.329
110.032
93.6175
3.30781
9.93986
16.6214
23.3863
30.2695
37.3077
44.5397
52.0045
59.7334
67.7155
75.7815
83.2243
87.6434
81.7542
46.6648
3.19059
9.58569
16.0226
22.5295
29.1353
35.8694
42.7608
49.8354
57.1019
64.5092
71.8126
78.1815
81.1135
73.7517
40.1552
3.06364
9.20222
15.3747
21.6035
27.9113
34.3205
40.8535
47.5315
54.371
61.3732
68.4905
75.5233
81.7297
83.9655
66.0846
2.92878
8.79501
14.6871
20.622
26.616
32.6847
38.8443
45.1139
51.5256
58.1554
65.2251
73.4366
85.101
108.147
171.379
2.7878
8.36957
13.9695
19.599
25.268
30.9849
36.7576
42.5965
48.5271
54.6303
61.1651
68.9498
80.566
104.418
169.798
2.64248
7.93125
13.2311
18.548
23.8858
29.2455
34.6239
40.0141
45.4074
50.8037
56.2354
61.8003
67.5317
71.8462
60.6376
2.49444
7.48506
12.4804
17.4818
22.4879
27.4922
32.4811
37.4283
42.2844
46.9509
51.2116
54.5333
55.4795
50.0524
27.9104
2.34512
7.03539
11.7251
16.412
21.0904
25.7487
30.3663
34.9048
39.2918
43.3786
46.8383
48.9144
47.8516
39.8646
18.5705
2.19573
6.5859
10.9716
15.3477
19.7061
24.0328
28.3053
32.4856
36.5065
40.2406
43.4245
45.4739
45.0309
38.9167
20.2349
2.0472
6.13936
10.2243
14.2954
18.3432
22.3539
26.3076
30.176
33.9193
37.4834
40.7972
43.7629
46.147
46.695
37.0294
1.90016
5.69768
9.48635
13.2588
17.0054
20.7138
24.3684
27.9524
31.4556
34.8989
38.4105
42.4542
48.537
61.5646
98.5402
1.75502
5.262
8.75942
12.2397
15.6938
19.1105
22.4775
25.7842
29.0324
32.2658
35.6533
39.7283
46.1026
59.8019
97.8753
1.61197
4.83282
8.04412
11.2386
14.4077
17.5412
20.6277
23.6559
26.6188
29.5247
32.4176
35.4044
38.5801
41.1109
34.8733
1.47102
4.41014
7.34029
10.2548
13.1458
16.004
18.8179
21.5722
24.2441
26.7916
29.1159
30.9482
31.5042
28.5077
15.9738
1.33206
3.99359
6.64714
9.28692
11.9063
14.4972
17.0489
19.545
21.9552
24.2126
26.155
27.3775
26.8943
22.5268
10.5556
1.19488
3.58246
5.96339
8.33301
10.6862
13.017
15.3179
17.577
19.7718
21.8516
23.6933
24.9904
24.9812
21.8256
11.4843
1.05919
3.17585
5.28735
7.39028
9.48133
11.5574
13.6155
15.6532
17.6677
19.6552
21.6091
23.5098
25.2522
26.1139
21.1818
0.924671
2.77275
4.61711
6.4556
8.28663
10.1098
11.927
13.745
15.5817
17.4817
19.5613
22.1382
26.1342
34.425
56.8726
0.791005
2.37215
3.95084
5.52592
7.09715
8.66604
10.2375
11.8235
13.4512
15.1829
17.1676
19.7807
24.0328
32.904
56.2986
0.65792
1.97321
3.28697
4.59877
5.9091
7.22025
8.5377
9.87279
11.2481
12.708
14.3371
16.2843
18.723
21.2964
19.3202
0.525207
1.57527
2.6244
3.67251
4.72031
5.76989
6.82537
7.89386
8.9861
10.1151
11.2854
12.446
13.3191
12.8476
7.80263
0.392729
1.17793
1.96249
2.74637
3.53016
4.31525
5.10382
5.89822
6.69829
7.49333
8.24008
8.80719
8.84853
7.57445
3.61834
0.260422
0.781027
1.301
1.82024
2.33903
2.85807
3.37808
3.89849
4.41382
4.90487
5.31927
5.53322
5.29121
4.16363
1.71211
0.128279
0.384547
0.640017
0.894395
1.14769
1.40016
1.65199
1.90221
2.14611
2.36953
2.53755
2.57575
2.34873
1.67207
0.481323
-0.00366058
-0.0113761
-0.0202101
-0.030698
-0.0430903
-0.0573082
-0.0729896
-0.0896954
-0.107394
-0.127404
-0.154044
-0.197627
-0.281566
-0.462534
-0.907915
-0.135322
-0.406509
-0.679267
-0.954441
-1.23257
-1.51372
-1.7972
-2.08085
-2.35924
-2.6197
-2.83379
-2.94295
-2.84445
-2.41353
-1.68119
-0.266596
-0.800524
-1.3366
-1.87608
-2.41988
-2.96843
-3.5212
-4.0755
-4.62339
-5.14406
-5.58626
-5.83233
-5.63809
-4.57379
-2.0946
-0.397345
-1.193
-1.99152
-2.79462
-3.60378
-4.42008
-5.24398
-6.07441
-6.90623
-7.72269
-8.47468
-9.02725
-9.0357
-7.71643
-3.69548
-0.527403
-1.58345
-2.64317
-3.70883
-4.78255
-5.86628
-6.96201
-8.0721
-9.19944
-10.3458
-11.5012
-12.5997
-13.355
-12.7349
-7.6365
-0.656579
-1.97128
-3.29057
-4.6173
-5.95419
-7.30391
-8.66979
-10.0575
-11.4791
-12.9621
-14.567
-16.4098
-18.6289
-20.8629
-18.6429
-0.784655
-2.35586
-3.93266
-5.51855
-7.11667
-8.73003
-10.3621
-12.0189
-13.7156
-15.4933
-17.4668
-19.958
-23.8915
-32.0833
-53.9996
-0.911387
-2.73646
-4.56831
-6.41107
-8.26831
-10.1428
-12.0367
-13.9522
-15.8953
-17.8879
-20.0066
-22.5038
-26.1961
-33.7714
-54.6412
-1.03649
-3.11225
-5.1962
-7.2933
-9.40762
-11.5418
-13.6959
-15.8658
-18.0401
-20.1943
-22.2825
-24.2189
-25.803
-26.2258
-20.7321
-1.15963
-3.48224
-5.81478
-8.1633
-10.5328
-12.9264
-15.3435
-17.7758
-20.198
-22.5458
-24.6631
-26.1776
-26.2153
-22.788
-11.8017
-1.28039
-3.84522
-6.42206
-9.01842
-11.6409
-14.2943
-16.98
-19.6922
-22.4069
-25.0565
-27.4612
-29.161
-29.0329
-24.5985
-11.6325
-1.39829
-4.19972
-7.01556
-9.85508
-12.727
-15.6391
-18.5976
-21.6059
-24.6602
-27.7363
-30.7479
-33.4127
-34.8397
-32.3329
-18.6151
-1.51278
-4.54405
-7.59236
-10.6689
-13.7848
-16.951
-20.1799
-23.487
-26.8974
-30.46
-34.2741
-38.5227
-43.3771
-47.8513
-41.9252
-1.62327
-4.8764
-8.14928
-11.4551
-14.807
-18.2189
-21.7072
-25.2954
-29.028
-33.0078
-37.4975
-43.2104
-52.177
-70.5904
-119.348
-1.72912
-5.19485
-8.68308
-12.2088
-15.787
-19.4331
-23.1642
-27.0025
-30.986
-35.2001
-39.8701
-45.637
-54.4147
-72.2546
-119.987
-1.8297
-5.49751
-9.19055
-12.9256
-16.7192
-20.5876
-24.5461
-28.6078
-32.7826
-37.0746
-41.4796
-45.9711
-50.3572
-53.1575
-44.0175
-1.92438
-5.78248
-9.66854
-13.6012
-17.5989
-21.6788
-25.8552
-30.1337
-34.4968
-38.8691
-43.0273
-46.3769
-47.399
-42.3504
-22.8347
-2.01253
-6.04782
-10.1138
-14.2313
-18.4207
-22.7022
-27.0926
-31.5995
-36.2034
-40.811
-45.1351
-48.3972
-48.6548
-41.5885
-19.8134
-2.09351
-6.29161
-10.5231
-14.8108
-19.1781
-23.6491
-28.2481
-32.997
-37.9061
-42.9482
-47.9787
-52.5024
-54.995
-51.0394
-29.1883
-2.16671
-6.51198
-10.893
-15.3345
-19.8627
-24.5062
-29.2986
-34.2819
-39.5151
-45.0919
-51.1726
-58.0162
-65.811
-72.9161
-63.9272
-2.23163
-6.7073
-11.2206
-15.7975
-20.4664
-25.2591
-30.2155
-35.392
-40.8841
-46.8839
-53.835
-62.8674
-77.1036
-105.967
-181.209
-2.28784
-6.87631
-11.5035
-16.1962
-20.9833
-25.8975
-30.9784
-36.2816
-41.899
-48.0137
-55.0501
-64.1025
-78.2362
-106.805
-181.53
-2.3351
-7.01823
-11.7404
-16.5287
-21.4113
-26.419
-31.5859
-36.9519
-42.5671
-48.5016
-54.8633
-61.8067
-69.3418
-75.5868
-64.9766
-2.37329
-7.13278
-11.9312
-16.795
-21.7517
-26.829
-32.054
-37.4478
-43.012
-48.6912
-54.2704
-59.098
-61.3408
-56.0708
-31.2978
-2.40246
-7.22009
-12.076
-16.9963
-22.0074
-27.1355
-32.4037
-37.8239
-43.3756
-48.9485
-54.1974
-58.1821
-58.555
-50.0964
-23.8838
-2.42272
-7.28056
-12.1758
-17.1339
-22.1811
-27.3437
-32.6466
-38.1075
-43.7228
-49.429
-55.0003
-59.7724
-61.8999
-56.4495
-31.4375
-2.4343
-7.31484
-12.2315
-17.209
-22.2738
-27.4535
-32.7785
-38.2824
-44.0052
-50.0014
-56.3564
-63.1969
-70.505
-76.385
-65.284
-2.43751
-7.32382
-12.2444
-17.2231
-22.2858
-27.4615
-32.7851
-38.3038
-44.0962
-50.3227
-57.3732
-66.2944
-80.0991
-108.11
-182.091
-2.43279
-7.30879
-12.2164
-17.1782
-22.2185
-27.3658
-32.6548
-38.1339
-43.884
-50.07
-57.0889
-65.998
-79.8249
-107.907
-182.014
-2.42075
-7.27153
-12.1505
-17.078
-22.0762
-27.1707
-32.3914
-37.7746
-43.3674
-49.237
-55.4897
-62.2842
-69.6481
-75.7389
-65.032
-2.4022
-7.21443
-12.0506
-16.928
-21.8662
-26.8869
-32.0138
-37.2683
-42.657
-48.1361
-53.5122
-58.1726
-60.3527
-55.2328
-30.9345
-2.37813
-7.14048
-11.9215
-16.7353
-21.598
-26.5284
-31.5464
-36.6673
-41.8824
-47.105
-52.0296
-55.7812
-56.1246
-48.043
-22.9267
-2.34976
-7.0533
-11.7694
-16.5081
-21.2821
-26.108
-31.0064
-35.9996
-41.1009
-46.2791
-51.3597
-55.7545
-57.745
-52.6809
-29.3186
-2.31852
-6.95717
-11.6011
-16.2557
-20.9294
-25.6362
-30.3992
-35.2555
-40.2644
-45.5192
-51.1641
-57.3951
-64.2623
-70.0239
-60.2059
-2.2861
-6.85714
-11.4251
-15.9894
-20.5529
-25.1246
-29.7262
-34.4042
-39.2556
-44.4866
-50.5596
-58.5916
-71.545
-98.1831
-167.892
-2.25442
-6.75903
-11.2511
-15.7231
-20.1698
-24.5912
-28.9991
-33.4313
-37.9817
-42.8677
-48.5927
-56.3681
-69.3215
-96.4282
-167.194
-2.22562
-6.66941
-11.0907
-15.4739
-19.8037
-24.0662
-28.254
-32.3752
-36.4734
-40.6643
-45.2003
-50.5467
-57.2665
-64.3509
-57.8753
-2.20191
-6.59523
-10.9563
-15.2613
-19.4835
-23.5923
-27.5541
-31.334
-34.8994
-38.2198
-41.2432
-43.7696
-44.9561
-41.6875
-24.4398
-2.18545
-6.54323
-10.8604
-15.1057
-19.2413
-23.2196
-26.9794
-30.4406
-33.4943
-35.9801
-37.6297
-37.9214
-35.7378
-28.7303
-12.9698
-2.17802
-6.51922
-10.8141
-15.0259
-19.1077
-22.9977
-26.6111
-29.8293
-32.4824
-34.3199
-34.9578
-33.7909
-29.8681
-21.8504
-8.56815
-2.18083
-6.52715
-10.8253
-15.0357
-19.1067
-22.9672
-26.5163
-29.6092
-32.0359
-33.4913
-33.538
-31.5728
-26.8411
-18.6257
-6.84254
-2.19424
-6.56834
-10.897
-15.1419
-19.2514
-23.1521
-26.7374
-29.8508
-32.2627
-33.6397
-33.5143
-31.2746
-26.2322
-17.8781
-6.43746
-2.21756
-6.64088
-11.0266
-15.3417
-19.5404
-23.5552
-27.2853
-30.5787
-33.207
-34.8304
-34.9577
-32.9216
-27.9225
-19.2731
-7.02822
-2.24902
-6.73937
-11.2048
-15.622
-19.9565
-24.1553
-28.1355
-31.7676
-34.8482
-37.0586
-37.9026
-36.6251
-32.1466
-23.1645
-8.87677
-2.28575
-6.85499
-11.4161
-15.9592
-20.4663
-24.9064
-29.2266
-33.3383
-37.0925
-40.2346
-42.3195
-42.5505
-39.4973
-30.7397
-13.1319
-2.324
-6.97607
-11.6398
-16.3209
-21.0221
-25.74
-30.4615
-35.1563
-39.7608
-44.1436
-48.0224
-50.7554
-50.8083
-44.4596
-23.3981
-2.35938
-7.0889
-11.851
-16.6683
-21.5656
-26.5701
-31.7141
-37.0358
-42.5817
-48.4012
-54.5196
-60.82
-66.5633
-68.395
-51.5351
-2.38724
-7.17896
-12.0235
-16.9599
-22.034
-27.3027
-32.842
-38.7585
-45.2113
-52.4499
-60.889
-71.2694
-85.033
-105.308
-139.539
256.863
191.741
152.355
125.264
104.828
88.434
74.7117
62.8629
52.3785
42.9101
34.2043
26.0671
18.3421
10.8971
3.61458
93.8925
122.474
116.732
104.177
91.1269
78.9815
67.9351
57.887
48.6779
40.1514
32.1685
24.6074
17.3606
10.3313
3.42973
41.4782
77.039
85.836
83.4305
76.7947
68.7637
60.4634
52.327
44.5018
37.0142
29.8389
22.9288
16.2277
9.67665
3.21555
21.9765
50.1879
62.7178
65.6197
63.4294
58.7311
52.8762
46.5494
40.09
33.6591
27.3245
21.1044
14.9903
8.95925
2.98048
13.4059
34.2254
46.2839
51.3432
51.804
49.5001
45.6153
40.8625
35.6573
30.2362
24.7298
19.2059
13.6949
8.20534
2.73298
8.99615
24.346
34.7093
40.2588
42.0971
41.3657
38.9559
35.4887
31.3736
26.8718
22.1467
17.2979
12.3843
7.4393
2.48096
6.42125
17.9287
26.4766
31.7505
34.1737
34.3957
33.0296
30.564
27.3575
23.6618
19.6489
15.4344
11.0951
6.68236
2.23139
4.77327
13.5662
20.5169
25.221
27.7779
28.5276
27.866
26.1529
23.6804
20.6715
17.2907
13.6572
9.85669
5.95182
1.98997
3.64849
10.4827
16.1168
20.1819
22.6363
23.6387
23.4318
22.2685
20.3751
17.9389
15.1076
11.9955
8.69052
5.2607
1.76105
2.84496
8.23237
12.8059
16.2607
18.5026
19.589
19.6611
18.8904
17.4464
15.4801
13.119
10.4676
7.61081
4.61794
1.54768
2.25145
6.54702
10.2714
13.1816
15.1707
16.2431
16.4751
15.9795
14.8799
13.295
11.3316
9.08216
6.62538
4.02881
1.3517
1.80184
5.2582
8.30194
10.7416
12.4751
13.4803
13.7939
13.4876
12.6499
11.3724
9.74269
7.84042
5.73685
3.49549
1.17394
1.4545
4.25577
6.75179
8.79179
10.2848
11.1975
11.5427
11.3645
10.725
9.69422
8.34275
6.73827
4.94386
3.01779
1.01442
1.18193
3.4652
5.51812
7.22156
8.49724
9.30856
9.65465
9.56129
9.07164
8.23844
7.11827
5.76785
4.24216
2.59368
0.872566
0.965303
2.83449
4.52699
5.94818
7.03191
7.74243
8.07153
8.03305
7.65659
6.98174
6.05348
4.919
3.62563
2.21993
0.74737
0.791299
2.32639
3.72414
4.90897
5.82557
6.44096
6.74346
6.73931
6.44855
5.90081
5.13175
4.18034
3.08701
1.89254
0.637558
0.650262
1.91361
3.06904
4.05592
4.82823
5.35662
5.62815
5.64442
5.4188
4.97342
4.33652
3.54013
2.61854
1.60712
0.54171
0.535025
1.57571
2.53091
3.35176
4.00015
4.4505
4.68995
4.71737
4.5415
4.17891
3.65191
2.98678
2.21239
1.35916
0.458352
0.440163
1.29715
2.08601
2.76728
3.3095
3.69072
3.89888
3.93136
3.79376
3.49847
3.06312
2.50921
1.86092
1.14419
0.386022
0.361496
1.06587
1.71576
2.2793
2.73058
3.05101
3.22971
3.26336
3.15542
2.91518
2.55658
2.09712
1.55694
0.957975
0.323314
0.295751
0.872384
1.40544
1.8692
2.24246
2.50964
2.66119
2.69358
2.60888
2.41402
2.12
1.74103
1.29374
0.796519
0.268907
0.240326
0.709139
1.14321
1.52189
1.82796
2.04851
2.17534
2.20505
2.13877
1.98166
1.74237
1.43233
1.06517
0.656147
0.221577
0.193116
0.570001
0.919427
1.22497
1.4728
1.6524
1.75687
1.78312
1.73166
1.60632
1.41381
1.16325
0.865662
0.533497
0.180201
0.152391
0.449916
0.726094
0.968085
1.165
1.30841
1.39269
1.41512
1.37582
1.27758
1.12554
0.926807
0.690137
0.425505
0.143756
0.116704
0.344643
0.556482
0.742483
0.894317
1.00545
1.07142
1.08993
1.06088
0.986183
0.869651
0.716685
0.534012
0.32939
0.111308
0.0848122
0.250543
0.404799
0.540591
0.651876
0.733837
0.783083
0.797764
0.777596
0.723811
0.639045
0.527174
0.393116
0.242614
0.0820074
0.0556218
0.164407
0.265929
0.355705
0.429785