/*--------------------------------*- C++ -*----------------------------------*\
| =========                 |                                                 |
| \\      /  F ield         | OpenFOAM: The Open Source CFD Toolbox           |
|  \\    /   O peration     | Version:  5.x                                   |
|   \\  /    A nd           | Web:      www.OpenFOAM.org                      |
|    \\/     M anipulation  |                                                 |
\*---------------------------------------------------------------------------*/
FoamFile
{
    version     2.0;
    format      ascii;
    class       volScalarField;
    location    "10.9";
    object      gradTx;
}
// * * * * * * * * * * * * * * * * * * * * * * * * * * * * * * * * * * * * * //

dimensions      [0 -1 0 1 0 0 0];

internalField   nonuniform List<scalar> 
6300
(
115.317
114.975
114.292
113.266
111.898
110.187
108.137
105.751
103.038
100.008
96.6813
93.0828
89.2467
85.2155
81.0402
115.653
115.312
114.629
113.603
112.234
110.522
108.468
106.074
103.348
100.301
96.9482
93.3159
89.4374
85.3556
81.123
116.325
115.984
115.302
114.277
112.908
111.193
109.132
106.725
103.976
100.893
97.4903
93.7908
89.8268
85.6423
81.2925
117.332
116.993
116.313
115.29
113.922
112.206
110.136
107.712
104.932
101.8
98.3248
94.5256
90.4326
86.0904
81.5586
118.673
118.336
117.66
116.643
115.28
113.565
111.49
109.049
106.235
103.044
99.4787
95.5496
91.2831
86.7236
81.937
120.344
120.012
119.344
118.337
116.985
115.278
113.206
110.755
107.91
104.659
100.991
96.9063
92.422
87.5798
82.4528
122.343
122.016
121.36
120.37
119.037
117.351
115.294
112.848
109.987
106.685
102.915
98.658
93.9141
88.7166
83.1452
124.663
124.344
123.706
122.74
121.439
119.788
117.767
115.35
112.5
109.174
105.321
100.891
95.8552
90.2229
84.0764
127.294
126.987
126.371
125.44
124.184
122.588
120.631
118.279
115.485
112.185
108.297
103.727
98.3875
92.239
85.3478
130.227
129.934
129.346
128.458
127.262
125.745
123.884
121.643
118.969
115.778
111.95
107.327
101.724
94.9934
87.1337
133.446
133.169
132.614
131.778
130.656
129.239
127.509
125.436
122.964
120.002
116.394
111.9
106.184
98.8723
89.753
136.935
136.675
136.156
135.378
134.34
133.04
131.472
129.619
127.445
124.866
121.719
117.689
112.234
104.555
93.8442
140.677
140.435
139.952
139.231
138.278
137.102
135.712
134.119
132.322
130.294
127.921
124.897
120.502
113.263
100.839
144.656
144.429
143.978
143.309
142.434
141.371
140.15
138.814
137.426
136.059
134.767
133.472
131.609
127.149
114.443
148.854
148.64
148.215
147.587
146.77
145.791
144.694
143.555
142.501
141.742
141.61
142.608
145.305
149.275
145.981
77.1379
73.5656
70.0093
66.505
63.0871
59.7873
56.6336
53.6497
50.8553
48.2655
45.8916
43.7411
41.8186
40.1257
38.6617
37.424
36.4084
35.609
35.0186
34.6285
34.4287
34.4073
34.5509
34.844
35.2697
35.8088
36.4408
37.144
37.8962
38.6752
39.4598
40.2303
40.9692
41.661
42.2923
42.8513
43.3268
43.7083
43.9852
44.1469
44.1836
44.0869
43.8505
43.4716
42.9504
42.2907
41.4989
40.5825
39.5496
38.4065
37.1577
35.8049
34.3469
32.7801
31.0996
29.2997
27.3751
25.3212
23.1343
20.8114
18.3496
15.745
12.992
10.0825
7.00548
3.74694
0.290113
-3.38387
-7.29519
-11.4644
-15.9115
-20.6554
-25.7131
-31.0997
-36.8283
-42.9096
-49.3521
-56.1612
-63.3391
-70.8835
-78.7862
-87.0321
-95.5974
-104.449
-113.542
-122.823
-132.226
-141.678
-151.099
-160.405
77.1643
73.5393
69.931
66.3773
62.9141
59.5742
56.3863
53.3744
50.5581
47.9523
45.5675
43.4109
41.486
39.7941
38.3339
37.1024
36.0952
35.3063
34.7284
34.353
34.1701
34.1682
34.3338
34.6517
35.1047
35.6733
36.3366
37.0719
37.8559
38.6654
39.4783
40.2741
41.0352
41.7463
42.3947
42.9695
43.4603
43.8571
44.1491
44.325
44.3739
44.2859
44.054
43.6745
43.148
42.4793
41.6763
40.7488
39.7064
38.557
37.306
35.9549
34.5019
32.9425
31.2701
29.4781
27.5602
25.5115
23.329
21.0106
18.5544
15.958
13.2167
10.3232
7.26651
4.03221
0.602704
-3.04209
-6.92367
-11.0638
-15.4837
-20.2027
-25.2385
-30.6062
-36.319
-42.388
-48.8222
-55.628
-62.8091
-70.3649
-78.2892
-86.5689
-95.182
-104.096
-113.268
-122.642
-132.15
-141.717
-151.258
-160.685
77.2183
73.4854
69.7707
66.116
62.5605
59.1393
55.8826
52.815
49.9555
47.3183
44.9128
42.7446
40.8159
39.1267
37.6747
36.4562
35.466
34.698
34.145
33.7987
33.6494
33.6861
33.8957
34.2633
34.7714
35.4
36.1269
36.9278
37.777
38.649
39.5194
40.3662
41.1712
41.9199
42.6013
43.2065
43.7274
44.1549
44.4781
44.6841
44.7592
44.6905
44.4681
44.0871
43.5484
42.8593
42.0314
41.0788
40.0154
38.8524
37.5967
36.25
34.8089
33.2659
31.6117
29.8364
27.9322
25.8936
23.7185
21.407
18.9604
16.3788
13.6601
10.7984
7.78289
4.59835
1.22519
-2.35931
-6.17959
-10.2602
-14.6245
-19.2934
-24.2849
-29.6146
-35.2955
-41.3391
-47.7552
-54.5524
-61.7372
-69.3128
-77.2774
-85.6222
-94.3293
-103.369
-112.699
-122.262
-131.986
-141.789
-151.577
-161.25
77.3038
73.4019
69.5207
65.7087
62.0104
58.4648
55.104
51.9531
49.0306
46.3485
43.9144
41.7312
39.7991
38.1159
36.6776
35.4793
34.515
33.7784
33.2624
32.959
32.8594
32.9533
33.2287
33.671
34.2629
34.9837
35.8092
36.7123
37.6637
38.6333
39.5926
40.5168
41.3865
42.1886
42.9156
43.5631
44.1272
44.6011
44.9739
45.2297
45.3496
45.3144
45.1088
44.7247
44.1637
43.4373
42.5641
41.5665
40.466
39.2796
38.017
36.6796
35.2609
33.7482
32.1261
30.3793
28.4963
26.471
24.3032
21.9972
19.5597
16.9963
14.309
11.4944
8.54233
5.43583
2.15186
-1.33702
-5.06046
-9.04788
-13.3263
-17.9186
-22.8437
-28.1162
-33.7486
-39.752
-46.1376
-52.9167
-60.1003
-67.6979
-75.7151
-84.1508
-92.9941
-102.221
-111.79
-121.644
-131.705
-141.877
-152.054
-162.118
77.4267
73.2847
69.1678
65.1344
61.2375
57.5212
54.0204
50.76
47.7567
45.0196
42.5524
40.3543
38.4221
36.7505
35.3332
34.1636
33.2347
32.5397
32.0719
31.8242
31.7891
31.9577
32.3197
32.8618
33.5672
34.4148
35.378
36.4257
37.5224
38.6307
39.7147
40.744
41.6971
42.5636
43.3424
44.038
44.6547
45.1909
45.636
45.9691
46.1613
46.1819
46.0045
45.615
45.0154
44.2248
43.2742
42.2005
41.0385
39.8147
38.5434
37.2248
35.8466
34.3867
32.8186
31.1171
29.2643
27.2525
25.0857
22.776
20.3395
17.7912
15.1404
12.3878
9.52374
6.52856
3.37343
0.0230173
-3.56107
-7.41628
-11.5754
-16.0643
-20.9012
-26.0986
-31.6661
-37.6132
-43.9517
-50.6963
-57.8649
-65.4762
-73.5472
-82.0893
-91.1034
-100.575
-110.468
-120.724
-131.256
-141.955
-152.688
-163.311
77.5965
73.1277
68.691
64.3605
60.2012
56.2644
52.5875
49.1943
46.0971
43.3
40.8006
38.5927
36.668
35.0171
33.6306
32.4995
31.6158
30.9724
30.563
30.3819
30.4237
30.6823
31.1498
31.8159
32.6654
33.6776
34.8237
36.0669
37.3627
38.6614
39.9139
41.0789
42.1306
43.0628
43.887
44.6246
45.2959
45.91
46.4575
46.909
47.2184
47.3323
47.2037
46.8057
46.1405
45.2405
44.1596
42.9599
41.6982
40.4167
39.136
37.8542
36.5483
35.1795
33.7017
32.0716
30.2596
28.2562
26.0728
23.7362
21.2794
18.733
16.1178
13.4409
10.6935
7.85124
4.87596
1.71945
-1.67119
-5.34682
-9.34952
-13.7083
-18.4388
-23.5471
-29.0357
-34.9095
-41.1792
-47.8637
-54.9899
-62.59
-70.6983
-79.3452
-88.5509
-98.3172
-108.619
-119.4
-130.564
-141.978
-153.476
-164.87
77.828
72.9209
68.0576
63.337
58.8413
54.6307
50.7436
47.1995
44.0031
41.1493
38.6268
36.4215
34.5179
32.9014
31.5585
30.4776
29.6494
29.0665
28.7237
28.6173
28.7449
29.1044
29.6927
30.5042
31.5281
32.7458
34.1278
35.6309
37.1971
38.7569
40.2371
41.575
42.7343
43.7157
44.5544
45.3046
46.0176
46.7228
47.4153
48.0515
48.5546
48.8298
48.789
48.3789
47.6016
46.5149
45.2144
43.8064
42.3848
41.0155
39.7285
38.5167
37.339
36.1278
34.8024
33.2867
31.5294
29.5179
27.2795
24.8683
22.3474
19.7729
17.1834
14.5949
11.9993
9.365
6.63916
3.75288
0.629013
-2.80625
-6.61058
-10.8166
-15.4317
-20.447
-25.8499
-31.6343
-37.8077
-44.3935
-51.4304
-58.9698
-67.071
-75.7934
-85.188
-95.2842
-106.078
-117.52
-129.506
-141.875
-154.408
-166.85
78.1444
72.6475
67.2154
61.9865
57.0678
52.5285
48.4036
44.7016
41.4134
38.5192
35.9945
33.8137
31.9528
30.3901
29.1075
28.0905
27.3283
26.8136
26.5426
26.5143
26.7308
27.1957
27.9129
28.8852
30.1101
31.576
33.2562
35.1022
37.039
38.9651
40.7634
42.3266
43.5923
44.5719
45.3474
46.0362
46.7485
47.552
48.452
49.3836
50.2169
50.7801
50.9037
50.4789
49.506
48.0952
46.4218
44.6706
42.9945
41.4941
40.2109
39.1283
38.1761
37.2391
36.1757
34.8483
33.1636
31.1051
28.7339
26.1574
23.4917
20.8335
18.2467
15.7585
13.3604
11.01
8.63301
6.12817
3.37749
0.265799
-3.2931
-7.33541
-11.8477
-16.7882
-22.1137
-27.7979
-33.8411
-40.2719
-47.1453
-54.5387
-62.5464
-71.2711
-80.8113
-91.243
-102.599
-114.852
-127.894
-141.528
-155.466
-169.342
78.5833
72.2774
66.0772
60.1865
54.7453
49.8271
45.4523
41.6062
38.2546
35.3553
32.8651
30.7438
28.9565
27.4739
26.2726
25.3353
24.6496
24.2086
24.0105
24.0578
24.3579
24.9221
25.7647
26.901
28.3435
30.0962
32.1442
34.4412
36.8946
39.3554
41.6266
43.5045
44.8603
45.7202
46.263
46.7321
47.3458
48.2399
49.4413
50.8552
52.266
53.3614
53.8056
53.366
52.039
50.0516
47.7394
45.4246
43.3494
41.6582
40.4028
39.5507
38.9894
38.5308
37.9277
36.9229
35.3347
33.1414
30.4825
27.5737
24.6241
21.7904
19.1671
16.7916
14.6523
12.6926
10.8105
8.85712
6.64558
3.98172
0.720545
-3.17733
-7.64649
-12.5746
-17.86
-23.4434
-29.315
-35.5115
-42.1097
-49.221
-56.9869
-65.572
-75.1479
-85.8667
-97.8266
-111.043
-125.423
-140.74
-156.606
-172.479
79.2071
71.752
64.4903
57.7362
51.667
46.3408
41.7375
37.7966
34.4427
31.6007
29.2028
27.1916
25.52
24.1511
23.0566
22.2163
21.6172
21.253
21.1237
21.2361
21.6035
22.2465
23.1923
24.4744
26.1292
28.1897
30.6721
33.5534
36.7377
40.0172
43.0541
45.4324
46.8403
47.3233
47.2825
47.2178
47.537
48.4833
50.1222
52.3292
54.7669
56.8782
57.9779
57.5287
55.5209
52.4735
49.0587
45.8316
43.1493
41.1929
40.0124
39.5527
39.6535
40.0287
40.2564
39.8362
38.3754
35.847
32.5895
29.0479
25.5883
22.4434
19.73
17.484
15.6847
14.2631
13.0902
11.9573
10.5647
8.55753
5.65093
1.80346
-2.78421
-7.84586
-13.1769
-18.673
-24.3198
-30.1713
-36.3336
-42.9586
-50.2458
-58.4435
-67.8357
-78.7001
-91.2411
-105.552
-121.598
-139.158
-157.728
-176.48
80.1257
70.9444
62.1694
54.2968
47.5159
41.8106
37.0664
33.1394
29.8918
27.2048
24.9823
23.1489
21.6466
20.4319
19.4733
18.749
18.2457
17.9579
17.8879
18.046
18.4514
19.1337
20.1347
21.51
23.3295
25.6743
28.6242
32.228
36.4418
41.0268
45.428
48.7555
50.1502
49.6783
48.3341
47.1489
46.8228
47.7273
49.9825
53.4688
57.7353
61.8492
64.378
63.9334
60.4974
55.4222
50.1058
45.4522
41.9017
39.6087
38.582
38.7457
39.9206
41.7373
43.5164
44.2464
42.9518
39.6011
35.1043
30.4028
26.0982
22.4739
19.6191
17.5319
16.1728
15.4746
15.3115
15.4311
15.3682
14.4281
11.9359
7.84997
2.76061
-2.72896
-8.2557
-13.6849
-19.0291
-24.3827
-29.8898
-35.741
-42.1919
-49.5927
-58.4008
-69.1162
-82.1036
-97.5584
-115.59
-136.115
-158.585
-181.703
81.5465
69.5479
58.5455
49.2828
41.814
35.895
31.2171
27.5029
24.5322
22.1387
20.2004
18.6282
17.3578
16.3431
15.5518
14.9625
14.5628
14.3484
14.3229
14.499
14.8997
15.5611
16.5372
17.9049
19.7724
22.2863
25.6334
30.0226
35.6097
42.299
49.3459
54.8598
56.1457
53.2872
49.1545
45.8406
44.3346
45.0243
48.0682
53.4825
60.9209
69.1002
75.0571
74.643
67.8314
58.7158
50.1962
43.4825
38.8417
36.1993
35.4361
36.481
39.2617
43.4985
48.2854
51.5698
50.4873
45.0037
37.9124
31.1847
25.6275
21.3952
18.4023
16.5308
15.7085
15.9147
17.1252
19.1672
21.434
22.5333
20.5151
15.341
8.88155
2.44148
-3.47466
-8.81868
-13.724
-18.372
-22.9494
-27.6585
-32.7684
-38.7135
-46.2172
-56.2579
-69.4099
-85.8508
-105.986
-130.266
-158.502
-188.788
83.8984
66.7131
52.4139
41.6834
33.8781
28.1901
23.9781
20.7945
18.34
16.4162
14.8902
13.6719
12.6999
11.9317
11.3387
10.9024
10.6125
10.466
10.467
10.628
10.9717
11.5349
12.3748
13.5793
15.2837
17.6972
21.1408
26.0911
33.1886
43.0546
55.469
67.0497
68.1068
58.7282
48.7939
41.9269
38.6824
38.9292
42.7384
50.5791
63.0372
79.5484
94.9074
94.5616
78.4805
61.1487
47.6841
38.5257
32.9023
30.0822
29.6851
31.7154
36.5043
44.4656
55.2161
65.1796
64.358
52.7197
40.1954
30.2799
23.2477
18.5309
15.5696
14.0181
13.7627
14.9077
17.7408
22.5786
29.18
35.1266
33.6379
24.6823
14.9742
6.85734
0.482551
-4.58396
-8.78901
-12.4621
-15.8185
-18.998
-22.1408
-25.5883
-30.3784
-38.9173
-51.9776
-68.8207
-90.4071
-118.718
-155.461
-198.957
88.1489
59.72
41.1406
29.8691
22.8916
18.3588
15.2571
13.0349
11.3829
10.1201
9.13602
8.36052
7.74779
7.26744
6.89938
6.63096
6.4553
6.37061
6.38021
6.49336
6.72709
7.10966
7.68677
8.53301
9.77322
11.6242
14.4776
19.0663
26.7794
40.1382
62.7903
94.3903
95.0925
64.9665
44.0141
32.7949
28.0011
27.7026
31.6015
41.0243
59.3141
91.6525
137.368
137.135
90.9271
58.0101
38.9692
28.4771
22.9248
20.4745
20.4375
22.976
29.1771
41.4143
63.2776
94.3173
93.8021
61.7093
38.7202
25.2216
17.533
13.1379
10.7062
9.63814
9.79993
11.4694
15.4686
23.4497
37.8675
58.4254
57.5119
35.1059
18.7748
8.76432
2.55579
-1.58959
-4.61974
-7.00762
-8.94197
-10.3894
-11.0737
-10.5288
-9.14007
-15.0644
-29.096
-44.9578
-65.1423
-95.0221
-142.691
-214.791
96.5572
38.5403
19.3422
11.8699
8.38356
6.46577
5.26893
4.45365
3.86466
3.42213
3.08106
2.81432
2.60472
2.44112
2.31626
2.22562
2.16678
2.13916
2.14401
2.18479
2.26785
2.40394
2.61089
2.91906
3.3828
4.10699
5.31493
7.54159
12.2391
23.8377
57.2236
166.219
166.466
57.9919
25.2164
14.4089
10.8454
10.4307
12.5084
18.6996
35.3584
84.4894
245.99
245.907
84.2305
34.8878
17.9422
11.3137
8.47951
7.39067
7.48045
8.96156
13.1568
24.4996
58.1226
168.89
168.714
57.5869
23.577
11.796
7.07482
4.9169
3.87886
3.4868
3.66567
4.67571
7.46182
15.0511
37.7117
112.641
112.332
36.7801
13.473
5.1961
1.65794
-0.201088
-1.37517
-2.20599
-2.76616
-2.87937
-1.7763
3.3163
22.6295
20.4639
-3.578
-14.8683
-25.9133
-45.7063
-94.7322
-242.024
-170.398
-180.916
-190.899
-200.242
-208.865
-216.71
-223.745
-229.954
-235.336
-239.901
-243.666
-246.649
-248.867
-250.337
-251.069
-170.803
-181.445
-191.532
-200.955
-209.634
-217.513
-224.563
-230.772
-236.144
-240.693
-244.439
-247.404
-249.607
-251.065
-251.791
-171.628
-182.524
-192.821
-202.405
-211.194
-219.138
-226.213
-232.418
-237.766
-242.279
-245.985
-248.911
-251.081
-252.516
-253.23
-172.902
-184.194
-194.816
-204.642
-213.592
-221.623
-228.726
-234.913
-240.214
-244.664
-248.302
-251.164
-253.282
-254.679
-255.374
-174.677
-186.529
-197.598
-207.749
-216.901
-225.029
-232.144
-238.285
-243.503
-247.852
-251.386
-254.153
-256.193
-257.536
-258.202
-177.032
-189.638
-201.293
-211.845
-221.226
-229.438
-236.529
-242.572
-247.651
-251.845
-255.228
-257.86
-259.792
-261.059
-261.687
-180.088
-193.69
-206.084
-217.104
-226.711
-234.959
-241.952
-247.815
-252.674
-256.641
-259.81
-262.258
-264.045
-265.213
-265.791
-184.035
-198.943
-212.242
-223.768
-233.548
-241.726
-248.495
-254.053
-258.58
-262.223
-265.102
-267.307
-268.907
-269.949
-270.462
-189.176
-205.795
-220.167
-232.171
-241.978
-249.892
-256.24
-261.315
-265.359
-268.56
-271.057
-272.952
-274.317
-275.202
-275.637
-196.014
-214.889
-230.45
-242.761
-252.292
-259.615
-265.247
-269.598
-272.973
-275.591
-277.604
-279.116
-280.197
-280.895
-281.238
-205.445
-227.289
-243.974
-256.122
-264.804
-271.02
-275.525
-278.846
-281.334
-283.217
-284.641
-285.699
-286.451
-286.934
-287.171
-219.211
-244.839
-262.027
-272.937
-279.775
-284.124
-286.976
-288.917
-290.29
-291.291
-292.032
-292.576
-292.962
-293.209
-293.33
-241.108
-270.817
-286.35
-293.814
-297.225
-298.716
-299.326
-299.546
-299.609
-299.615
-299.608
-299.602
-299.6
-299.6
-299.6
-280.755
-310.963
-318.73
-318.731
-316.587
-314.176
-312.051
-310.323
-308.972
-307.942
-307.172
-306.612
-306.223
-305.979
-305.861
-367.198
-373.541
-358.864
-345.779
-336.204
-329.34
-324.366
-320.713
-318.006
-315.996
-314.513
-313.438
-312.692
-312.221
-311.993
152.892
152.686
152.278
151.674
150.888
149.944
148.892
147.817
146.879
146.369
146.842
149.417
156.687
176.209
236.909
156.701
156.501
156.103
155.511
154.734
153.791
152.719
151.592
150.555
149.888
150.132
152.341
158.521
172.092
195.2
160.643
160.448
160.058
159.472
158.691
157.721
156.578
155.299
153.97
152.769
152.054
152.503
155.217
161.348
169.611
164.715
164.526
164.143
163.562
162.774
161.766
160.526
159.037
157.292
155.306
153.162
151.086
149.535
149.116
149.836
168.915
168.732
168.361
167.791
167.003
165.968
164.64
162.947
160.775
157.948
154.218
149.299
143.061
136.089
130.636
173.235
173.063
172.711
172.164
171.398
170.368
169.003
167.185
164.707
161.211
156.094
148.423
137.093
122.002
107.725
177.671
177.513
177.19
176.685
175.969
174.994
173.676
171.876
169.34
165.593
159.738
150.084
133.731
107.344
74.9759
182.21
182.072
181.79
181.347
180.715
179.85
178.678
177.074
174.807
171.434
166.016
156.392
137.332
96.8373
19.8264
186.839
186.726
186.495
186.133
185.617
184.915
183.976
182.724
181.036
178.689
175.208
169.249
155.813
111.685
-88.7237
191.54
191.457
191.286
191.019
190.642
190.137
189.484
188.673
187.717
186.727
186.114
187.291
195.603
235.058
432.451
196.292
196.242
196.137
195.975
195.749
195.454
195.098
194.715
194.413
194.496
195.773
200.371
213.759
248.743
321.979
201.074
201.057
201.023
200.969
200.896
200.808
200.725
200.695
200.836
201.428
203.12
207.338
216.912
235.856
262.459
205.862
205.879
205.914
205.969
206.045
206.152
206.309
206.549
206.938
207.591
208.705
210.579
213.552
217.643
221.508
210.631
210.682
210.786
210.946
211.166
211.456
211.827
212.294
212.85
213.426
213.755
213.051
209.408
199.579
183.339
215.359
215.443
215.613
215.873
216.231
216.695
217.274
217.97
218.741
219.425
219.517
217.554
209.554
185.96
133.989
220.021
220.136
220.369
220.725
221.214
221.846
222.635
223.587
224.683
225.827
226.7
226.243
220.521
192.041
48.6477
224.597
224.741
225.033
225.478
226.089
226.881
227.874
229.096
230.584
232.411
234.799
238.579
247.287
277.916
422.239
229.066
229.237
229.582
230.109
230.832
231.769
232.949
234.415
236.242
238.596
241.925
247.486
258.82
284.828
337.752
233.41
233.604
233.996
234.596
235.416
236.48
237.817
239.475
241.524
244.098
247.493
252.374
260.156
273.039
290.128
237.613
237.827
238.259
238.92
239.824
240.993
242.457
244.256
246.432
249.022
252.021
255.238
257.942
258.321
254.481
241.66
241.89
242.356
243.068
244.039
245.293
246.858
248.767
251.043
253.654
256.39
258.45
257.336
246.523
216.279
245.539
245.783
246.275
247.026
248.05
249.369
251.013
253.017
255.411
258.191
261.221
263.857
263.456
248.211
157.189
249.242
249.495
250.007
250.786
251.846
253.211
254.91
256.987
259.503
262.548
266.317
271.363
279.876
302.513
398.154
252.761
253.021
253.545
254.341
255.423
256.812
258.537
260.647
263.216
266.393
270.517
276.454
286.479
306.11
342.502
256.092
256.355
256.885
257.69
258.779
260.17
261.89
263.978
266.499
269.57
273.451
278.695
286.402
298.057
312.243
259.232
259.497
260.028
260.831
261.915
263.292
264.98
267.002
269.389
272.178
275.43
279.218
283.573
288.238
291.956
262.182
262.445
262.972
263.768
264.838
266.189
267.829
269.765
271.989
274.456
277.028
279.337
280.519
279.068
274.371
264.941
265.201
265.722
266.507
267.557
268.876
270.465
272.32
274.412
276.651
278.801
280.228
279.286
272.143
253.647
267.512
267.768
268.281
269.051
270.08
271.366
272.91
274.703
276.722
278.898
281.068
282.755
282.351
273.092
220.2
269.897
270.149
270.653
271.408
272.413
273.669
275.172
276.922
278.912
281.142
283.661
286.725
291.556
304.333
359.094
272.099
272.347
272.841
273.581
274.564
275.79
277.256
278.965
280.925
283.176
285.868
289.457
295.234
306.409
327.193
274.122
274.365
274.85
275.575
276.538
277.735
279.164
280.825
282.725
284.895
287.445
290.659
295.154
301.803
309.851
275.967
276.206
276.683
277.395
278.339
279.51
280.903
282.512
284.328
286.341
288.55
290.963
293.569
296.215
298.225
277.639
277.875
278.344
279.044
279.972
281.121
282.483
284.047
285.784
287.641
289.505
291.124
291.947
291.057
288.123
279.14
279.372
279.835
280.527
281.442
282.575
283.916
285.452
287.147
288.926
290.623
291.826
291.505
287.311
276.109
280.471
280.701
281.159
281.844
282.751
283.874
285.207
286.738
288.44
290.259
292.076
293.576
293.744
288.423
256.442
281.634
281.862
282.317
282.997
283.899
285.018
286.352
287.896
289.643
291.584
293.74
296.242
299.786
308.039
341.544
282.631
282.858
283.311
283.987
284.886
286.005
287.344
288.906
290.699
292.751
295.154
298.174
302.548
310.108
323.193
283.463
283.688
284.139
284.813
285.71
286.829
288.172
289.746
291.566
293.665
296.131
299.155
303.089
308.331
314.057
284.129
284.354
284.803
285.475
286.37
287.488
288.831
290.408
292.228
294.314
296.712
299.494
302.713
306.209
309.026
284.631
284.855
285.303
285.973
286.866
287.981
289.321
290.891
292.695
294.736
297.018
299.52
302.134
304.549
306.08
284.97
285.193
285.639
286.307
287.197
288.308
289.643
291.204
292.988
294.983
297.164
299.456
301.684
303.492
304.326
285.146
285.368
285.812
286.477
287.364
288.471
289.801
291.353
293.122
295.091
297.222
299.428
301.517
303.102
303.281
285.159
285.38
285.822
286.485
287.368
288.471
289.795
291.342
293.108
295.076
297.22
299.471
301.691
303.68
305.487
285.01
285.23
285.67
286.33
287.208
288.307
289.627
291.172
292.942
294.931
297.135
299.526
302.015
304.374
306.076
284.701
284.919
285.357
286.013
286.887
287.98
289.295
290.837
292.612
294.628
296.912
299.502
302.421
305.516
307.976
284.231
284.449
284.883
285.534
286.403
287.49
288.798
290.333
292.104
294.129
296.466
299.241
302.694
307.088
311.711
283.603
283.819
284.249
284.896
285.758
286.836
288.135
289.657
291.409
293.405
295.708
298.498
302.306
308.491
318.785
282.817
283.031
283.457
284.098
284.952
286.022
287.308
288.813
290.533
292.46
294.602
297.038
300.259
307.03
333.135
281.876
282.086
282.508
283.142
283.988
285.047
286.322
287.811
289.502
291.357
293.284
295.022
295.739
292.132
267.708
280.779
280.987
281.403
282.029
282.865
283.914
285.179
286.661
288.348
290.195
292.088
293.705
294.212
291.681
283.476
279.531
279.736
280.145
280.76
281.585
282.622
283.879
285.361
287.071
288.993
291.075
293.149
294.787
295.161
293.669
278.134
278.333
278.734
279.337
280.147
281.169
282.413
283.896
285.637
287.67
290.058
292.888
296.23
299.927
302.949
276.589
276.784
277.174
277.762
278.552
279.552
280.775
282.242
283.99
286.094
288.726
292.26
297.419
305.153
314.45
274.903
275.091
275.468
276.037
276.803
277.773
278.96
280.385
282.086
284.141
286.76
290.494
296.812
309.284
332.528
273.078
273.258
273.62
274.167
274.902
275.834
276.971
278.329
279.925
281.788
284.012
286.923
291.923
305.924
366.869
271.12
271.291
271.636
272.157
272.857
273.743
274.822
276.1
277.568
279.177
280.78
281.891
280.774
269.955
210.738
269.035
269.197
269.522
270.013
270.673
271.509
272.528
273.733
275.103
276.562
277.88
278.397
276.354
267.588
246.514
266.831
266.982
267.285
267.742
268.358
269.141
270.099
271.242
272.567
274.038
275.529
276.673
276.593
273.762
267.768
264.516
264.654
264.932
265.352
265.919
266.642
267.534
268.616
269.92
271.491
273.41
275.791
278.736
282.124
284.972
262.097
262.222
262.472
262.851
263.364
264.017
264.83
265.831
267.078
268.694
270.964
274.508
280.563
290.853
304.266
259.584
259.695
259.916
260.25
260.701
261.275
261.987
262.866
263.97
265.436
267.624
271.472
279.442
297.402
332.988
256.989
257.083
257.273
257.56
257.943
258.429
259.023
259.739
260.602
261.67
263.124
265.565
271.375
291.703
386.531
254.32
254.399
254.557
254.793
255.108
255.499
255.967
256.503
257.082
257.628
257.931
257.309
253.22
234.258
140.095
251.59
251.653
251.778
251.965
252.21
252.509
252.856
253.231
253.577
253.749
253.373
251.453
245.386
229.031
194.31
248.81
248.857
248.95
249.087
249.265
249.479
249.721
249.971
250.183
250.242
249.88
248.468
244.689
236.551
224.515
245.991
246.022
246.084
246.174
246.288
246.423
246.573
246.732
246.888
247.021
247.11
247.12
247.013
246.771
246.46
243.143
243.16
243.192
243.236
243.29
243.349
243.412
243.488
243.599
243.824
244.387
245.846
249.424
257.031
268.289
240.278
240.28
240.284
240.285
240.28
240.264
240.238
240.212
240.224
240.386
241.034
243.093
249.032
264.747
298.033
237.405
237.394
237.371
237.331
237.269
237.179
237.057
236.905
236.736
236.604
236.696
237.64
241.843
260.252
350.989
234.533
234.51
234.463
234.385
234.271
234.11
233.892
233.604
233.215
232.659
231.759
229.915
224.781
205.522
114.16
231.67
231.638
231.569
231.458
231.297
231.073
230.771
230.366
229.802
228.948
227.472
224.469
217.524
200.859
166.863
228.825
228.784
228.698
228.56
228.36
228.085
227.717
227.232
226.582
225.663
224.24
221.753
217.01
208.225
196.044
226.003
225.956
225.856
225.698
225.468
225.154
224.739
224.207
223.541
222.723
221.742
220.596
219.3
217.944
216.851
223.209
223.157
223.05
222.878
222.629
222.287
221.837
221.271
220.599
219.889
219.353
219.538
221.624
227.476
236.981
220.445
220.392
220.283
220.106
219.847
219.488
219.01
218.402
217.678
216.927
216.46
217.153
221.329
234.464
263.794
217.712
217.662
217.556
217.384
217.129
216.766
216.269
215.61
214.768
213.763
212.755
212.343
214.806
230.2
311.057
215.008
214.964
214.871
214.715
214.478
214.131
213.636
212.939
211.964
210.596
208.631
205.531
199.297
180.469
97.3928
212.33
212.296
212.222
212.096
211.897
211.594
211.138
210.456
209.427
207.839
205.289
200.891
192.529
175.352
143.266
209.67
209.65
209.604
209.522
209.383
209.157
208.792
208.209
207.272
205.745
203.226
198.997
191.88
180.585
166.929
207.02
207.017
207.007
206.981
206.924
206.81
206.594
206.204
205.519
204.336
202.347
199.104
194.128
187.453
181.179
204.367
204.383
204.415
204.456
204.499
204.527
204.511
204.4
204.105
203.483
202.333
200.409
197.552
194.039
191.141
201.697
201.735
201.81
201.925
202.079
202.271
202.491
202.719
202.912
202.993
202.851
202.357
201.428
200.193
199.161
198.998
199.055
199.173
199.361
199.628
199.989
200.46
201.058
201.791
202.652
203.611
204.602
205.512
206.201
206.532
196.253
196.328
196.484
196.736
197.105
197.625
198.337
199.299
200.576
202.237
204.344
206.897
209.746
212.454
214.201
193.452
193.54
193.723
194.024
194.474
195.122
196.037
197.317
199.088
201.509
204.762
208.98
214.074
219.369
223.152
190.587
190.68
190.877
191.203
191.699
192.428
193.48
194.989
197.142
200.199
204.505
210.451
218.258
227.328
234.798
187.653
187.743
187.935
188.259
188.758
189.504
190.602
192.21
194.564
198.016
203.106
210.623
221.559
236.392
251.7
184.651
184.73
184.899
185.187
185.641
186.33
187.365
188.91
191.217
194.691
200.016
208.414
222.151
245.12
279.3
181.592
181.649
181.776
181.997
182.354
182.913
183.77
185.075
187.054
190.075
194.789
202.493
216.327
246.057
330.702
-607.181
-450.159
-394.182
-367.345
-351.691
-341.496
-334.433
-329.357
-325.637
-322.886
-320.856
-319.383
-318.358
-317.709
-317.395
-513.42
-449.629
-406.044
-379.174
-361.97
-350.363
-342.193
-336.268
-331.894
-328.641
-326.227
-324.468
-323.238
-322.458
-322.08
-464.086
-435.057
-406.286
-384.28
-368.354
-356.834
-348.383
-342.093
-337.366
-333.804
-331.135
-329.175
-327.798
-326.921
-326.494
-435.039
-420.295
-401.818
-385.155
-371.671
-361.164
-353.063
-346.824
-342.021
-338.337
-335.542
-333.469
-332.002
-331.063
-330.605
-416.361
-408.114
-396.081
-383.811
-372.911
-363.814
-356.439
-350.549
-345.89
-342.246
-339.438
-337.332
-335.829
-334.863
-334.39
-403.539
-398.552
-390.498
-381.505
-372.89
-365.257
-358.775
-353.409
-349.048
-345.564
-342.836
-340.766
-339.276
-338.312
-337.839
-394.311
-391.109
-385.558
-378.925
-372.179
-365.891
-360.326
-355.563
-351.589
-348.347
-345.769
-343.788
-342.349
-341.412
-340.95
-387.436
-385.289
-381.358
-376.415
-371.141
-366.014
-361.309
-357.16
-353.613
-350.662
-348.277
-346.423
-345.064
-344.174
-343.733
-382.182
-380.697
-377.85
-374.123
-369.992
-365.833
-361.897
-358.331
-355.214
-352.573
-350.408
-348.704
-347.445
-346.615
-346.203
-378.09
-377.043
-374.943
-372.103
-368.855
-365.487
-362.215
-359.182
-356.476
-354.145
-352.208
-350.667
-349.518
-348.757
-348.378
-374.856
-374.109
-372.54
-370.355
-367.791
-365.066
-362.358
-359.796
-357.469
-355.435
-353.723
-352.347
-351.314
-350.625
-350.281
-372.27
-371.738
-370.555
-368.862
-366.829
-364.625
-362.39
-360.237
-358.251
-356.492
-354.995
-353.78
-352.861
-352.245
-351.937
-370.185
-369.81
-368.913
-367.595
-365.979
-364.194
-362.353
-360.552
-358.868
-357.358
-356.06
-354.997
-354.188
-353.644
-353.37
-368.492
-368.233
-367.553
-366.524
-365.237
-363.792
-362.279
-360.777
-359.356
-358.068
-356.95
-356.029
-355.323
-354.846
-354.605
-367.11
-366.94
-366.427
-365.623
-364.598
-363.428
-362.186
-360.938
-359.744
-358.651
-357.695
-356.901
-356.289
-355.874
-355.664
-365.977
-365.876
-365.492
-364.866
-364.049
-363.104
-362.086
-361.052
-360.052
-359.13
-358.316
-357.636
-357.11
-356.751
-356.57
-365.045
-364.998
-364.716
-364.231
-363.583
-362.819
-361.988
-361.133
-360.299
-359.523
-358.834
-358.255
-357.805
-357.497
-357.34
-364.278
-364.273
-364.072
-363.7
-363.187
-362.573
-361.895
-361.19
-360.497
-359.847
-359.266
-358.775
-358.391
-358.128
-357.994
-363.645
-363.674
-363.538
-363.256
-362.854
-362.361
-361.811
-361.231
-360.656
-360.113
-359.625
-359.211
-358.885
-358.661
-358.547
-363.124
-363.179
-363.095
-362.887
-362.573
-362.181
-361.735
-361.26
-360.784
-360.332
-359.923
-359.574
-359.299
-359.109
-359.011
-362.695
-362.772
-362.73
-362.58
-362.34
-362.029
-361.669
-361.28
-360.887
-360.512
-360.17
-359.876
-359.644
-359.483
-359.4
-362.344
-362.438
-362.43
-362.328
-362.146
-361.901
-361.612
-361.294
-360.971
-360.659
-360.373
-360.126
-359.93
-359.793
-359.723
-362.058
-362.166
-362.185
-362.121
-361.986
-361.796
-361.564
-361.304
-361.037
-360.778
-360.538
-360.331
-360.165
-360.049
-359.989
-361.828
-361.947
-361.987
-361.954
-361.857
-361.709
-361.523
-361.311
-361.09
-360.873
-360.672
-360.496
-360.355
-360.257
-360.206
-361.647
-361.775
-361.831
-361.821
-361.754
-361.64
-361.491
-361.316
-361.131
-360.948
-360.778
-360.628
-360.507
-360.422
-360.378
-361.508
-361.642
-361.711
-361.719
-361.674
-361.586
-361.465
-361.319
-361.162
-361.006
-360.859
-360.73
-360.624
-360.55
-360.512
-361.407
-361.545
-361.623
-361.644
-361.615
-361.546
-361.445
-361.32
-361.184
-361.048
-360.919
-360.804
-360.711
-360.645
-360.61
-361.34
-361.482
-361.565
-361.595
-361.576
-361.519
-361.431
-361.32
-361.198
-361.075
-360.958
-360.854
-360.768
-360.708
-360.677
-361.306
-361.449
-361.536