/*--------------------------------*- C++ -*----------------------------------*\
| =========                 |                                                 |
| \\      /  F ield         | OpenFOAM: The Open Source CFD Toolbox           |
|  \\    /   O peration     | Version:  5.x                                   |
|   \\  /    A nd           | Web:      www.OpenFOAM.org                      |
|    \\/     M anipulation  |                                                 |
\*---------------------------------------------------------------------------*/
FoamFile
{
    version     2.0;
    format      ascii;
    class       volScalarField;
    location    "0.5";
    object      gradTx;
}
// * * * * * * * * * * * * * * * * * * * * * * * * * * * * * * * * * * * * * //

dimensions      [0 -1 0 1 0 0 0];

internalField   nonuniform List<scalar> 
6300
(
25628.3
25556.8
25413.3
25197.2
24907.4
24542.8
24102.2
23585
22991.2
22321.7
21579
20767.4
19893.1
18964.7
17993
25698.6
25627.5
25484.8
25269.7
24981.1
24617.5
24177.7
23660.6
23065.8
22393.9
21647
20829
19946.2
19007.2
18023
25838.8
25768.6
25627.5
25414.7
25128.5
24767.4
24329.3
23812.7
23216.4
22540.1
21785
20954.6
20054.6
19093.9
18084.1
26048.1
25979.3
25840.9
25631.7
25349.8
24993
24558.4
24043.5
23445.9
22763.9
21997.4
21148.7
20222.9
19228.7
18179.2
26325.1
26258.3
26123.8
25920.2
25644.9
25295
24866.7
24356
23758.6
23071.1
22291.1
21418.9
20458.4
19418.2
18312.4
26667.6
26603.6
26474.8
26279
26013.5
25674.3
25256.3
24753.9
24160.4
23469.6
22676
21776.5
20772.6
19672.1
18490.9
27072.8
27012.7
26891.3
26706.5
26454.7
26131.1
25729.3
25241.6
24658.5
23969.9
23165.6
22237.5
21182.5
20005.9
18725.2
27536.9
27481.7
27370.1
27199.6
26966.4
26664.7
26287.1
25823.3
25260.9
24584.7
23777.9
22824.4
21712.8
20442.7
19032.1
28054.9
28005.8
27906.4
27754.3
27545.2
27273.2
26929.6
26502.6
25975.9
25328.9
24535.8
23568.3
22400.5
21019.1
19438.2
28620.7
28578.9
28494.3
28364.5
28185.7
27951.9
27654.4
27280.1
26810.1
26217.8
25466.9
24511.5
23300.8
21794
19988.7
29227
29193.6
29126
29022.4
28879.7
28693.1
28454.7
28152
27765.3
27264
26601.2
25708.7
24496.1
22866.2
20765.3
29865.3
29841.1
29792.2
29717.9
29616.4
29484.8
29317.9
29106.4
28833.7
28470.3
27964
27224.7
26107.5
24408.2
21928.5
30526.5
30511.8
30482.6
30439.1
30381.7
30310.3
30224.3
30120.6
29991.5
29818.3
29558.2
29117.5
28299.7
26729.5
23833.6
31200.9
31195.6
31185.7
31172.9
31159.5
31149.1
31146.7
31158.6
31191.9
31251.6
31331.7
31385.8
31242.9
30375
27390.9
31879.1
31882.5
31890.4
31905.7
31932.7
31978.4
32053.4
32173.8
32364.3
32663.2
33129.6
33849.5
34909.4
36135.1
35363.6
17075.8
16227.7
15375.2
14526.4
13689.1
12870.6
12077.1
11313.9
10585.5
9894.9
9244.54
8635.78
8069.26
7544.96
7062.33
6620.38
6217.79
5852.98
5524.14
5229.31
4966.39
4733.14
4527.23
4346.22
4187.58
4048.72
3926.96
3819.65
3724.17
3638
3558.8
3484.45
3413.12
3343.26
3273.59
3203.07
3130.84
3056.16
2978.35
2896.78
2810.87
2720.07
2623.95
2522.19
2414.58
2301.08
2181.7
2056.53
1925.59
1788.84
1646.1
1497.01
1341.07
1177.6
1005.83
824.886
633.889
431.931
218.1
-8.54187
-248.99
-504.337
-775.822
-1064.86
-1373.07
-1702.27
-2054.46
-2431.83
-2836.66
-3271.29
-3738.09
-4239.39
-4777.44
-5354.38
-5972.18
-6632.61
-7337.19
-8087.05
-8882.88
-9724.76
-10612
-11543
-12515.1
-13524.3
-14565.5
-15632.1
-16716.4
-17809.6
-18901.9
-19983.5
17093.3
16233.4
15369.1
14509.1
13661.6
12834
12032.8
11263.5
10530.4
9836.56
9184.2
8574.56
8008.09
7484.61
7003.42
6563.4
6163.12
5800.91
5474.92
5183.14
4923.43
4693.56
4491.17
4313.81
4158.94
4023.9
3905.98
3802.45
3710.59
3627.8
3551.65
3479.96
3410.86
3342.84
3274.67
3205.4
3134.24
3060.53
2983.64
2902.93
2817.79
2727.64
2632
2530.52
2423.02
2309.48
2190.03
2064.8
1933.95
1797.48
1655.25
1506.93
1351.96
1189.64
1019.11
839.465
649.786
449.158
236.691
11.4958
-227.362
-480.914
-750.346
-1037.04
-1342.61
-1668.9
-2017.96
-2392.02
-2793.45
-3224.66
-3688.09
-4186.14
-4721.1
-5295.17
-5910.39
-6568.64
-7271.54
-8020.4
-8816.09
-9658.92
-10548.5
-11483.3
-12461
-13477.7
-14528.2
-15606
-16703
-17809.9
-18916.8
-20012.8
17128.8
16244.6
15356.1
14473.2
13604.6
12758.6
11942.1
11160.5
10418.2
9718.04
9061.94
8450.77
7884.64
7363.02
6884.89
6448.87
6053.33
5696.43
5376.19
5090.54
4837.29
4614.19
4418.86
4248.84
4101.54
3974.24
3864.11
3768.26
3683.8
3607.88
3537.91
3471.56
3406.91
3342.49
3277.2
3210.29
3141.19
3069.37
2994.3
2915.35
2831.83
2743.03
2648.37
2547.44
2440.08
2326.37
2206.61
2081.17
1950.38
1814.41
1673.22
1526.46
1373.51
1213.55
1045.59
868.601
681.566
483.564
273.757
51.3675
-184.399
-434.433
-699.804
-981.827
-1282.1
-1602.5
-1945.19
-2312.54
-2707.06
-3131.33
-3587.93
-4079.38
-4608.07
-5176.31
-5786.25
-6439.95
-7139.27
-7885.83
-8680.92
-9525.32
-10419.1
-11361.4
-12350
-13381.7
-14451.1
-15551.5
-16674.4
-17809.8
-18946.3
-20072.2
17183.5
16261
15334.7
14415.7
13514.6
12640.4
11800.4
11000.5
10244.8
9535.65
8874.55
8261.74
7696.74
7178.45
6705.39
6275.77
5887.62
5538.89
5227.42
4951.04
4707.53
4494.61
4309.91
4150.97
4015.16
3899.67
3801.51
3717.53
3644.51
3579.26
3518.8
3460.55
3402.5
3343.23
3281.93
3218.22
3151.89
3082.76
3010.43
2934.24
2853.34
2766.77
2673.69
2573.55
2466.19
2351.92
2231.34
2105.22
1974.24
1838.88
1699.22
1554.92
1405.22
1249.06
1085.17
912.295
729.252
535.093
329.085
110.657
-120.722
-365.684
-625.088
-900.123
-1192.36
-1503.77
-1836.66
-2193.65
-2577.53
-2991.14
-3437.28
-3918.64
-4437.75
-4997.01
-5598.73
-6245.16
-6938.52
-7680.92
-8474.28
-9320.13
-10219.4
-11172
-12176.7
-13230.5
-14328.7
-15464
-16627.2
-17807.1
-18990.5
-20163.4
17259.3
16282.2
15301.8
14332
13385.3
12472.1
11600.6
10776.5
10003.6
9283.71
8617.21
8003.51
7441.21
6928.44
6463.03
6042.65
5664.9
5327.42
5027.88
4763.99
4533.51
4334.18
4163.69
4019.61
3899.33
3799.96
3718.31
3650.86
3593.88
3543.58
3496.34
3449.12
3399.67
3346.74
3290
3229.75
3166.51
3100.63
3031.97
2959.8
2882.9
2799.79
2709.09
2609.95
2502.21
2386.5
2264.01
2136.21
2004.41
1869.55
1731.93
1591.18
1446.28
1295.74
1137.8
970.721
793.06
603.812
402.44
188.752
-37.3175
-275.953
-527.664
-793.434
-1074.8
-1373.84
-1693.17
-2035.78
-2404.9
-2803.79
-3235.6
-3703.21
-4209.26
-4756.2
-5346.42
-5982.38
-6666.72
-7402.18
-8191.56
-9037.53
-9942.27
-10907.1
-11932
-13015.1
-14152
-15335.5
-16555.4
-17798.5
-19048.9
-20289.4
17359.4
16307.2
15252.9
14214.3
13206.9
12243.1
11331.8
10478.4
9685.73
8954.41
8283.46
7670.87
7114.02
6609.93
6155.55
5747.85
5383.94
5061.09
4776.77
4528.63
4314.43
4132.01
3979.23
3853.81
3753.22
3674.58
3614.48
3568.94
3533.49
3503.31
3473.72
3440.73
3401.69
3355.59
3302.97
3245.44
3184.8
3122.36
3058.42
2992.05
2921.29
2843.6
2756.56
2658.63
2549.62
2430.76
2304.3
2172.91
2038.98
1904.18
1769.16
1633.44
1495.52
1353.15
1203.65
1044.48
873.665
690.112
493.665
284.829
64.3475
-167.215
-409.804
-664.086
-931.541
-1214.47
-1515.91
-1839.48
-2189.11
-2568.76
-2982.04
-3432.1
-3921.55
-4452.7
-5027.84
-5649.55
-6320.87
-7045.32
-7826.9
-8669.81
-9578.09
-10555.1
-11603
-12721.5
-13907.5
-15153.9
-16449.6
-17778.5
-19121
-20454.3
17488.2
16334.4
15180.7
14051
12965.2
11938.1
10978.9
10092.2
9279
8537.72
7865.26
7257.64
6710.51
6219.54
5780.56
5389.74
5043.59
4739.04
4473.37
4244.18
4049.37
3887
3755.21
3652.07
3575.35
3522.33
3489.5
3472.35
3465.33
3462.03
3455.81
3440.92
3413.73
3373.64
3322.88
3265.45
3205.53
3146.12
3088.22
3030.49
2969.53
2900.74
2819.6
2723.17
2611.13
2485.87
2351.64
2213.21
2074.77
1939.13
1807.4
1678.87
1551.23
1420.86
1283.51
1135.12
972.712
795.098
602.867
397.823
182.13
-42.4211
-274.916
-515.563
-765.786
-1028.2
-1306.53
-1605.37
-1929.83
-2284.97
-2675.22
-3103.94
-3573.45
-4085.47
-4641.82
-5244.9
-5898.07
-6605.77
-7373.47
-8207.44
-9114.37
-10100.7
-11171.6
-12330.1
-13575.2
-14900.9
-16295.1
-17738.4
-19205.2
-20664.9
17652.8
16360.8
15073.1
13823.6
12638.5
11534.8
10521.2
9599.79
8768.23
8021.5
7353.3
6756.92
6225.83
5753.99
5335.97
4967.04
4643.12
4360.8
4117.21
3910.05
3737.41
3597.76
3489.77
3412.1
3363.2
3340.86
3341.77
3361.02
3391.67
3424.78
3450.23
3458.64
3444.21
3406.88
3352.24
3288.89
3225.35
3167.56
3117.64
3073.42
3028.9
2975.52
2904.54
2810.09
2691.57
2553.82
2404.94
2253.48
2106.48
1968.45
1841.02
1723.06
1610.88
1498.67
1379.35
1246.01
1093.76
921.245
730.651
526.291
312.826
93.9809
-128.102
-353.052
-582.255
-818.794
-1067.37
-1334.11
-1626.08
-1950.34
-2312.7
-2716.73
-3163.77
-3654.08
-4188.15
-4767.74
-5396.34
-6079.38
-6824.14
-7639.55
-8535.84
-9523.8
-10613.6
-11813.3
-13126.1
-14548.7
-16068.9
-17663.8
-19299
-20931.1
17863.9
16380.3
14909.9
13502.8
12193.9
11001.2
9930.27
8977.58
8134.91
7391.83
6737.56
6161.86
5655.55
5210.67
4820.46
4479.29
4182.56
3926.57
3708.44
3526.01
3377.78
3262.79
3180.49
3130.57
3112.65
3125.74
3167.48
3233.11
3314.32
3398.42
3469
3509.09
3507.48
3464.91
3393.97
3312.47
3236.71
3177.53
3138.7
3116.65
3100.87
3075.48
3023.15
2931.52
2799.57
2637.73
2461.87
2287.26
2125.26
1982.47
1861
1758.95
1670.62
1586.77
1495.44
1384.21
1244.09
1073.53
878.381
668.003
451.418
235.209
23.0186
-184.222
-387.949
-591.822
-801.807
-1026.26
-1275.55
-1560.54
-1889.88
-2267.25
-2691.46
-3159.31
-3668.59
-4219.62
-4815.84
-5463.71
-6172.63
-6954.73
-7824.79
-8799.68
-9897.04
-11132.9
-12518.1
-14055.3
-15734.6
-17530.1
-19396.2
-21268.6
18138.8
16380
14654.7
13040.3
11581.1
10291.9
9168.54
8196.56
7357.81
6633.98
6008.38
5466.58
4996.55
4588.38
4234.1
3927.35
3663.14
3437.64
3248.07
3092.58
2970.15
2880.58
2824.42
2802.82
2817.31
2869.22
2958.63
3082.63
3232.62
3391.38
3531.5
3619.44
3629.56
3563.62
3450.73
3327.6
3224.04
3158.01
3135.42
3150.7
3186.51
3214.09
3198.19
3110.87
2950.48
2741.71
2516.92
2302.81
2116.31
1965.75
1853.04
1775.1
1723.92
1685.67
1640.28
1564.06
1438.34
1261.34
1048.15
818.783
589.606
370.804
167.181
-20.2659
-193.23
-355.827
-515.166
-682.403
-873.321
-1106.58
-1397.59
-1750.04
-2155.97
-2604.58
-3088.54
-3606.08
-4160.57
-4759.77
-5415.32
-6142.82
-6962.32
-7898.66
-8980.47
-10236.7
-11690.9
-13356.3
-15232.1
-17294.1
-19483.7
-21701.8
18507
16330.8
14238.9
12353.7
10722.8
9343.31
8188.25
7223.18
6414.8
5734.32
5158.2
4667.72
4248.21
3888.28
3579.12
3313.99
3087.79
2896.81
2738.5
2611.39
2515.06
2450.15
2418.45
2422.98
2467.96
2558.55
2699.85
2894.55
3138.16
3411.03
3668.96
3841.68
3860.99
3729.77
3522.08
3314.37
3157.16
3075.75
3077.45
3155.01
3283.8
3415.15
3475.87
3395.28
3170.93
2868.59
2556.5
2278.5
2055.55
1894.47
1794.97
1752.71
1758.61
1794.9
1829.54
1815.26
1706.52
1501.35
1241.31
969.407
712.981
484.683
288.208
123.009
-13.2474
-124.311
-216.918
-304.184
-409.857
-569.149
-816.528
-1155.49
-1558.71
-1998.6
-2459.84
-2938.97
-3440.55
-3974.31
-4554
-5197.98
-5931.16
-6787.66
-7812.14
-9055.05
-10558.9
-12353.9
-14460.6
-16873.6
-19529.2
-22272.1
19021.7
16159.5
13524.6
11300.4
9501.91
8071.19
6934.12
6023.92
5287.34
4684.13
4184.47
3766.43
3413.88
3114.88
2860.56
2644.4
2461.6
2308.8
2183.87
2085.76
2014.6
1971.78
1960.21
1984.77
2052.82
2174.74
2364.04
2635.92
3001.41
3452.02
3928.95
4284.63
4308.99
4005.83
3593.28
3228.24
2980.95
2873.64
2910.07
3085.37
3377.19
3717.71
3956.85
3886.47
3503.47
3009.38
2546.85
2174.85
1905.63
1734.49
1654.47
1660.97
1749.58
1906.52
2089.29
2202.55
2113.61
1820.45
1451.65
1097.84
795.965
552.862
364.341
224.764
130.637
80.8272
73.8699
100.796
131.106
95.4333
-103.263
-468.081
-908.343
-1361.57
-1805.1
-2239.22
-2673.89
-3122.39
-3599.77
-4124.32
-4721.96
-5434.29
-6328.72
-7497.07
-9006.84
-10902
-13247.2
-16103.1
-19448.1
-23052.7
19789.5
15659.9
12218.4
9633.53
7750.96
6375.73
5352.9
4574.31
3967.59
3484.59
3092.98
2770.67
2502.29
2276.97
2086.95
1926.64
1792.09
1680.58
1590.5
1521.24
1473.26
1448.3
1449.85
1483.85
1560.02
1693.78
1909.21
2242.38
2741.94
3454.96
4363.33
5204.48
5228.41
4439.21
3595.88
2972.4
2603
2464.36
2542.56
2847.77
3400.21
4166.03
4883.24
4827.6
3995.73
3104.54
2406.72
1923.08
1614.39
1443.25
1389.36
1450.99
1642.14
1980.98
2449.15
2881.07
2814.81
2248.56
1640.46
1151.59
794.406
542.55
370.115
261.209
210.864
224.443
316.087
501.164
767.393
995.108
849.563
328.298
-239.003
-738.239
-1163.6
-1538.42
-1887.04
-2228.58
-2577.28
-2945.05
-3347.23
-3818.23
-4450.35
-5446.9
-6899.27
-8801.47
-11297.7
-14627.7
-18992
-24185.3
21043.9
14168.9
9677.87
6954.78
5269.06
4172.55
3419.72
2877
2469.48
2153.3
1901.57
1697.11
1528.56
1388.14
1270.46
1171.72
1089.29
1021.42
967.094
926.021
898.689
886.591
892.667
922.154
984.218
1095.15
1284.74
1609.1
2174.98
3176.41
4894.27
7300.88
7318.47
4950.33
3281.69
2350.55
1892.58
1742.72
1847.97
2253.98
3115.7
4684.05
6922.2
6886.14
4573.14
2921.03
1958.03
1419.28
1125.03
983.127
957.852
1054.52
1322.04
1869.21
2861.24
4277.01
4236.01
2736.97
1657.65
1015.75
641.252
417.952
284.5
213.435
199.168
255.807
423.961
784.941
1459.48
2432.68
2343.83
1191.32
332.623
-221.031
-594.689
-875.111
-1110.17
-1324.24
-1527.09
-1715.95
-1873.01
-1969.7
-2046.7
-2739.8
-4143.37
-5845.03
-8146.8
-11662.2
-17341.3
-25972.2
23316
9244.15
4591.09
2781.88
1938.44
1474.27
1183.83
984.859
839.727
729.08
641.98
571.784
514.235
466.495
426.62
393.263
365.494
342.706
324.557
310.966
302.139
298.671
301.737
313.503
338.004
383.183
466.13
627.986
980.691
1866.07
4433.18
12837.1
12843.6
4453.92
1905.34
1047.21
738.398
653.591
720.186
1003.82
1813.42
4237.21
12235.5
12223
4198.52
1745
898.31
563.309
416.235
355.032
350.743
411.99
599.246
1116.85
2663.15
7770.69
7756.8
2621.01
1044.99
494.885
270.419
164.022
109.107
83.9418
85.4543
126.709
254.328
617.433
1721.86
5400.18
5370.3
1631.66
465.239
37.178
-159.876
-276.985
-363.395
-435.893
-496.855
-532.411
-485.465
-149.095
1244.73
990.971
-957.702
-2024.01
-3247.8
-5580.26
-11439.3
-29087.4
-21147.3
-22374.7
-23541.6
-24635.3
-25645.9
-26566.5
-27392.6
-28122.3
-28755.2
-29292.4
-29735.5
-30086.6
-30347.9
-30521
-30607.2
-21191.8
-22434.3
-23613.8
-24717.4
-25735.1
-26659.9
-27488.1
-28218
-28849.9
-29385.3
-29826.3
-30175.4
-30434.9
-30606.7
-30692.3
-21282.6
-22555.8
-23761.1
-24884.5
-25916
-26849.1
-27680.8
-28410.7
-29040.2
-29571.6
-30008.1
-30352.8
-30608.5
-30777.7
-30861.8
-21423.1
-22744.5
-23989.4
-25142.7
-26194.2
-27138.6
-27974.4
-28702.9
-29327.3
-29851.7
-30280.6
-30618
-30867.7
-31032.5
-31114.4
-21619.3
-23008.7
-24308.4
-25501.6
-26578.5
-27535.7
-28374.1
-29098.1
-29713.4
-30226.4
-30643.4
-30969.9
-31210.6
-31369.1
-31447.7
-21880.6
-23361.6
-24732.9
-25975.8
-27081.7
-28050.4
-28887.3
-29600.8
-30200.5
-30695.9
-31095.5
-31406.4
-31634.7
-31784.4
-31858.6
-22221.2
-23823.1
-25284.9
-26585.9
-27720.9
-28695.8
-29522.7
-30216.2
-30790.9
-31260.1
-31635
-31924.6
-32136
-32274.2
-32342.5
-22663.4
-24423.9
-25996.7
-27361
-28519.3
-29488.2
-30290.4
-30949.2
-31485.7
-31917.4
-32258.6
-32519.9
-32709.4
-32832.8
-32893.6
-23242.7
-25211.3
-26915.9
-28340.9
-29505.8
-30446.2
-31200.4
-31803.4
-32283.9
-32664.2
-32960.7
-33185.7
-33347.7
-33452.8
-33504.4
-24018.7
-26261.8
-28113.5
-29579.9
-30715.9
-31588.9
-32260.4
-32779.1
-33181.4
-33493.3
-33733.1
-33913.1
-34041.9
-34124.9
-34165.7
-25097.4
-27702.3
-29695.3
-31148.1
-32187.5
-32932
-33471.9
-33869.8
-34167.9
-34393.4
-34563.9
-34690.5
-34780.4
-34838.2
-34866.5
-26685.7
-29753.6
-31816.2
-33128.4
-33952.9
-34478.5
-34823.8
-35059.2
-35225.9
-35347.3
-35437.2
-35503.2
-35549.8
-35579.8
-35594.4
-29236
-32808.8
-34686.1
-35595.1
-36015.9
-36203.9
-36284.1
-36316.1
-36327.7
-36331.5
-36332.9
-36333.8
-36334.6
-36335.3
-36335.7
-33898.4
-37558.1
-38522.7
-38548.4
-38310.3
-38035.5
-37791.2
-37592
-37435.9
-37316.8
-37227.8
-37163
-37118.1
-37089.9
-37076.2
-44148.5
-45001.2
-43296.7
-41763.7
-40640.2
-39834.9
-39251.6
-38823.2
-38506
-38270.5
-38096.8
-37971
-37883.6
-37828.4
-37801.8
32496.3
32506.5
32528.4
32565.3
32622.9
32710.3
32841.4
33038.6
33338.1
33802
34543.7
35794.6
38116.9
43244.4
58054.3
33049.4
33064.6
33096.8
33149.4
33228.6
33344.1
33510.8
33752.6
34108.2
34643.3
35474.3
36817.4
39083.3
42982.1
48898.8
33590.8
33609.9
33649.8
33713.9
33808
33941.1
34126.9
34386.4
34752.5
35277.9
36048.1
37198.2
38914.3
41316.8
43869
34117.8
34139.7
34184.9
34256.5
34359.2
34500.4
34690.6
34945
35285
35741.3
36356.6
37184.6
38267.4
39545.9
40628.6
34628.6
34652.2
34700.7
34776.2
34882.4
35024.4
35208.7
35443
35735.5
36092.9
36516.2
36992.7
37483.3
37909.4
38157.5
35121.9
35146.4
35196.4
35273.3
35379.6
35517.9
35690.8
35899.3
36139.7
36397.5
36637.6
36789.7
36742.6
36395.3
35875.8
35596.9
35621.8
35672.2
35748.9
35853.2
35986
36146.9
36332.4
36530.5
36713
36818.7
36723.8
36208.9
34999.5
33250.9
36053.6
36078.5
36128.5
36204.1
36305.8
36433.3
36585
36755.3
36930.8
37080.7
37137.6
36948.2
36156.4
33976.9
29429
36491.8
36516.4
36565.8
36640
36739.1
36862.6
37008.8
37173.5
37347.4
37511.7
37626.4
37589.7
37066.2
34597.7
22466.6
36911.8
36936.1
36984.5
37057.3
37154.2
37274.9
37418.6
37583.9
37769.4
37975.9
38218.8
38567.8
39325.3
41927.5
54090.3
37313.9
37337.7
37385.2
37456.5
37551.4
37669.9
37812.1
37979.2
38175.2
38413.6
38736.3
39260.7
40302.2
42616.3
47186.2
37698.3
37721.6
37768.1
37837.9
37930.9
38047.1
38187.2
38353.1
38550
38791.4
39112.4
39593.1
40393.9
41737
43474.3
38065.3
38088.1
38133.7
38201.9
38292.8
38406.4
38543.1
38704.3
38892.3
39112.6
39376.4
39701.6
40107.5
40582.6
40987.7
38415.4
38437.7
38482.2
38548.9
38637.6
38748.2
38880.9
39035.4
39210.8
39402.2
39596.2
39752.5
39771.7
39475.1
38801.5
38748.8
38770.6
38814
38879.1
38965.7
39073.4
39202.2
39351
39516.5
39688.7
39840.9
39897
39653.9
38628
36166.5
39065.9
39087.1
39129.6
39193.1
39277.6
39382.7
39508.3
39653.6
39815.9
39987.8
40150.9
40247.9
40078.2
38776.5
31841.2
39367.1
39387.8
39429.2
39491.2
39573.6
39676.4
39799.5
39943.1
40106.9
40291.8
40505.2
40782.4
41287.3
42835.7
49878
39652.6
39672.8
39713.2
39773.7
39854.2
39954.6
40075.4
40217.2
40381.7
40574.4
40813.9
41157.1
41770.1
43078
45666.3
39923
39942.7
39982
40040.9
40119.3
40217.3
40335.3
40474.1
40635.4
40823.1
41049.2
41342.7
41768.7
42429.2
43272.2
40178.5
40197.6
40235.8
40293.1
40369.4
40464.8
40579.5
40714.2
40869.1
41043.8
41236
41434.7
41603
41651.9
41483.6
40419.4
40438
40475.2
40530.8
40604.8
40697.4
40808.7
40938.9
41087.5
41250.8
41416.9
41546.2
41518.6
41023.8
39598.1
40646.3
40664.4
40700.3
40754.2
40825.9
40915.6
41023.3
41149.6
41294.1
41454.3
41622
41765.1
41757
41040.3
36742.6
40859.5
40877
40911.8
40963.9
41033.2
41119.8
41223.9
41346.4
41488.2
41651.2
41842.8
42087.2
42486
43541.9
48030.1
41059.4
41076.3
41109.9
41160.2
41227
41310.3
41410.6
41528.5
41665.8
41826.8
42025.5
42300.4
42757.4
43658.4
45346.3
41246.5
41262.7
41295.1
41343.6
41407.8
41487.8
41583.7
41695.8
41825.3
41974.9
42154
42385.5
42718.9
43226.9
43854.1
41421
41436.7
41467.9
41514.6
41576.3
41652.9
41744.2
41849.9
41969.3
42101.2
42244.7
42398.3
42557.9
42711
42816.6
41583.5
41598.7
41628.8
41673.7
41733.1
41806.5
41893.5
41993.1
42103.1
42218
42327.1
42405.3
42399.9
42226.7
41871.6
41734.4
41749
41778.1
41821.4
41878.7
41949.3
42032.8
42127.9
42231.8
42337.5
42429.5
42468.9
42357.1
41867.2
40699
41873.9
41888.1
41916.2
41958.2
42013.5
42081.9
42162.8
42255.4
42357.7
42465
42567.3
42636.1
42575.2
41977.3
38734.1
42002.5
42016.2
42043.5
42084.2
42137.9
42204.4
42283.5
42375
42478.7
42594.7
42726.9
42891.8
43165
43922.8
47233.5
42120.3
42133.7
42160.2
42199.8
42252.1
42316.9
42394.4
42484.9
42589.6
42711.8
42862.5
43071
43416.9
44094.1
45352.4
42227.8
42240.8
42266.7
42305.2
42356.2
42419.4
42495
42583.6
42686.8
42808
42956.6
43153.2
43437.6
43860.7
44363.1
42325.2
42337.8
42363.1
42400.7
42450.3
42511.9
42585.3
42671.2
42770.1
42883.7
43016
43173.2
43360.8
43570.7
43740.6
42412.6
42425
42449.7
42486.4
42534.9
42594.8
42665.9
42748.3
42841.8
42945.2
43057
43170.7
43267.2
43307.4
43253.8
42490.3
42502.5
42526.7
42562.7
42610.2
42668.6
42737.6
42816.7
42904.9
42999.5
43095.5
43178.6
43211.5
43107.9
42747.4
42558.4
42570.4
42594.3
42629.8
42676.5
42733.7
42801
42877.6
42962.2
43051.7
43141.7
43219.9
43249.4
43085.6
42008.5
42617
42629
42652.7
42687.9
42734.1
42790.6
42856.8
42931.9
43014.4
43102.4
43194.7
43293.6
43420.1
43696
44813.1
42666.3
42678.2
42702
42737.1
42783.2
42839.6
42905.4
42979.9
43061.5
43148.7
43241.9
43346.8
43485.7
43721
44137.3
42706.2
42718.2
42742.1
42777.5
42823.9
42880.6
42946.9
43021.6
43103.3
43189.6
43279.6
43374.9
43483
43618.8
43768.2
42736.7
42748.9
42773.1
42809
42856.1
42913.9
42981.4
43057.5
43140.4
43226.6
43312.5
43392.6
43459.7
43505.7
43520.4
42757.8
42770.2
42794.8
42831.5
42879.8
42939.1
43008.8
43087.7
43173.7
43262.6
43348
43417.7
43449.7
43412.8
43300.3
42769.2
42781.8
42807.1
42844.7
42894.5
42956
43028.7
43111.9
43203.6
43299.9
43393.3
43467.7
43486.1
43370.5
43019.4
42770.8
42783.8
42809.7
42848.4
42899.8
42963.8
43040.3
43129.1
43229.1
43337.8
43450.6
43555.1
43614.2
43490.1
42511.7
42762.5
42775.7
42802.3
42842.1
42895.3
42962
43042.5
43137.4
43247.2
43371.9
43512.7
43672.6
43868.4
44201.3
45286.7
42743.9
42757.5
42784.6
42825.4
42880.2
42949.4
43033.7
43134.5
43253.6
43393.6
43560.3
43764.2
44026.3
44389.1
44884.1
42715.1
42728.8
42756.4
42798
42854
42925.1
43012.5
43118
43244.4
43395.9
43581.2
43814.2
44113.4
44484.4
44839.1
42675.8
42689.6
42717.4
42759.5
42816.3
42888.6
42977.9
43086.1
43216.4
43373.7
43568.1
43817.3
44149.8
44590.3
45053.9
42626
42639.8
42667.6
42709.7
42766.6
42839.3
42929.1
43038
43168.6
43324.9
43515.9
43761.5
44110.6
44679.1
45603.8
42565.8
42579.4
42606.8
42648.5
42705
42777.2
42866.3
42974
43101.9
43251.1
43425.1
43632.8
43918
44519.7
46808.9
42495.2
42508.5
42535.3
42576.1
42631.4
42702.3
42789.8
42895.3
43019.1
43159.4
43310
43449.3
43505
43187.4
41053.3
42414.5
42427.3
42453.2
42492.5
42546.1
42614.9
42700.1
42803
42923.8
43059.8
43202
43323
43350.4
43115.9
42390.8
42324.2
42336.3
42360.8
42398.2
42449.2
42515.1
42597.3
42697.5
42816.9
42955
43107.9
43261
43376.9
43384.5
43236.6
42224.6
42235.8
42258.5
42293.3
42341.1
42403.2
42481.3
42578
42696
42839.1
43012.8
43224.1
43477.8
43760.5
43991.2
42116.4
42126.5
42147
42178.6
42222.1
42279.1
42351.7
42442.8
42556.9
42701.2
42890.9
43156.8
43557.9
44171.7
44917.6
42000.4
42009.2
42027
42054.6
42092.9
42143.4
42208.3
42290.9
42395.8
42531.1
42715.4
42994.9
43489.7
44490.5
46373.3
41877.5
41884.7
41899.4
41922.3
41954.2
41996.8
42052.1
42122.9
42212.6
42326.1
42473.2
42682.5
43069.3
44195.9
49148
41748.8
41754.2
41765.3
41782.7
41807.3
41840.5
41884.3
41940.9
42012.1
42097
42187.1
42246
42134.6
41244.1
36422.2
41615.5
41618.9
41626
41637.2
41653.4
41676
41706.8
41748
41801.1
41863.7
41921.8
41927.2
41740.2
41021.7
39309.2
41479
41480.3
41482.9
41487.4
41494.3
41505
41521.4
41546.2
41582.7
41632.6
41692.6
41741.2
41714.4
41489.2
41017.7
41340.9
41339.8
41337.7
41334.9
41331.6
41329.1
41329.3
41335.7
41354
41393.9
41470.8
41606.8
41825.9
42127.1
42409.4
41202.7
41199.2
41192.2
41181.7
41167.6
41150.6
41132.1
41116
41109.6
41128.6
41207.1
41414.2
41879.7
42777.8
44007.8
41066.1
41060.3
41048.3
41030
41004.6
40972
40932.7
40888.8
40846.5
40821.5
40853.4
41041.3
41632.5
43197.6
46471.3
40932.7
40924.6
40908.1
40882.2
40845.7
40797.3
40735.6
40659.7
40570.5
40473.9
40390.8
40387.7
40708.5
42430.4
51219.3
40804
40794
40773.3
40740.7
40694.2
40631
40547.4
40438.9
40298.7
40116.3
39871.7
39508.4
38810.9
36755.1
27749.1
40681.4
40669.8
40646
40608
40553.3
40477.7
40375.8
40239.3
40055.3
39801.1
39434.2
38860.5
37855.7
35905.4
32370.4
40565.8
40553.3
40527.4
40486
40425.7
40341.8
40227.4
40072
39859.5
39563.4
39139.4
38510.9
37556.3
36155.1
34549.9
40458
40445.2
40418.6
40375.9
40313.5
40226.2
40106.4
39943.3
39720.6
39413.6
38985.8
38386.9
37566.1
36545.7
35628
40358.1
40345.8
40320
40278.5
40217.6
40132
40014.6
39855.1
39639.2
39346.6
38950.2
38415.9
37713.6
36864.1
36082.6
40265.8
40254.6
40231.3
40193.4
40137.6
40059
39950.9
39805
39609.9
39350.8
39009.5
38560.6
37962.6
37134.4
36008.4
40180.2
40171
40151.5
40119.7
40072.4
40005.2
39912.6
39788.1
39623.7
39411.1
39142.3
38807.7
38370.7
37611
35166.8
40100
40093.3
40079.2
40055.6
40019.7
39967.8
39895.5
39797.7
39669.9
39509.1
39319.9
39124.7
39001.9
39256.5
41370.5
40023.3
40019.9
40012.3
39998.8
39976.9
39943.5
39894.8
39827.2
39737.5
39625.7
39500.4
39390
39369.6
39609.1
40332.2
39947.8
39948.2
39948.3
39946.6
39940.9
39928.5
39906.2
39870.8
39819.2
39750.5
39669.2
39591.5
39555.3
39623.8
39814.3
39871
39875.6
39884.4
39895.9
39908.3
39919.2
39925.6
39924.3
39911.4
39882.6
39834.2
39762.7
39666.7
39552.1
39447.2
39789.7
39799.1
39817.2
39843.2
39875.4
39911.6
39949.2
39984.7
40013.2
40027
40013.7
39949.5
39789.5
39472.1
39026.2
39700.9
39715.2
39743.5
39784.9
39838.2
39901.7
39972.9
40048.7
40123.7
40188.9
40227.3
40201.2
40020.2
39479.6
38314.6
39600.8
39620.4
39659.3
39717
39792.6
39885
39992.2
40111.9
40239.5
40367.8
40484.2
40558.8
40499.2
39919.2
36813.3
39486
39511
39560.8
39635.2
39734
39856.5
40001.7
40168.2
40353.3
40553.7
40768.6
41008.1
41338
42111.4
45296.7
39352.7
39383
39443.8
39535.2
39657.5
39810.8
39995.2
40210.2
40454.8
40728.1
41034.3
41392.9
41867.4
42626.9
43890.5
39197.1
39232.6
39304.1
39412.2
39557.9
39742.2
39966.2
40230.4
40534.6
40878
41262.4
41695.4
42197.2
42790.6
43382.3
39015.5
39056
39137.7
39261.8
39430
39644.6
39907.8
40221.4
40585.5
40998.1
41455.1
41948.4
42461.7
42953.8
43305.8
38804.6
38849.6
38940.4
39079.1
39268.5
39511.9
39813.2
40175.8
40601
41085.9
41621.1
42185.7
42739.4
43212.3
43494.7
38561.3
38609.9
38708.6
38859.9
39067.8
39337.4
39674.7
40085.5
40573.5
41137.1
41765.2
42429
43071.6
43601.6
43900.4
38282.8
38334.2
38438.7
38599.8
38822.7
39114.5
39483.8
39940.1
40491.8
41141.9
41883.1
42685.3
43480.3
44149.6
44534.6
37967.5
38020.4
38128.3
38295.4
38528.3
38836.2
39231.1
39727.2
40340
41081.9
41957.1
42945
43974.6
44893.4
45457.1
37614.1
37667
37775.2
37943.7
38180.2
38496.1
38906.7
39432.1
40096.7
40927.9
41951.4
43173.8
44544.3
45882
46792
37222.7
37274
37379
37543.3
37775.6
38088.7
38501.3
39038.8
39736
40638.8
41806
43298.2
45135.3
47165.7
48779.8
36794.5
36842.2
36940.3
37094.2
37313.2
37610.9
38007.8
38533.4
39230.9
40164.7
41433.3
43181.2
45590.5
48736.8
51909.2
36331.9
36374.2
36461.3
36598.5
36794.6
37062.9
37423.6
37907.2
38560
39456.7
40726.3
42603.3
45532.3
50288
57262.5
35838.7
35873.8
35946.2
36060.5
36224.3
36449.2
36752.9
37162.1
37718
38488.2
39595.9
41293.2
44204
50296.5
67479.6
-72882.8
-54166.3
-47514
-44333.9
-42482.9
-41279.4
-40446.5
-39848.6
-39410.6
-39086.9
-38848.2
-38674.9
-38554.3
-38478.1
-38441.2
-61718
-54118.7
-48935.4
-45746
-43707.4
-42334
-41368.3
-40668.7
-40152.7
-39769
-39484.6
-39277.2
-39132.3
-39040.5
-38995.9
-55847
-52391.6
-48970.6
-46357.5
-44468.8
-43104.1
-42104.1
-41360.4
-40801.9
-40381.2
-40066.3
-39835
-39672.5
-39569.1
-39518.7
-52392.2
-50639.1
-48443.2
-46464.6
-44865
-43619.8
-42660.6
-41922.3
-41354.3
-40919
-40588.7
-40343.8
-40170.6
-40059.8
-40005.7
-50171.7
-49192.6
-47763.5
-46307
-45014
-43935.7
-43062.2
-42364.8
-41813.7
-41382.6
-41050.7
-40801.7
-40624.2
-40510
-40454.2
-48648
-48057
-47101.4
-46034.4
-45012.8
-44108
-43340.1
-42704.7
-42188.6
-41776.4
-41453.8
-41208.9
-41032.8
-40918.8
-40862.9
-47551.7
-47173.2
-46515.2
-45728.9
-44929.2
-44184
-43524.7
-42960.7
-42490.3
-42106.7
-41801.6
-41567.3
-41397.1
-41286.3
-41231.7
-46735.1
-46482.1
-46016.8
-45431.3
-44806.4
-44199
-43641.9
-43150.6
-42730.6
-42381.3
-42099.2
-41879.8
-41719.1
-41613.8
-41561.7
-46111.2
-45936.9
-45600.5
-45159.5
-44670.4
-44177.9
-43711.8
-43289.7
-42920.8
-42608.2
-42352
-42150.4
-42001.4
-41903.2
-41854.5
-45625.2
-45503
-45255.5
-44919.8
-44535.6
-44137.2
-43749.9
-43390.8
-43070.6
-42794.9
-42565.6
-42383.3
-42247.4
-42157.3
-42112.4
-45241.2
-45154.7
-44970.3
-44712.5
-44409.5
-44087.3
-43767
-43463.8
-43188.6
-42948
-42745.4
-42582.7
-42460.4
-42378.9
-42338.2
-44934.2
-44873.2
-44734.6
-44535.3
-44295.4
-44035
-43770.8
-43516.3
-43281.5
-43073.5
-42896.3
-42752.7
-42644
-42571.2
-42534.7
-44686.6
-44644.2
-44539.6
-44384.8
-44194.5
-43983.9
-43766.5
-43553.8
-43354.8
-43176.3
-43022.8
-42897.2
-42801.6
-42737.2
-42704.8
-44485.5
-44457
-44378.2
-44257.7
-44106.5
-43936.2
-43757.7
-43580.5
-43412.8
-43260.6
-43128.6
-43019.7
-42936.3
-42879.9
-42851.4
-44321.3
-44303.3
-44244.3
-44150.7
-44030.5
-43892.9
-43746.7
-43599.6
-43458.8
-43329.9
-43217
-43123.3
-43051.1
-43002.1
-42977.3
-44186.6
-44176.8
-44133.2
-44060.7
-43965.3
-43854.4
-43734.9
-43613.2
-43495.5
-43386.7
-43290.8
-43210.7
-43148.6
-43106.3
-43084.9
-44075.8
-44072.4
-44040.9
-43985.2
-43909.8
-43820.6
-43723.2
-43622.8
-43524.8
-43433.6
-43352.5
-43284.3
-43231.3
-43195
-43176.6
-43984.4
-43986
-43964.3
-43921.9
-43862.7
-43791.3
-43712.1
-43629.6
-43548.3
-43472.1
-43403.9
-43346.2
-43301.1
-43270.2
-43254.5
-43908.9
-43914.6
-43900.5
-43869
-43822.9
-43766
-43702
-43634.5
-43567.3
-43503.9
-43446.7
-43398.2
-43360
-43333.8
-43320.4
-43846.6
-43855.5
-43847.6
-43824.8
-43789.4
-43744.5
-43693
-43637.9
-43582.6
-43530
-43482.4
-43441.6
-43409.5
-43387.3
-43375.9
-43795.2
-43806.7
-43803.8
-43788.1
-43761.3
-43726.2
-43685
-43640.3
-43595
-43551.6
-43511.9
-43477.9
-43450.9
-43432.2
-43422.6
-43752.9
-43766.4
-43767.6
-43757.6
-43737.9
-43710.8
-43678.1
-43642
-43605
-43569.2
-43536.4
-43508
-43485.3
-43469.6
-43461.5
-43718.2
-43733.5
-43737.9
-43732.5
-43718.6
-43697.9
-43672.3
-43643.2
-43613.1
-43583.7
-43556.5
-43532.8
-43513.9
-43500.7
-43493.9
-43690.1
-43706.6
-43713.7
-43712
-43702.7
-43687.3
-43667.3
-43644.1
-43619.5
-43595.4
-43572.9
-43553.1
-43537.3
-43526.1
-43520.4
-43667.5
-43685.1
-43694.2
-43695.5
-43689.9
-43678.7
-43663.2
-43644.6
-43624.7
-43604.8
-43586.1
-43569.6
-43556.2
-43546.8
-43541.9
-43649.7
-43668.1
-43678.9
-43682.4
-43679.7
-43671.8
-43659.9
-43645
-43628.6
-43612.1
-43596.5
-43582.6
-43571.2
-43563.2
-43559
-43636.1
-43655.2
-43667.1
-43672.4
-43671.8
-43666.5
-43657.3
-43645.2
-43631.6
-43617.7
-43604.4
-43592.5
-43582.7
-43575.8
-43572.2
-43626.4
-43645.9
-43658.7
-43665.2
-43666.1
-43662.5
-43655.3
-43645.2
-43633.6
-43621.7
-43610.2
-43599.8
-43591.2
-43585
-43581.9
-43620.2
-43639.9
-43653.2
-43660.5
-43662.3
-43659.9
-43653.9
-43645.1
-43634.9
-43624.3
-43613.9
-43604.5
-43596.7
-43591.1
-43588.2