/*--------------------------------*- C++ -*----------------------------------*\
| =========                 |                                                 |
| \\      /  F ield         | OpenFOAM: The Open Source CFD Toolbox           |
|  \\    /   O peration     | Version:  5.x                                   |
|   \\  /    A nd           | Web:      www.OpenFOAM.org                      |
|    \\/     M anipulation  |                                                 |
\*---------------------------------------------------------------------------*/
FoamFile
{
    version     2.0;
    format      ascii;
    class       volScalarField;
    location    "9.7";
    object      gradTy;
}
// * * * * * * * * * * * * * * * * * * * * * * * * * * * * * * * * * * * * * //

dimensions      [0 -1 0 1 0 0 0];

internalField   nonuniform List<scalar> 
6300
(
1103.11
1309.04
1514.06
1717.56
1918.93
2117.57
2312.86
2504.2
2690.99
2872.64
3048.59
3218.33
3381.37
3537.32
3685.85
0.447327
1.34262
2.23964
3.13888
4.03979
4.94018
5.83574
6.71935
7.58048
8.40479
9.17396
9.8662
10.4574
10.9232
11.2417
0.744807
2.23572
3.73019
5.22954
6.7334
8.23884
9.73933
11.2237
12.6748
14.069
15.3751
16.5555
17.5678
18.3684
18.9175
1.04096
3.12515
5.21569
7.31547
9.42518
11.5421
13.6587
15.7608
17.8257
19.8206
21.7012
23.4121
24.8891
26.0642
26.8743
1.33483
4.00809
6.69172
9.39116
12.1094
14.8453
17.592
20.3344
23.0458
25.6857
28.1962
30.5017
32.5109
34.1237
35.2435
1.62503
4.88048
8.15168
11.4477
14.7753
18.137
21.529
24.938
28.3366
31.6789
34.8947
37.8861
40.5277
42.6746
44.1806
1.90978
5.7369
9.58644
13.4723
17.4065
21.3976
25.4481
29.5507
33.6825
37.7972
41.816
45.6184
49.037
51.8639
53.8758
2.1869
6.57071
10.9845
15.448
19.9802
24.598
29.3141
34.1331
39.0438
44.0095
48.9518
53.7323
58.1356
61.8657
64.5755
2.45391
7.37424
12.3324
17.3544
22.4674
27.6989
33.0761
38.6219
44.3484
50.243
56.2468
62.2206
67.9044
72.8849
76.6127
2.70829
8.13963
13.6159
19.1693
24.835
30.6529
36.6678
42.9283
49.4826
56.365
63.569
70.996
78.3734
85.1537
90.4615
2.94779
8.85974
14.8218
20.8709
27.0494
33.4087
40.012
46.939
54.2862
62.1626
70.6653
79.818
89.436
98.8915
106.828
3.1708
9.52938
15.9401
22.4422
29.082
35.9187
43.0309
50.527
58.5582
67.3309
77.1086
88.1711
100.657
114.144
126.787
3.37671
10.1465
16.9665
23.8747
30.9165
38.1517
45.6638
53.5776
62.0859
71.4913
82.2638
95.0969
110.874
130.234
151.834
3.56613
10.7129
17.9042
25.1725
32.5564
40.1058
47.8929
56.0313
64.7136
74.2813
85.3551
99.0745
117.501
144.079
182.715
3.74087
11.2345
18.764
26.3537
34.0292
41.8206
49.7683
57.9383
66.4532
75.5622
85.7971
98.34
115.971
145.858
209.285
3815
3927.04
4033.7
4135.02
4231.11
4322.13
4408.26
4489.76
4566.88
4639.92
4709.2
4775.04
4837.79
4897.78
4955.35
5010.83
5064.56
5116.87
5168.05
5218.42
5268.26
5317.84
5367.42
5417.22
5467.45
5518.29
5569.89
5622.38
5675.83
5730.31
5785.82
5842.38
5899.93
5958.41
6017.76
6077.88
6138.65
6199.95
6261.65
6323.59
6385.61
6447.54
6509.18
6570.34
6630.82
6690.43
6749
6806.34
6862.3
6916.72
6969.49
7020.45
7069.47
7116.42
7161.16
7203.53
7243.38
7280.52
7314.8
7346.03
7374.03
7398.62
7419.61
7436.8
7449.99
7458.94
7463.4
7463.11
7457.76
7447.02
7430.52
7407.89
7378.72
7342.56
7298.98
7247.5
7187.65
7118.94
7040.88
6952.96
6854.71
6745.64
6625.31
6493.3
6349.24
6192.85
6023.9
5842.28
5647.95
5441.04
11.3835
11.3931
11.2829
11.0565
10.722
10.2904
9.77488
9.18987
8.54976
7.86831
7.15812
6.43029
5.69436
4.95838
4.22905
3.51204
2.81226
2.13416
1.48205
0.860325
0.27371
-0.272659
-0.773211
-1.22208
-1.61337
-1.94161
-2.20234
-2.3927
-2.51205
-2.56232
-2.54802
-2.47576
-2.35336
-2.18855
-1.98778
-1.75536
-1.49326
-1.20164
-0.879992
-0.528596
-0.149876
0.25076
0.664888
1.08196
1.49089
1.88201
2.24881
2.58898
2.90471
3.20198
3.48931
3.77605
4.07074
4.37968
4.70616
5.05036
5.41
5.7816
6.16196
6.54954
6.94542
7.35367
7.78104
8.23622
8.72875
9.26779
9.861
10.5136
11.228
12.0035
12.8369
13.723
14.6559
15.6291
16.6364
17.6712
18.7268
19.7948
20.8644
21.9218
22.9487
23.9227
24.8172
25.602
26.2453
26.7153
26.9831
27.0254
26.8266
26.3809
19.1625
19.1794
18.9893
18.5995
18.0242
17.2837
16.4018
15.4037
14.3149
13.1591
11.9577
10.7294
9.49004
8.25266
7.02806
5.8252
4.65178
3.51473
2.42083
1.37709
0.391195
-0.528305
-1.37192
-2.1294
-2.79025
-3.34443
-3.78349
-4.10177
-4.2976
-4.3742
-4.33984
-4.20704
-3.99075
-3.70581
-3.36432
-2.97378
-2.53664
-2.05135
-1.51475
-0.925178
-0.285343
0.395777
1.10275
1.81544
2.51232
3.17455
3.7895
4.353
4.86969
5.35162
5.81562
6.27996
6.76105
7.2707
7.8145
8.39171
8.99658
9.62093
10.2572
10.9014
11.5547
12.2244
12.9228
13.6662
14.4725
15.3587
16.339
17.423
18.6146
19.9122
21.3092
22.7957
24.3607
25.9929
27.6818
29.4177
31.1903
32.9874
34.7927
36.5838
38.3313
39.9973
41.536
42.895
44.0176
44.847
45.3307
45.4257
45.1033
44.3526
27.2372
27.263
26.983
26.4088
25.5639
24.4802
23.1951
21.7477
20.1759
18.5149
16.7955
15.0442
13.2826
11.5284
9.79576
8.09608
6.43907
4.83342
3.28767
1.81092
0.413481
-0.892763
-2.09413
-3.17534
-4.12013
-4.91239
-5.53791
-5.98647
-6.25414
-6.34516
-6.27269
-6.05781
-5.72629
-5.30381
-4.81079
-4.25865
-3.64872
-2.97431
-2.22519
-1.39357
-0.479727
0.504076
1.53289
2.57216
3.58414
4.5356
5.40469
6.18483
6.88509
7.52742
8.14175
8.76005
9.41053
10.1128
10.875
11.6935
12.5554
13.4433
14.3413
15.2403
16.1407
17.0537
17.9998
19.0058
20.1012
21.3141
22.6676
24.1772
25.8485
27.6775
29.6522
31.7553
33.9684
36.2744
38.659
41.1106
43.6179
46.1676
48.7403
51.3078
53.8301
56.2539
58.5124
60.5269
62.2107
63.4751
64.2366
64.4256
63.9949
62.9261
35.7479
35.785
35.3981
34.6059
33.445
31.9645
30.22
28.2682
26.1629
23.9521
21.677
19.3714
17.0623
14.771
12.5138
10.3035
8.1505
6.06402
4.05336
2.12886
0.302793
-1.40984
-2.99092
-4.41923
-5.6711
-6.7219
-7.54857
-8.13306
-8.46646
-8.55293
-8.41207
-8.07801
-7.5943
-7.0049
-6.34396
-5.62833
-4.85533
-4.00654
-3.05622
-1.98221
-0.776772
0.54557
1.94588
3.36608
4.74091
6.01304
7.1457
8.12937
8.98154
9.74112
10.4597
11.1912
11.9828
12.8659
13.8518
14.9301
16.0739
17.2482
18.4214
19.5742
20.7055
21.8324
22.9875
24.2136
25.5575
27.0636
28.7683
30.6953
32.852
35.2297
37.8065
40.5528
43.4386
46.4388
49.5359
52.7191
55.9805
59.3102
62.691
66.0923
69.4661
72.7439
75.8353
78.6301
81.0029
82.8223
83.9617
84.3131
83.801
82.3944
44.8638
44.9156
44.3948
43.3319
41.7843
39.827
37.5414
35.008
32.2999
29.4801
26.6004
23.7015
20.8146
17.9628
15.1629
12.427
9.76472
7.18418
4.69386
2.30398
0.0277975
-2.11723
-4.10851
-5.91794
-7.51228
-8.8548
-9.90857
-10.6418
-11.0349
-11.0886
-10.8302
-10.3143
-9.61512
-8.80963
-7.95658
-7.08134
-6.17182
-5.18577
-4.06618
-2.76099
-1.24315
0.4737
2.32908
4.22406
6.04427
7.68992
9.09982
10.2618
11.2098
12.0124
12.7572
13.5345
14.4215
15.4694
16.6935
18.0706
19.5465
21.0529
22.5286
23.9371
25.2745
26.5683
27.8708
29.2496
30.7777
32.5245
34.5465
36.8798
39.5343
42.4924
45.7138
49.1465
52.7408
56.4603
60.2854
64.2113
68.2407
72.3756
76.608
80.912
85.236
89.4977
93.5807
97.3358
100.587
103.144
104.816
105.439
104.89
103.117
54.7969
54.8682
54.1697
52.7531
50.7115
48.1598
45.2179
41.9977
38.5963
35.0931
31.55
28.013
24.5151
21.0786
17.7184
14.4436
11.2603
8.17363
5.18907
2.31485
-0.436511
-3.04635
-5.48822
-7.72654
-9.7162
-11.4036
-12.7302
-13.6402
-14.092
-14.0739
-13.6192
-12.8144
-11.7891
-10.683
-9.60132
-8.58388
-7.59874
-6.55756
-5.34367
-3.84632
-1.99644
0.201878
2.65466
5.18901
7.59822
9.70546
11.4101
12.7014
13.6466
14.3661
15.0072
15.7186
16.6276
17.8182
19.3136
21.0675
22.974
24.9003
26.7311
28.4009
29.9047
31.2902
32.6428
34.0689
35.6816
37.5874
39.8746
42.5997
45.7773
49.3738
53.3146
57.5049
61.8602
66.3268
70.887
75.5514
80.346
85.2972
90.4186
95.699
101.092
106.505
111.794
116.763
121.167
124.733
127.179
128.246
127.737
125.558
65.8306
65.9268
64.9762
63.0724
60.3712
57.053
53.2939
49.2475
45.0389
40.7636
36.491
32.2687
28.1276
24.0856
20.1517
16.3293
12.6181
9.01728
5.52684
2.15037
-1.10291
-4.21555
-7.1591
-9.89121
-12.3533
-14.4696
-16.1495
-17.2962
-17.8237
-17.6854
-16.91
-15.63
-14.0773
-12.5189
-11.1514
-10.0378
-9.10424
-8.176
-7.02731
-5.43719
-3.24942
-0.434346
2.86474
6.33603
9.58881
12.3025
14.3172
15.6412
16.4098
16.8343
17.1576
17.6201
18.4299
19.7299
21.5632
23.8461
26.3746
28.887
31.1668
33.1052
34.7066
36.0609
37.3103
38.621
40.1645
42.1027
44.5731
47.6692
51.4179
55.7605
60.5565
65.6261
70.8196
76.0588
81.3383
86.7039
92.2254
97.9731
103.999
110.324
116.917
123.688
130.468
137
142.953
147.934
151.526
153.32
152.987
150.348
78.3661
78.49
77.1532
74.5378
70.9171
66.5793
61.7813
56.7291
51.576
46.4292
41.3588
36.4073
31.5972
26.9367
22.4249
18.0551
13.8177
9.70263
5.70138
1.80955
-1.97062
-5.62692
-9.13297
-12.4431
-15.4867
-18.1622
-20.335
-21.8419
-22.512
-22.2125
-20.9254
-18.8364
-16.372
-14.0781
-12.3343
-11.2306
-10.6005
-10.1103
-9.34516
-7.88725
-5.40433
-1.76617
2.82817
7.79892
12.3569
15.907
18.22
19.3816
19.6697
19.4492
19.1082
19.0225
19.5272
20.8746
23.1662
26.2721
29.7992
33.2092
36.0946
38.2956
39.8647
40.9832
41.8897
42.8381
44.0793
45.852
48.3707
51.7992
56.2033
61.494
67.4042
73.5684
79.7125
85.7317
91.6645
97.6306
103.778
110.246
117.149
124.558
132.484
140.858
149.493
158.07
166.133
173.134
178.455
181.455
181.552
178.387
93.0155
93.1534
91.1679
87.4477
82.4924
76.7651
70.6313
64.3522
58.1
51.9803
46.0512
40.3386
34.8477
29.5704
24.4905
19.5873
14.8384
10.2214
5.71591
1.30567
-3.01883
-7.25659
-11.3907
-15.3807
-19.1514
-22.5801
-25.4806
-27.594
-28.5978
-28.1629
-26.0967
-22.5849
-18.4225
-14.8466
-12.5973
-11.743
-11.897
-12.4423
-12.6626
-11.8154
-9.22501
-4.47728
2.247
9.85355
16.5732
21.29
23.7777
24.3768
23.6585
22.2341
20.6878
19.571
19.4072
20.6559
23.5929
28.0878
33.3883
38.2825
42.0039
44.3914
45.6674
46.2065
46.404
46.6288
47.2238
48.5219
50.8532
54.5191
59.7065
66.3299
73.88
81.5338
88.7789
95.5227
101.936
108.29
114.859
121.885
129.562
138.038
147.4
157.64
168.594
179.87
190.834
200.74
208.719
213.76
214.805
211.056
110.806
110.87
107.675
102.131
95.1749
87.5321
79.6874
71.9338
64.4313
57.2554
50.4301
43.9491
37.7894
31.9188
26.3007
20.8969
15.6689
10.5795
5.59342
0.67867
-4.19139
-9.03479
-13.8552
-18.6327
-23.3077
-27.7571
-31.7582
-34.9424
-36.7534
-36.461
-33.3479
-27.2689
-19.6271
-13.704
-10.8504
-10.8028
-12.6294
-15.2414
-17.516
-18.2527
-16.1513
-10.0338
0.39592
13.1856
23.6734
29.8826
32.0545
31.2684
28.6635
25.1946
21.6487
18.7475
17.2532
18.006
21.776
28.7433
37.5621
45.0438
49.8331
52.0868
52.53
51.9206
50.8779
49.8853
49.355
49.7032
51.4125
55.047
61.1402
69.8296
80.2047
90.0852
98.5645
105.786
112.29
118.634
125.281
132.582
140.822
150.239
161.046
173.389
187.226
202.111
217.054
231.113
243.204
251.81
254.951
250.695
133.706
133.274
127.561
118.843
108.842
98.5855
88.6088
79.1506
70.2897
62.0236
54.3115
47.0958
40.3139
33.903
27.8021
21.953
16.2999
10.7891
5.36868
-0.0119745
-5.40143
-10.8449
-16.3803
-22.0306
-27.7869
-33.5778
-39.2101
-44.2656
-47.9358
-48.8182
-44.8681
-34.2013
-18.3555
-8.13966
-5.06207
-7.1623
-12.2298
-18.5248
-24.5826
-28.7755
-28.859
-21.7987
-4.85258
19.8327
36.9348
44.2887
44.5905
40.7791
34.9123
28.2662
21.6815
15.8984
11.8638
11.0118
15.3555
26.7326
43.6609
55.6816
61.3127
62.3886
60.9074
58.2581
55.2789
52.4756
50.2207
48.9237
49.1991
52.0335
58.8346
70.9006
87.2398
100.652
110.158
117.083
122.868
128.542
134.754
141.926
150.38
160.434
172.475
186.979
204.346
224.262
244.537
264.314
282.7
297.722
305.74
301.77
166.279
163.277
151.767
137.398
122.87
109.232
96.7793
85.5029
75.2873
65.9904
57.4744
49.6146
42.3014
35.438
28.9386
22.7249
16.7242
10.8672
5.08534
-0.690974
-6.53451
-12.523
-18.7405
-25.2758
-32.2163
-39.6264
-47.492
-55.5829
-63.1313
-68.1334
-66.0593
-48.5911
-8.97689
7.70301
8.18156
0.750301
-10.0629
-22.1499
-34.3346
-45.2159
-51.8539
-47.7995
-21.2465
37.3977
64.231
68.847
63.0466
53.2472
42.2809
31.247
20.5578
10.5296
1.88984
-3.46601
-1.19492
16.7258
56.8238
75.517
79.3481
76.3692
70.9634
65.067
59.4233
54.273
49.7038
45.8769
43.2975
43.3048
48.9438
65.814
98.485
116.838
125.465
130.013
133.601
137.667
142.838
149.418
157.627
167.758
180.35
196.438
217.785
245.886
272.726
299.506
327.028
353.708
373.775
374.605
222.076
205.522
180.086
156.175
135.612
118.167
103.252
90.3243
78.959
68.8305
59.6902
51.3447
43.6396
36.4482
29.6629
23.1894
16.9416
10.8372
4.79438
-1.27255
-7.4579
-13.8704
-20.6415
-27.9359
-35.9673
-45.0166
-55.4468
-67.6784
-81.99
-97.6346
-109.415
-94.8686
33.4282
46.8758
32.8156
13.5333
-6.06078
-25.633
-45.9614
-67.7642
-90.2431
-106.195
-83.8501
100.77
123.518
108.403
87.2597
67.3943
49.7461
33.7311
18.4827
3.16197
-12.812
-28.9254
-40.2798
-25.2157
100.808
116.752
107.188
93.8427
81.7241
71.5107
62.856
55.2326
48.1172
41.033
33.6709
26.4659
22.8794
37.9729
130.346
147.024
146.64
144.323
143.643
145.194
148.89
154.561
162.101
171.534
183.186
198.316
221.491
269.318
300.99
333.617
372.557
419.206
469.499
499.824
353.231
260.546
206.201
170.121
143.859
123.455
106.855
92.892
80.8457
70.244
60.7586
52.15
44.2359
36.8714
29.9366
23.3278
16.9512
10.7176
4.53763
-1.68391
-8.05416
-14.7013
-21.7882
-29.5338
-38.2513
-48.4169
-60.8053
-76.7763
-98.926
-132.697
-190.676
-304.943
241.214
125.658
64.9676
26.7644
-2.09032
-28.0267
-55.4636
-89.3367
-138.027
-219.736
-380.126
397.232
237.325
156.635
109.629
78.3454
54.8574
35.1097
16.5109
-3.26546
-27.3128
-61.2371
-117.406
-226.939
303.305
194.713
140.469
109.546
89.7381
75.7069
64.8012
55.4581
46.4838
36.5874
23.8165
4.41527
-30.0853
-101.152
271.202
201.775
170.593
156.269
150.467
149.628
152.092
157.005
163.841
172.11
181.003
188.605
189.687
316.003
327.868
358.624
406.971
479.439
593.956
795.12
5199.8
4919.32
4622.3
4309.71
3982.66
3642.4
3290.21
2927.42
2555.36
2175.37
1788.74
1396.74
1000.6
601.526
200.703
25.6248
24.4763
23.049
21.3992
19.5874
17.6721
15.7044
13.725
11.7637
9.83957
7.96192
6.13222
4.3457
2.59304
0.86189
43.0656
41.1023
38.6613
35.8444
32.7603
29.5116
26.1866
22.8548
19.565
16.3477
13.2167
10.1725
7.20526
4.29791
1.42833
61.0634
58.2038
54.6472
50.5551
46.0961
41.4259
36.6748
31.9416
27.2935
22.7695
18.3848
14.1358
10.005
5.965
1.98187
79.8851
75.9987
71.1653
65.6297
59.6404
53.4189
47.143
40.9415
34.8968
29.0514
23.4168
17.9808
12.714
7.57523
2.51607
99.8513
94.7366
88.3816
81.1545
73.4137
65.4633
57.534
49.7823
42.2985
35.121
28.2496
21.6563
15.2947
9.10588
3.02332
121.366
114.711
106.467
97.19
87.3937
77.4839
67.7452
58.3525
49.3913
40.8825
32.8027
25.0995
17.7025
10.5301
3.49471
144.96
136.273
125.582
113.743
101.485
89.3314
77.6093
66.4894
56.0295
46.2128
36.9774
28.2353
19.885
11.8173
3.92011
171.359
159.836
145.839
130.713
115.469
100.744
86.8696
73.9653
62.0229
50.9599
40.6568
30.9783
21.784
12.9336
4.28845
201.604
185.863
167.219
147.792
128.926
111.302
95.1553
80.4771
67.1349
54.9451
43.7101
33.2358
23.3383
13.8442
4.58844
237.271
214.786
189.374
164.303
141.139
120.376
101.968
85.6492
71.0919
57.9734
46.0006
34.9151
24.4884
14.5159
4.80943
280.771
246.631
211.184
178.902
150.947
127.091
106.687
89.057
73.6075
59.8533
47.4021
35.9342
25.1835
14.9212
4.94266
335.491
279.77
229.819
189.167
156.649
130.348
108.63
90.2809
74.425
60.4278
47.8181
36.2346
25.3893
15.042
4.9826
403.249
307.13
239.145
191.289
156.128
129.017
107.2
89.008
73.3809
59.6122
47.2059
35.7955
25.0963
14.8746
4.92818
461.755
306.346
228.333
180.71
147.551
122.385
102.142
85.1668
70.4755
57.4318
45.5958
34.644
24.3249
14.4314
4.78367
3.89083
11.6819
19.5005
27.3621
35.2785
43.2555
51.2924
59.3838
67.5289
75.7603
84.2203
93.3513
104.362
120.381
149.318
4.0198
12.0671
20.136
28.2353
36.365
44.5095
52.6287
60.6444
68.4193
75.7258
82.1932
87.187
89.3881
84.9336
58.6345
4.14335
12.4371
20.7497
29.0867
37.4401
45.7796
54.0353
62.0704
69.6331
76.2716
81.1862
82.9591
79.0339
64.6531
31.1229
4.26194
12.7935
21.3461
29.9257
38.5238
47.1064
55.5933
63.8229
71.4869
78.0124
82.3581
82.6858
75.938
57.6691
23.5514
4.37507
13.1352
21.9232
30.7509
39.6172
48.4981
57.3283
65.9664
74.1291
81.2646
86.3179
87.324
80.8397
61.6897
24.9965
4.48119
13.4571
22.4722
31.5484
40.6991
49.9236
59.1951
68.4382
77.4822
85.9602
93.0861
97.1611
94.5349
77.8911
35.6768
4.57783
13.7514
22.9784
32.2931
41.7285
51.3149
61.0799
71.0463
81.226
91.5917
101.971
111.648
117.962
111.847
66.5915
4.66196
14.0084
23.4229
32.9532
42.6517
52.5807
62.8231
73.5047
84.8382
97.2107
111.34
128.468
150.016
172.982
158.565
4.73037
14.2178
23.7865
33.4955
43.4134
53.627
64.2596
75.5086
87.7266
101.606
118.626
142.214
181.082
260.072
460.751
4.78016
14.3704
24.052
33.892
43.9685
54.3806
65.2661
76.8376
89.459
103.818
121.346
145.345
184.28
262.648
461.793
4.8091
14.4593
24.207
34.1233
44.2893
54.8038
65.7941
77.4354
89.9825
103.825
119.569
138.101
160.088
181.344
162.07
4.81574
14.4801
24.2444
34.1802
44.3669
54.8948
65.868
77.4018
89.6045
102.508
115.852
128.453
136.399
128.181
74.0556
4.79945
14.4311
24.162
34.0621
44.2063
54.6751
65.5506
76.9016
88.7374
100.882
112.647
122.034
123.932
106.894
51.3067
4.76031
14.3128
23.9615
33.7736
43.8192
54.1713
64.9011
76.0626
87.6536
99.5162
111.091
120.813
124.611
112.375
61.2132
4.69894
14.1272
23.6471
33.322
43.2179
53.4038
63.9499
74.923
86.3786
98.3474
110.82
123.701
136.423
144.884
120.607
4.61638
13.8775
23.2243
32.7159
42.4141
52.3847
62.7003
73.4465
84.7448
96.8258
110.261
126.697
151.189
200.122
330.651
4.514
13.568
22.7005
31.9655
41.4198
51.1246
61.1499
71.5845
82.5652
94.3606
107.617
124.094
148.978
198.693
330.206
4.39345
13.2036
22.084
31.0828
40.2503
49.6405
59.3137
69.3415
79.8176
90.8783
102.732
115.651
129.519
140.453
119.342
4.25663
12.7902
21.3848
30.082
38.9249
47.9584
57.2294
66.7852
76.6621
86.8424
97.1055
106.545
112.094
104.462
59.5687
4.10562
12.334
20.6136
28.9793
37.4662
46.1099
54.9457
64.0041
73.2937
82.7466
92.0481
100.137
103.82
94.3449
51.3517
3.94265
11.8418
19.7823
27.7917
35.8974
44.1265
52.5059
61.0606
69.81
78.7536
87.8302
96.7865
104.68
107.502
84.5985
3.77
11.3205
18.9026
26.5365
34.2419
42.0377
49.9428
57.9802
66.1893
74.666
83.6935
94.1708
109.06
138.519
219.436
3.58991
10.7772
17.9863
25.2309
32.5228
39.8717
47.2864
54.7789
62.3808
70.1938
78.5478
88.4885
103.319
133.799
217.434
3.40458
10.2183
17.045
23.8919
30.763
37.6589
44.5746
51.5003
58.424
65.3437
72.2981
79.4078
86.7079
92.161
77.7014
3.21601
9.65001
16.0893
22.5352
28.9853
35.4311
41.8547
48.2218
54.4685
60.4675
65.9386
70.1927
71.3767
64.3487
35.8434
3.02598
9.07783
15.1286
21.175
27.2097
33.2178
39.1727
45.0255
50.6835
55.956
60.4225
63.1078
61.7463
51.4494
23.9716
2.83596
8.50616
14.1705
19.8225
25.4516
31.0404
36.5603
41.9633
47.1647
52.0028
56.1415
58.8312
58.3193
50.4799
26.3111
2.64706
7.93835
13.2205
18.4853
23.7208
28.91
34.028
39.0398
43.8969
48.5336
52.8651
56.7763
59.979
60.8486
48.4093
2.46004
7.37666
12.2823
17.1679
22.0216
26.8281
31.5684
36.2227
40.7807
45.2747
49.8793
55.2114
63.2573
80.4576
129.103
2.27537
6.82237
11.3577
15.8722
20.3545
24.7913
29.1675
33.4714
37.7079
41.9376
46.3868
51.7602
60.1765
78.2274
128.262
2.09324
6.276
10.4473
14.5982
18.7185
22.7957
26.816
30.7661
34.6386
38.4468
42.2511
46.1943
50.4031
53.7841
45.6822
1.91363
5.73744
9.55062
13.3452
17.1118
20.839
24.5125
28.1135
31.6131
34.9573
38.0177
40.4425
41.2031
37.3134
20.9225
1.73636
5.2061
8.66664
12.1112
15.5318
18.9188
22.2587
25.5305
28.6947
31.6637
34.2245
35.845
35.2311
29.5228
13.8386
1.56113
4.68099
7.7935
10.8934
13.9748
17.0306
20.0513
23.0214
25.9109
28.6525
31.0831
32.7982
32.7959
28.659
15.0826
1.38753
4.16083
6.92888
9.68816
12.4352
15.1664
17.8783
20.5674
23.229
25.8564
28.4375
30.9429
33.2307
34.3496
27.8459
1.21509
3.6442
6.07013
8.49112
10.906
13.315
15.7207
18.1318
20.5701
23.0915
25.8437
29.2375
34.476
45.3325
74.7668
1.04338
3.12965
5.21463
7.29803
9.38063
11.4653
13.5589
15.6767
17.8528
20.1654
22.8035
26.2499
31.8188
43.4126
74.0431
0.871961
2.61589
4.36004
6.10522
7.85348
9.60897
11.3797
13.1805
15.04
17.0124
19.2013
21.7875
24.9765
28.2713
25.5005
0.700511
2.1019
3.50457
4.91006
6.32099
7.7417
9.17904
10.6432
12.1482
13.7085
15.3223
16.9056
18.0597
17.3412
10.45
0.528782
1.58693
2.64702
3.71093
4.78145
5.86254
6.95935
8.07715
9.21755
10.3668
11.4639
12.3211
12.4427
10.6971
5.12729
0.356627
1.07056
1.7867
2.50704
3.23433
3.97219
4.72472
5.49499
6.28034
7.06068
7.77136
8.247
8.12151
6.70814
3.05766
0.183983
0.55261
0.923372
1.29819
1.67971
2.0714
2.47749
2.902
3.34623
3.80253
4.2416
4.58974
4.69416
4.27221
2.69945
0.0108665
0.0331358
0.0571592
0.0846005
0.117871
0.160449
0.217247
0.295084
0.403432
0.555966
0.774634
1.1012
1.63179
2.63484
4.99774
-0.162629
-0.487581
-0.811472
-1.13311
-1.45053
-1.7605
-2.05774
-2.33318
-2.57027
-2.73682
-2.76756
-2.52946
-1.75922
0.0523111
3.97378
-0.336341
-1.00904
-1.68169
-2.35379
-3.02415
-3.69038
-4.34796
-4.98815
-5.59307
-6.12412
-6.49664
-6.52997
-5.8738
-3.99621
-0.712206
-0.510034
-1.53054
-2.55228
-3.57568
-4.60067
-5.62629
-6.65027
-7.66764
-8.66718
-9.6216
-10.4614
-11.0095
-10.8369
-9.02181
-4.10725
-0.683412
-2.05117
-3.42167
-4.79644
-6.17669
-7.56332
-8.95714
-10.3594
-11.7725
-13.1987
-14.6287
-15.9894
-16.9405
-16.1999
-9.794
-0.856126
-2.56987
-4.28803
-6.01331
-7.7482
-9.49524
-11.258
-13.0436
-14.8687
-16.7728
-18.844
-21.2536
-24.2188
-27.3121
-24.6348
-1.02778
-3.08546
-5.14937
-7.2234
-9.31112
-11.4161
-13.5428
-15.7001
-17.9098
-20.2307
-22.8238
-26.1316
-31.4077
-42.4311
-71.831
-1.19796
-3.59665
-6.00358
-8.42382
-10.8619
-13.3215
-15.8061
-18.3199
-20.8732
-23.4993
-26.3069
-29.6422
-34.6048
-44.7877
-72.7319
-1.36617
-4.10205
-6.8484
-9.61168
-12.3974
-15.2094
-18.0488
-20.9118
-23.7855
-26.6413
-29.423
-32.0219
-34.1761
-34.8089
-27.5778
-1.53189
-4.60007
-7.68132
-10.7837
-13.9143
-17.0779
-20.2748
-23.4957
-26.7096
-29.8342
-32.6652
-34.7097
-34.8031
-30.2904
-15.704
-1.6945
-5.08891
-8.49934
-11.936
-15.408
-18.9228
-22.4834
-26.0839
-29.6952
-33.2302
-36.4528
-38.7517
-38.6279
-32.7667
-15.5116
-1.85333
-5.56648
-9.29895
-13.0633
-16.8717
-20.7353
-24.6639
-28.6639
-32.733
-36.8424
-40.8808
-44.4751
-46.4361
-43.1544
-24.8799
-2.00762
-6.03048
-10.0762
-14.1598
-18.2966
-22.5022
-26.7942
-31.1952
-35.7418
-40.5028
-45.6162
-51.3316
-57.8836
-63.9528
-56.1121
-2.15657
-6.47848
-10.8267
-15.219
-19.6732
-24.2085
-28.8479
-33.6246
-38.6008
-43.9175
-49.9321
-57.6057
-69.6646
-94.409
-159.831
-2.29936
-6.90802
-11.5465
-16.2347
-20.9929
-25.842
-30.8055
-35.9145
-41.2221
-46.8464
-53.0946
-60.8329
-72.6344
-96.614
-160.677
-2.4352
-7.31668
-12.2314
-17.2014
-22.2488
-27.3952
-32.6612
-38.0654
-43.6224
-49.3407
-55.2208
-61.2365
-67.1451
-70.9805
-58.8797
-2.5633
-7.70209
-12.8775
-18.1139
-23.4354
-28.8645
-34.4201
-40.1092
-45.9094
-51.7213
-57.2511
-61.713
-63.0935
-56.4118
-30.4548
-2.68285
-8.06186
-13.4809
-18.9668
-24.5464
-30.2453
-36.0851
-42.0747
-48.1869
-54.2965
-60.0212
-64.3275
-64.6387
-55.2272
-26.3017
-2.79307
-8.39362
-14.0375
-19.7542
-25.5739
-31.5273
-37.6451
-43.9539
-50.4647
-57.1372
-63.7747
-69.7147
-72.9339
-67.5923
-38.5909
-2.89322
-8.69503
-14.5432
-20.4695
-26.5077
-32.6943
-39.0714
-45.6916
-52.6288
-60.0007
-68.0106
-76.9892
-87.1719
-96.3859
-84.3377
-2.98263
-8.96401
-14.9941
-21.1066
-27.3377
-33.728
-40.3276
-47.2078
-54.4895
-62.4192
-71.572
-83.4251
-102.08
-139.942
-238.851
-3.06076
-9.19893
-15.3874
-21.6608
-28.0563
-34.6153
-41.3879
-48.4437
-55.8986
-63.9865
-73.2561
-85.1352
-103.646
-141.101
-239.294
-3.12726
-9.39869
-15.7211
-22.1296
-28.6606
-35.3532
-42.2502
-49.401
-56.8664
-64.7312
-73.1258
-82.2371
-92.055
-100.076
-85.7868
-3.18193
-9.56276
-15.9947
-22.5125
-29.1517
-35.948
-42.9351
-50.1383
-57.5553
-65.106
-72.4956
-78.8458
-81.7085
-74.5415
-41.502
-3.22474
-9.69108
-16.2082
-22.8106
-29.5329
-36.4091
-43.4687
-50.7256
-58.1496
-65.5907
-72.5848
-77.8742
-78.3246
-66.9718
-31.9137
-3.25573
-9.78384
-16.3621
-23.0246
-29.8062
-36.7418
-43.8638
-51.1952
-58.7303
-66.3839
-73.8556
-80.2607
-83.1349
-75.862
-42.3028
-3.27508
-9.8415
-16.457
-23.1553
-29.9717
-36.9439
-44.1122
-51.5218
-59.2267
-67.3014
-75.8647
-85.0967
-94.9892
-103.004
-88.1397
-3.28306
-9.86481
-16.4938
-23.2031
-30.0282
-37.0086
-44.1917
-51.6417
-59.4645
-67.8773
-77.4072
-89.4711
-108.144
-146.032
-246.067
-3.2801
-9.855
-16.4744
-23.1699
-29.9758
-36.9314
-44.0845
-51.5012
-59.2907
-67.6751
-77.1878
-89.2527
-107.953
-145.897
-246.018
-3.26686
-9.81396
-16.4018
-23.0593
-29.8186
-36.7157
-43.7928
-51.1002
-58.7019
-66.6871
-75.1937
-84.4239
-94.3928
-102.58
-87.9818
-3.24423
-9.74437
-16.2801
-22.8773
-29.5646
-36.3739
-43.3397
-50.4933
-57.8451
-65.3347
-72.6945
-79.0793
-82.0675
-75.0826
-42.0023
-3.2134
-9.64976
-16.1154
-22.6321
-29.2248
-35.9221
-42.7548
-49.7471
-56.8906
-64.0704
-70.8701
-76.0909
-76.6653
-65.7047
-31.3854
-3.17586
-9.53451
-15.9147
-22.3334
-28.8114
-35.3752
-42.0575
-48.8941
-55.9092
-63.0679
-70.1397
-76.3267
-79.271
-72.5457
-40.5256
-3.13339
-9.40401
-15.6869
-21.9928
-28.3376
-34.7449
-41.2517
-47.9155
-54.8263
-62.1236
-70.0214
-78.8116
-88.5888
-96.9501
-83.7138
-3.08818
-9.26472
-15.4424
-21.6246
-27.8194
-34.0443
-40.3354
-46.7639
-53.473
-60.7601
-69.2812
-80.6082
-98.8869
-136.349
-233.976
-3.04276
-9.12434
-15.1944
-21.2469
-27.2792
-33.2967
-39.3223
-45.4159
-51.7167
-58.5374
-66.5903
-77.5745
-95.8592
-133.963
-233.028
-2.99999
-8.99166
-14.9582
-20.8826
-26.7484
-32.5424
-38.2607
-43.9226
-49.5977
-55.457
-61.8615
-69.4682
-79.0648
-89.2387
-80.5486
-2.96291
-8.87615
-14.7508
-20.5583
-26.2667
-31.8394
-37.2368
-42.4188
-47.3493
-51.9959
-56.2959
-59.9775
-61.8667
-57.6108
-33.9051
-2.93449
-8.78719
-14.5895
-20.3023
-25.8782
-31.2571
-36.3614
-41.0883
-45.2965
-48.7738
-51.1576
-51.7294
-48.9339
-39.4876
-17.8885
-2.91727
-8.73298
-14.4899
-20.1408
-25.6257
-30.8644
-35.7467
-40.1167
-43.7496
-46.3094
-47.2759
-45.8182
-40.6179
-29.8026
-11.7168
-2.91306
-8.71937
-14.4634
-20.0939
-25.5433
-30.7184
-35.4865
-39.6558
-42.9465
-44.95
-45.076
-42.5043
-36.1998
-25.1654
-9.25863
-2.92253
-8.74875
-14.5154
-20.1721
-25.6506
-30.854
-35.641
-39.8037
-43.0359
-44.8927
-44.7481
-41.7812
-35.0653
-23.9108
-8.61299
-2.94499
-8.81925
-14.6433
-20.3734
-25.9482
-31.2779
-36.2281
-40.5965
-44.079
-46.2237
-46.3788
-43.6601
-37.012
-25.5328
-9.30609
-2.97831
-8.92435
-14.8361
-20.682
-26.4152
-31.9642
-37.2179
-42.0032
-46.0496
-48.9347
-50.0039
-48.2663
-42.3123
-30.4509
-11.6555
-3.01889
-9.05299
-15.0743
-21.0682
-27.0093
-32.8546
-38.5319
-43.9218
-48.8253
-52.9052
-55.5766
-55.7992
-51.7136
-40.1832
-17.1405
-3.06194
-9.19027
-15.3312
-21.4905
-27.6692
-33.8605
-40.0442
-46.1768
-52.1713
-57.8521
-62.848
-66.3222
-66.2834
-57.9087
-30.4297
-3.10181
-9.31855
-15.575
-21.8987
-28.3195
-34.8706
-41.5905
-48.526
-55.7333
-63.2729
-71.1741
-79.2828
-86.6399
-88.8986
-66.8992
-3.13251
-9.41907
-15.7716
-22.239
-28.8787
-35.7623
-42.9858
-50.6848
-59.0629
-68.4408
-79.3542
-92.7622
-110.535
-136.731
-181.005
325.585
243.067
193.152
158.813
132.909
112.125
94.7281
79.7057
66.4128
54.4078
43.3695
33.052
23.2571
13.8171
4.58316
119.017
155.259
147.987
132.076
115.535
100.139
86.1347
73.3957
61.7199
50.9093
40.7877
31.2008
22.0124
13.0996
4.34874
52.5793
97.6628
108.819
105.773
97.3631
87.1829
76.6605
66.3453
56.4243
46.931
37.8336
29.0722
20.5757
12.2694
4.07713
27.8593
63.6247
79.5116
83.1927
80.4176
74.4624
67.0402
59.0193
50.8301
42.6767
34.6452
26.7587
19.0066
11.3597
3.77904
16.9949
43.3893
58.6777
65.0931
65.6785
62.7586
57.834
51.8087
45.2096
38.3365
31.3551
24.3514
17.364
10.4037
3.4652
11.4049
30.8651
44.004
51.0404
53.3718
52.4452
49.3905
44.9952
39.778
34.0706
28.0798
21.932
15.7021
9.43236
3.14564
8.1407
22.7298
33.567
40.2537
43.3263
43.6083
41.8768
38.7511
34.686
30.0005
24.9127
19.5692
14.0675
8.47259
2.82919
6.05151
17.1992
26.0115
31.9756
35.2176
36.1685
35.33
33.1583
30.0237
26.209
21.9226
17.3158
12.4972
7.54629
2.52307
4.62556
13.2901
20.4331
25.5871
28.6991
29.9702
29.708
28.2333
25.833
22.7442
19.1546
15.209
11.0186
6.66999
2.23282
3.60688
10.4371
16.2355
20.6158
23.4583
24.8358
24.9273
23.9504
22.1197
19.6267
16.6333
13.2717
9.64962
5.85502
1.96228
2.85443
8.30047
13.0223
16.712
19.234
20.5937
20.888
20.2598
18.8657
16.8563
14.3671
11.5151
8.40019
5.10805
1.7138
2.28443
6.66651
10.5255
13.6186
15.8164
17.091
17.4886
17.1004
16.0384
14.4188
12.3525
9.94069
7.27363
4.43187
1.48841
1.84407
5.39562
8.56018
11.1466
13.0396
14.1968
14.6345
14.4086
13.5979
12.291
10.5775
8.5433
6.26821
3.82619
1.28616
1.49851
4.39333
6.99612
9.15584
10.7732
11.8019
12.2407
12.1224
11.5016
10.4453
9.02507
7.31293
5.37855
3.28847
1.10631
1.22386
3.59371
5.73956
7.54143
8.91547
9.81633
10.2336
10.1849
9.70758
8.85197
7.67507
6.2367
4.59687
2.8146
0.947577
1.00326
2.94954
4.72169
6.22391
7.38604
8.1663
8.54984
8.5446
8.17598
7.48152
6.50646
5.30019
3.91398
2.39953
0.808351
0.82445
2.42621
3.89116
5.1424
6.12161
6.79155
7.13583
7.15648
6.87042
6.30575
5.49823
4.48851
3.32003
2.03766
0.686831
0.678353
1.99783
3.20892
4.24968
5.07177
5.64277
5.94638
5.98115
5.75817
5.29845
4.63026
3.78694
2.80509
1.72328
0.581146
0.558089
1.64468
2.64488
3.50868
4.19618
4.67952
4.94346
4.98464
4.81017
4.43577
3.88378
3.18147
2.3595
1.45074
0.489443
0.458358
1.35146
2.1755
2.89003
3.46224
3.86852
4.0951
4.13775
4.00089
3.69628
3.24158
2.65902
1.9741
1.21465
0.409941
0.375013
1.10618
1.7821
2.37014
2.84343
3.1822
3.37435
3.41541
3.308
3.06091
2.6881
2.20756
1.64041
1.00995
0.340963
0.304752
0.899243
1.44968
1.92986
2.31797
2.59761
2.75842
2.79608
2.71201
2.51278
2.20934
1.81619
1.35064
0.83199
0.280957
0.244909
0.722871
1.16601
1.55347
1.86775
2.09548
2.22794
2.2612
2.19591
2.03694
1.7928
1.47506
1.09769
0.67649
0.2285
0.193292
0.570666
0.920955
1.22787
1.47759
1.65945
1.76629
1.79469
1.74481
1.62019
1.42733
1.17529
0.875156
0.539573
0.182292
0.148065
0.437252
0.705998
0.941946
1.13452
1.27545
1.35907
1.38248
1.34556
1.25076
1.10292
0.908891
0.677208
0.417709
0.141152
0.107656
0.31802
0.513796
0.686109
0.827285
0.931216
0.993611
1.01214
0.986454
0.918139
0.810549
0.668608
0.498556
0.307676
0.103997
0.0706802
0.208906
0.337871
0.451871
0.545883
0.615792
0.658583
0.67246
0.65692
0.612758
0.542005
0.447823
0.334352