/*--------------------------------*- C++ -*----------------------------------*\
| =========                 |                                                 |
| \\      /  F ield         | OpenFOAM: The Open Source CFD Toolbox           |
|  \\    /   O peration     | Version:  5.x                                   |
|   \\  /    A nd           | Web:      www.OpenFOAM.org                      |
|    \\/     M anipulation  |                                                 |
\*---------------------------------------------------------------------------*/
FoamFile
{
    version     2.0;
    format      ascii;
    class       volScalarField;
    location    "7.2";
    object      T;
}
// * * * * * * * * * * * * * * * * * * * * * * * * * * * * * * * * * * * * * //

dimensions      [0 0 0 1 0 0 0];

internalField   nonuniform List<scalar> 
6300
(
12.7094
18.1204
23.5078
28.8557
34.1483
39.3696
44.5038
49.5347
54.4467
59.2243
63.8527
68.3179
72.6073
76.7101
80.6175
12.7172
18.1437
23.5467
28.9103
34.2186
39.4557
44.6056
49.6522
54.5794
59.3717
64.0138
68.4914
72.7915
76.9028
80.8163
12.7327
18.1903
23.6244
29.0193
34.3592
39.628
44.8094
49.8874
54.8454
59.6673
64.3372
68.8401
73.1621
77.2909
81.2167
12.7559
18.26
23.7408
29.1828
34.5699
39.8863
45.1155
50.2409
55.2457
60.1129
64.8256
69.3676
73.7234
77.8795
81.8245
12.7868
18.3527
23.8957
29.4002
34.8505
40.2306
45.524
50.7136
55.7819
60.711
65.4827
70.0788
74.4821
78.6765
82.6487
12.8252
18.468
24.0884
29.671
35.2004
40.6606
46.0349
51.3059
56.4556
61.4646
66.3131
70.9807
75.4471
79.693
83.7021
12.8709
18.6055
24.3182
29.9943
35.6186
41.1752
46.6476
52.0182
57.268
62.3767
67.3224
72.0815
76.6299
80.9438
85.0018
12.9238
18.7645
24.5842
30.3688
36.1034
41.7728
47.3607
52.8495
58.2197
63.4499
68.5159
73.3906
78.0447
82.4477
86.5709
12.9836
18.9441
24.8848
30.7923
36.6525
42.4508
48.1716
53.7977
59.3097
64.6853
69.8983
74.9179
79.7079
84.2286
88.4396
13.0498
19.1432
25.2182
31.2622
37.2624
43.2051
49.0757
54.8583
60.5341
66.0811
71.472
76.6721
81.6379
86.3163
90.6488
13.122
19.3604
25.5819
31.7752
37.9286
44.0301
50.0665
56.0238
61.8854
67.631
73.234
78.6582
83.8524
88.747
93.2541
13.1997
19.594
25.9733
32.3273
38.6459
44.9187
51.135
57.2833
63.3507
69.3211
75.1725
80.8714
86.3638
91.5622
96.3343
13.2823
19.8425
26.3893
32.9139
39.4078
45.8625
52.2699
58.622
64.911
71.128
77.261
83.2884
89.1662
94.8006
100.003
13.3692
20.1038
26.8268
33.5305
40.2079
46.8523
53.4583
60.0218
66.541
73.0167
79.4525
85.8523
92.2089
98.4674
104.421
13.46
20.3765
27.2829
34.1726
41.0397
47.8792
54.6876
61.4642
68.2123
74.9427
81.6774
88.4565
95.3463
102.436
109.742
84.0146
86.9608
89.7644
92.4265
94.9493
97.3366
99.5932
101.725
103.739
105.642
107.442
109.148
110.767
112.31
113.783
115.196
116.557
117.874
119.155
120.407
121.638
122.853
124.061
125.265
126.471
127.684
128.907
130.143
131.394
132.662
133.947
135.248
136.566
137.898
139.244
140.601
141.966
143.336
144.71
146.082
147.451
148.812
150.16
151.493
152.806
154.094
155.355
156.584
157.779
158.936
160.052
161.125
162.151
163.128
164.054
164.924
165.736
166.485
167.17
167.785
168.327
168.793
169.177
169.476
169.685
169.799
169.812
169.718
169.512
169.184
168.728
168.134
167.395
166.499
165.438
164.201
162.776
161.155
159.324
157.274
154.994
152.473
149.702
146.67
143.371
139.798
135.946
131.813
127.399
122.705
84.2163
87.1631
89.9652
92.6238
95.1413
97.5215
99.7695
101.892
103.894
105.786
107.574
109.268
110.875
112.405
113.866
115.267
116.616
117.922
119.192
120.434
121.655
122.861
124.061
125.257
126.457
127.665
128.884
130.117
131.366
132.633
133.918
135.22
136.54
137.875
139.224
140.584
141.953
143.328
144.706
146.083
147.457
148.824
150.178
151.517
152.835
154.129
155.395
156.629
157.828
158.989
160.109
161.186
162.216
163.198
164.128
165.002
165.819
166.574
167.264
167.885
168.432
168.904
169.294
169.6
169.816
169.938
169.96
169.876
169.68
169.364
168.92
168.339
167.614
166.733
165.686
164.464
163.056
161.45
159.635
157.601
155.336
152.829
150.071
147.051
143.761
140.195
136.347
132.214
127.797
123.097
84.6227
87.5706
90.3697
93.0211
95.5275
97.8933
100.124
102.226
104.207
106.075
107.839
109.508
111.09
112.595
114.032
115.408
116.734
118.017
119.265
120.486
121.688
122.877
124.059
125.241
126.428
127.625
128.836
130.062
131.308
132.573
133.858
135.163
136.487
137.827
139.182
140.549
141.926
143.309
144.697
146.085
147.47
148.848
150.214
151.564
152.894
154.199
155.476
156.719
157.927
159.096
160.224
161.308
162.347
163.337
164.275
165.159
165.986
166.751
167.452
168.083
168.642
169.125
169.528
169.847
170.078
170.216
170.255
170.19
170.015
169.722
169.303
168.749
168.05
167.198
166.182
164.991
163.614
162.04
160.258
158.255
156.021
153.543
150.811
147.815
144.545
140.993
137.153
133.022
128.598
123.885
85.2398
88.1897
90.9839
93.624
96.1131
98.4563
100.66
102.731
104.679
106.511
108.238
109.869
111.413
112.88
114.279
115.619
116.909
118.158
119.373
120.563
121.735
122.896
124.054
125.214
126.381
127.562
128.759
129.977
131.216
132.479
133.766
135.075
136.405
137.753
139.118
140.496
141.884
143.281
144.682
146.086
147.487
148.883
150.268
151.636
152.984
154.306
155.598
156.855
158.076
159.257
160.396
161.491
162.541
163.544
164.496
165.394
166.236
167.017
167.733
168.381
168.957
169.457
169.878
170.216
170.468
170.629
170.694
170.658
170.515
170.256
169.874
169.36
168.704
167.895
166.924
165.78
164.451
162.925
161.192
159.237
157.051
154.618
151.928
148.969
145.73
142.2
138.374
134.246
129.814
125.08
86.0772
89.0297
91.817
94.441
96.9056
99.217
101.382
103.411
105.312
107.095
108.771
110.351
111.843
113.259
114.607
115.898
117.14
118.343
119.514
120.661
121.793
122.917
124.041
125.17
126.311
127.469
128.649
129.854
131.087
132.348
133.637
134.952
136.291
137.652
139.029
140.422
141.826
143.24
144.66
146.085
147.509
148.929
150.339
151.733
153.106
154.451
155.764
157.04
158.277
159.472
160.625
161.735
162.799
163.818
164.787
165.705
166.567
167.369
168.107
168.777
169.374
169.897
170.341
170.704
170.983
171.174
171.274
171.276
171.175
170.962
170.631
170.17
169.57
168.821
167.911
166.829
165.565
164.105
162.438
160.55
158.429
156.059
153.429
150.522
147.327
143.831
140.025
135.902
131.46
126.698
87.1485
90.1044
92.8821
95.4841
97.9156
100.184
102.299
104.271
106.111
107.83
109.441
110.954
112.38
113.73
115.015
116.243
117.425
118.569
119.683
120.777
121.859
122.935
124.015
125.105
126.212
127.341
128.498
129.688
130.912
132.171
133.465
134.79
136.143
137.52
138.915
140.326
141.75
143.185
144.628
146.078
147.531
148.983
150.428
151.857
153.262
154.638
155.977
157.276
158.531
159.743
160.912
162.037
163.118
164.156
165.148
166.091
166.979
167.809
168.574
169.271
169.895
170.444
170.915
171.307
171.619
171.846
171.987
172.037
171.989
171.835
171.567
171.175
170.647
169.972
169.139
168.137
166.954
165.578
163.996
162.194
160.158
157.872
155.32
152.486
149.352
145.904
142.128
138.015
133.561
128.764
88.4722
91.4324
94.1971
96.7695
99.1569
101.369
103.418
105.317
107.079
108.718
110.246
111.677
113.022
114.293
115.499
116.651
117.759
118.832
119.878
120.907
121.927
122.945
123.971
125.011
126.075
127.168
128.297
129.467
130.681
131.94
133.242
134.583
135.956
137.355
138.774
140.207
141.654
143.112
144.581
146.062
147.551
149.044
150.533
152.008
153.457
154.872
156.244
157.568
158.844
160.072
161.255
162.395
163.495
164.556
165.575
166.548
167.471
168.335
169.134
169.863
170.518
171.096
171.598
172.022
172.369
172.638
172.827
172.932
172.949
172.867
172.678
172.369
171.929
171.345
170.606
169.7
168.616
167.342
165.865
164.17
162.242
160.063
157.615
154.875
151.825
148.443
144.711
140.617
136.15
131.309
90.0731
93.0388
95.7855
98.3181
100.647
102.785
104.75
106.556
108.221
109.76
111.189
112.521
113.768
114.943
116.057
117.119
118.141
119.129
120.095
121.046
121.991
122.94
123.9
124.88
125.891
126.939
128.032
129.179
130.382
131.643
132.959
134.324
135.728
137.158
138.606
140.066
141.535
143.017
144.513
146.028
147.56
149.105
150.653
152.19
153.697
155.162
156.573
157.925
159.22
160.46
161.654
162.807
163.924
165.009
166.061
167.074
168.04
168.949
169.79
170.557
171.245
171.854
172.386
172.842
173.225
173.538
173.781
173.951
174.043
174.048
173.954
173.747
173.412
172.936
172.307
171.514
170.547
169.393
168.042
166.477
164.682
162.638
160.322
157.708
154.77
151.48
147.814
143.749
139.272
134.378
91.9849
94.9576
97.6788
100.157
102.407
104.449
106.305
107.995
109.54
110.959
112.267
113.481
114.614
115.678
116.684
117.643
118.564
119.456
120.328
121.189
122.048
122.913
123.795
124.703
125.647
126.639
127.688
128.804
129.994
131.261
132.602
134.006
135.455
136.931
138.416
139.904
141.395
142.895
144.415
145.964
147.545
149.157
150.786
152.408
153.995
155.524
156.981
158.36
159.667
160.912
162.106
163.263
164.394
165.506
166.598
167.663
168.688
169.654
170.548
171.358
172.081
172.719
173.276
173.76
174.178
174.534
174.834
175.077
175.258
175.367
175.388
175.303
175.092
174.742
174.239
173.575
172.74
171.725
170.519
169.109
167.476
165.599
163.452
161.003
158.217
155.056
151.485
147.47
142.989
138.032
94.2541
97.2351
99.9188
102.32
104.464
106.379
108.095
109.64
111.038
112.311
113.478
114.555
115.555
116.492
117.376
118.217
119.025
119.807
120.573
121.331
122.09
122.859
123.648
124.468
125.332
126.252
127.242
128.318
129.491
130.768
132.149
133.616
135.141
136.684
138.219
139.735
141.236
142.741
144.27
145.846
147.482
149.181
150.923
152.67
154.371
155.986
157.494
158.895
160.2
161.43
162.606
163.752
164.887
166.024
167.167
168.304
169.413
170.46
171.419
172.278
173.034
173.693
174.267
174.769
175.212
175.607
175.963
176.286
176.571
176.807
176.97
177.033
176.969
176.761
176.398
175.875
175.186
174.326
173.286
172.055
170.616
168.945
167.012
164.778
162.197
159.218
155.789
151.859
147.387
142.354
96.9473
99.9374
102.562
104.851
106.845
108.591
110.127
111.491
112.711
113.813
114.814
115.734
116.584
117.378
118.126
118.836
119.517
120.177
120.825
121.467
122.113
122.771
123.452
124.167
124.931
125.759
126.67
127.687
128.832
130.123
131.566
133.141
134.794
136.445
138.044
139.58
141.069
142.546
144.054
145.636
147.324
149.136
151.049
152.993
154.866
156.595
158.156
159.561
160.836
162.018
163.145
164.252
165.371
166.529
167.737
168.982
170.221
171.386
172.431
173.34
174.119
174.784
175.356
175.858
176.309
176.729
177.136
177.542
177.949
178.345
178.692
178.939
179.046
178.996
178.783
178.408
177.874
177.18
176.324
175.296
174.084
172.662
170.999
169.047
166.745
164.024
160.809
157.022
152.59
147.468
100.166
103.162
105.686
107.801
109.583
111.099
112.405
113.545
114.553
115.453
116.266
117.008
117.691
118.327
118.925
119.491
120.035
120.562
121.08
121.595
122.114
122.647
123.202
123.792
124.432
125.14
125.942
126.868
127.959
129.254
130.788
132.55
134.444
136.277
137.957
139.486
140.912
142.302
143.728
145.265
146.985
148.939
151.124
153.415
155.562
157.441
159.041
160.407
161.601
162.682
163.707
164.728
165.795
166.957
168.247
169.664
171.128
172.478
173.633
174.585
175.363
176.003
176.542
177.013
177.444
177.865
178.305
178.79
179.339
179.947
180.552
181.039
181.346
181.461
181.395
181.165
180.784
180.262
179.602
178.799
177.845
176.723
175.398
173.815
171.891
169.536
166.648
163.107
158.782
153.564
104.083
107.063
109.395
111.228
112.698
113.905
114.919
115.787
116.544
117.214
117.816
118.361
118.863
119.327
119.763
120.176
120.572
120.957
121.334
121.711
122.092
122.485
122.898
123.342
123.83
124.383
125.029
125.809
126.784
128.039
129.676
131.764
134.176
136.324
138.083
139.536
140.803
142.001
143.238
144.627
146.302
148.407
151.04
154.038
156.64
158.682
160.255
161.496
162.522
163.422
164.269
165.131
166.077
167.193
168.571
170.273
172.195
173.846
175.121
176.076
176.799
177.362
177.821
178.218
178.589
178.969
179.402
179.939
180.641
181.546
182.578
183.394
183.916
184.179
184.237
184.132
183.894
183.539
183.078
182.513
181.845
181.068
180.162
179.068
177.653
175.81
173.422
170.316
166.254
160.965
109.046
111.896
113.816
115.174
116.189
116.986
117.637
118.185
118.657
119.071
119.441
119.776
120.082
120.365
120.63
120.882
121.123
121.356
121.586
121.816
122.049
122.29
122.546
122.822
123.131
123.488
123.918
124.465
125.203
126.269
127.909
130.507
134.286
136.924
138.646
139.847
140.79
141.639
142.522
143.574
144.994
147.111
150.425
155.225
158.519
160.593
161.944
162.891
163.618
164.232
164.806
165.405
166.111
167.046
168.421
170.559
173.645
175.752
177.062
177.896
178.459
178.866
179.184
179.455
179.713
179.992
180.342
180.845
181.643
182.955
184.908
186.166
186.853
187.187
187.307
187.286
187.164
186.964
186.696
186.37
185.997
185.594
185.19
184.78
184.022
182.865
181.223
178.897
175.49
170.325
115.955
118.063
119.044
119.609
119.989
120.273
120.499
120.687
120.848
120.989
121.113
121.226
121.329
121.424
121.513
121.598
121.679
121.757
121.834
121.912
121.99
122.071
122.158
122.252
122.358
122.482
122.636
122.841
123.145
123.667
124.757
127.545
136.035
138.837
139.956
140.527
140.905
141.224
141.557
141.987
142.678
144.084
147.664
158.576
162.149
163.54
164.207
164.598
164.872
165.094
165.3
165.523
165.808
166.259
167.169
169.475
176.501
178.797
179.684
180.101
180.337
180.492
180.608
180.706
180.8
180.907
181.057
181.321
181.898
183.437
188.233
189.753
190.293
190.5
190.572
190.578
190.543
190.479
190.393
190.29
190.185
190.116
190.219
190.988
190.962
190.611
190.006
189.027
187.252
183.348
117.24
110.894
104.18
97.1211
89.7406
82.0656
74.1248
65.9475
57.5633
49.0016
40.2914
31.4609
22.5377
13.5487
4.5206
117.62
111.257
104.523
97.4394
90.0321
82.3289
74.3589
66.1523
57.7389
49.1486
40.4104
31.5526
22.6027
13.5875
4.53349
118.386
111.988
105.211
98.0783
90.6168
82.8562
74.8274
66.5615
58.0896
49.4419
40.6477
31.7353
22.7321
13.6648
4.55917
119.546
113.095
106.252
99.0426
91.4975
83.6491
75.5305
67.1748
58.6143
49.8801
41.0018
32.0078
22.9251
13.7799
4.59741
121.116
114.591
107.655
100.34
92.6788
84.7094
76.4682
67.9907
59.3109
50.4608
41.4704
32.3679
23.1799
13.9317
4.64786
123.118
116.494
109.435
101.978
94.1656
86.039
77.6397
69.0067
60.1758
51.1801
42.0497
32.8124
23.4941
14.1189
4.71001
125.582
118.828
111.608
103.97
95.9631
87.6384
79.0425
70.2183
61.2037
52.0324
42.7346
33.3371
23.8644
14.3393
4.78317
128.546
121.625
114.197
106.326
98.0757
89.506
80.6712
71.618
62.3862
53.0097
43.5178
33.9358
24.2864
14.5902
4.86643
132.064
124.923
117.226
109.059
100.504
91.6359
82.5157
73.194
63.7113
54.1008
44.3896
34.6009
24.7544
14.8682
4.95864
136.209
128.774
120.722
112.175
103.243
94.0147
84.5592
74.9286
65.1623
55.2908
45.3377
35.3225
25.2615
15.1691
5.05839
141.081
133.238
124.709
115.673
106.274
96.6177
86.775
76.7964
66.7166
56.5604
46.3463
36.0887
25.7992
15.488
5.16405
146.823
138.385
129.198
119.529
109.561
99.4035
89.124
78.763
68.3451
57.8862
47.3971
36.8856
26.3579
15.819
5.27371
153.644
144.278
134.163
123.682
113.033
102.308
91.5519
80.7839
70.0123
59.2403
48.4687
37.6976
26.9268
16.156
5.38535
161.842
150.913
139.489
128.001
116.576
105.241
93.9886
82.8058
71.6778
60.5921
49.5383
38.5081
27.4947
16.4926
5.49682
171.711
158.038
144.877
132.252
120.026
108.087
96.3532
84.7702
73.2987
61.91
50.5828
39.3006
28.0506
16.8222
5.60604
13.5462
20.6354
27.7156
34.781
41.8264
48.8476
55.8421
62.8105
69.7587
76.7021
83.6736
90.7395
98.0361
105.872
115.102
13.6265
20.8768
28.1189
35.3474
42.5576
49.7455
56.9086
64.0471
71.1662
78.2802
85.4208
92.6527
100.104
108.026
116.861
13.7087
21.1237
28.531
35.9258
43.3035
50.6596
57.991
65.2958
72.5756
79.838
87.1025
94.4109
101.844
109.541
117.676
13.7926
21.3755
28.9514
36.5156
44.0633
51.5899
59.0905
66.5604
73.9955
81.3926
88.7518
96.0801
103.399
110.751
118.192
13.878
21.6319
29.3794
37.116
44.8371
52.5372
60.21
67.8478
75.44
82.9716
90.4203
97.7537
104.928
111.896
118.644
13.9648
21.8925
29.8144
37.7267
45.6244
53.5022
61.3526
69.1654
76.9249
84.6062
92.1669
99.5357
106.597
113.19
119.179
14.0527
22.1567
30.2558
38.3466
46.4248
54.4851
62.5199
70.5183
78.4625
86.3226
94.0445
101.529
108.59
114.901
120.014
14.1417
22.4239
30.7025
38.9746
47.2368
55.4845
63.7112
71.9073
80.0569
88.1328
96.0851
103.813
111.1
117.441
121.699
14.2314
22.6934
31.1531
39.6087
48.0578
56.4972
64.9225
73.3269
81.7005
90.027
98.2789
106.402
114.264
121.425
125.98
14.3215
22.9641
31.606
40.2465
48.8846
57.5187
66.1468
74.7665
83.3749
91.9709
100.56
109.17
117.913
127.217
139.01
14.4116
23.2351
32.0595
40.8854
49.7131
58.543
67.3756
76.2121
85.0562
93.9176
102.823
111.844
121.168
131.277
143.323
14.5014
23.5051
32.5114
41.5221
50.539
59.5642
68.6002
77.651
86.7235
95.8314
105.004
114.306
123.875
133.989
145.082
14.5905
23.773
32.9598
42.1538
51.3583
60.5766
69.8131
79.073
88.3642
97.6981
107.093
116.579
126.201
136.018
146.073
14.6785
24.0376
33.4025
42.7775
52.1668
61.5752
71.0081
80.4717
89.9733
99.5201
109.117
118.755
128.388
137.878
146.948
14.7651
24.2977
33.8378
43.3904
52.961
62.5554
72.1802
81.8423
91.5489
101.305
111.109
120.932
130.671
140.026
148.239
14.8498
24.5524
34.2638
43.99
53.7376
63.5134
73.3248
83.1802
93.088
103.056
113.085
123.163
133.218
142.966
151.143
14.9324
24.8006
34.6789
44.574
54.4935
64.4451
74.4374
84.48
94.5835
104.76
115.026
125.408
135.976
146.992
159.671
15.0126
25.0415
35.0816
45.1404
55.2261
65.3472
75.5135
85.7355
96.026
106.401
116.884
127.52
138.418
149.86
162.552
15.0901
25.2744
35.4707
45.6872
55.9328
66.2167
76.5492
86.9418
97.4079
107.964
118.632
129.449
140.48
151.858
163.795
15.1648
25.4986
35.8451
46.2131
56.6118
67.0511
77.5416
88.0952
98.7252
109.446
120.275
131.224
142.299
153.464
164.602
15.2364
25.7135
36.204
46.7168
57.2616
67.8484
78.4884
89.1936
99.9771
110.852
121.83
132.911
144.051
155.085
165.541
15.3048
25.9189
36.5467
47.1974
57.8809
68.6075
79.3884
90.2357
101.163
112.184
123.312
134.552
145.873
157.105
167.442
15.37
26.1145
36.8729
47.6545
58.4692
69.3274
80.2404
91.2205
102.282
113.44
124.714
136.134
147.754
159.744
172.86
15.4318
26.3001
37.1822
48.0876
59.0261
70.0079
81.0442
92.147
103.331
114.611
126.013
137.574
149.373
161.598
174.69
15.4904
26.4758
37.4749
48.497
59.5517
70.6491
81.7999
93.0157
104.31
115.697
127.198
138.845
150.694
162.847
175.458
15.5457
26.6415
37.7508
48.8827
60.0465
71.2519
82.5088
93.8282
105.221
116.701
128.28
139.973
151.799
163.773
175.895
15.5977
26.7976
38.0105
49.2454
60.5112
71.8172
83.1727
94.5875
106.071
117.633
129.278
141.007
152.799
164.593
176.269
15.6466
26.9442
38.2543
49.5857
60.9469
72.3466
83.7937
95.2969
106.865
118.504
130.216
141.993
153.793
165.493
176.789
15.6925
27.0815
38.4828
49.9044
61.3546
72.8417
84.3739
95.9595
107.606
119.321
131.107
142.961
154.852
166.668
177.914
15.7354
27.2101
38.6965
50.2024
61.7356
73.3039
84.9152
96.5775
108.298
120.086
131.949
143.898
155.962
168.235
181.173
15.7755
27.3301
38.896
50.4804
62.0909
73.7347
85.4195
97.1526
108.942
120.796
132.727
144.754
156.921
169.338
182.271
15.8128
27.442
39.0819
50.7394
62.4217
74.1357
85.8883
97.6867
109.538
121.451
133.436
145.509
157.703
170.079
182.729
15.8476
27.5462
39.2549
50.9804
62.7293
74.5082
86.3235
98.1818
110.089
122.053
134.08
146.177
158.356
170.625
182.987
15.8799
27.6429
39.4155
51.2041
63.0148
74.8538
86.7272
98.6406
110.6
122.609
134.671
146.786
158.941
171.104
183.204
15.9098
27.7326
39.5645
51.4114
63.2794
75.1741
87.1011
99.0657
111.072
123.125
135.224
147.363
159.519
171.622
183.501
15.9376
27.8156
39.7022
51.6032
63.5242
75.4705
87.4472
99.4593
111.511
123.606
135.745
147.925
160.129
172.292
184.135
15.9631
27.8921
39.8294
51.7803
63.7501
75.744
87.7669
99.8233
111.918
124.054
136.235
148.468
160.765
173.179
185.963
15.9866
27.9625
39.9463
51.9432
63.9581
75.996
88.0614
100.159
112.293
124.467
136.687
148.963
161.316
173.806
186.581
16.0082
28.0271
40.0536
52.0925
64.1489
76.2271
88.3318
100.467
112.637
124.846
137.098
149.4
161.768
174.232
186.842
16.0279
28.086
40.1515
52.2289
64.3231
76.4384
88.579
100.749
112.952
125.192
137.47
149.789
162.15
174.553
186.994
16.0457
28.1395
40.2403
52.3527
64.4813
76.6304
88.804
101.006
113.24
125.508
137.811
150.145
162.499
174.844
187.129
16.0618
28.1877
40.3204
52.4644
64.6241
76.8037
89.0073
101.239
113.501
125.798
138.127
150.484
162.85
175.173
187.327
16.0762
28.2307
40.3919
52.5641
64.7517
76.9587
89.1894
101.448
113.737
126.061
138.421
150.814
163.228
175.615
187.772
16.0889
28.2688
40.4551
52.6523
64.8644
77.0957
89.3504
101.633
113.947
126.297
138.688
151.126
163.621
176.214
189.085
16.0999
28.3019
40.5102
52.729
64.9625
77.2148
89.4903
101.793
114.129
126.502
138.92
151.393
163.943
176.615
189.515
16.1094
28.3302
40.5572
52.7945
65.0461
77.3162
89.6092
101.929
114.282
126.673
139.11
151.605
164.176
176.854
189.677
16.1173
28.3539
40.5964
52.849
65.1156
77.4002
89.7071
102.041
114.406
126.809
139.257
151.76
164.332
176.989
189.744
16.1237
28.3729
40.628
52.8928
65.1711
77.467
89.7844
102.128
114.502
126.912
139.363
151.864
164.424
177.052
189.761
16.1286
28.3876
40.6522
52.9261
65.2132
77.5171
89.8418
102.191
114.57
126.982
139.432
151.925
164.464
177.056
189.719
16.132
28.3979
40.6691
52.9493
65.2421
77.5511
89.88
102.232
114.612
127.023
139.468
151.949
164.465
177.005
189.529
16.1341
28.404
40.679
52.9627
65.2585
77.5697
89.8998
102.252
114.63
127.037
139.476
151.946
164.445
176.961
189.468
16.1348
28.4061
40.6823
52.9667
65.2627
77.5734
89.902
102.252
114.626
127.027
139.458
151.919
164.408
176.92
189.44
16.1342
28.4043
40.6791
52.9617
65.2553
77.5629
89.8875
102.232
114.6
126.994
139.416
151.868
164.353
176.87
189.416
16.1324
28.3988
40.6697
52.948
65.2367
77.5388
89.857
102.194
114.554
126.938
139.349
151.792
164.271
176.795
189.378
16.1294
28.3898
40.6543
52.926
65.2075
77.5017
89.8112
102.139
114.487
126.86
139.258
151.687
164.153
176.676
189.299
16.1253
28.3773
40.6333
52.896
65.1681
77.4521
89.7507
102.066
114.402
126.76
139.142
151.552
163.993
176.482
189.098
16.1201
28.3616
40.6069
52.8585
65.1189
77.3906
89.6761
101.978
114.299
126.64
139.005
151.392
163.796
176.195
188.493
16.1139
28.3428
40.5753
52.8137
65.0604
77.3178
89.5881
101.874
114.178
126.502
138.848
151.215
163.598
175.974
188.282
16.1066
28.321
40.5388
52.7621
64.9931
77.234
89.4872
101.755
114.04
126.345
138.672
151.025
163.402
175.795
188.18
16.0985
28.2965
40.4976
52.7039
64.9174
77.14
89.3739
101.622
113.885
126.169
138.476
150.814
163.19
175.616
188.098
16.0895
28.2694
40.4521
52.6396
64.8337
77.0362
89.2491
101.474
113.714
125.973
138.255
150.572
162.94
175.395
187.988
16.0796
28.2397
40.4025
52.5696
64.7427
76.9234
89.1133
101.314
113.528
125.758
138.008
150.289
162.625
175.074
187.775
16.069
28.2078
40.349
52.4942
64.6449
76.8023
88.9677
101.142
113.328
125.524
137.735
149.965
162.227
174.573
187.239
16.0576
28.1737
40.2919
52.4139
64.5408
76.6737
88.8135
100.961
113.116
125.278
137.446
149.614
161.766
173.846
185.61
16.0456
28.1375
40.2315
52.3289
64.4309
76.5383
88.6517
100.771
112.896
125.025
137.153
149.27
161.351
173.333
185.07
16.0329
28.0993
40.1678
52.2396
64.3157
76.3968
88.4833
100.575
112.671
124.769
136.864
148.947
161
172.985
184.846
16.0195
28.0592
40.1009
52.146
64.1954
76.2496
88.3089
100.373
112.441
124.511
136.579
148.642
160.691
172.719
184.718
16.0055
28.0171
40.031
52.0482
64.07
76.0968
88.1288
100.166
112.207
124.251
136.295
148.341
160.393
172.468
184.6
15.9907
27.973
39.9577
51.9461
63.9394
75.9383
87.9429
99.953
111.968
123.986
136.007
148.032
160.074
172.171
184.423
15.9753
27.9267
39.8809
51.8394
63.8034
75.7737
87.7507
99.7341
111.723
123.716
135.71
147.707
159.713
171.762
184.023
15.959
27.878
39.8002
51.7275
63.6612
75.6025
87.5517
99.5087
111.472
123.44
135.409
147.372
159.316
171.2
182.852
15.9418
27.8266
39.7152
51.6097
63.5121
75.4235
87.3448
99.2758
111.215
123.161
135.107
147.046
158.956
170.794
182.454
15.9235
27.7721
39.6251
51.4853
63.3549
75.2357
87.1286
99.034
110.951
122.877
134.807
146.734
158.643
170.506
182.281
15.9041
27.714
39.5292
51.353
63.1882
75.0371
86.9013
98.7813
110.677
122.586
134.506
146.431
158.356
170.272
182.174
15.8831
27.6516
39.4263
51.2114
63.0102
74.8258
86.6603
98.515
110.39
122.284
134.196
146.124
158.069
170.044
182.072
15.8606
27.5842
39.3154
51.0588
62.8189
74.5992
86.4028
98.2316
110.086
121.967
133.871
145.799
157.758
169.773
181.919
15.836
27.5111
39.195
50.8934
62.6116
74.3542
86.1251
97.9271
109.762
121.628
133.525
145.449
157.402
169.405
181.586
15.8093
27.4313
39.0636
50.7129
62.3856
74.0873
85.8232
97.597
109.411
121.265
133.156
145.075
157.006
168.908
180.636
15.7799
27.3437
38.9195
50.5149
62.1375
73.7945
85.4922
97.236
109.029
120.873
132.762
144.688
156.625
168.527
180.299
15.7476
27.2474
38.7607
50.2965
61.8638
73.4711
85.1266
96.8375
108.609
120.444
132.34
144.287
156.263
168.231
180.14
15.712
27.141
38.5853
50.055
61.5605
73.112
84.7199
96.3936
108.142
119.969
131.878
143.861
155.901
167.97
180.033
15.6727
27.0236
38.3913
49.7873
61.2233
72.7116
84.2647
95.8952
107.615
119.435
131.36
143.39
155.513
167.707
179.936
15.6293
26.8939
38.1767
49.4903
60.848
72.2639
83.753
95.3315
107.016
118.823
130.764
142.849
155.071
167.413
179.832
15.5815
26.751
37.9398
49.1614
60.4305
71.7629
83.1765
94.6911
106.329
118.113
130.066
142.207
154.542
167.058
179.706
15.5292
26.5941
37.6791
48.7982
59.9671
71.2034
82.5272
93.9623
105.536
117.282
129.232
141.424
153.882
166.606
179.543
15.4721
26.4228
37.3936
48.3991
59.4552
70.5807
81.7979
93.1338
104.622
116.303
128.228
140.452
153.032
166.001
179.316
15.4102
26.237
37.0833
47.9634
58.8933
69.8922
80.9835
92.1965
103.57
115.152
127.01
139.227
151.907
165.15
178.973
15.3437
26.037
36.7485
47.4916
58.2817
69.1374
80.0818
91.1453
102.368
113.806
125.538
137.677
150.386
163.888
178.392
15.2729
25.8238
36.3909
46.9859
57.6229
68.3186
79.0948
89.9802
101.014
112.253
123.779
135.725
148.31
161.925
177.238
15.1982
25.5989
36.0129
46.4498
56.9214
67.4418
78.0295
88.7091
99.5147
110.495
121.725
133.324
145.514
158.777
174.47
181.647
164.096
149.319
135.778
122.923
110.504
98.3798
86.4664
74.7064
63.0599
51.4973
39.9965
28.5397
17.1125
5.70232
184.788
167.672
152.496
138.503
125.252
112.493
100.074
87.8999
75.9058
64.0454
52.2847
40.5976
28.9632
17.3643
5.78586
186.097
169.898
154.847
140.711
127.238
114.243
101.596
89.2065
77.0105
64.9603
53.0199
41.1612
29.3614
17.6015
5.86465
186.754
171.321
156.561
142.454
128.889
115.748
102.936
90.377
78.0124
65.7975
53.6972
41.6829
29.7313
17.8223
5.93807
187.138
172.275
157.818
143.818
130.241
117.024
104.099
91.4103
78.9085
66.5538
54.3135
42.1602
30.071
18.0256
6.00574
187.389
172.942
158.753
144.886
131.342
118.092
105.096
92.3117
79.7006
67.2291
54.868
42.5922
30.3797
18.2108
6.06746
187.564
173.428
159.462
145.725
132.235
118.982
105.944
93.0908
80.3941
67.8262
55.3621
42.9793
30.6575
18.3779
6.12322
187.693
173.792
160.007
146.389
132.96
119.721
106.66
93.7592
80.9963
68.3497
55.7986
43.3232
30.9052
18.5273
6.17315
187.79
174.071
160.433
146.919
133.551
120.334
107.264
94.3296
81.5158
68.8054
56.1812
43.6263
31.1244
18.6599
6.21749
187.866
174.288
160.771
147.345
134.033
120.841
107.771
94.8143
81.9617
69.1998
56.5145
43.8917
31.317
18.7766
6.2566
187.925
174.461
161.04
147.69
134.428
121.262
108.196
95.225
82.3428
69.5393
56.8032
44.1226
31.4852
18.8788
6.29087
187.972
174.599
161.258
147.97
134.752
121.611
108.552
95.5722
82.6675
69.8304
57.052
44.3225
31.6313
18.9677
6.32073
188.01
174.71
161.434
148.2
135.019
121.902
108.85
95.8652
82.9433
70.0791
57.2657
44.4948
31.7576
19.0448
6.34662
188.041
174.801
161.578
148.388
135.241
122.143
109.1
96.1122
83.1771
70.2911
57.4486
44.6428
31.8664
19.1112
6.36896
188.067
174.875
161.697
148.543
135.424
122.345
109.31
96.3202
83.3751
70.4714
57.6046
44.7695
31.9597
19.1683
6.38818
188.087
174.936
161.794
148.672
135.576
122.513
109.485
96.4954
83.5424
70.6243
57.7375
44.8776
32.0394
19.2172
6.40464
188.104
174.986
161.875
148.778
135.702
122.653
109.632
96.6428
83.6838
70.7539
57.8504
44.9697
32.1075
19.259
6.41872
188.119
175.028
161.942
148.866
135.808
122.77
109.756
96.7667
83.803
70.8635
57.9461
45.048
32.1655
19.2945
6.43072
188.13
175.062
161.997
148.94
135.896
122.868
109.859
96.871
83.9036
70.9562
58.0272
45.1144
32.2147
19.3248
6.44093
188.14
175.091
162.043
149.001
135.969
122.95
109.946
96.9587
83.9884
71.0345
58.0959
45.1707
32.2565
19.3505
6.4496
188.148
175.115
162.082
149.053
136.031
123.019
110.019
97.0325
84.0598
71.1006
58.1539
45.2183
32.2919
19.3723
6.45696
188.155
175.135
162.114
149.095
136.082
123.077
110.08
97.0946
84.12
71.1564
58.2029
45.2586
32.3219
19.3908
6.4632
188.161
175.152
162.141
149.131
136.125
123.125
110.132
97.1469
84.1708
71.2034
58.2444
45.2927
32.3472
19.4064
6.46848
188.165
175.166
162.164
149.162
136.162
123.166
110.175
97.1909
84.2136
71.2432
58.2794
45.3215
32.3687
19.4196
6.47295
188.169
175.177
162.183
149.187
136.192
123.2
110.212
97.228
84.2497
71.2767
58.309
45.3459
32.3869
19.4308
6.47673
188.173
175.187
162.198
149.208
136.218
123.229
110.242
97.2593
84.2802
71.3051
58.334
45.3665
32.4022
19.4403
6.47993
188.175
175.196
162.212
149.226
136.239
123.253
110.268
97.2858
84.306
71.3291
58.3552
45.384
32.4152
19.4484
6.48265
188.178
175.203
162.223
149.241
136.258
123.274
110.29
97.3082
84.3278
71.3494
58.3731
45.3988
32.4263
19.4552
6.48495
188.18
175.209
162.233
149.254
136.273
123.291
110.309
97.3273
84.3464
71.3667
58.3884
45.4114
32.4357
19.461
6.48691
188.182
175.214
162.241
149.265
136.287
123.306
110.325
97.3436
84.3623
71.3815
58.4014
45.4221
32.4437
19.4659
6.48858
188.183
175.218
162.248
149.275
136.298
123.319
110.339
97.3576
84.3759
71.3941
58.4126
45.4313
32.4505
19.4701
6.49001
188.184
175.222
162.255
149.283
136.308
123.331
110.351
97.3697
84.3876
71.4051
58.4222
45.4393
32.4564
19.4738
6.49124
188.186
175.226
162.26
149.291
136.317
123.34
110.361
97.3803
84.3979
71.4146
58.4305
45.4461
32.4615
19.4769
6.4923
188.187
175.229
162.265
149.297
136.325
123.349
110.371
97.3897
84.407
71.4229
58.4379
45.4521
32.466
19.4797
6.49322
188.188
175.232
162.27
149.304
136.332
123.358
110.379
97.3982
84.4151
71.4304
58.4443
45.4574
32.4699
19.482
6.49403
188.189
175.235
162.275
149.31
136.34
123.365
110.387
97.4061
84.4226
71.4371
58.4501
45.4621