/*--------------------------------*- C++ -*----------------------------------*\
| =========                 |                                                 |
| \\      /  F ield         | OpenFOAM: The Open Source CFD Toolbox           |
|  \\    /   O peration     | Version:  5.x                                   |
|   \\  /    A nd           | Web:      www.OpenFOAM.org                      |
|    \\/     M anipulation  |                                                 |
\*---------------------------------------------------------------------------*/
FoamFile
{
    version     2.0;
    format      ascii;
    class       volScalarField;
    location    "1.3";
    object      gradTx;
}
// * * * * * * * * * * * * * * * * * * * * * * * * * * * * * * * * * * * * * //

dimensions      [0 -1 0 1 0 0 0];

internalField   nonuniform List<scalar> 
2048
(
-0.000825766
-0.00232707
-0.00336233
-0.00361757
-0.0027781
-0.000521841
0.00344844
0.00939495
0.0175271
0.0279831
0.0408188
0.0560006
0.0733997
0.0927832
0.113801
0.135967
0.158645
0.181043
0.20223
0.221183
0.23687
0.248363
0.25496
0.256289
0.252371
0.243616
0.230759
0.21475
0.196625
0.177389
0.157931
0.138969
0.121032
0.104474
0.0894879
0.0761473
0.0644319
0.0542595
0.0455093
0.038041
0.0317078
0.026366
0.0218802
0.0181272
0.0149967
0.0123918
0.0102288
0.00843547
0.00695056
0.00572214
0.00470646
0.00386686
0.0031726
0.00259803
0.00212172
0.00172578
0.00139525
0.00111762
0.000882348
0.000680518
0.00050443
0.000347326
0.000203239
6.68767e-05
-0.00256685
-0.00726068
-0.0105847
-0.0116035
-0.00938126
-0.00295859
0.00856049
0.0259675
0.0498945
0.0807595
0.118733
0.163722
0.215351
0.272944
0.33548
0.401535
0.469234
0.53622
0.599701
0.656584
0.703727
0.738286
0.758095
0.762007
0.750085
0.723594
0.684801
0.636616
0.5822
0.524599
0.466481
0.409984
0.356668
0.307554
0.263192
0.22377
0.189204
0.159231
0.133479
0.111521
0.0929177
0.0772375
0.0640784
0.0530745
0.0438998
0.0362685
0.0299335
0.0246827
0.0203358
0.0167404
0.0137681
0.0113113
0.00928012
0.00759923
0.0062059
0.00504773
0.00408093
0.00326888
0.00258077
0.0019905
0.00147556
0.001016
0.000594097
0.00019524
-0.00457214
-0.0130081
-0.0192284
-0.0216971
-0.0188669
-0.00913942
0.00899785
0.036888
0.0756043
0.125857
0.187942
0.261717
0.346593
0.441499
0.544813
0.65426
0.766793
0.878532
0.984798
1.08033
1.15971
1.21796
1.25127
1.25761
1.23707
1.19191
1.12611
1.04476
0.953337
0.85703
0.760325
0.666751
0.578832
0.498166
0.425571
0.361269
0.30505
0.256423
0.214734
0.179255
0.149242
0.123979
0.102803
0.0851114
0.0703726
0.0581216
0.0479572
0.0395363
0.0325678
0.0268058
0.0220438
0.0181087
0.0148558
0.0121643
0.00993361
0.00807957
0.00653199
0.00523218
0.00413083
0.00318619
0.00236231
0.00162704
0.000950301
0.000311446
-0.0069954
-0.0200326
-0.0300772
-0.0350198
-0.0327014
-0.020861
0.00267449
0.0398492
0.0922187
0.160809
0.246049
0.347761
0.465172
0.596882
0.740769
0.893817
1.05191
1.20968
1.36051
1.49675
1.61039
1.69394
1.74158
1.75015
1.71983
1.65404
1.5589
1.44206
1.31164
1.17522
1.03917
0.908394
0.786279
0.674871
0.575125
0.487174
0.410586
0.344572
0.288147
0.24025
0.199821
0.165854
0.137426
0.113707
0.0939688
0.0775772
0.0639879
0.0527368
0.0434312
0.0357402
0.0293863
0.0241373
0.0197995
0.0162112
0.0132377
0.0107666
0.00870426
0.00697218
0.00550462
0.00424592
0.00314844
0.00216981
0.00126623
0.000413668
-0.0099355
-0.0286396
-0.0436638
-0.0523578
-0.0519457
-0.03946
-0.0119936
0.0330788
0.0978575
0.183713
0.291209
0.420128
0.569539
0.737788
0.922383
1.11973
1.32479
1.53078
1.72904
1.90929
2.06043
2.17186
2.23518
2.2458
2.20394
2.11458
1.98651
1.8306
1.65811
1.47929
1.30251
1.13401
0.977899
0.836489
0.71069
0.600397
0.504829
0.422809
0.352963
0.29386
0.244105
0.202399
0.167559
0.138537
0.114418
0.0944114
0.0778401
0.0641308
0.0527993
0.0434389
0.0357094
0.0293264
0.0240532
0.0196923
0.0160794
0.0130774
0.0105723
0.00846854
0.00668615
0.00515731
0.00382439
0.00263749
0.00153829
0.000500959
-0.013444
-0.0389956
-0.0603006
-0.0742099
-0.0773231
-0.0659016
-0.0361966
0.0152165
0.0910714
0.193113
0.322017
0.477497
0.658464
0.863099
1.0887
1.33133
1.58524
1.84235
2.09191
2.32066
2.51379
2.65675
2.73773
2.75019
2.69439
2.57742
2.41157
2.21179
1.99313
1.7689
1.54958
1.34262
1.15266
0.982027
0.831375
0.700164
0.587125
0.490593
0.408738
0.339723
0.281804
0.233378
0.193012
0.159449
0.131598
0.108524
0.0894329
0.0736526
0.0606187
0.0498587
0.0409779
0.0336473
0.0275934
0.0225885
0.0184431
0.0149993
0.0121259
0.00971319
0.00766915
0.00591558
0.00438657
0.00302725
0.00176479
0.000572893
-0.0175299
-0.051142
-0.0801024
-0.100822
-0.109269
-0.100847
-0.0708154
-0.0147808
0.0707451
0.187909
0.337439
0.518894
0.731004
0.971864
1.23878
1.52774
1.83264
2.14432
2.44996
2.73294
2.97392
3.15327
3.25461
3.26867
3.19579
3.04592
2.83604
2.58633
2.31649
2.04328
1.77934
1.53315
1.30956
1.11066
0.936516
0.785969
0.657104
0.54766
0.455291
0.37772
0.312838
0.258743
0.213759
0.176428
0.145502
0.119916
0.0987693
0.0813068
0.0668948
0.0550048
0.0451967
0.0371046
0.0304243
0.0249035
0.0203319
0.016535
0.0133672
0.0107078
0.0084549
0.00652176
0.00483571
0.00333936
0.0019457
0.000629499
-0.0221626
-0.0650051
-0.103003
-0.132212
-0.147967
-0.144706
-0.116489
-0.0577179
0.0360201
0.167293
0.336764
0.543673
0.78649
1.0633
1.37165
1.70789
2.06597
2.43606
2.80336
3.14755
3.4438
3.66586
3.79114
3.80658
3.71257
3.52302
3.26126
2.95426
2.62737
2.30121
1.9905
1.70444
1.4477
1.2217
1.02567
0.857551
0.71464
0.593983
0.492658
0.407925
0.337303
0.278597
0.2299
0.189571
0.156218
0.128664
0.105918
0.0871523
0.0716779
0.05892
0.048402
0.0397283
0.032571
0.0266579
0.021763
0.0176983
0.0143076
0.0114614
0.00905051
0.00698121
0.00517576
0.00357629
0.00208225
0.000671171
-0.0272751
-0.0804031
-0.128768
-0.168186
-0.193373
-0.197672
-0.17367
-0.11423
-0.0137726
0.130701
0.319576
0.551507
0.824538
1.1368
1.48642
1.87054
2.28382
2.71632
3.15157
3.56528
3.926
4.19889
4.35287
4.36943
4.24906
4.01123
3.68796
3.31495
2.92439
2.54107
2.18156
1.85529
1.56623
1.31465
1.09859
0.91487
0.759831
0.62974
0.521061
0.430576
0.355434
0.293162
0.241637
0.199057
0.163904
0.134904
0.110994
0.0912883
0.0750516
0.0616744
0.0506522
0.0415671
0.0340736
0.027885
0.0227636
0.0185116
0.0149651
0.0119885
0.00946725
0.00730251
0.00541296
0.00374207
0.00217653
0.000698583
-0.0327661
-0.0970541
-0.157002
-0.208348
-0.245231
-0.259756
-0.242676
-0.184846
-0.0791748
0.077766
0.285745
0.542394
0.845078
1.19202
1.58223
2.01432
2.4844
2.98326
3.49332
3.98622
4.4227
4.75677
4.94566
4.96311
4.80967
4.51272
4.11616
3.66701
3.20553
2.76084
2.35086
1.98453
1.66443
1.38919
1.15525
0.958097
0.792966
0.655284
0.540872
0.446036
0.367573
0.302748
0.249247
0.205128
0.168768
0.138816
0.11415
0.0938418
0.0771224
0.063357
0.0520213
0.0426824
0.0349829
0.0286265
0.0233678
0.0190028
0.0153623
0.0123069
0.00971926
0.00749642
0.00555517
0.00384179
0.00223127
0.000712628
-0.038504
-0.114584
-0.187159
-0.252108
-0.303081
-0.3308
-0.323726
-0.270053
-0.160663
0.00828562
0.23541
0.516673
0.848373
1.22884
1.65839
2.1378
2.66561
3.23442
3.82651
4.40969
4.9356
5.34402
5.57601
5.59409
5.39889
5.02917
4.54513
4.00829
3.46822
2.95819
2.49665
2.09105
1.74178
1.44521
1.19585
0.987605
0.814512
0.671113
0.552585
0.454771
0.374142
0.30773
0.253058
0.208067
0.171052
0.140603
0.115558
0.0949577
0.0780113
0.0640683
0.0525927
0.0431432
0.0353557
0.0289292
0.0236141
0.019203
0.0155243
0.012437
0.00982236
0.00757495
0.00561121
0.00388122
0.00224964
0.000714417
-0.0443308
-0.132537
-0.218553
-0.298685
-0.366258
-0.410489
-0.416985
-0.370364
-0.258716
-0.0778163
0.168984
0.475038
0.835051
1.24747
1.71439
2.23955
2.82507
3.46678
4.1482
4.83405
5.46587
5.96532
6.25119
6.26967
6.02145
5.56176
4.97326
4.33579
3.70931
3.13056
2.61717
2.17389
1.79794
1.48284
1.22079
1.00395
0.825084
0.677847
0.556787
0.457319
0.375621
0.308528
0.253431
0.208182
0.171017
0.140487
0.115403
0.0947902
0.0778466
0.0639149
0.0524548
0.0430224
0.0352521
0.0288422
0.0235425
0.019145
0.0154776
0.0123997
0.00979314
0.00755078
0.00559046
0.00386656
0.00223524
0.000705305
-0.0500676
-0.150388
-0.250371
-0.347114
-0.433886
-0.498348
-0.522587
-0.486384
-0.373883
-0.180519
0.0871523
0.418554
0.806124
1.24847
1.74995
2.31821
2.96022
3.67673
4.4545
5.25663
6.01396
6.62556
6.97962
6.99826
6.68223
6.11096
5.39787
4.64561
3.92513
3.2752
2.71078
2.23232
1.83285
1.50244
1.23067
1.00784
0.825424
0.676199
0.554134
0.454265
0.372523
0.305586
0.250746
0.205795
0.168933
0.138693
0.113874
0.0934963
0.0767587
0.0630046
0.0516965
0.0423932
0.0347324
0.0284152
0.0231937
0.0188616
0.0152487
0.0122163
0.00964829
0.00743666
0.00550248
0.00380432
0.00219208
0.000686932
-0.0555219
-0.167564
-0.281692
-0.396249
-0.504862
-0.593723
-0.64066
-0.618893
-0.506867
-0.299731
-0.00910913
0.348671
0.762991
1.23271
1.7651
2.37261
3.06843
3.86022
4.74057
5.67344
6.57934
7.32983
7.77112
7.7897
7.38638
6.67631
5.81505
4.93294
4.1116
3.38938
2.77601
2.26587
1.84672
1.50461
1.22629
1.00014
0.816373
0.666949
0.545327
0.446223
0.365377
0.299354
0.245383
0.201227
0.165071
0.135446
0.111157
0.0912307
0.0748754
0.0614433
0.0504051
0.0413276
0.0338556
0.0276963
0.0226069
0.018385
0.0148635
0.0119076
0.00940412
0.00724511
0.00535682
0.00370114
0.00212455
0.000661223
-0.0604957
-0.183461
-0.311514
-0.444776
-0.577842
-0.695752
-0.771334
-0.768936
-0.658616
-0.435308
-0.118515
0.267238
0.707434
1.20146
1.76019
2.40182
3.14712
4.01282
5.0006
6.07907
7.16026
8.08333
8.63739
8.6557
8.13912
7.25609
6.21942
5.19204
4.26433
3.47044
2.81172
2.27445
1.84008
1.4902
1.20862
0.981825
0.798844
0.65092
0.531087
0.433816
0.354714
0.290281
0.23772
0.194791
0.15969
0.130962
0.107431
0.0881418
0.0723194
0.0593318
0.0486637
0.039894
0.0326778
0.0267315
0.0218196
0.0177455
0.0143465
0.011493
0.00907615
0.00698809
0.0051628
0.00356379
0.00203737
0.000630315
-0.0647949
-0.197475
-0.338781
-0.491228
-0.651218
-0.803309
-0.914734
-0.937925
-0.830434
-0.58705
-0.239431
0.176504
0.641593
1.15629
1.7359
2.40526
3.19392
4.12993
5.22785
6.46636
7.75322
8.89122
9.59254
9.61039
8.94566
7.84692
6.60397
5.41628
4.37878
3.51602
2.81717
2.25835
1.81376
1.46029
1.17879
0.953959
0.7738
0.628956
0.51214
0.417659
0.341052
0.278799
0.228117
0.186788
0.153038
0.125447
0.102866
0.084369
0.0692055
0.0567648
0.0465501
0.0381561
0.0312515
0.0255637
0.0208669
0.0169714
0.0137206
0.0109908
0.00867897
0.00667686
0.00492936
0.00339903
0.00193534
0.000596369
-0.0682396
-0.209029
-0.36243
-0.534019
-0.723099
-0.914938
-1.07094
-1.12777
-1.02411
-0.754686
-0.369822
0.0791217
0.567918
1.09907
1.6933
2.38277
3.20685
4.20693
5.41481
6.82631
8.3525
9.75827
10.6538
10.671
9.81086
8.44316
6.95979
5.59828
4.45047
3.52419
2.79213
2.21826
1.7689
1.41614
1.13801
0.91766
0.74222
0.601896
0.489195
0.398347
0.324885
0.265321
0.216913
0.177496
0.145348
0.11909
0.0976179
0.0800412
0.0656396
0.0538293
0.0441358
0.0361727
0.0296245
0.0242322
0.0197806
0.0160889
0.0130068
0.010418
0.00822599
0.00632187
0.00466489
0.00321345
0.00182302
0.000561269
-0.0706737
-0.217603
-0.381435
-0.571477
-0.791301
-1.02875
-1.23994
-1.34104
-1.24209
-0.937809
-0.50717
-0.021872
0.489102
1.0319
1.63374
2.33467
3.18443
4.23951
5.55337
7.14788
8.94945
10.6884
11.8424
11.8588
10.7386
9.03625
7.27601
5.73011
4.47525
3.49361
2.73692
2.15533
1.70692
1.35917
1.08761
0.874074
0.705083
0.570563
0.462936
0.376445
0.30668
0.250227
0.204423
0.167176
0.136829
0.112066
0.0918302
0.0752754
0.0617178
0.0506041
0.0414854
0.0339967
0.0278404
0.0227723
0.0185898
0.0151212
0.0122239
0.00978961
0.00772946
0.00593266
0.00437706
0.0030133
0.00170429
0.000526265
-0.0719744
-0.222766
-0.394858
-0.601907
-0.853345
-1.14231
-1.42146
-1.58115
-1.48764
-1.13576
-0.648387
-0.123082
0.407987
0.95701
1.55888
2.26178
3.1259
4.22389
5.63515
7.418
9.53168
11.6837
13.1847
13.2003
11.7312
9.61392
7.53969
5.80357
4.44957
3.42372
2.65248
2.07107
1.62947
1.29092
1.02892
0.824346
0.663342
0.535741
0.434006
0.35248
0.286867
0.23387
0.190933
0.15606
0.127675
0.104531
0.0856306
0.0701766
0.057526
0.0471596
0.0386565
0.0316753
0.0259377
0.0212158
0.01732
0.0140894
0.0113888
0.0091192
0.0072004
0.00551791
0.00407261
0.00280417
0.00158196
0.000491649
-0.0720594
-0.224201
-0.401904
-0.623659
-0.906486
-1.2525
-1.6148
-1.85261
-1.76517
-1.34746
-0.789691
-0.22081
0.327462
0.876666
1.4706
2.16544
3.03127
4.15719
5.65195
7.62165
10.0822
12.7431
14.7141
14.7287
12.7876
10.1593
7.73598
5.81067
4.37079
3.31481
2.54036
1.9674
1.53837
1.21301
0.963304
0.769594
0.617907
0.498168
0.403002
0.326933
0.265835
0.216565
0.176701
0.144358
0.118055
0.0966239
0.0791328
0.0648377
0.0531403
0.043558
0.0357002
0.0292503
0.0239506
0.0195903
0.015994
0.0130117
0.0105165
0.00841868
0.00664855
0.00508536
0.0037572
0.00259072
0.0014575
0.00045661
-0.0708923
-0.221725
-0.401974
-0.635214
-0.947764
-1.35538
-1.81851
-2.16138
-2.08049
-1.57106
-0.926488
-0.31114
0.250325
0.793082
1.37094
2.04748
2.90147
4.03766
5.59624
7.74222
10.5783
13.8606
16.4725
16.486
13.9018
10.6498
7.84842
5.74409
4.23742
3.1681
2.4027
1.84652
1.43558
1.12707
0.8921
0.710887
0.569632
0.458525
0.37047
0.300241
0.243936
0.198597
0.161956
0.132255
0.108121
0.0884678
0.0724365
0.0593399
0.0486269
0.0398534
0.0326606
0.0267577
0.0219086
0.01792
0.0146314
0.0119043
0.00961976
0.00769846
0.00608241
0.00464191
0.00343536
0.00237643
0.00133112
0.000419388
-0.0684848
-0.215306
-0.394708
-0.635287
-0.974106
-1.44607
-2.02995
-2.51523
-2.44126
-1.80357
-1.05326
-0.390062
0.179155
0.708308
1.262
1.91015
2.73834
3.86498
5.46176
7.76214
10.9912
15.022
18.5134
18.5258
15.0597
11.0567
7.85961
5.59781
4.04945
2.9858
2.24213
1.71084
1.32314
1.03473
0.816581
0.649227
0.519302
0.417432
0.336897
0.272793
0.22148
0.180213
0.146896
0.119913
0.0980012
0.080168
0.0656276
0.0537533
0.0440429
0.0360926
0.0295759
0.0242289
0.0198372
0.0162258
0.013249
0.0107807
0.00870993
0.00696748
0.00550923
0.00419364
0.00311042
0.00216343
0.00120216
0.000377806
-0.0648957
-0.20506
-0.380019
-0.622924
-0.982477
-1.51861
-2.24462
-2.92431
-2.85753
-2.04014
-1.16346
-0.453645
0.116171
0.624147
1.14589
1.75607
2.54462
3.64042
5.24423
7.6638
11.2846
16.2008
20.905
20.9162
16.235
11.3438
7.75209
5.36775
3.80843
2.77102
2.06175
1.56296
1.20306
0.937547
0.737948
0.585533
0.467629
0.37544
0.302716
0.24493
0.198737
0.161628
0.131696
0.10747
0.087809
0.0718153
0.0587797
0.0481376
0.0394372
0.0323152
0.0264785
0.0216901
0.0177579
0.0145252
0.0118614
0.00965278
0.00779653
0.00623342
0.00493502
0.00374577
0.00278471
0.00195252
0.00106993
0.000330114
-0.0602274
-0.191251
-0.358112
-0.597607
-0.970079
-1.566
-2.45526
-3.4018
-3.34237
-2.27321
-1.24954
-0.498255
0.0630954
0.542081
1.02465
1.58812
2.32387
3.36697
4.94192
7.4309
11.4155
17.3527
23.7348
23.7447
17.3831
11.4683
7.50971
5.05237
3.51762
2.52771
1.86492
1.40549
1.07733
0.836998
0.657301
0.520638
0.415245
0.333035
0.268305
0.216946
0.175939
0.143027
0.1165
0.095044
0.077639
0.0634862
0.0519548
0.0425432
0.0348505
0.0285546
0.0233956
0.0191637
0.015689
0.0128331
0.0104805
0.00853017
0.00688762
0.00550279
0.0043646
0.00330273
0.00245981
0.00174342
0.000934626
0.000275968
-0.0546183
-0.174264
-0.329477
-0.559334
-0.934609
-1.58028
-2.65064
-3.96477
-3.91276
-2.49127
-1.30305
-0.520828
0.0210543
0.463231
0.900152
1.4093
2.08028
3.04925
4.5562
7.05008
11.3342
18.4073
27.1146
27.1233
18.4339
11.3805
7.11922
4.65326
3.18195
2.26046
1.65521
1.24103
0.947821
0.73444
0.575633
0.455276
0.362702
0.290638
0.233986
0.189092
0.153283
0.124566
0.101434
0.0827333
0.0675701
0.0552444
0.0452045
0.037012
0.0303169
0.0248383
0.0203496
0.016668
0.0136455
0.0111617
0.00911624
0.00742098
0.00598988
0.00478107
0.00380168
0.00286808
0.00213699
0.00153517
0.000798133
0.000217212
-0.0482342
-0.154589
-0.294867
-0.508678
-0.874556
-1.55285
-2.81391
-4.63519
-4.5906
-2.67724
-1.31497
-0.519173
-0.00950472
0.388342
0.774125
1.22266
1.81854
2.69342
4.09195
6.51286
10.9869
19.2578
31.1877
31.1952
19.2806
11.0266
6.57226
4.17545
2.80781
1.97433
1.4362
1.07207
0.816258
0.631092
0.493822
0.390089
0.310476
0.248606
0.200032
0.161579
0.130933
0.106372
0.086598
0.0706194
0.0576675
0.0471423
0.0385709
0.031578
0.0258641
0.021189
0.017359
0.0142179
0.0116394
0.0095209
0.0077768
0.00633175
0.00510878
0.0040729
0.003249
0.00244448
0.00181759
0.00132669
0.00066425
0.000158072
-0.041257
-0.132781
-0.255257
-0.446802
-0.789517
-1.47508
-2.92051
-5.44126
-5.40402
-2.80634
-1.27628
-0.492291
-0.0288379
0.317798
0.648065
1.03117
1.54359
2.30686
3.55762
5.81762
10.3191
19.7477
36.1369
36.1432
19.7667
10.3523
5.86732
3.62755
2.40283
1.6746
1.21139
0.900929
0.684206
0.528032
0.412626
0.325621
0.258966
0.207237
0.166668
0.13458
0.109022
0.0885503
0.072076
0.0587679
0.0479837
0.039222
0.032088
0.0262687
0.0215143
0.0176247
0.0144384
0.0118254
0.00968063
0.00791878
0.00646867
0.00526774
0.00424866
0.00338211
0.0027085
0.00203366
0.00150344
0.00111735
0.000538037
0.00010446
-0.0338734
-0.10943
-0.211776
-0.375422
-0.680484
-1.33926
-2.93551
-6.41888
-6.38887
-2.84348
-1.17896
-0.440667
-0.0378789
0.251665
0.523249
0.837591
1.26039
1.8978
2.96508
4.97159
9.28225
19.6534
42.1943
42.1994
19.6688
9.30899
5.01169
3.02156
1.97542
1.36655
0.984071
0.729695
0.553037
0.426185
0.332685
0.262328
0.208503
0.166776
0.134079
0.108233
0.087659
0.0711855
0.0579333
0.0472308
0.03856
0.0315165
0.0257824
0.0211055
0.0172849
0.0141594
0.0115993
0.00949984
0.00777674
0.00636151
0.00519695
0.00423302
0.00341288
0.00271187
0.00218154
0.00163643
0.00119708
0.000907418
0.000424145
6.22916e-05
-0.0262643
-0.0851251
-0.165639
-0.296722
-0.550074
-1.14007
-2.81033
-7.61349
-7.59054
-2.73994
-1.01741
-0.366495
-0.0381507
0.189754
0.400733
0.644466
0.973712
1.47486
2.32902
3.99222
7.84267
18.6636
49.6531
49.6569
18.6753
7.86313
4.02292
2.37229
1.53439
1.05525
0.757222
0.560206
0.423923
0.326327
0.254531
0.200582
0.159353
0.127418
0.102409
0.08265
0.0669272
0.0543423
0.0442207
0.0360482
0.0294282
0.0240514
0.0196745
0.016105
0.0131891
0.010804
0.00885035
0.00724829
0.0059335
0.00485381
0.00396551
0.00323072
0.00260394
0.00206467
0.00166913
0.00125272
0.0009017
0.000698113
0.000324468
3.51077e-05
-0.018595
-0.0604262
-0.118071
-0.213206
-0.402614
-0.876541
-2.47883
-9.08213
-9.06603
-2.42944
-0.790476
-0.273758
-0.031619
0.131697
0.281363
0.454008
0.687952
1.04656
1.66608
2.90782
5.99482
16.3535
58.8806
58.8833
16.3618
6.00918
2.92937
1.69647
1.08839
0.745319
0.533466
0.394026
0.297841
0.229094
0.178589
0.140676
0.111725
0.0893124
0.0717685
0.0579128
0.0468901
0.0380693
0.0309762
0.0252499
0.0206118
0.0168451
0.0137792
0.0112789
0.00923666
0.00756613
0.00619789
0.00507589
0.00415511
0.0033991
0.00277719
0.0022631
0.00182359
0.00144241
0.00117211
0.000881765
0.000620827
0.000491465
0.000235916
2.1797e-05
-0.0110097
-0.0358422
-0.0702385
-0.127517
-0.244016
-0.554781
-1.85264
-10.8958
-10.8863
-1.82355
-0.504086
-0.168101
-0.0204992
0.077023
0.165793
0.268091
0.406984
0.620854
0.993668
1.75677
3.77825
12.1558
70.3337
70.3353
12.1606
3.78671
1.76947
1.01158
0.645523
0.440832
0.315019
0.23244
0.175578
0.134985
0.10519
0.0828372
0.0657762
0.0525729
0.0422407
0.0340824
0.0275933
0.0224012
0.0182265
0.0148565
0.0121272
0.00991077
0.00810676
0.00663566
0.00543407
0.00445122
0.00364624
0.00298613
0.00244442
0.0019997
0.00163391
0.00133177
0.00107294
0.00084637
0.000691337
0.000522366
0.000357696
0.000289847
0.000149748
1.56929e-05
-0.0036291
-0.0118208
-0.0231967
-0.0422254
-0.0813731
-0.191287
-0.815966
-13.1418
-13.1387
-0.806404
-0.174622
-0.0564139
-0.00703421
0.0252357
0.0545134
0.0882367
0.134066
0.204786
0.328601
0.584928
1.2993
5.32625
84.5749
84.5755
5.32784
1.30208
0.589101
0.33449
0.2129
0.145202
0.103684
0.0764672
0.0577423
0.0443826
0.0345802
0.0272287
0.0216187
0.0172779
0.0138815
0.0111999
0.00906723
0.00736087
0.00598897
0.00488155
0.00398469
0.00325639
0.00266362
0.00218024
0.00178543
0.0014625
0.00119801
0.000981112
0.000803122
0.000657023
0.000536866
0.000437707
0.000352613
0.000277225
0.000227761
0.000173198
0.000114438
9.55747e-05
5.43457e-05
6.74151e-06
)
;

boundaryField
{
    left
    {
        type            calculated;
        value           uniform 0;
    }
    right
    {
        type            calculated;
        value           uniform 0;
    }
    interface
    {
        type            calculated;
        value           nonuniform List<scalar> 
64
(
-0.0036291
-0.0118208
-0.0231967
-0.0422254
-0.0813731
-0.191287
-0.815966
-13.1418
-13.1387
-0.806404
-0.174622
-0.0564139
-0.00703421
0.0252357
0.0545134
0.0882367
0.134066
0.204786
0.328601
0.584928
1.2993
5.32625
84.5749
84.5755
5.32784
1.30208
0.589101
0.33449
0.2129
0.145202
0.103684
0.0764672
0.0577423
0.0443826
0.0345802
0.0272287
0.0216187
0.0172779
0.0138815
0.0111999
0.00906723
0.00736087
0.00598897
0.00488155
0.00398469
0.00325639
0.00266362
0.00218024
0.00178543
0.0014625
0.00119801
0.000981112
0.000803122
0.000657023
0.000536866
0.000437707
0.000352613
0.000277225
0.000227761
0.000173198
0.000114438
9.55747e-05
5.43457e-05
6.74151e-06
)
;
    }
    bottom
    {
        type            calculated;
        value           nonuniform List<scalar> 
64
(
-0.000825766
-0.00232707
-0.00336233
-0.00361757
-0.0027781
-0.000521841
0.00344844
0.00939495
0.0175271
0.0279831
0.0408188
0.0560006
0.0733997
0.0927832
0.113801
0.135967
0.158645
0.181043
0.20223
0.221183
0.23687
0.248363
0.25496
0.256289
0.252371
0.243616
0.230759
0.21475
0.196625
0.177389
0.157931
0.138969
0.121032
0.104474
0.0894879
0.0761473
0.0644319
0.0542595
0.0455093
0.038041
0.0317078
0.026366
0.0218802
0.0181272
0.0149967
0.0123918
0.0102288
0.00843547
0.00695056
0.00572214
0.00470646
0.00386686
0.0031726
0.00259803
0.00212172
0.00172578
0.00139525
0.00111762
0.000882348
0.000680518
0.00050443
0.000347326
0.000203239
6.68767e-05
)
;
    }
    defaultFaces
    {
        type            empty;
    }
}


// ************************************************************************* //
