/*--------------------------------*- C++ -*----------------------------------*\
| =========                 |                                                 |
| \\      /  F ield         | OpenFOAM: The Open Source CFD Toolbox           |
|  \\    /   O peration     | Version:  5.x                                   |
|   \\  /    A nd           | Web:      www.OpenFOAM.org                      |
|    \\/     M anipulation  |                                                 |
\*---------------------------------------------------------------------------*/
FoamFile
{
    version     2.0;
    format      ascii;
    class       volScalarField;
    location    "1.3";
    object      gradTy;
}
// * * * * * * * * * * * * * * * * * * * * * * * * * * * * * * * * * * * * * //

dimensions      [0 -1 0 1 0 0 0];

internalField   nonuniform List<scalar> 
2048
(
-16.7482
-16.752
-16.7588
-16.7673
-16.7755
-16.7807
-16.7794
-16.7675
-16.7405
-16.6934
-16.621
-16.518
-16.3794
-16.2006
-15.9773
-15.7066
-15.3864
-15.0163
-14.5978
-14.1346
-13.6327
-13.1004
-12.5478
-11.9865
-11.4282
-10.8843
-10.3647
-9.87761
-9.42866
-9.0213
-8.65684
-8.33479
-8.0533
-7.80959
-7.6003
-7.42184
-7.27057
-7.14299
-7.03586
-6.94622
-6.87143
-6.80921
-6.75753
-6.7147
-6.67926
-6.64995
-6.62576
-6.6058
-6.58935
-6.5758
-6.56466
-6.55549
-6.54797
-6.5418
-6.53676
-6.53265
-6.52931
-6.52663
-6.52449
-6.52282
-6.52155
-6.52064
-6.52006
-6.51977
-16.7445
-16.7488
-16.7567
-16.7669
-16.7773
-16.7852
-16.7872
-16.779
-16.7561
-16.7132
-16.645
-16.5461
-16.4113
-16.2357
-16.015
-15.7459
-15.426
-15.0546
-14.6331
-14.165
-13.6564
-13.1159
-12.5541
-11.9831
-11.4156
-10.8636
-10.3376
-9.84578
-9.39404
-8.98563
-8.62155
-8.30097
-8.02172
-7.78071
-7.57434
-7.39882
-7.25037
-7.12542
-7.02067
-6.93315
-6.86023
-6.79962
-6.74933
-6.70768
-6.67323
-6.64477
-6.62128
-6.60191
-6.58595
-6.57281
-6.562
-6.55311
-6.54582
-6.53984
-6.53495
-6.53096
-6.52773
-6.52513
-6.52306
-6.52144
-6.52021
-6.51933
-6.51876
-6.51848
-16.7371
-16.7424
-16.7523
-16.7656
-16.7802
-16.7935
-16.8017
-16.8006
-16.7854
-16.7505
-16.6905
-16.5994
-16.4719
-16.3027
-16.087
-15.8211
-15.502
-15.1285
-14.7014
-14.224
-13.7025
-13.146
-12.5661
-11.9765
-11.3911
-10.8234
-10.2848
-9.78417
-9.32728
-8.91706
-8.55395
-8.23643
-7.96165
-7.72593
-7.52521
-7.35533
-7.21228
-7.09233
-6.99211
-6.90861
-6.83921
-6.78164
-6.73396
-6.69452
-6.66195
-6.63506
-6.61289
-6.59461
-6.57957
-6.56719
-6.557
-6.54864
-6.54177
-6.53614
-6.53154
-6.52779
-6.52475
-6.5223
-6.52035
-6.51883
-6.51768
-6.51684
-6.51631
-6.51605
-16.7257
-16.7324
-16.7452
-16.7629
-16.7835
-16.8042
-16.8214
-16.8305
-16.8264
-16.8031
-16.7547
-16.6751
-16.5581
-16.3982
-16.1901
-15.9291
-15.6116
-15.2355
-14.8008
-14.3102
-13.77
-13.1901
-12.5837
-11.9664
-11.3547
-10.764
-10.2074
-9.69421
-9.23035
-8.8181
-8.45692
-8.14428
-7.87629
-7.64845
-7.45598
-7.29427
-7.15896
-7.04614
-6.95233
-6.87448
-6.81001
-6.75669
-6.71264
-6.67629
-6.64631
-6.6216
-6.60125
-6.5845
-6.57072
-6.55938
-6.55007
-6.54242
-6.53614
-6.531
-6.52679
-6.52337
-6.52059
-6.51835
-6.51657
-6.51518
-6.51412
-6.51336
-6.51287
-6.51263
-16.7101
-16.7185
-16.7348
-16.7579
-16.7859
-16.8161
-16.8447
-16.8669
-16.8771
-16.8688
-16.8355
-16.7704
-16.6672
-16.5195
-16.3214
-16.0675
-15.7529
-15.3743
-14.9304
-14.4233
-13.859
-13.2484
-12.6067
-11.9526
-11.306
-10.6851
-10.1051
-9.57631
-9.10431
-8.6904
-8.33268
-8.02711
-7.76849
-7.55115
-7.36951
-7.21834
-7.09292
-6.98911
-6.90333
-6.83255
-6.7742
-6.72613
-6.68655
-6.65398
-6.62718
-6.60514
-6.58701
-6.57211
-6.55987
-6.54981
-6.54155
-6.53476
-6.5292
-6.52465
-6.52093
-6.51789
-6.51543
-6.51345
-6.51188
-6.51064
-6.50971
-6.50904
-6.5086
-6.50839
-16.6898
-16.7002
-16.7205
-16.7498
-16.7865
-16.828
-16.8703
-16.9083
-16.9357
-16.9456
-16.9305
-16.8832
-16.7966
-16.6641
-16.4788
-16.2343
-15.9244
-15.5441
-15.0903
-14.5638
-13.9702
-13.3213
-12.6352
-11.9346
-11.2438
-10.5854
-9.97705
-9.43011
-8.94954
-8.53513
-8.18302
-7.8872
-7.64077
-7.43671
-7.26844
-7.13007
-7.0165
-6.92337
-6.84704
-6.78449
-6.73323
-6.69122
-6.65678
-6.62854
-6.60537
-6.58636
-6.57077
-6.55797
-6.54747
-6.53885
-6.53178
-6.52598
-6.52123
-6.51734
-6.51416
-6.51157
-6.50947
-6.50778
-6.50643
-6.50538
-6.50458
-6.504
-6.50363
-6.50345
-16.6645
-16.6769
-16.7016
-16.7378
-16.7842
-16.8384
-16.8966
-16.953
-17.0007
-17.0317
-17.0379
-17.0113
-16.9443
-16.8297
-16.6602
-16.4279
-16.1252
-15.7447
-15.2812
-14.7331
-14.1052
-13.4102
-12.6696
-11.9115
-11.1667
-10.463
-9.82164
-9.25465
-8.76596
-8.35308
-8.00948
-7.72663
-7.49554
-7.30764
-7.15526
-7.03185
-6.93189
-6.8509
-6.7852
-6.73185
-6.68846
-6.65313
-6.62433
-6.60082
-6.58161
-6.56591
-6.55305
-6.54253
-6.53391
-6.52685
-6.52107
-6.51633
-6.51245
-6.50927
-6.50668
-6.50456
-6.50285
-6.50147
-6.50037
-6.49951
-6.49886
-6.49839
-6.49808
-6.49794
-16.6339
-16.6484
-16.6775
-16.7209
-16.7778
-16.8462
-16.9221
-16.9995
-17.0704
-17.1257
-17.1561
-17.1528
-17.1081
-17.0143
-16.8634
-16.6466
-16.3542
-15.9762
-15.5039
-14.9329
-14.266
-13.5167
-12.7103
-11.8825
-11.0725
-10.3155
-9.63657
-9.04852
-8.55324
-8.14494
-7.81355
-7.54744
-7.33515
-7.16639
-7.03238
-6.92591
-6.84116
-6.77355
-6.71945
-6.67603
-6.64109
-6.6129
-6.59008
-6.57158
-6.55655
-6.54432
-6.53435
-6.52621
-6.51956
-6.51412
-6.50968
-6.50604
-6.50307
-6.50064
-6.49865
-6.49703
-6.49572
-6.49467
-6.49383
-6.49317
-6.49267
-6.49231
-6.49207
-6.49197
-16.5978
-16.6144
-16.6477
-16.6984
-16.7663
-16.8499
-16.9455
-17.0466
-17.1437
-17.2262
-17.2835
-17.3062
-17.2861
-17.2157
-17.0865
-16.8888
-16.6106
-16.2387
-15.7601
-15.1659
-14.4557
-13.6431
-12.7583
-11.8465
-10.9586
-10.1395
-9.41903
-8.80995
-8.31088
-7.91137
-7.59678
-7.3517
-7.16194
-7.01535
-6.9021
-6.81439
-6.74622
-6.693
-6.65124
-6.61832
-6.59222
-6.57145
-6.55484
-6.54151
-6.53077
-6.52209
-6.51506
-6.50935
-6.50471
-6.50093
-6.49785
-6.49533
-6.49328
-6.4916
-6.49023
-6.48912
-6.48822
-6.48749
-6.48691
-6.48645
-6.48611
-6.48587
-6.4857
-6.48564
-16.5564
-16.5746
-16.612
-16.6697
-16.7486
-16.8483
-16.9654
-17.0928
-17.2194
-17.3322
-17.419
-17.4697
-17.4763
-17.4316
-17.3273
-17.1526
-16.8934
-16.5324
-16.0514
-15.4351
-14.678
-13.7926
-12.8146
-11.802
-10.8216
-9.93101
-9.16562
-8.53696
-8.03843
-7.6532
-7.36088
-7.14164
-6.97829
-6.85689
-6.76662
-6.69929
-6.64883
-6.61079
-6.5819
-6.55981
-6.5428
-6.52959
-6.51927
-6.51116
-6.50474
-6.49963
-6.49554
-6.49227
-6.48963
-6.4875
-6.48577
-6.48437
-6.48323
-6.4823
-6.48155
-6.48093
-6.48044
-6.48003
-6.47971
-6.47946
-6.47927
-6.47914
-6.47905
-6.47903
-16.5096
-16.5293
-16.57
-16.634
-16.7237
-16.84
-16.9804
-17.1369
-17.2965
-17.4429
-17.5617
-17.6421
-17.6768
-17.6598
-17.5832
-17.4358
-17.201
-16.8572
-16.3794
-15.7439
-14.9375
-13.9692
-12.8809
-11.7472
-10.6571
-9.68509
-8.87245
-8.22747
-7.73561
-7.37154
-7.10779
-6.91959
-6.78665
-6.69335
-6.62808
-6.58248
-6.55061
-6.52828
-6.51258
-6.5015
-6.49363
-6.48801
-6.48396
-6.48102
-6.47887
-6.47728
-6.4761
-6.47521
-6.47454
-6.47402
-6.47362
-6.47331
-6.47307
-6.47287
-6.47271
-6.47259
-6.47248
-6.4724
-6.47233
-6.47228
-6.47224
-6.47222
-6.4722
-6.47221
-16.458
-16.4785
-16.5216
-16.591
-16.6907
-16.8238
-16.989
-17.1779
-17.3743
-17.5578
-17.7108
-17.8221
-17.8859
-17.8979
-17.8517
-17.7358
-17.5317
-17.2129
-16.746
-16.0966
-15.2398
-14.1781
-12.9591
-11.6797
-10.4598
-9.39586
-8.53521
-7.87944
-7.40248
-7.06786
-6.83979
-6.68811
-6.58953
-6.527
-6.48848
-6.46568
-6.45299
-6.44668
-6.44428
-6.4442
-6.44541
-6.44726
-6.44937
-6.4515
-6.45351
-6.45534
-6.45697
-6.45839
-6.45962
-6.46066
-6.46154
-6.46228
-6.46289
-6.4634
-6.46382
-6.46416
-6.46444
-6.46466
-6.46483
-6.46497
-6.46508
-6.46517
-6.46522
-6.46527
-16.402
-16.4228
-16.4671
-16.5402
-16.6486
-16.7981
-16.9897
-17.2146
-17.4526
-17.6769
-17.866
-18.0087
-18.1015
-18.1433
-18.1297
-18.0498
-17.8832
-17.5983
-17.1526
-16.4975
-15.5918
-14.426
-13.0522
-11.5966
-10.2227
-9.05633
-8.14921
-7.4911
-7.03956
-6.74413
-6.55948
-6.44992
-6.38946
-6.36008
-6.3497
-6.35044
-6.35726
-6.36703
-6.37785
-6.3886
-6.39869
-6.40782
-6.41589
-6.4229
-6.42892
-6.43403
-6.43835
-6.44198
-6.44501
-6.44754
-6.44964
-6.45137
-6.45281
-6.45398
-6.45495
-6.45573
-6.45637
-6.45688
-6.45729
-6.45761
-6.45786
-6.45805
-6.45817
-6.45825
-16.3423
-16.3626
-16.4066
-16.4814
-16.5965
-16.7615
-16.9807
-17.2458
-17.531
-17.8004
-18.0272
-18.2009
-18.322
-18.3934
-18.4141
-18.3744
-18.2526
-18.0122
-17.6003
-16.9513
-16.0013
-14.7212
-13.164
-11.4939
-9.9373
-8.65834
-7.70956
-7.06111
-6.64807
-6.40288
-6.2698
-6.20786
-6.18895
-6.19469
-6.21346
-6.23814
-6.26451
-6.2902
-6.31397
-6.33526
-6.35393
-6.37005
-6.38382
-6.39548
-6.4053
-6.41352
-6.42039
-6.4261
-6.43084
-6.43476
-6.438
-6.44068
-6.44288
-6.44469
-6.44617
-6.44737
-6.44834
-6.44913
-6.44976
-6.45025
-6.45063
-6.45091
-6.4511
-6.45121
-16.2798
-16.2986
-16.3406
-16.4146
-16.5336
-16.7123
-16.9601
-17.2703
-17.6098
-17.9293
-18.1949
-18.3982
-18.5455
-18.6456
-18.7016
-18.7058
-18.6363
-18.4521
-18.0894
-17.4625
-16.4776
-15.0746
-13.2996
-11.3662
-9.59269
-8.19245
-7.21141
-6.58885
-6.22999
-6.04722
-5.97404
-5.96488
-5.99046
-6.03281
-6.0813
-6.12997
-6.17565
-6.21689
-6.25319
-6.2846
-6.31146
-6.33421
-6.35337
-6.36942
-6.38281
-6.39395
-6.40319
-6.41085
-6.41718
-6.4224
-6.42671
-6.43026
-6.43318
-6.43557
-6.43752
-6.43911
-6.4404
-6.44144
-6.44227
-6.44292
-6.44343
-6.44379
-6.44404
-6.44418
-16.2154
-16.2318
-16.2696
-16.3399
-16.4593
-16.6488
-16.9256
-17.2866
-17.6898
-18.065
-18.3698
-18.5999
-18.7702
-18.897
-18.9885
-19.0401
-19.0303
-18.9147
-18.6193
-18.0357
-17.0314
-15.4997
-13.4663
-11.2062
-9.17514
-7.64795
-6.65023
-6.07469
-5.78825
-5.68085
-5.67571
-5.72397
-5.79636
-5.87622
-5.95456
-6.02691
-6.09142
-6.14765
-6.19593
-6.23694
-6.27152
-6.3005
-6.3247
-6.34483
-6.36154
-6.37538
-6.38683
-6.39628
-6.40408
-6.41051
-6.4158
-6.42016
-6.42373
-6.42666
-6.42905
-6.431
-6.43258
-6.43386
-6.43487
-6.43567
-6.43629
-6.43673
-6.43704
-6.43718
-16.15
-16.1631
-16.1947
-16.2577
-16.3729
-16.5691
-16.8744
-17.293
-17.7721
-18.2097
-18.553
-18.8055
-18.9943
-19.1449
-19.2715
-19.373
-19.4297
-19.3959
-19.1882
-18.6743
-17.6744
-16.0139
-13.6742
-11.0038
-8.66725
-7.01298
-6.02226
-5.52028
-5.32679
-5.30806
-5.37855
-5.48804
-5.60881
-5.7265
-5.83435
-5.92978
-6.01238
-6.08288
-6.14247
-6.19248
-6.23426
-6.26903
-6.29788
-6.32179
-6.34155
-6.35788
-6.37135
-6.38245
-6.39159
-6.39912
-6.40531
-6.4104
-6.41457
-6.41799
-6.42079
-6.42306
-6.4249
-6.42639
-6.42758
-6.42851
-6.42924
-6.42974
-6.43009
-6.43025
-16.0848
-16.0934
-16.1166
-16.1686
-16.2741
-16.4712
-16.8029
-17.287
-17.8588
-18.3665
-18.7458
-19.0146
-19.2161
-19.3867
-19.5469
-19.7001
-19.8296
-19.8903
-19.7927
-19.3808
-18.4192
-16.639
-13.9378
-10.7446
-8.0472
-6.27485
-5.32505
-4.92886
-4.85063
-4.93357
-5.08633
-5.25987
-5.42976
-5.58498
-5.72158
-5.83915
-5.93893
-6.02284
-6.09297
-6.15134
-6.19976
-6.23984
-6.27297
-6.30032
-6.32287
-6.34145
-6.35676
-6.36936
-6.37972
-6.38824
-6.39524
-6.40099
-6.40571
-6.40957
-6.41273
-6.4153
-6.41738
-6.41907
-6.42041
-6.42145
-6.42228
-6.42283
-6.42323
-6.42339
-16.0207
-16.024
-16.0366
-16.0735
-16.163
-16.3531
-16.707
-17.2655
-17.9529
-18.5394
-18.95
-19.2266
-19.4337
-19.6197
-19.8115
-20.0172
-20.2244
-20.3917
-20.4274
-20.1554
-19.2787
-17.4022
-14.2778
-10.4075
-7.28773
-5.42057
-4.55813
-4.30553
-4.36579
-4.56248
-4.80279
-5.04204
-5.26091
-5.45274
-5.61691
-5.75544
-5.8713
-5.96766
-6.04752
-6.11354
-6.16803
-6.21295
-6.24995
-6.28041
-6.30548
-6.3261
-6.34306
-6.357
-6.36846
-6.37787
-6.3856
-6.39195
-6.39715
-6.40141
-6.40489
-6.40773
-6.41003
-6.41188
-6.41336
-6.41451
-6.41543
-6.41602
-6.41645
-6.41662
-15.9587
-15.9559
-15.9559
-15.9736
-16.04
-16.2131
-16.5815
-17.2235
-18.0594
-18.7335
-19.1672
-19.4406
-19.6451
-19.8414
-20.0622
-20.32
-20.6085
-20.8929
-21.0852
-20.996
-20.2653
-18.337
-14.7252
-9.96184
-6.35531
-4.43784
-3.72375
-3.65738
-3.87922
-4.20005
-4.53151
-4.83681
-5.10362
-5.33059
-5.52081
-5.67889
-5.80961
-5.91739
-6.00611
-6.07907
-6.13904
-6.18831
-6.22879
-6.26204
-6.28935
-6.31179
-6.33022
-6.34536
-6.35779
-6.368
-6.37638
-6.38326
-6.38889
-6.39351
-6.39728
-6.40035
-6.40284
-6.40485
-6.40645
-6.40769
-6.40868
-6.40931
-6.40977
-6.40995
-15.8998
-15.8902
-15.8759
-15.8706
-15.9061
-16.0496
-16.4202
-17.1542
-18.1853
-18.9551
-19.3989
-19.6555
-19.8484
-20.0496
-20.2963
-20.605
-20.9764
-21.3861
-21.7568
-21.8966
-21.3891
-19.4839
-15.3253
-9.36211
-5.20948
-3.31641
-2.82767
-2.9936
-3.39855
-3.85151
-4.27573
-4.64608
-4.95899
-5.2191
-5.43353
-5.60959
-5.75385
-5.87197
-5.96867
-6.04785
-6.11271
-6.16586
-6.20942
-6.24515
-6.27445
-6.2985
-6.31823
-6.33442
-6.34772
-6.35863
-6.36758
-6.37492
-6.38093
-6.38586
-6.38988
-6.39316
-6.39582
-6.39797
-6.39968
-6.401
-6.40205
-6.40272
-6.40319
-6.4034
-15.8446
-15.8278
-15.798
-15.7663
-15.763
-15.8617
-16.2159
-17.0471
-18.3413
-19.2118
-19.6462
-19.8698
-20.0416
-20.2424
-20.5114
-20.8688
-21.323
-21.8632
-22.4311
-22.8474
-22.6566
-20.8905
-16.1464
-8.54033
-3.8028
-2.05005
-1.87992
-2.32536
-2.93187
-3.52185
-4.0383
-4.47138
-4.82774
-5.11856
-5.35516
-5.54751
-5.70394
-5.8313
-5.93509
-6.01978
-6.08895
-6.14551
-6.19179
-6.22968
-6.26073
-6.28618
-6.30705
-6.32417
-6.33821
-6.34973
-6.35918
-6.36692
-6.37327
-6.37847
-6.38272
-6.38617
-6.38898
-6.39125
-6.39305
-6.39444
-6.39555
-6.39625
-6.39672
-6.39697
-15.7938
-15.7697
-15.7236
-15.6628
-15.6132
-15.6497
-15.9604
-16.8865
-18.5434
-19.5119
-19.9092
-20.0812
-20.2226
-20.4181
-20.706
-21.1088
-21.6435
-22.3161
-23.0952
-23.8336
-24.0674
-22.61
-17.29
-7.39497
-2.08196
-0.639034
-0.895318
-1.66552
-2.48731
-3.21559
-3.82154
-4.31379
-4.7103
-5.02909
-5.28563
-5.4925
-5.65971
-5.7952
-5.90521
-5.99472
-6.06766
-6.12718
-6.17581
-6.21559
-6.24814
-6.27481
-6.29666
-6.31458
-6.32927
-6.34131
-6.35119
-6.35929
-6.36592
-6.37135
-6.37579
-6.3794
-6.38233
-6.3847
-6.38659
-6.38803
-6.38918
-6.38992
-6.39041
-6.3907
-15.7479
-15.7166
-15.654
-15.5624
-15.4597
-15.4153
-15.6451
-16.6492
-18.8155
-19.8645
-20.1866
-20.2869
-20.3895
-20.5755
-20.8787
-21.3231
-21.9342
-22.737
-23.7353
-24.8354
-25.612
-24.6989
-18.9075
-5.77471
0.00920697
0.90692
0.106219
-1.02807
-2.07264
-2.93659
-3.62718
-4.17398
-4.60682
-4.95057
-5.22473
-5.44433
-5.62094
-5.76348
-5.87887
-5.97252
-6.0487
-6.11077
-6.16142
-6.2028
-6.23665
-6.26435
-6.28704
-6.30564
-6.32088
-6.33337
-6.34362
-6.35201
-6.35889
-6.36452
-6.36912
-6.37287
-6.37591
-6.37836
-6.38032
-6.38181
-6.38299
-6.38378
-6.38426
-6.3846
-15.7073
-15.6691
-15.5905
-15.4675
-15.3067
-15.1619
-15.2619
-16.3004
-19.1926
-20.2782
-20.4754
-20.4834
-20.5402
-20.7135
-21.0289
-21.5104
-22.1919
-23.119
-24.3369
-25.828
-27.268
-27.2101
-21.2231
-3.45548
2.52366
2.56535
1.09992
-0.4275
-1.69488
-2.6879
-3.45635
-4.05218
-4.51716
-4.88272
-5.17213
-5.4027
-5.58735
-5.73591
-5.85587
-5.95304
-6.03195
-6.09617
-6.14852
-6.19126
-6.22619
-6.25477
-6.27817
-6.29733
-6.31304
-6.32591
-6.33646
-6.34511
-6.35219
-6.35798
-6.36272
-6.36658
-6.36971
-6.37224
-6.37426
-6.37579
-6.37699
-6.37783
-6.37831
-6.37869
-15.6719
-15.6275
-15.5338
-15.3802
-15.1587
-14.8958
-14.805
-15.7892
-19.7261
-20.7594
-20.7699
-20.6666
-20.6731
-20.8317
-21.1565
-21.6702
-22.4146
-23.4562
-24.8861
-26.7829
-28.9972
-30.183
-24.5658
-0.108448
5.50066
4.2979
2.05698
0.122147
-1.35987
-2.47161
-3.30954
-3.94824
-4.44092
-4.82509
-5.12744
-5.36723
-5.55863
-5.71222
-5.83598
-5.93608
-6.01726
-6.08326
-6.13703
-6.18089
-6.21672
-6.24602
-6.27
-6.28964
-6.30572
-6.31891
-6.32971
-6.33856
-6.34581
-6.35175
-6.3566
-6.36055
-6.36376
-6.36634
-6.36841
-6.36998
-6.37118
-6.37208
-6.37257
-6.37295
-15.642
-15.592
-15.4848
-15.3027
-15.0206
-14.6258
-14.2731
-15.0416
-20.4906
-21.3098
-21.0617
-20.8321
-20.7867
-20.93
-21.2618
-21.8025
-22.6013
-23.7446
-25.3704
-27.6686
-30.743
-33.6266
-29.4125
4.74332
8.94901
6.04795
2.94603
0.608193
-1.072
-2.28882
-3.18663
-3.86164
-4.3775
-4.77712
-5.09013
-5.3375
-5.53442
-5.6921
-5.81897
-5.92145
-6.00447
-6.07192
-6.12682
-6.17159
-6.20815
-6.23803
-6.26248
-6.2825
-6.2989
-6.31233
-6.32334
-6.33236
-6.33975
-6.34579
-6.35073
-6.35476
-6.35803
-6.36066
-6.36276
-6.36437
-6.36557
-6.36653
-6.36703
-6.36736
-15.6173
-15.5627
-15.4439
-15.2365
-14.8974
-14.3639
-13.6737
-13.9517
-21.5924
-21.9224
-21.3395
-20.9756
-20.8801
-21.0088
-21.3455
-21.9082
-22.752
-23.9813
-25.7794
-28.4537
-32.4298
-37.4942
-36.4459
11.7824
12.8221
7.73977
3.73539
1.02027
-0.833935
-2.13963
-3.08697
-3.79157
-4.32614
-4.73814
-5.05965
-5.31304
-5.51433
-5.67525
-5.80457
-5.90891
-5.99339
-6.06197
-6.11777
-6.16326
-6.20038
-6.23073
-6.25555
-6.27586
-6.2925
-6.30613
-6.3173
-6.32645
-6.33394
-6.34008
-6.34509
-6.34918
-6.35249
-6.35516
-6.35728
-6.35894
-6.36012
-6.36112
-6.36165
-6.3619
-15.5976
-15.5395
-15.4112
-15.1829
-14.7937
-14.1245
-13.0282
-12.3699
-23.1817
-22.5762
-21.5892
-21.093
-20.9527
-21.0686
-21.4087
-21.9884
-22.8675
-24.1657
-26.1059
-29.109
-33.9647
-41.648
-46.6287
21.9715
16.982
9.2805
4.39591
1.35111
-0.646582
-2.02329
-3.00944
-3.73698
-4.28594
-4.7074
-5.03539
-5.29335
-5.49795
-5.66133
-5.7925
-5.89825
-5.98383
-6.05327
-6.10974
-6.15576
-6.19332
-6.224
-6.2491
-6.26964
-6.28646
-6.30024
-6.31153
-6.32078
-6.32835
-6.33455
-6.33962
-6.34375
-6.34711
-6.34979
-6.35193
-6.35363
-6.3548
-6.35582
-6.35638
-6.35654
-15.5826
-15.5219
-15.3865
-15.1424
-14.7133
-13.924
-12.3801
-10.0884
-25.4664
-23.2284
-21.7951
-21.1813
-21.0048
-21.1106
-21.4529
-22.0448
-22.9496
-24.2986
-26.3463
-29.611
-35.244
-45.8106
-61.2975
36.6472
21.1513
10.5664
4.90402
1.59705
-0.509194
-1.93826
-2.95264
-3.69671
-4.25597
-4.68419
-5.01678
-5.27799
-5.48494
-5.65006
-5.78253
-5.88928
-5.97563
-6.04567
-6.10263
-6.14902
-6.18688
-6.21781
-6.2431
-6.2638
-6.28075
-6.29464
-6.30601
-6.31533
-6.32296
-6.3292
-6.33431
-6.33847
-6.34186
-6.34456
-6.3467
-6.34845
-6.3496
-6.35061
-6.35123
-6.3513
-15.5719
-15.5096
-15.3697
-15.1151
-14.6586
-13.7785
-11.8043
-6.82357
-28.7311
-23.8043
-21.9418
-21.2387
-21.0372
-21.1362
-21.4798
-22.0794
-23.0006
-24.3825
-26.5011
-29.9452
-36.1652
-49.5008
-82.2784
57.6353
24.8486
11.4945
5.24487
1.75816
-0.419616
-1.88255
-2.91501
-3.66959
-4.23539
-4.66788
-5.00338
-5.26663
-5.47506
-5.64126
-5.77456
-5.88194
-5.96877
-6.03919
-6.09645
-6.14308
-6.18113
-6.21221
-6.23763
-6.25843
-6.27546
-6.28941
-6.30083
-6.31019
-6.31786
-6.32413
-6.32926
-6.33344
-6.33685
-6.33956
-6.34169
-6.34349
-6.34464
-6.34559
-6.34628
-6.34635
-15.5651
-15.5022
-15.3602
-15.1003
-14.6301
-13.7008
-11.4202
-2.19376
-33.3577
-24.1854
-22.0169
-21.2652
-21.0511
-21.1468
-21.4909
-22.0942
-23.0234
-24.4211
-26.5743
-30.108
-36.6462
-51.9532
-112.025
87.3894
27.3084
11.9828
5.41493
1.8383
-0.374328
-1.85358
-2.8947
-3.6543
-4.22321
-4.65773
-4.99461
-5.25883
-5.46796
-5.63469
-5.76837
-5.87605
-5.96311
-6.03371
-6.09111
-6.13785
-6.17599
-6.20715
-6.23262
-6.25347
-6.27053
-6.28451
-6.29597
-6.30535
-6.31303
-6.31931
-6.32445
-6.32865
-6.33206
-6.33478
-6.3369
-6.33873
-6.33989
-6.34076
-6.34155
-6.34164
)
;

boundaryField
{
    left
    {
        type            calculated;
        value           nonuniform List<scalar> 
32
(
-16.7482
-16.7445
-16.7371
-16.7257
-16.7101
-16.6898
-16.6645
-16.6339
-16.5978
-16.5564
-16.5096
-16.458
-16.402
-16.3423
-16.2798
-16.2154
-16.15
-16.0848
-16.0207
-15.9587
-15.8998
-15.8446
-15.7938
-15.7479
-15.7073
-15.6719
-15.642
-15.6173
-15.5976
-15.5826
-15.5719
-15.5651
)
;
    }
    right
    {
        type            calculated;
        value           nonuniform List<scalar> 
32
(
-6.51977
-6.51848
-6.51605
-6.51263
-6.50839
-6.50345
-6.49794
-6.49197
-6.48564
-6.47903
-6.47221
-6.46527
-6.45825
-6.45121
-6.44418
-6.43718
-6.43025
-6.42339
-6.41662
-6.40995
-6.4034
-6.39697
-6.3907
-6.3846
-6.37869
-6.37295
-6.36736
-6.3619
-6.35654
-6.3513
-6.34635
-6.34164
)
;
    }
    interface
    {
        type            calculated;
        value           nonuniform List<scalar> 
64
(
-15.5627
-15.4996
-15.3571
-15.096
-14.6224
-13.6802
-11.2942
0.516922
-36.066
-24.3091
-22.0352
-21.2709
-21.0537
-21.1485
-21.4928
-22.097
-23.028
-24.4296
-26.5911
-30.147
-36.7683
-52.7536
-129.44
104.809
28.1127
12.1087
5.45761
1.85886
-0.362224
-1.84541
-2.88861
-3.64942
-4.21907
-4.65408
-4.99129
-5.25575
-5.46505
-5.63189
-5.76567
-5.87342
-5.96054
-6.03118
-6.08861
-6.13538
-6.17354
-6.20471
-6.2302
-6.25106
-6.26814
-6.28212
-6.29358
-6.30297
-6.31065
-6.31694
-6.32208
-6.32628
-6.3297
-6.33242
-6.33452
-6.33638
-6.33754
-6.33837
-6.3392
-6.33932
)
;
    }
    bottom
    {
        type            calculated;
        value           nonuniform List<scalar> 
64
(
-16.7492
-16.7528
-16.7593
-16.7674
-16.775
-16.7795
-16.7773
-16.7645
-16.7364
-16.6882
-16.6147
-16.5107
-16.3711
-16.1914
-15.9676
-15.6964
-15.3761
-15.0063
-14.5886
-14.1267
-13.6265
-13.0964
-12.5462
-11.9873
-11.4314
-10.8896
-10.3717
-9.88582
-9.43761
-9.03055
-8.66601
-8.34358
-8.06152
-7.81712
-7.60709
-7.42787
-7.27586
-7.1476
-7.03984
-6.94965
-6.87437
-6.81172
-6.75969
-6.71655
-6.68084
-6.65132
-6.62694
-6.60682
-6.59024
-6.57659
-6.56535
-6.55612
-6.54853
-6.54232
-6.53723
-6.53309
-6.52973
-6.52702
-6.52487
-6.52318
-6.52191
-6.52099
-6.52039
-6.5201
)
;
    }
    defaultFaces
    {
        type            empty;
    }
}


// ************************************************************************* //
