/*--------------------------------*- C++ -*----------------------------------*\
| =========                 |                                                 |
| \\      /  F ield         | OpenFOAM: The Open Source CFD Toolbox           |
|  \\    /   O peration     | Version:  5.x                                   |
|   \\  /    A nd           | Web:      www.OpenFOAM.org                      |
|    \\/     M anipulation  |                                                 |
\*---------------------------------------------------------------------------*/
FoamFile
{
    version     2.0;
    format      ascii;
    class       volScalarField;
    location    "1.3";
    object      T;
}
// * * * * * * * * * * * * * * * * * * * * * * * * * * * * * * * * * * * * * //

dimensions      [0 0 0 1 0 0 0];

internalField   nonuniform List<scalar> 
2048
(
9.87967
9.87964
9.8796
9.87954
9.87948
9.87945
9.87947
9.87956
9.87976
9.88011
9.88064
9.88138
9.88239
9.88368
9.88528
9.88723
9.88953
9.89219
9.89519
9.89851
9.9021
9.90591
9.90986
9.91388
9.91787
9.92177
9.92549
9.92898
9.9322
9.93512
9.93774
9.94006
9.94208
9.94384
9.94535
9.94664
9.94773
9.94865
9.94942
9.95007
9.95061
9.95106
9.95144
9.95175
9.952
9.95222
9.95239
9.95253
9.95265
9.95275
9.95283
9.9529
9.95295
9.953
9.95303
9.95306
9.95309
9.95311
9.95312
9.95314
9.95314
9.95315
9.95316
9.95316
9.6443
9.64422
9.64407
9.64389
9.64371
9.64359
9.64362
9.64386
9.64443
9.64542
9.64695
9.64913
9.65207
9.65586
9.6606
9.66634
9.67314
9.68101
9.6899
9.69975
9.71042
9.72174
9.73349
9.74543
9.7573
9.76887
9.77992
9.79027
9.79981
9.80846
9.8162
9.82304
9.82902
9.83419
9.83863
9.84241
9.84562
9.84832
9.8506
9.8525
9.85408
9.8554
9.85649
9.8574
9.85815
9.85877
9.85929
9.85971
9.86006
9.86034
9.86058
9.86077
9.86093
9.86106
9.86117
9.86126
9.86133
9.86139
9.86143
9.86147
9.86149
9.86151
9.86153
9.86153
9.41929
9.41915
9.41889
9.41855
9.41821
9.41796
9.41792
9.41824
9.41908
9.4206
9.42301
9.42648
9.43119
9.43731
9.44498
9.45433
9.46543
9.4783
9.49288
9.50907
9.52664
9.54531
9.56471
9.58441
9.60401
9.62307
9.64125
9.65826
9.6739
9.68805
9.70068
9.71181
9.72152
9.7299
9.73709
9.7432
9.74838
9.75274
9.75639
9.75945
9.76199
9.76411
9.76587
9.76732
9.76853
9.76952
9.77034
9.77102
9.77158
9.77204
9.77242
9.77273
9.77298
9.77319
9.77336
9.7735
9.77361
9.77371
9.77378
9.77383
9.77388
9.77391
9.77393
9.77394
9.20425
9.20403
9.20362
9.20309
9.20253
9.20207
9.20188
9.20215
9.20312
9.20503
9.20815
9.21272
9.21902
9.22726
9.23767
9.25041
9.2656
9.28328
9.3034
9.3258
9.35018
9.37612
9.40311
9.43055
9.4578
9.48429
9.50949
9.53301
9.55456
9.57399
9.59128
9.60647
9.61967
9.63104
9.64076
9.64901
9.65598
9.66184
9.66675
9.67085
9.67426
9.67709
9.67944
9.68139
9.683
9.68432
9.68542
9.68632
9.68707
9.68768
9.68818
9.6886
9.68894
9.68922
9.68945
9.68963
9.68978
9.6899
9.69
9.69008
9.69013
9.69017
9.6902
9.69021
8.99877
8.99846
8.99788
8.9971
8.99624
8.99548
8.99501
8.9951
8.99604
8.99816
9.00179
9.00726
9.01491
9.02506
9.03797
9.05388
9.07296
9.09528
9.1208
9.14931
9.18046
9.2137
9.24833
9.28355
9.31852
9.35243
9.3846
9.4145
9.4418
9.46632
9.48803
9.50702
9.52347
9.53758
9.54961
9.55979
9.56837
9.57557
9.58158
9.5866
9.59077
9.59423
9.59709
9.59946
9.60142
9.60304
9.60437
9.60547
9.60638
9.60712
9.60773
9.60824
9.60865
9.60899
9.60927
9.60949
9.60967
9.60982
9.60994
9.61003
9.6101
9.61015
9.61018
9.6102
8.8025
8.80208
8.80128
8.80019
8.79896
8.79778
8.7969
8.79664
8.79737
8.79949
8.80341
8.80955
8.81833
8.83013
8.8453
8.86415
8.88691
8.91369
8.94448
8.97906
9.017
9.05762
9.10002
9.14317
9.18597
9.22737
9.26651
9.30273
9.33563
9.36502
9.39091
9.41344
9.43287
9.44947
9.46355
9.47545
9.48543
9.49379
9.50077
9.50657
9.51138
9.51537
9.51868
9.5214
9.52366
9.52552
9.52705
9.52831
9.52935
9.53021
9.53091
9.53149
9.53196
9.53235
9.53267
9.53293
9.53314
9.5333
9.53344
9.53354
9.53362
9.53368
9.53372
9.53374
8.61506
8.61451
8.61346
8.61201
8.61031
8.60859
8.60716
8.60638
8.6067
8.60859
8.61257
8.61913
8.62878
8.64198
8.65915
8.68069
8.7069
8.73796
8.77391
8.81452
8.85931
8.90746
8.95785
9.00916
9.06
9.10903
9.15518
9.19766
9.236
9.27005
9.29986
9.32565
9.34777
9.36658
9.38247
9.39584
9.40704
9.41638
9.42415
9.4306
9.43595
9.44038
9.44404
9.44706
9.44955
9.45161
9.4533
9.45469
9.45584
9.45678
9.45756
9.4582
9.45872
9.45915
9.4595
9.45978
9.46001
9.4602
9.46035
9.46047
9.46055
9.46062
9.46066
9.46068
8.43612
8.43542
8.43408
8.4322
8.42995
8.42758
8.42543
8.42394
8.42363
8.42507
8.42885
8.43559
8.44584
8.46017
8.47907
8.50303
8.53244
8.56759
8.60857
8.6552
8.70693
8.76282
8.82149
8.88129
8.94045
8.99731
9.05054
9.09922
9.14286
9.18133
9.21477
9.24353
9.26804
9.28877
9.30621
9.32082
9.33301
9.34316
9.35158
9.35855
9.36432
9.36909
9.37303
9.37628
9.37895
9.38116
9.38297
9.38447
9.3857
9.38671
9.38754
9.38822
9.38878
9.38924
9.38961
9.38992
9.39017
9.39037
9.39052
9.39065
9.39074
9.39081
9.39085
9.39088
8.26534
8.26449
8.26283
8.26047
8.25757
8.25442
8.2514
8.249
8.24783
8.24857
8.25191
8.25855
8.26915
8.28432
8.30467
8.33077
8.36313
8.40214
8.44801
8.50063
8.55943
8.62331
8.69064
8.75934
8.82719
8.89212
8.95254
9.00737
9.05613
9.09876
9.13554
9.16693
9.19351
9.21588
9.2346
9.25021
9.26319
9.27395
9.28287
9.29024
9.29632
9.30134
9.30548
9.30889
9.3117
9.31402
9.31592
9.31748
9.31877
9.31983
9.3207
9.32141
9.322
9.32248
9.32287
9.32319
9.32345
9.32366
9.32382
9.32395
9.32405
9.32412
9.32417
9.32419
8.10242
8.10139
8.09939
8.09649
8.09287
8.08882
8.08476
8.08124
8.07898
8.07877
8.08141
8.0877
8.09836
8.11411
8.13561
8.16355
8.19856
8.24119
8.29179
8.35035
8.41636
8.48856
8.565
8.64311
8.7201
8.79342
8.86112
8.92205
8.97572
9.02222
9.06199
9.09568
9.12401
9.1477
9.16742
9.1838
9.19736
9.20858
9.21784
9.22548
9.23178
9.23697
9.24124
9.24476
9.24765
9.25003
9.25199
9.2536
9.25492
9.25601
9.2569
9.25763
9.25824
9.25873
9.25913
9.25946
9.25972
9.25994
9.26011
9.26024
9.26034
9.26041
9.26046
9.26048
7.94704
7.94583
7.94345
7.93998
7.93558
7.93051
7.92524
7.9204
7.9168
7.91537
7.91706
7.92273
7.9332
7.94924
7.97161
8.00107
8.03841
8.08437
8.13949
8.20395
8.27729
8.35818
8.44429
8.53243
8.61911
8.70115
8.77627
8.84319
8.90153
8.95157
8.99397
9.02959
9.05932
9.08402
9.10448
9.12139
9.13534
9.14684
9.15631
9.16411
9.17053
9.1758
9.18014
9.18371
9.18664
9.18906
9.19104
9.19267
9.19401
9.1951
9.19601
9.19675
9.19736
9.19785
9.19826
9.19859
9.19886
9.19908
9.19925
9.19938
9.19949
9.19956
9.19961
9.19963
7.79889
7.79751
7.79475
7.79068
7.78542
7.77923
7.77259
7.7662
7.76101
7.75811
7.75858
7.7634
7.77343
7.78949
7.81241
7.84307
7.8824
7.93135
7.99073
8.06098
8.1418
8.23179
8.32821
8.42714
8.52414
8.61531
8.69795
8.77072
8.83344
8.88664
8.93127
8.96843
8.9992
9.02461
9.04554
9.06276
9.07691
9.08854
9.0981
9.10594
9.11239
9.11768
9.12203
9.1256
9.12854
9.13095
9.13293
9.13455
9.13589
9.13699
9.13789
9.13862
9.13923
9.13973
9.14013
9.14046
9.14073
9.14095
9.14112
9.14125
9.14135
9.14143
9.14147
9.1415
7.65769
7.65612
7.65299
7.6483
7.64214
7.63474
7.62657
7.61841
7.61137
7.60673
7.60573
7.60945
7.61881
7.63464
7.65782
7.68933
7.73027
7.78183
7.84516
7.92104
8.00943
8.10897
8.21648
8.32709
8.43518
8.53591
8.62615
8.70459
8.77132
8.82725
8.87367
8.91196
8.94343
8.96924
8.99038
9.0077
9.02188
9.03349
9.04301
9.05081
9.0572
9.06245
9.06675
9.07029
9.07318
9.07556
9.07752
9.07912
9.08044
9.08152
9.08241
9.08314
9.08373
9.08422
9.08462
9.08495
9.08521
9.08542
9.08559
9.08573
9.08583
9.0859
9.08594
9.08597
7.52314
7.5214
7.5179
7.5126
7.50552
7.49682
7.48697
7.4768
7.46763
7.46096
7.45826
7.46068
7.46916
7.48452
7.50768
7.53968
7.58182
7.63557
7.70245
7.78371
7.87975
7.98932
8.10881
8.23217
8.35223
8.46299
8.56087
8.64471
8.71502
8.7732
8.82094
8.85995
8.89175
8.91766
8.93877
8.95598
8.97002
8.98149
8.99086
8.99853
9.00481
9.00995
9.01416
9.01762
9.02045
9.02278
9.02469
9.02625
9.02754
9.02859
9.02946
9.03017
9.03075
9.03122
9.03161
9.03193
9.03219
9.03239
9.03256
9.03269
9.03279
9.03286
9.0329
9.03292
7.39496
7.39307
7.38922
7.38333
7.37532
7.36527
7.35358
7.34117
7.32955
7.32059
7.31595
7.31688
7.3243
7.33899
7.36185
7.394
7.4369
7.49234
7.5623
7.64861
7.75227
7.87237
8.00488
8.14229
8.27537
8.39664
8.50212
8.59099
8.66437
8.72425
8.77282
8.81212
8.8439
8.86962
8.89047
8.90739
8.92115
8.93236
8.94149
8.94895
8.95505
8.96004
8.96412
8.96747
8.97021
8.97246
8.9743
8.97581
8.97705
8.97807
8.97891
8.97959
8.98016
8.98062
8.98099
8.9813
8.98155
8.98175
8.9819
8.98203
8.98212
8.98219
8.98223
8.98225
7.27286
7.27083
7.26669
7.26025
7.25134
7.23989
7.22623
7.21131
7.19692
7.18536
7.17858
7.17788
7.18409
7.19793
7.22023
7.25217
7.29539
7.35198
7.42445
7.51535
7.62652
7.75764
7.90437
8.05741
8.2047
8.33696
8.44992
8.54333
8.61917
8.68017
8.72905
8.76821
8.79962
8.82489
8.84526
8.86172
8.87507
8.88591
8.89472
8.90191
8.90778
8.91257
8.91649
8.9197
8.92233
8.92448
8.92625
8.92769
8.92888
8.92986
8.93066
8.93131
8.93185
8.93229
8.93265
8.93294
8.93318
8.93337
8.93352
8.93364
8.93373
8.93379
8.93384
8.93385
7.15657
7.15443
7.15003
7.14311
7.13335
7.12051
7.10475
7.08704
7.06951
7.05504
7.04593
7.04348
7.0484
7.06123
7.08275
7.11415
7.15721
7.21436
7.28867
7.38357
7.502
7.64459
7.80694
7.97752
8.14041
8.28411
8.40426
8.5016
8.57921
8.64068
8.68934
8.72793
8.75866
8.78321
8.80291
8.81878
8.83159
8.84197
8.8504
8.85726
8.86285
8.86741
8.87114
8.87419
8.87668
8.87873
8.88041
8.88178
8.88291
8.88383
8.88459
8.88521
8.88572
8.88614
8.88648
8.88676
8.88698
8.88716
8.88731
8.88742
8.8875
8.88756
8.8876
8.88762
7.04581
7.0436
7.03901
7.03168
7.02115
7.00696
6.989
6.96821
6.9471
6.92939
6.91779
6.91354
6.91711
6.92883
6.94935
6.97988
7.02231
7.0794
7.1548
7.25294
7.37817
7.53261
7.71218
7.90268
8.08277
8.23827
8.36515
8.46564
8.54422
8.60549
8.65339
8.69102
8.72075
8.74436
8.76322
8.77835
8.79054
8.80038
8.80837
8.81485
8.82013
8.82443
8.82795
8.83082
8.83317
8.8351
8.83668
8.83797
8.83903
8.8399
8.84061
8.84119
8.84167
8.84206
8.84238
8.84264
8.84286
8.84303
8.84316
8.84327
8.84335
8.8434
8.84344
8.84346
6.94033
6.93808
6.93337
6.92574
6.91456
6.89907
6.87886
6.85465
6.82945
6.80816
6.79396
6.7879
6.79011
6.80065
6.82002
6.84937
6.8907
6.94705
7.02269
7.12315
7.25451
7.42101
7.61962
7.83304
8.03213
8.19964
8.33257
8.43525
8.51393
8.5743
8.62092
8.65719
8.68564
8.70811
8.72598
8.74027
8.75174
8.761
8.76848
8.77456
8.7795
8.78352
8.78681
8.78949
8.79168
8.79348
8.79495
8.79616
8.79714
8.79795
8.79862
8.79916
8.79961
8.79997
8.80027
8.80051
8.80071
8.80087
8.80099
8.80109
8.80117
8.80122
8.80125
8.80127
6.83985
6.8376
6.83285
6.82504
6.81336
6.79672
6.77422
6.74625
6.71632
6.69109
6.67422
6.66641
6.66732
6.67665
6.69471
6.7226
6.76238
6.81733
6.89229
6.99395
7.13047
7.30902
7.52869
7.76884
7.98896
8.16845
8.30644
8.4102
8.48802
8.54679
8.59161
8.62617
8.65309
8.67425
8.691
8.70435
8.71505
8.72366
8.73062
8.73625
8.74083
8.74456
8.7476
8.75008
8.75211
8.75377
8.75513
8.75625
8.75716
8.75791
8.75852
8.75902
8.75943
8.75977
8.76005
8.76027
8.76045
8.7606
8.76072
8.76081
8.76087
8.76092
8.76096
8.76097
6.74414
6.74192
6.73721
6.72936
6.71736
6.69975
6.675
6.64292
6.60746
6.5779
6.55837
6.54895
6.54864
6.55677
6.57343
6.59961
6.63741
6.69028
6.76359
6.86517
7.00553
7.19574
7.43868
7.71051
7.95386
8.14494
8.28667
8.3902
8.46617
8.52262
8.56518
8.59771
8.62288
8.64257
8.6581
8.67045
8.68032
8.68825
8.69465
8.69982
8.70403
8.70745
8.71023
8.71251
8.71437
8.71589
8.71713
8.71815
8.71899
8.71967
8.72023
8.72069
8.72107
8.72138
8.72163
8.72183
8.722
8.72213
8.72224
8.72232
8.72238
8.72243
8.72246
8.72247
6.65294
6.6508
6.64621
6.63847
6.62636
6.60802
6.58117
6.54459
6.50257
6.4683
6.44621
6.43539
6.43402
6.44098
6.45615
6.48042
6.51584
6.56599
6.63663
6.73667
6.87919
7.08015
7.34863
7.65869
7.92756
8.12931
8.27308
8.37492
8.44801
8.50147
8.54132
8.57153
8.59478
8.61288
8.62712
8.6384
8.6474
8.65463
8.66045
8.66516
8.66897
8.67208
8.67461
8.67667
8.67835
8.67973
8.68086
8.68178
8.68254
8.68316
8.68367
8.68408
8.68442
8.6847
8.68493
8.68512
8.68527
8.68539
8.68548
8.68556
8.68562
8.68566
8.68568
8.6857
6.56602
6.56399
6.55961
6.55212
6.54015
6.52142
6.49269
6.45127
6.40131
6.36197
6.33755
6.32562
6.32337
6.32925
6.34288
6.36505
6.39776
6.44457
6.51152
6.60846
6.75101
6.9611
7.25729
7.61438
7.91092
8.12173
8.26542
8.36398
8.43316
8.48299
8.51975
8.54742
8.56859
8.58502
8.59789
8.60808
8.61619
8.62269
8.62792
8.63215
8.63558
8.63836
8.64063
8.64248
8.64399
8.64522
8.64623
8.64706
8.64774
8.64829
8.64875
8.64912
8.64942
8.64967
8.64988
8.65004
8.65018
8.65029
8.65037
8.65044
8.65049
8.65053
8.65055
8.65056
6.48316
6.48128
6.47718
6.47008
6.45851
6.43977
6.40957
6.36304
6.30326
6.25859
6.23222
6.21955
6.21665
6.22152
6.23359
6.25354
6.28322
6.32616
6.38844
6.48059
6.62066
6.83733
7.16293
7.57904
7.90495
8.12226
8.26334
8.35694
8.42122
8.46687
8.50021
8.52514
8.54413
8.55881
8.57029
8.57935
8.58656
8.59233
8.59697
8.60071
8.60375
8.60621
8.60822
8.60985
8.61119
8.61228
8.61317
8.6139
8.6145
8.61499
8.61539
8.61572
8.61599
8.61621
8.61639
8.61654
8.61666
8.61675
8.61683
8.61689
8.61693
8.61697
8.61699
8.617
6.40414
6.40243
6.39869
6.39213
6.38121
6.36293
6.33183
6.28009
6.20793
6.15782
6.13008
6.1171
6.1138
6.11776
6.12828
6.14589
6.17232
6.2109
6.26761
6.35328
6.48792
6.70747
7.06315
7.5548
7.91075
8.13086
8.26639
8.35334
8.41181
8.45277
8.48245
8.5045
8.52123
8.53412
8.54418
8.55211
8.55841
8.56344
8.56749
8.57075
8.5734
8.57554
8.57729
8.57871
8.57988
8.58083
8.5816
8.58224
8.58276
8.58319
8.58354
8.58382
8.58406
8.58425
8.58441
8.58453
8.58464
8.58472
8.58479
8.58484
8.58488
8.58491
8.58492
8.58493
6.32875
6.32725
6.32392
6.31803
6.30803
6.2907
6.2595
6.20277
6.11465
6.05931
6.03099
6.01822
6.01476
6.01792
6.0269
6.04211
6.06511
6.09894
6.14928
6.22681
6.3528
6.57016
6.95461
7.54477
7.92946
8.14729
8.27404
8.35267
8.40452
8.44042
8.46622
8.4853
8.49972
8.51081
8.51944
8.52624
8.53163
8.53594
8.5394
8.54219
8.54445
8.54629
8.54778
8.54899
8.54998
8.55079
8.55146
8.552
8.55244
8.55281
8.55311
8.55335
8.55355
8.55371
8.55385
8.55396
8.55404
8.55412
8.55417
8.55422
8.55425
8.55427
8.55429
8.55429
6.25682
6.25553
6.25267
6.24755
6.2387
6.22288
6.19261
6.13161
6.02257
5.96274
5.93487
5.92285
5.91949
5.92195
5.92942
5.9422
5.96164
5.99044
6.03373
6.10162
6.21553
6.42409
6.83265
7.55337
7.96212
8.17108
8.28563
8.35443
8.39899
8.42952
8.45132
8.46738
8.47948
8.48876
8.49598
8.50165
8.50615
8.50975
8.51263
8.51495
8.51683
8.51836
8.5196
8.52061
8.52144
8.52211
8.52266
8.52312
8.52348
8.52379
8.52404
8.52424
8.52441
8.52454
8.52465
8.52474
8.52482
8.52488
8.52492
8.52496
8.52499
8.52501
8.52502
8.52502
6.18815
6.18709
6.18473
6.18047
6.17299
6.1592
6.13114
6.06747
5.93055
5.86782
5.84169
5.83098
5.82792
5.82979
5.83579
5.84614
5.86196
5.88553
5.92127
5.97819
6.07663
6.26826
6.6908
7.58683
8.00953
8.20148
8.30044
8.3581
8.39486
8.41983
8.43756
8.45058
8.46037
8.46786
8.47369
8.47826
8.48188
8.48477
8.48709
8.48896
8.49048
8.4917
8.4927
8.49351
8.49418
8.49472
8.49516
8.49553
8.49582
8.49607
8.49626
8.49643
8.49656
8.49667
8.49676
8.49683
8.49689
8.49694
8.49698
8.49701
8.49703
8.49705
8.49706
8.49706
6.12257
6.12175
6.11991
6.11657
6.11064
6.09939
6.07501
6.01156
5.83709
5.77436
5.75147
5.74256
5.74001
5.74137
5.74594
5.75389
5.76608
5.78432
5.81217
5.8571
5.93693
6.10219
6.52017
7.65385
8.07195
8.23745
8.31767
8.36317
8.3918
8.41112
8.42478
8.43478
8.44229
8.44803
8.45248
8.45598
8.45875
8.46096
8.46273
8.46416
8.46532
8.46625
8.46701
8.46763
8.46814
8.46855
8.46889
8.46917
8.4694
8.46958
8.46973
8.46986
8.46996
8.47004
8.47011
8.47017
8.47021
8.47025
8.47028
8.4703
8.47032
8.47033
8.47034
8.47034
6.05993
6.05935
6.05805
6.05566
6.05138
6.04308
6.02399
5.96562
5.74018
5.68231
5.66426
5.6576
5.6557
5.65662
5.65982
5.66541
5.674
5.68691
5.70671
5.73897
5.79758
5.92631
6.30863
7.76633
8.14873
8.27763
8.33652
8.36918
8.38953
8.40319
8.41282
8.41986
8.42513
8.42917
8.43229
8.43475
8.43669
8.43824
8.43948
8.44048
8.44129
8.44195
8.44248
8.44291
8.44327
8.44356
8.4438
8.44399
8.44415
8.44428
8.44438
8.44447
8.44454
8.4446
8.44465
8.44469
8.44472
8.44475
8.44476
8.44478
8.44479
8.4448
8.44481
8.44481
6.00009
5.99974
5.99897
5.99755
5.99498
5.98992
5.97764
5.93203
5.63715
5.59183
5.58017
5.57608
5.57491
5.57544
5.57732
5.58062
5.5857
5.59334
5.6051
5.62439
5.66
5.74246
6.03987
7.94039
8.23784
8.32041
8.35618
8.3757
8.38779
8.39587
8.40157
8.40572
8.40883
8.41121
8.41305
8.41449
8.41564
8.41655
8.41728
8.41787
8.41834
8.41873
8.41904
8.4193
8.41951
8.41968
8.41982
8.41993
8.42003
8.4201
8.42017
8.42022
8.42026
8.42029
8.42032
8.42034
8.42036
8.42038
8.42039
8.4204
8.42041
8.42041
8.42041
8.42041
5.94289
5.94277
5.94252
5.94205
5.9412
5.93951
5.93522
5.91401
5.52454
5.50342
5.49934
5.49796
5.49757
5.49774
5.49836
5.49945
5.50112
5.50364
5.50752
5.51391
5.5258
5.55451
5.69224
8.19748
8.33523
8.36397
8.37592
8.38238
8.38637
8.38903
8.39091
8.39227
8.3933
8.39408
8.39468
8.39516
8.39554
8.39583
8.39607
8.39627
8.39642
8.39655
8.39665
8.39674
8.39681
8.39686
8.39691
8.39695
8.39698
8.397
8.39702
8.39704
8.39705
8.39707
8.39707
8.39708
8.39709
8.39709
8.3971
8.3971
8.3971
8.3971
8.39711
8.39711
)
;

boundaryField
{
    left
    {
        type            zeroGradient;
    }
    right
    {
        type            zeroGradient;
    }
    interface
    {
        type            fixedValue;
        value           nonuniform List<scalar> 
64
(
5.91494
5.91494
5.91494
5.91494
5.91494
5.91494
5.91494
5.91494
5.45976
5.45976
5.45976
5.45976
5.45976
5.45976
5.45976
5.45976
5.45976
5.45976
5.45976
5.45976
5.45976
5.45976
5.45976
8.38572
8.38572
8.38572
8.38572
8.38572
8.38572
8.38572
8.38572
8.38572
8.38572
8.38572
8.38572
8.38572
8.38572
8.38572
8.38572
8.38572
8.38572
8.38572
8.38572
8.38572
8.38572
8.38572
8.38572
8.38572
8.38572
8.38572
8.38572
8.38572
8.38572
8.38572
8.38572
8.38572
8.38572
8.38572
8.38572
8.38572
8.38572
8.38572
8.38572
8.38572
)
;
    }
    bottom
    {
        type            fixedValue;
        value           uniform 10;
    }
    defaultFaces
    {
        type            empty;
    }
}


// ************************************************************************* //
