/*--------------------------------*- C++ -*----------------------------------*\
| =========                 |                                                 |
| \\      /  F ield         | OpenFOAM: The Open Source CFD Toolbox           |
|  \\    /   O peration     | Version:  5.x                                   |
|   \\  /    A nd           | Web:      www.OpenFOAM.org                      |
|    \\/     M anipulation  |                                                 |
\*---------------------------------------------------------------------------*/
FoamFile
{
    version     2.0;
    format      ascii;
    class       volScalarField;
    location    "4.7";
    object      T;
}
// * * * * * * * * * * * * * * * * * * * * * * * * * * * * * * * * * * * * * //

dimensions      [0 0 0 1 0 0 0];

internalField   nonuniform List<scalar> 
6300
(
20.6528
41.928
63.1115
84.142
104.958
125.496
145.695
165.49
184.82
203.623
221.839
239.413
256.291
272.43
287.794
20.6827
42.0178
63.2615
84.3527
105.23
125.83
146.09
165.947
185.338
204.199
222.471
240.094
257.017
273.191
288.581
20.7424
42.1971
63.5611
84.7735
105.773
126.496
146.881
166.861
186.374
205.354
223.738
241.464
258.476
274.723
290.165
20.8317
42.4653
64.0093
85.4034
106.586
127.495
148.067
168.235
187.934
207.094
225.65
243.534
260.685
277.046
292.569
20.9501
42.8212
64.6044
86.2402
107.668
128.826
149.649
170.07
190.021
209.429
228.222
246.326
263.67
280.19
295.829
21.0972
43.2632
65.3437
87.2807
109.015
130.484
151.624
172.367
192.64
212.368
231.47
249.863
267.466
284.199
299.995
21.272
43.7888
66.2234
88.5198
110.62
132.465
153.989
175.123
195.794
215.92
235.413
254.178
272.117
289.131
305.134
21.4735
44.3946
67.238
89.9504
112.477
134.759
156.734
178.334
199.483
220.095
240.072
259.306
277.676
295.059
311.336
21.7001
45.0763
68.3803
91.5626
114.572
137.353
159.847
181.987
203.698
224.892
245.461
265.283
284.209
302.077
318.722
21.95
45.8282
69.6409
93.3433
116.889
140.227
163.305
186.06
208.421
230.299
251.586
272.14
291.784
310.301
327.452
22.221
46.6437
71.0086
95.2763
119.406
143.355
167.077
190.517
213.614
236.287
258.429
279.893
300.47
319.875
337.75
22.5104
47.5149
72.4699
97.3424
122.099
146.703
171.12
195.308
219.219
242.791
265.936
288.517
310.311
330.962
349.928
22.8156
48.4333
74.0104
99.5199
124.936
150.232
175.384
200.366
225.152
249.71
273.993
297.911
321.28
343.714
364.443
23.1337
49.3903
75.6146
101.786
127.886
153.897
179.807
205.608
231.3
256.892
282.4
307.838
333.167
358.152
381.937
23.4619
50.3772
77.268
104.119
130.918
157.656
184.33
210.948
237.535
264.142
290.863
317.857
345.38
373.768
403.047
301.142
312.71
323.707
334.136
344.006
353.329
362.124
370.411
378.217
385.568
392.496
399.03
405.203
411.047
416.594
421.876
426.923
431.767
436.435
440.956
445.356
449.658
453.886
458.06
462.199
466.319
470.434
474.553
478.685
482.836
487.009
491.203
495.417
499.648
503.89
508.137
512.383
516.618
520.835
525.023
529.172
533.271
537.308
541.272
545.151
548.933
552.607
556.164
559.592
562.885
566.032
569.027
571.861
574.526
577.014
579.317
581.423
583.324
585.008
586.464
587.681
588.646
589.346
589.767
589.893
589.708
589.193
588.329
587.091
585.458
583.4
580.891
577.9
574.395
570.342
565.706
560.451
554.54
547.935
540.601
532.498
523.592
513.849
503.238
491.73
479.305
465.946
451.644
436.396
420.211
301.942
313.513
324.507
334.924
344.775
354.072
362.834
371.085
378.85
386.158
393.04
399.528
405.654
411.452
416.953
422.19
427.194
431.996
436.624
441.107
445.471
449.74
453.938
458.086
462.202
466.302
470.4
474.508
478.632
482.779
486.951
491.147
495.366
499.604
503.855
508.112
512.369
516.617
520.848
525.05
529.215
533.33
537.384
541.365
545.261
549.059
552.748
556.318
559.759
563.063
566.222
569.228
572.073
574.75
577.251
579.567
581.688
583.604
585.304
586.778
588.013
588.997
589.717
590.16
590.31
590.151
589.666
588.833
587.631
586.036
584.02
581.555
578.61
575.153
571.15
566.567
561.365
555.508
548.958
541.677
533.627
524.77
515.072
504.5
493.026
480.624
467.279
452.98
437.724
421.517
303.554
315.133
326.118
336.511
346.321
355.564
364.261
372.437
380.12
387.34
394.131
400.525
406.557
412.261
417.67
422.816
427.733
432.45
436.998
441.405
445.697
449.901
454.039
458.133
462.201
466.262
470.329
474.413
478.521
482.66
486.831
491.032
495.262
499.514
503.783
508.061
512.341
516.615
520.872
525.105
529.301
533.449
537.538
541.553
545.482
549.311
553.03
556.627
560.093
563.42
566.601
569.629
572.497
575.198
577.725
580.068
582.218
584.164
585.897
587.404
588.674
589.695
590.456
590.942
591.14
591.034
590.607
589.838
588.707
587.188
585.254
582.878
580.026
576.667
572.766
568.287
563.193
557.445
551.005
543.832
535.888
527.132
517.526
507.036
495.629
483.277
469.962
455.669
440.396
424.147
306.001
317.593
328.564
338.917
348.664
357.824
366.42
374.479
382.035
389.12
395.771
402.022
407.911
413.472
418.74
423.751
428.535
433.125
437.551
441.843
446.028
450.131
454.178
458.19
462.187
466.188
470.207
474.255
478.341
482.469
486.639
490.85
495.097
499.373
503.67
507.98
512.295
516.606
520.905
525.182
529.427
533.626
537.768
541.836
545.816
549.694
553.458
557.095
560.597
563.958
567.17
570.23
573.13
575.867
578.431
580.815
583.008
585.001
586.782
588.339
589.662
590.738
591.558
592.108
592.376
592.348
592.007
591.335
590.309
588.905
587.097
584.853
582.142
578.93
575.183
570.863
565.931
560.349
554.076
547.07
539.288
530.688
521.227
510.864
499.564
487.293
474.026
459.747
444.448
428.135
309.321
320.93
331.881
342.178
351.835
360.876
369.329
377.227
384.606
391.505
397.963
404.02
409.713
415.081
420.161
424.987
429.593
434.012
438.275
442.411
446.451
450.419
454.341
458.242
462.143
466.063
470.017
474.018
478.074
482.189
486.363
490.59
494.864
499.174
503.511
507.864
512.226
516.587
520.941
525.278
529.588
533.858
538.073
542.216
546.268
550.213
554.036
557.727
561.276
564.678
567.929
571.028
573.97
576.752
579.366
581.805
584.057
586.112
587.958
589.581
590.972
592.12
593.015
593.648
594.007
594.08
593.854
593.308
592.424
591.175
589.533
587.469
584.947
581.935
578.394
574.287
569.576
564.219
558.173
551.395
543.838
535.454
526.196
516.016
504.87
492.716
479.523
465.268
449.938
433.537
313.567
325.199
336.121
346.34
355.875
364.756
373.017
380.7
387.847
394.503
400.712
406.518
411.961
417.084
421.923
426.515
430.896
435.099
439.155
443.096
446.95
450.747
454.511
458.27
462.047
465.861
469.733
473.674
477.695
481.799
485.982
490.237
494.551
498.91
503.3
507.709
512.128
516.551
520.972
525.384
529.778
534.141
538.454
542.696
546.844
550.877
554.777
558.532
562.135
565.584
568.879
572.02
575.01
577.846
580.522
583.031
585.359
587.494
589.42
591.126
592.6
593.834
594.819
595.549
596.017
596.213
596.126
595.739
595.031
593.977
592.548
590.71
588.429
585.668
582.388
578.552
574.12
569.049
563.295
556.812
549.549
541.451
532.465
522.532
511.598
499.61
486.525
472.309
456.945
440.432
318.812
330.473
341.354
351.467
360.838
369.507
377.518
384.923
391.774
398.123
404.02
409.514
414.65
419.47
424.016
428.325
432.433
436.373
440.178
443.88
447.509
451.095
454.665
458.248
461.869
465.553
469.322
473.191
477.172
481.267
485.471
489.771
494.146
498.574
503.034
507.512
511.998
516.49
520.987
525.487
529.985
534.466
538.908
543.282
547.557
551.702
555.696
559.526
563.187
566.681
570.017
573.201
576.241
579.138
581.89
584.485
586.909
589.143
591.17
592.973
594.543
595.873
596.958
597.796
598.386
598.723
598.798
598.599
598.104
597.288
596.119
594.559
592.571
590.115
587.153
583.645
579.551
574.831
569.438
563.322
556.43
548.7
540.067
530.462
519.815
508.057
495.128
480.979
465.581
448.929
325.156
336.852
347.674
357.642
366.794
375.183
382.872
389.923
396.402
402.371
407.887
413.003
417.769
422.23
426.428
430.401
434.186
437.817
441.326
444.746
448.107
451.44
454.775
458.144
461.575
465.099
468.74
472.521
476.457
480.551
484.797
489.17
493.638
498.164
502.716
507.274
511.831
516.393
520.968
525.566
530.187
534.819
539.431
543.983
548.425
552.715
556.822
560.733
564.447
567.978
571.342
574.559
577.646
580.61
583.45
586.155
588.7
591.06
593.208
595.125
596.801
598.232
599.42
600.37
601.088
601.577
601.835
601.851
601.608
601.076
600.219
598.993
597.355
595.261
592.671
589.549
585.855
581.551
576.59
570.922
564.487
557.219
549.04
539.864
529.603
518.163
505.461
491.422
476
459.178
332.73
344.47
355.207
364.973
373.828
381.849
389.12
395.726
401.744
407.249
412.306
416.974
421.304
425.346
429.139
432.725
436.137
439.411
442.579
445.671
448.719
451.756
454.813
457.924
461.124
464.448
467.931
471.602
475.487
479.593
483.911
488.405
493.019
497.689
502.361
507.009
511.631
516.248
520.889
525.583
530.346
535.168
540.013
544.811
549.484
553.962
558.202
562.192
565.943
569.483
572.848
576.075
579.195
582.228
585.176
588.021
590.728
593.25
595.547
597.594
599.379
600.908
602.191
603.246
604.088
604.732
605.186
605.445
605.494
605.301
604.818
603.99
602.762
601.087
598.926
596.244
593.008
589.184
584.729
579.593
573.715
567.02
559.417
550.802
541.058
530.061
517.689
503.831
488.407
471.383
341.721
353.512
364.118
373.595
382.042
389.574
396.307
402.351
407.803
412.75
417.263
421.406
425.234
428.793
432.127
435.273
438.264
441.135
443.914
446.634
449.325
452.018
454.748
457.552
460.469
463.544
466.823
470.352
474.171
478.304
482.744
487.441
492.294
497.183
502.015
506.753
511.411
516.04
520.706
525.473
530.389
535.458
540.63
545.791
550.794
555.52
559.911
563.963
567.711
571.209
574.522
577.714
580.84
583.937
587.018
590.056
592.989
595.731
598.215
600.405
602.296
603.905
605.259
606.394
607.341
608.13
608.783
609.309
609.697
609.91
609.881
609.529
608.78
607.582
605.897
603.703
600.977
597.693
593.817
589.303
584.09
578.097
571.221
563.335
554.288
543.911
532.028
518.468
503.092
485.828
352.393
364.242
374.633
383.681
391.553
398.426
404.464
409.806
414.569
418.851
422.729
426.269
429.525
432.543
435.362
438.018
440.542
442.964
445.312
447.615
449.901
452.202
454.552
456.99
459.561
462.321
465.329
468.657
472.376
476.545
481.182
486.224
491.492
496.731
501.775
506.583
511.206
515.751
520.347
525.121
530.18
535.572
541.236
546.969
552.471
557.531
562.079
566.144
569.807
573.171
576.34
579.418
582.494
585.639
588.889
592.211
595.491
598.553
601.276
603.615
605.587
607.234
608.613
609.78
610.789
611.692
612.531
613.339
614.12
614.833
615.377
615.608
615.415
614.742
613.571
611.896
609.716
607.022
603.791
599.988
595.555
590.413
584.449
577.51
569.403
559.9
548.752
535.69
520.469
502.928
365.154
377.051
387.061
395.438
402.48
408.46
413.599
418.07
422.007
425.51
428.66
431.518
434.136
436.554
438.808
440.928
442.942
444.875
446.751
448.594
450.431
452.29
454.203
456.21
458.359
460.712
463.35
466.374
469.907
474.086
479.012
484.655
490.702
496.534
501.849
506.65
511.086
515.362
519.702
524.331
529.465
535.263
541.711
548.452
554.754
560.251
564.913
568.872
572.303
575.38
578.261
581.092
584.015
587.16
590.623
594.397
598.275
601.832
604.854
607.323
609.311
610.918
612.239
613.36
614.359
615.311
616.292
617.375
618.607
619.967
621.292
622.262
622.707
622.589
621.935
620.784
619.164
617.09
614.558
611.545
608.01
603.882
599.049
593.337
586.494
578.23
568.2
555.994
541.16
523.322
380.694
392.556
401.821
409.094
414.915
419.682
423.673
427.083
430.044
432.655
434.985
437.089
439.009
440.777
442.422
443.968
445.435
446.843
448.211
449.558
450.905
452.274
453.694
455.199
456.837
458.669
460.789
463.329
466.484
470.525
475.782
482.477
490.198
497.051
502.638
507.215
511.166
514.854
518.612
522.785
527.766
533.988
541.735
550.537
558.165
564.141
568.73
572.33
575.28
577.841
580.22
582.604
585.186
588.193
591.876
596.4
601.489
605.849
609.198
611.69
613.553
614.981
616.12
617.082
617.962
618.855
619.875
621.162
622.876
625.119
627.685
629.641
630.774
631.174
630.983
630.312
629.233
627.785
625.983
623.823
621.286
618.333
614.883
610.761
605.601
599.069
590.752
580.052
566.147
548.106
400.409
411.778
419.426
424.82
428.845
431.997
434.563
436.715
438.563
440.179
441.613
442.902
444.075
445.154
446.155
447.095
447.988
448.844
449.677
450.498
451.321
452.161
453.037
453.974
455.007
456.188
457.598
459.374
461.758
465.188
470.455
478.794
490.917
499.362
504.854
508.653
511.599
514.216
516.895
520.045
524.253
530.486
540.213
554.28
563.928
569.997
573.94
576.692
578.786
580.533
582.143
583.797
585.713
588.223
591.886
597.555
605.723
611.29
614.744
616.929
618.388
619.428
620.224
620.889
621.512
622.185
623.041
624.301
626.347
629.775
634.921
638.172
639.862
640.577
640.688
640.395
639.8
638.957
637.889
636.609
635.127
633.464
631.653
629.647
626.648
622.448
616.703
608.692
597.058
579.495
427.909
436.336
440.251
442.497
444.007
445.131
446.024
446.762
447.392
447.939
448.424
448.858
449.253
449.615
449.952
450.267
450.567
450.854
451.134
451.41
451.687
451.97
452.266
452.585
452.94
453.35
453.854
454.519
455.499
457.18
460.68
469.634
496.907
505.899
509.479
511.292
512.478
513.461
514.472
515.755
517.795
521.924
532.412
564.355
574.815
578.886
580.832
581.97
582.76
583.392
583.97
584.582
585.354
586.561
588.975
595.082
613.668
619.741
622.084
623.179
623.794
624.192
624.485
624.725
624.954
625.217
625.594
626.273
627.798
631.921
644.852
648.915
650.32
650.816
650.94
650.876
650.692
650.417
650.067
649.651
649.195
648.775
648.671
649.926
649.388
648.019
645.883
642.517
636.474
623.244
401.392
379.57
356.514
332.293
306.99
280.694
253.502
225.513
196.825
167.538
137.749
107.554
77.0462
46.3161
15.4534
402.662
380.785
357.659
333.357
307.965
281.575
254.286
226.198
197.413
168.03
138.148
107.862
77.2641
46.4461
15.4966
405.218
383.228
359.96
335.495
309.922
283.341
255.855
227.57
198.589
169.013
138.944
108.474
77.6983
46.7052
15.5827
409.093
386.927
363.44
338.721
312.87
285.996
258.21
229.624
200.347
170.482
140.131
109.388
78.3453
47.0911
15.711
414.337
391.927
368.133
343.06
316.824
289.547
261.352
232.358
202.682
172.429
141.702
110.596
79.1998
47.6005
15.8802
421.025
398.288
374.086
348.544
321.802
294
265.277
235.763
205.581
174.841
143.645
112.087
80.2537
48.2282
16.0887
429.255
406.092
381.358
355.211
327.821
299.358
269.977
239.824
209.027
177.699
145.941
113.846
81.4958
48.9675
16.3341
439.162
415.445
390.022
363.101
334.898
305.616
275.436
244.517
212.992
180.976
148.568
115.855
82.9115
49.8094
16.6134
450.925
426.482
400.162
372.253
343.035
312.755
281.62
249.802
217.436
184.636
151.493
118.086
84.482
50.7423
16.9228
464.789
439.372
411.87
382.695
352.215
320.73
288.473
255.62
222.304
188.628
154.674
120.507
86.1836
51.7521
17.2576
481.094
454.324
425.23
394.421
362.38
329.461
295.906
261.886
227.519
192.889
158.059
123.079
87.9883
52.8223
17.6123
500.325
471.573
440.281
407.356
373.406
338.808
303.789
268.486
232.985
197.339
161.586
125.754
89.8636
53.9336
17.9804
523.193
491.338
456.941
421.293
385.058
348.557
311.938
275.27
238.582
201.885
165.184
128.48
91.7738
55.0652
18.3552
550.709
513.617
474.828
435.794
396.956
358.404
320.121
282.059
244.174
206.424
168.776
131.202
93.681
56.1953
18.7296
583.883
537.567
492.932
450.076
408.547
367.964
328.063
288.657
249.618
210.85
172.283
133.863
95.548
57.3022
19.0964
23.7696
51.3024
78.8165
106.301
133.747
161.152
188.518
215.862
243.221
270.672
298.354
326.54
355.766
387.247
424.353
24.0533
52.1549
80.2422
108.307
136.344
164.35
192.333
220.31
248.318
276.435
304.805
333.697
363.629
395.579
431.281
24.3398
53.0157
81.6808
110.329
138.956
167.56
196.146
224.727
253.331
282.014
310.88
340.121
370.076
401.291
434.412
24.6284
53.8824
83.1284
112.362
141.578
170.776
199.955
229.119
258.279
287.454
316.683
346.035
375.634
405.665
436.305
24.9183
54.753
84.582
114.402
144.209
173.998
203.767
233.507
263.207
292.847
322.388
351.765
380.877
409.6
437.863
25.2089
55.6257
86.0393
116.447
146.846
177.23
207.591
237.913
268.167
298.296
328.194
357.666
386.377
413.837
439.604
25.4997
56.4989
87.4976
118.494
149.487
180.47
211.434
242.358
273.204
303.895
334.284
364.082
392.73
419.235
442.208
25.79
57.3708
88.9541
120.541
152.13
183.718
215.297
246.849
278.337
309.692
340.773
371.281
400.558
427.07
447.352
26.079
58.2391
90.4053
122.581
154.767
186.965
219.171
251.374
283.553
315.669
347.645
379.321
410.29
439.214
460.315
26.366
59.1014
91.8469
124.608
157.392
190.201
223.039
255.906
288.802
321.731
354.713
387.837
421.428
456.774
499.667
26.65
59.9549
93.2741
126.617
159.992
193.409
226.878
260.408
294.018
327.744
361.67
396.012
431.332
469.075
512.698
26.9301
60.7966
94.6817
128.598
162.558
196.575
230.665
264.845
299.143
333.606
368.324
403.495
439.535
477.276
518.013
27.2052
61.6233
96.0644
130.544
165.078
199.684
234.381
269.191
304.143
339.276
374.651
410.359
446.541
483.377
520.989
27.4744
62.4321
97.417
132.447
167.542
202.723
238.01
273.429
309.005
344.767
380.732
416.879
453.077
488.921
523.59
27.7366
63.2202
98.7346
134.301
169.942
205.679
241.539
277.546
313.728
350.104
386.671
423.349
459.841
495.262
527.384
27.9911
63.9847
100.013
136.099
172.267
208.544
244.956
281.533
318.304
355.295
392.518
429.932
467.33
503.877
535.871
28.2369
64.7233
101.247
137.834
174.511
211.306
248.25
285.374
322.715
360.313
398.218
436.51
475.395
515.633
560.752
28.4735
65.4337
102.434
139.502
176.667
213.958
251.409
289.054
326.936
365.105
403.634
442.66
482.501
523.981
569.146
28.7
66.1141
103.571
141.099
178.729
216.492
254.423
292.56
330.946
369.632
408.689
448.229
488.452
529.75
572.745
28.9161
66.7629
104.654
142.62
180.691
218.901
257.285
295.882
334.734
373.888
413.395
453.305
493.639
534.322
575.039
29.1212
67.3788
105.682
144.062
182.55
221.181
259.99
299.016
338.301
377.885
417.807
458.069
498.565
538.849
577.636
29.3151
67.9609
106.653
145.423
184.304
223.329
262.535
301.96
341.646
381.635
421.966
462.654
503.619
544.397
582.798
29.4976
68.5085
107.566
146.703
185.951
225.344
264.918
304.712
344.768
385.132
425.861
467.029
508.783
551.577
597.426
29.6686
69.0214
108.421
147.9
187.489
227.224
267.139
307.272
347.664
388.363
429.434
470.979
513.208
556.615
602.374
29.828
69.4995
109.218
149.014
188.921
228.971
269.198
309.639
350.333
391.322
432.663
474.438
516.794
559.998
604.449
29.9758
69.9428
109.956
150.047
190.246
230.586
271.1
311.821
352.783
394.021
435.573
477.477
519.772
562.494
605.627
30.1121
70.3517
110.637
150.998
191.467
232.073
272.848
313.823
355.028
396.489
438.223
480.225
522.436
564.684
606.627
30.2372
70.7266
111.261
151.87
192.584
233.433
274.447
315.654
357.082
398.752
440.67
482.809
525.054
567.064
608.01
30.3511
71.0679
111.829
152.664
193.601
234.671
275.901
317.321
358.955
400.827
442.947
485.304
527.814
570.163
611.008
30.4539
71.3763
112.342
153.38
194.519
235.787
277.214
318.826
360.651
402.714
445.044
487.672
530.668
574.284
619.712
30.546
71.6522
112.801
154.021
195.34
236.786
278.387
320.171
362.166
404.402
446.916
489.766
533.072
577.124
622.612
30.6273
71.896
113.207
154.587
196.065
237.668
279.423
321.359
363.501
405.882
448.539
491.526
534.939
578.945
623.777
30.6982
72.1083
113.56
155.08
196.697
238.436
280.324
322.389
364.657
407.155
449.914
492.971
536.373
580.169
624.371
30.7586
72.2895
113.861
155.501
197.235
239.09
281.093
323.267
365.639
408.231
451.065
494.158
537.512
581.091
624.779
30.8088
72.4398
114.111
155.85
197.682
239.634
281.73
323.996
366.454
409.123
452.02
495.146
538.476
581.914
625.212
30.8487
72.5596
114.311
156.128
198.039
240.068
282.24
324.579
367.107
409.842
452.797
495.973
539.344
582.811
625.999
30.8786
72.649
114.46
156.336
198.306
240.393
282.623
325.019
367.603
410.393
453.404
496.645
540.124
583.88
628.159
30.8983
72.7082
114.558
156.475
198.483
240.61
282.88
325.316
367.941
410.774
453.833
497.132
540.692
584.562
628.866
30.9079
72.7371
114.606
156.542
198.571
240.719
283.01
325.47
368.121
410.983
454.077
497.417
541.024
584.919
629.119
30.9074
72.7356
114.604
156.54
198.569
240.718
283.012
325.478
368.139
411.016
454.131
497.499
541.135
585.043
629.194
30.8967
72.7036
114.551
156.466
198.476
240.606
282.885
325.338
367.991
410.868
453.99
497.376
541.036
584.974
629.163
30.8758
72.6409
114.447
156.321
198.29
240.382
282.625
325.047
367.674
410.533
453.649
497.041
540.724
584.707
629.01
30.8446
72.5474
114.291
156.103
198.012
240.044
282.23
324.599
367.18
410.004
453.097
496.485
540.181
584.194
628.6
30.803
72.4227
114.084
155.813
197.639
239.591
281.697
323.991
366.504
409.27
452.323
495.694
539.396
583.385
627.437
30.7511
72.267
113.824
155.449
197.171
239.019
281.024
323.218
365.637
408.319
451.309
494.653
538.388
582.509
626.88
30.6889
72.0803
113.512
155.012
196.608
238.329
280.207
322.275
364.571
407.138
450.032
493.32
537.09
581.436
626.376
30.6165
71.8629
113.149
154.502
195.949
237.52
279.246
321.16
363.301
405.715
448.461
491.631
535.37
579.924
625.619
30.5341
71.6151
112.735
153.92
195.197
236.595
278.143
319.875
361.827
404.042
446.578
489.525
533.061
577.595
624.083
30.4418
71.3379
112.271
153.268
194.353
235.554
276.901
318.423
360.155
402.13
444.39
486.989
530.035
573.885
620.186
30.34
71.0319
111.76
152.547
193.42
234.403
275.525
316.813
358.297
400.002
441.947
484.122
526.427
568.449
608.385
30.2291
70.6986
111.202
151.762
192.402
233.146
274.022
315.054
356.27
397.691
439.326
481.142
522.992
564.436
604.372
30.1095
70.3391
110.6
150.914
191.303
231.789
272.398
313.154
354.085
395.214
436.56
478.117
519.815
561.444
602.574
29.9819
69.9552
109.957
150.008
190.127
230.337
270.659
311.12
351.746
392.569
433.629
474.973
516.664
558.772
601.321
29.8466
69.5486
109.276
149.048
188.881
228.796
268.814
308.957
349.255
389.743
430.48
471.566
513.2
555.768
599.862
29.7046
69.1213
108.561
148.039
187.571
227.175
266.869
306.674
346.615
386.728
427.07
467.757
509.065
551.679
597.24
29.5564
68.6755
107.814
146.985
186.203
225.481
264.835
304.282
343.841
383.536
423.4
463.497
503.998
545.519
590.834
29.4028
68.2137
107.04
145.894
184.785
223.724
262.725
301.799
340.958
380.209
419.548
458.934
498.2
536.7
571.573
29.2447
67.7383
106.244
144.77
183.324
221.916
260.553
299.245
337.996
376.804
415.646
454.434
492.911
530.373
565.103
29.083
67.2519
105.429
143.62
181.83
220.066
258.332
296.635
334.978
373.359
411.762
450.129
488.303
525.919
562.335
28.9186
66.7572
104.6
142.451
180.311
218.185
256.075
293.985
331.919
369.883
407.885
445.937
484.06
522.276
560.596
28.7522
66.2569
103.762
141.268
178.775
216.284
253.793
291.305
328.825
366.363
403.953
441.677
479.73
518.534
558.794
28.5849
65.7537
102.919
140.079
177.231
214.372
251.498
288.608
325.703
362.792
399.912
437.168
474.856
513.759
555.774
28.4175
65.2502
102.076
138.891
175.687
212.461
249.204
285.909
322.57
359.183
395.757
432.34
469.117
506.798
548.56
28.2508
64.7491
101.237
137.708
174.153
210.562
246.925
283.229
319.457
355.585
391.578
427.359
462.73
496.979
526.959
28.0857
64.2527
100.407
136.538
172.635
208.687
244.678
280.59
316.399
352.067
387.527
422.645
457.1
490.102
519.778
27.9228
63.7632
99.5878
135.385
171.142
206.844
242.475
278.011
313.426
348.677
383.699
418.372
452.46
485.512
516.834
27.7628
63.2825
98.7842
134.255
169.68
205.044
240.327
275.506
310.553
345.432
380.097
414.487
448.521
482.103
515.18
27.6061
62.812
97.9983
133.151
168.255
203.291
238.241
273.081
307.783
342.321
376.671
410.833
444.876
479.023
513.74
27.4532
62.3529
97.2322
132.076
166.869
201.591
236.223
270.74
305.116
339.326
373.359
407.245
441.139
475.528
511.65
27.3042
61.9059
96.4869
131.032
165.525
199.947
234.275
268.486
302.551
336.441
370.134
403.634
437.041
470.809
506.984
27.1593
61.4713
95.7629
130.02
164.225
198.359
232.401
266.323
300.095
333.679
367.028
400.073
432.676
464.399
493.3
27.0183
61.0487
95.0599
129.038
162.967
196.828
230.6
264.255
297.759
331.068
364.118
396.803
428.906
459.931
488.732
26.881
60.6374
94.3767
128.086
161.75
195.353
228.872
262.281
295.547
328.624
361.449
393.921
425.868
456.991
486.868
26.747
60.2363
93.711
127.16
160.571
193.928
227.211
260.397
293.455
326.344
359.012
391.39
423.387
454.898
485.868
26.6156
59.8434
93.06
126.257
159.423
192.547
225.611
258.594
291.469
324.205
356.764
389.11
421.227
453.166
485.1
26.4862
59.4564
92.4196
125.37
158.3
191.201
224.058
256.855
289.571
322.178
354.651
386.974
419.177
451.422
484.168
26.3577
59.0724
91.7851
124.493
157.193
189.878
222.54
255.165
287.737
320.233
352.629
384.908
417.085
449.314
482.341
26.229
58.6883
91.1508
123.618
156.09
188.565
221.039
253.504
285.947
318.347
350.678
382.899
414.943
446.638
477.28
26.099
58.3002
90.5105
122.735
154.98
187.247
219.538
251.85
284.176
316.499
348.791
381
413.029
444.678
475.514
25.9663
57.9041
89.8572
121.836
153.849
185.906
218.014
250.178
282.397
314.663
346.951
379.214
411.368
443.268
474.725
25.8296
57.4959
89.1837
120.908
152.682
184.523
216.445
248.46
280.578
312.8
345.116
377.493
409.869
442.153
474.25
25.6873
57.0711
88.4824
119.941
151.466
183.079
214.804
246.663
278.677
310.863
343.228
375.761
408.423
441.153
473.876
25.5382
56.6256
87.7462
118.923
150.183
181.552
213.063
244.75
276.648
308.793
341.214
373.926
406.919
440.144
473.515
25.3811
56.1556
86.9681
117.846
148.818
179.921
211.194
242.682
274.439
306.521
338.987
371.886
405.241
439.022
473.116
25.2148
55.6578
86.1422
116.698
147.36
178.167
209.168
240.421
271.995
303.974
336.45
369.519
403.255
437.668
472.629
25.0386
55.1299
85.2643
115.474
145.795
176.273
206.961
237.929
269.263
301.072
333.491
366.676
400.788
435.921
471.977
24.8522
54.5705
84.3319
114.169
144.118
174.227
204.555
235.176
266.192
297.737
329.989
363.181
397.598
433.522
471.016
24.6555
53.9798
83.3449
112.782
142.326
172.025
201.937
232.142
262.747
293.903
325.824
358.823
393.352
430.02
469.41
24.4493
53.3595
82.3059
111.316
140.423
169.67
199.111
228.823
258.912
289.528
320.902
353.393
387.607
424.614
466.245
24.2344
52.7127
81.2203
109.78
138.419
167.174
196.091
225.237
254.702
284.62
315.193
346.756
379.913
415.986
458.682
617.359
557.953
507.871
461.929
418.283
376.085
334.871
294.355
254.347
214.712
175.355
136.201
97.1908
58.2775
19.4198
627.938
569.989
518.557
471.093
426.112
382.77
340.564
299.172
258.376
218.023
178
138.22
98.6133
59.1232
19.7004
632.343
577.478
526.467
478.516
432.786
388.652
345.678
303.562
262.088
221.097
180.47
140.113
99.951
59.9201
19.9651
634.554
582.268
532.231
484.378
438.336
393.713
350.184
307.495
265.454
223.91
182.746
141.866
101.194
60.6619
20.2117
635.847
585.476
536.457
488.965
442.883
397.999
354.092
310.968
268.465
226.451
184.816
143.47
102.335
61.3448
20.439
636.69
587.721
539.603
492.554
446.583
401.591
357.442
313.997
271.127
228.72
186.679
144.921
103.372
61.9669
20.6464
637.28
589.354
541.985
495.375
449.585
404.582
360.291
316.614
273.456
230.725
188.339
146.221
104.305
62.528
20.8336
637.713
590.577
543.819
497.609
452.022
407.065
362.698
318.86
275.479
232.484
189.804
147.376
105.136
63.0296
21.0012
638.04
591.514
545.251
499.39
454.006
409.122
364.725
320.775
277.223
234.014
191.089
148.393
105.872
63.4745
21.1501
638.294
592.245
546.384
500.821
455.625
410.826
366.426
322.402
278.72
235.337
192.207
149.283
106.518
63.8661
21.2812
638.493
592.824
547.289
501.977
456.95
412.238
367.852
323.779
279.998
236.475
193.175
150.057
107.082
64.2086
21.3961
638.652
593.287
548.018
502.917
458.037
413.409
369.046
324.943
281.085
237.45
194.008
150.727
107.571
64.5063
21.496
638.78
593.66
548.609
503.685
458.933
414.381
370.044
325.923
282.008
238.282
194.722
151.303
107.993
64.7638
21.5825
638.883
593.963
549.091
504.314
459.671
415.188
370.879
326.747
282.788
238.989
195.332
151.796
108.356
64.9853
21.657
638.967
594.21
549.485
504.831
460.281
415.858
371.576
327.44
283.447
239.588
195.851
152.217
108.666
65.175
21.7209
639.036
594.412
549.808
505.257
460.786
416.415
372.158
328.02
284.001
240.095
196.291
152.575
108.93
65.3367
21.7753
639.093
594.578
550.074
505.608
461.203
416.877
372.642
328.505
284.466
240.521
196.662
152.878
109.153
65.4739
21.8216
639.139
594.714
550.292
505.897
461.547
417.259
373.045
328.909
284.854
240.878
196.974
153.132
109.342
65.5897
21.8606
639.177
594.826
550.471
506.134
461.83
417.575
373.378
329.245
285.178
241.176
197.235
153.346
109.5
65.6869
21.8934
639.208
594.917
550.618
506.328
462.063
417.835
373.653
329.522
285.446
241.423
197.451
153.523
109.632
65.7679
21.9207
639.233
594.99
550.737
506.486
462.252
418.047
373.877
329.749
285.665
241.626
197.629
153.669
109.74
65.8346
21.9433
639.253
595.05
550.832
506.613
462.405
418.217
374.058
329.932
285.843
241.79
197.773
153.788
109.829
65.889
21.9616
639.268
595.096
550.907
506.713
462.525
418.352
374.201
330.078
285.984
241.921
197.889
153.883
109.899
65.9323
21.9762
639.281
595.132
550.965
506.79
462.618
418.456
374.312
330.189
286.093
242.022
197.977
153.956
109.953
65.9659
21.9876
639.289
595.158
551.007
506.846
462.685
418.531
374.392
330.271
286.172
242.096
198.042
154.009
109.993
65.9905
21.9959
639.295
595.175
551.034
506.883
462.729
418.581
374.445
330.325
286.225
242.145
198.086
154.045
110.02
66.007
22.0015
639.298
595.183
551.048
506.901
462.751
418.606
374.472
330.353
286.252
242.171
198.109
154.064
110.034
66.0157
22.0044
639.298
595.184
551.049
506.902
462.753
418.608
374.475
330.356
286.255
242.174
198.112
154.067
110.036
66.017
22.0049
639.295
595.176
551.036
506.886
462.733
418.587
374.452
330.334
286.234
242.155
198.095
154.053
110.026
66.011
22.0028
639.29
595.16
551.01
506.851
462.692
418.541
374.404
330.286
286.188
242.112
198.058
154.023
110.004
65.9974
21.9983
639.281
595.134
550.969
506.797
462.628
418.47
374.329
330.21
286.116
242.046
198
153.976
109.969
65.976
21.9911
639.269
595.098
550.912
506.721
462.538
418.37
374.225
330.106
286.015
241.954
197.92
153.911
109.921
65.9464
21.9811
639.253
595.051
550.836
506.621
462.419
418.239
374.087
329.968
285.884
241.834
197.816
153.825
109.858
65.9078
21.9681
639.232
594.99
550.739
506.493
462.267
418.071
373.912
329.794
285.718
241.682
197.684
153.718
109.779
65.8593
21.9517
639.206
594.913
550.616
506.332
462.077
417.863
373.695
329.578
285.512
241.495
197.522
153.587
109.682
65.8
21.9318
639.173
594.817
550.462
506.132
461.842
417.605
373.428
329.314
285.262
241.268
197.326
153.428
109.565
65.7286
21.9078
639.132
594.696
550.271
505.883
461.552
417.289
373.103
328.994
284.96
240.995