/*--------------------------------*- C++ -*----------------------------------*\
| =========                 |                                                 |
| \\      /  F ield         | OpenFOAM: The Open Source CFD Toolbox           |
|  \\    /   O peration     | Version:  5.x                                   |
|   \\  /    A nd           | Web:      www.OpenFOAM.org                      |
|    \\/     M anipulation  |                                                 |
\*---------------------------------------------------------------------------*/
FoamFile
{
    version     2.0;
    format      ascii;
    class       volScalarField;
    location    "1";
    object      gradTy;
}
// * * * * * * * * * * * * * * * * * * * * * * * * * * * * * * * * * * * * * //

dimensions      [0 -1 0 1 0 0 0];

internalField   nonuniform List<scalar> 
2048
(
-18.0417
-18.0461
-18.0543
-18.0649
-18.0759
-18.0846
-18.0877
-18.081
-18.0602
-18.0203
-17.9562
-17.8629
-17.7353
-17.569
-17.3601
-17.1054
-16.8032
-16.4531
-16.0564
-15.6169
-15.1401
-14.6341
-14.1085
-13.5744
-13.043
-12.5252
-12.0305
-11.5666
-11.139
-10.7509
-10.4038
-10.097
-9.82881
-9.59664
-9.39725
-9.22723
-9.08311
-8.96157
-8.8595
-8.77409
-8.70284
-8.64356
-8.59433
-8.55352
-8.51975
-8.49184
-8.46878
-8.44977
-8.4341
-8.42119
-8.41057
-8.40183
-8.39467
-8.38879
-8.38398
-8.38006
-8.37688
-8.37431
-8.37227
-8.37068
-8.36947
-8.3686
-8.36804
-8.36776
-18.0371
-18.042
-18.0513
-18.0635
-18.0767
-18.0882
-18.0944
-18.0915
-18.0746
-18.0388
-17.9789
-17.8895
-17.7656
-17.6024
-17.396
-17.1428
-16.8409
-16.4896
-16.09
-15.6458
-15.1626
-14.6487
-14.1143
-13.571
-13.0308
-12.5052
-12.0043
-11.5359
-11.1056
-10.7166
-10.3698
-10.0644
-9.79834
-9.56873
-9.37212
-9.20489
-9.06346
-8.94442
-8.84462
-8.76124
-8.69177
-8.63402
-8.58611
-8.54643
-8.51361
-8.48649
-8.46411
-8.44566
-8.43045
-8.41793
-8.40763
-8.39916
-8.39221
-8.38651
-8.38185
-8.37805
-8.37497
-8.37248
-8.3705
-8.36896
-8.36779
-8.36694
-8.3664
-8.36613
-18.028
-18.034
-18.0452
-18.0605
-18.0779
-18.0945
-18.107
-18.111
-18.1017
-18.0738
-18.0218
-17.94
-17.8232
-17.6662
-17.4645
-17.2144
-16.9133
-16.5598
-16.1549
-15.7017
-15.2062
-14.677
-14.1253
-13.5642
-13.0069
-12.4663
-11.9534
-11.4765
-11.0413
-10.6506
-10.3046
-10.0021
-9.74036
-9.51579
-9.32455
-9.1627
-9.02642
-8.91214
-8.81665
-8.7371
-8.67098
-8.61613
-8.5707
-8.53313
-8.50209
-8.47648
-8.45535
-8.43794
-8.42361
-8.41181
-8.40211
-8.39414
-8.38759
-8.38223
-8.37784
-8.37427
-8.37136
-8.36903
-8.36717
-8.36571
-8.36461
-8.36381
-8.3633
-8.36305
-18.0144
-18.0217
-18.0358
-18.0554
-18.0786
-18.1027
-18.124
-18.138
-18.1396
-18.1231
-18.0825
-18.0118
-17.9052
-17.7571
-17.5627
-17.3173
-17.0176
-16.6617
-16.2494
-15.7835
-15.2701
-14.7185
-14.1415
-13.5539
-12.9715
-12.4089
-11.8787
-11.3899
-10.948
-10.5553
-10.2112
-9.91331
-9.658
-9.44091
-9.25754
-9.10347
-8.97455
-8.86706
-8.77767
-8.70351
-8.64208
-8.59128
-8.54931
-8.51468
-8.48612
-8.46258
-8.44319
-8.42723
-8.4141
-8.4033
-8.39442
-8.38713
-8.38115
-8.37625
-8.37224
-8.36897
-8.36632
-8.36418
-8.36248
-8.36115
-8.36014
-8.35942
-8.35894
-8.35872
-17.9959
-18.0049
-18.0225
-18.0474
-18.078
-18.1114
-18.144
-18.1709
-18.1866
-18.1847
-18.1588
-18.1023
-18.0089
-17.8727
-17.6878
-17.4492
-17.1522
-16.7937
-16.3727
-15.8909
-15.3544
-14.7734
-14.1627
-13.5399
-12.924
-12.3327
-11.7802
-11.2764
-10.8267
-10.4324
-10.0915
-9.80039
-9.55397
-9.34689
-9.17383
-9.02979
-8.91029
-8.81138
-8.72966
-8.66222
-8.60662
-8.56082
-8.52311
-8.49208
-8.46655
-8.44555
-8.42828
-8.41408
-8.40242
-8.39283
-8.38496
-8.37849
-8.37319
-8.36885
-8.3653
-8.36241
-8.36006
-8.35817
-8.35666
-8.35548
-8.35459
-8.35395
-8.35352
-8.35333
-17.9723
-17.9832
-18.0047
-18.0359
-18.075
-18.1196
-18.1656
-18.2082
-18.2409
-18.2568
-18.2487
-18.2094
-18.1322
-18.0105
-17.8378
-17.6081
-17.3156
-16.9553
-16.5247
-16.0244
-15.4598
-14.8422
-14.189
-13.5217
-12.8637
-12.2364
-11.6569
-11.1357
-10.6778
-10.283
-9.94744
-9.66557
-9.43075
-9.2363
-9.07597
-8.94413
-8.83591
-8.74717
-8.67445
-8.61485
-8.56601
-8.52599
-8.49317
-8.46626
-8.44419
-8.42608
-8.41122
-8.39903
-8.38902
-8.38081
-8.37407
-8.36855
-8.36402
-8.36031
-8.35728
-8.3548
-8.3528
-8.35118
-8.3499
-8.34889
-8.34812
-8.34757
-8.34721
-8.34705
-17.9433
-17.9562
-17.982
-18.0199
-18.0687
-18.1259
-18.1876
-18.2483
-18.301
-18.3377
-18.3504
-18.3312
-18.2729
-18.1684
-18.0108
-17.7927
-17.5068
-17.1463
-16.7062
-16.1851
-15.5877
-14.926
-14.2207
-13.4986
-12.7889
-12.1185
-11.5073
-10.967
-10.5013
-10.1078
-9.78039
-9.51086
-9.29064
-9.11158
-8.96638
-8.84878
-8.75354
-8.67636
-8.61376
-8.56292
-8.52158
-8.48792
-8.46048
-8.43808
-8.41978
-8.40482
-8.39257
-8.38255
-8.37434
-8.36761
-8.36209
-8.35758
-8.35388
-8.35085
-8.34837
-8.34636
-8.34472
-8.3434
-8.34235
-8.34153
-8.3409
-8.34045
-8.34015
-8.34002
-17.9086
-17.9237
-17.9538
-17.9988
-18.058
-18.1292
-18.2085
-18.29
-18.3656
-18.4262
-18.4625
-18.466
-18.4292
-18.3446
-18.2047
-18.0013
-17.7251
-17.3667
-16.9181
-16.375
-15.7402
-15.0265
-14.2584
-13.4697
-12.6978
-11.9764
-11.3293
-10.7689
-10.2968
-9.90768
-9.59185
-9.33823
-9.13592
-8.97509
-8.84738
-8.74591
-8.66516
-8.60073
-8.54918
-8.50781
-8.47452
-8.44765
-8.42591
-8.40829
-8.39397
-8.38231
-8.37281
-8.36505
-8.35872
-8.35354
-8.3493
-8.34584
-8.343
-8.34068
-8.33879
-8.33724
-8.33599
-8.33498
-8.33417
-8.33354
-8.33306
-8.33272
-8.33249
-8.33239
-17.8683
-17.8853
-17.9197
-17.9719
-18.0419
-18.1282
-18.2271
-18.332
-18.4335
-18.5209
-18.5835
-18.6122
-18.5991
-18.5369
-18.4177
-18.2323
-17.9695
-17.6167
-17.1619
-16.5965
-15.9202
-15.146
-14.3029
-13.434
-12.5877
-11.807
-11.1202
-10.5397
-10.064
-9.68315
-9.3833
-9.1497
-8.96883
-8.82912
-8.72118
-8.63759
-8.57263
-8.52191
-8.48212
-8.45074
-8.42588
-8.40609
-8.39026
-8.37755
-8.36732
-8.35905
-8.35235
-8.34692
-8.34249
-8.33889
-8.33595
-8.33356
-8.3316
-8.33
-8.32869
-8.32763
-8.32676
-8.32606
-8.32551
-8.32507
-8.32474
-8.32451
-8.32434
-8.32429
-17.8224
-17.8411
-17.8794
-17.9385
-18.0194
-18.1217
-18.2419
-18.3729
-18.5036
-18.6209
-18.7125
-18.7684
-18.781
-18.7433
-18.6477
-18.484
-18.239
-17.8965
-17.439
-16.8523
-16.1311
-15.2874
-14.3553
-13.3901
-12.4555
-11.6065
-10.8768
-10.2775
-9.80229
-9.43506
-9.15639
-8.94739
-8.79169
-8.67597
-8.58993
-8.52575
-8.47766
-8.4414
-8.41387
-8.39282
-8.3766
-8.36402
-8.35418
-8.34645
-8.34033
-8.33546
-8.33157
-8.32845
-8.32594
-8.32391
-8.32226
-8.32093
-8.31984
-8.31895
-8.31823
-8.31764
-8.31716
-8.31677
-8.31647
-8.31622
-8.31604
-8.31591
-8.31582
-8.31581
-17.7712
-17.7912
-17.8327
-17.8981
-17.9896
-18.1084
-18.2517
-18.4118
-18.5752
-18.7257
-18.8486
-18.9334
-18.973
-18.9616
-18.8923
-18.7543
-18.5324
-18.2059
-17.7512
-17.146
-16.3775
-15.4545
-14.4171
-13.3363
-12.297
-11.3703
-10.5955
-9.98053
-9.51158
-9.16447
-8.91301
-8.73358
-8.60684
-8.51788
-8.45566
-8.41219
-8.3818
-8.36051
-8.34555
-8.33498
-8.32748
-8.32212
-8.31826
-8.31546
-8.31341
-8.3119
-8.31077
-8.30993
-8.30928
-8.30879
-8.30841
-8.30811
-8.30788
-8.30769
-8.30754
-8.30741
-8.30731
-8.30723
-8.30716
-8.3071
-8.30707
-8.30705
-8.30703
-8.30705
-17.7149
-17.7358
-17.7796
-17.8501
-17.9515
-18.087
-18.2551
-18.4474
-18.6475
-18.8347
-18.9912
-19.106
-19.1734
-19.1896
-19.149
-19.0408
-18.8477
-18.5447
-18.1002
-17.4814
-16.6647
-15.6524
-14.4902
-13.2703
-12.1071
-11.0926
-10.272
-9.6467
-9.19189
-8.87281
-8.65533
-8.5107
-8.41668
-8.35705
-8.32031
-8.29856
-8.28645
-8.28043
-8.27813
-8.27805
-8.27919
-8.28096
-8.28297
-8.28499
-8.28691
-8.28866
-8.29021
-8.29156
-8.29273
-8.29372
-8.29456
-8.29526
-8.29585
-8.29633
-8.29673
-8.29705
-8.29731
-8.29751
-8.29768
-8.29781
-8.29791
-8.298
-8.29805
-8.29811
-17.6543
-17.6754
-17.7203
-17.7944
-17.9043
-18.056
-18.2504
-18.4788
-18.7203
-18.948
-19.1401
-19.2853
-19.3805
-19.4249
-19.4149
-19.3406
-19.1829
-18.9119
-18.4872
-17.8627
-16.9991
-15.8874
-14.5774
-13.1894
-11.8792
-10.767
-9.90196
-9.27437
-8.84375
-8.56199
-8.38587
-8.28135
-8.22366
-8.19561
-8.18569
-8.18637
-8.19285
-8.20215
-8.21245
-8.22269
-8.2323
-8.241
-8.24868
-8.25536
-8.26109
-8.26596
-8.27008
-8.27353
-8.27642
-8.27883
-8.28083
-8.28248
-8.28385
-8.28497
-8.28589
-8.28663
-8.28724
-8.28772
-8.28811
-8.28841
-8.28865
-8.28883
-8.28896
-8.28904
-17.59
-17.6105
-17.6549
-17.7306
-17.847
-18.0141
-18.2362
-18.5047
-18.7935
-19.0661
-19.2954
-19.4706
-19.5926
-19.6649
-19.6872
-19.6507
-19.5352
-19.3062
-18.9134
-18.2944
-17.3883
-16.1675
-14.6824
-13.0897
-11.6053
-10.3856
-9.48072
-8.86228
-8.46831
-8.23442
-8.10743
-8.04829
-8.03019
-8.03561
-8.05346
-8.07695
-8.10206
-8.12653
-8.14917
-8.16945
-8.18723
-8.20259
-8.21571
-8.22682
-8.23617
-8.24401
-8.25055
-8.25599
-8.2605
-8.26424
-8.26733
-8.26988
-8.27198
-8.2737
-8.2751
-8.27625
-8.27718
-8.27792
-8.27852
-8.27898
-8.27935
-8.27962
-8.27981
-8.27993
-17.523
-17.5419
-17.5841
-17.6588
-17.7789
-17.9596
-18.2103
-18.524
-18.8674
-19.19
-19.4575
-19.6613
-19.808
-19.9072
-19.9624
-19.9673
-19.9012
-19.7252
-19.379
-18.7808
-17.8412
-16.5029
-14.8101
-12.9661
-11.2748
-9.93934
-9.00367
-8.40985
-8.06749
-7.89307
-7.82316
-7.81432
-7.83863
-7.87893
-7.9251
-7.97145
-8.01497
-8.05425
-8.08883
-8.11875
-8.14434
-8.16601
-8.18427
-8.19955
-8.21231
-8.22292
-8.23173
-8.23902
-8.24505
-8.25003
-8.25414
-8.25752
-8.2603
-8.26258
-8.26444
-8.26595
-8.26718
-8.26817
-8.26896
-8.26958
-8.27007
-8.27042
-8.27067
-8.27081
-17.4541
-17.4705
-17.5084
-17.5791
-17.6993
-17.8906
-18.1704
-18.5353
-18.9427
-19.321
-19.6272
-19.8568
-20.0251
-20.1489
-20.2374
-20.2867
-20.2768
-20.166
-19.8836
-19.3262
-18.3679
-16.9068
-14.9674
-12.8118
-10.8747
-9.41814
-8.46649
-7.91744
-7.64409
-7.5415
-7.53644
-7.58232
-7.65123
-7.72728
-7.8019
-7.87082
-7.93228
-7.98584
-8.03184
-8.07091
-8.10385
-8.13146
-8.15451
-8.17369
-8.18961
-8.2028
-8.21371
-8.22272
-8.23015
-8.23627
-8.24131
-8.24546
-8.24887
-8.25166
-8.25394
-8.2558
-8.2573
-8.25851
-8.25948
-8.26024
-8.26085
-8.26127
-8.26157
-8.26172
-17.3843
-17.3973
-17.4287
-17.4919
-17.6076
-17.8054
-18.1137
-18.5367
-19.0207
-19.4617
-19.8058
-20.0567
-20.2419
-20.3876
-20.5085
-20.6047
-20.6578
-20.6243
-20.4252
-19.9341
-18.9796
-17.3955
-15.1639
-12.617
-10.3885
-8.81065
-7.86561
-7.38664
-7.20188
-7.18379
-7.25081
-7.35505
-7.47007
-7.58218
-7.68493
-7.77583
-7.85454
-7.9217
-7.97847
-8.02612
-8.06592
-8.09905
-8.12654
-8.14931
-8.16814
-8.1837
-8.19653
-8.20711
-8.21582
-8.22299
-8.22889
-8.23374
-8.23771
-8.24097
-8.24364
-8.2458
-8.24756
-8.24898
-8.25011
-8.251
-8.25171
-8.25219
-8.25254
-8.25269
-17.3149
-17.3233
-17.3461
-17.3978
-17.5035
-17.7018
-18.0366
-18.5258
-19.1034
-19.6149
-19.9946
-20.2607
-20.457
-20.6205
-20.7726
-20.9172
-21.039
-21.0952
-21.0006
-20.6065
-19.6884
-17.99
-15.4134
-12.3679
-9.79527
-8.10478
-7.19869
-6.82055
-6.74564
-6.82446
-6.9699
-7.1352
-7.29703
-7.44491
-7.57505
-7.68706
-7.78212
-7.86207
-7.92889
-7.9845
-8.03063
-8.06882
-8.10039
-8.12644
-8.14793
-8.16563
-8.18021
-8.19222
-8.20209
-8.21021
-8.21688
-8.22236
-8.22686
-8.23054
-8.23355
-8.236
-8.23799
-8.23959
-8.24087
-8.24187
-8.24267
-8.2432
-8.24359
-8.24374
-17.2467
-17.2497
-17.2616
-17.2978
-17.387
-17.578
-17.935
-18.4994
-19.1941
-19.785
-20.1955
-20.4681
-20.6683
-20.8452
-21.0263
-21.2201
-21.4153
-21.5727
-21.6048
-21.3438
-20.5065
-18.716
-15.7359
-12.0445
-9.0691
-7.28814
-6.46529
-6.22401
-6.28112
-6.46838
-6.69727
-6.92519
-7.13371
-7.31649
-7.47291
-7.60489
-7.71528
-7.8071
-7.88319
-7.94609
-7.998
-8.0408
-8.07605
-8.10507
-8.12896
-8.1486
-8.16476
-8.17804
-8.18896
-8.19793
-8.20529
-8.21134
-8.2163
-8.22036
-8.22368
-8.22639
-8.22858
-8.23035
-8.23177
-8.23287
-8.23375
-8.23431
-8.23473
-8.23489
-17.1809
-17.1776
-17.1765
-17.1931
-17.2586
-17.432
-17.8034
-18.4525
-19.2977
-19.977
-20.4101
-20.6782
-20.8741
-21.0592
-21.2667
-21.5093
-21.7814
-22.0499
-22.231
-22.144
-21.4457
-19.6057
-16.1606
-11.6177
-8.17801
-6.349
-5.66755
-5.6038
-5.81495
-6.12055
-6.43633
-6.72721
-6.98144
-7.1977
-7.37895
-7.52956
-7.65411
-7.75681
-7.84134
-7.91086
-7.96799
-8.01494
-8.0535
-8.08519
-8.11121
-8.13259
-8.15015
-8.16457
-8.17641
-8.18614
-8.19413
-8.20068
-8.20605
-8.21045
-8.21405
-8.21697
-8.21935
-8.22127
-8.22281
-8.22399
-8.22495
-8.22554
-8.22598
-8.22615
-17.1182
-17.108
-17.0923
-17.0854
-17.1192
-17.2623
-17.6357
-18.378
-19.4214
-20.1975
-20.64
-20.8898
-21.0723
-21.2603
-21.4911
-21.7813
-22.1318
-22.5194
-22.8702
-23.0014
-22.5157
-20.6976
-16.731
-11.0439
-7.0834
-5.2776
-4.81098
-4.9687
-5.35442
-5.78597
-6.19019
-6.54307
-6.84123
-7.08908
-7.29341
-7.46117
-7.59862
-7.71117
-7.80331
-7.87875
-7.94055
-7.99118
-8.03269
-8.06673
-8.09465
-8.11756
-8.13636
-8.15179
-8.16445
-8.17485
-8.18337
-8.19037
-8.19611
-8.2008
-8.20464
-8.20777
-8.2103
-8.21236
-8.214
-8.21525
-8.21628
-8.2169
-8.21734
-8.21754
-17.0595
-17.0419
-17.0105
-16.9765
-16.9707
-17.068
-17.4244
-18.2652
-19.576
-20.454
-20.8862
-21.1014
-21.261
-21.4466
-21.6973
-22.0331
-22.4618
-22.9734
-23.512
-23.9066
-23.7226
-22.037
-17.5121
-10.2584
-5.74007
-4.06802
-3.90514
-4.32935
-4.90723
-5.46941
-5.96155
-6.37423
-6.71381
-6.99094
-7.2164
-7.39967
-7.54873
-7.67008
-7.76898
-7.84967
-7.91558
-7.96946
-8.01356
-8.04966
-8.07924
-8.10349
-8.12337
-8.13968
-8.15306
-8.16404
-8.17304
-8.18042
-8.18647
-8.19143
-8.19548
-8.19878
-8.20146
-8.20363
-8.20536
-8.20668
-8.20775
-8.2084
-8.20885
-8.20909
-17.0055
-16.9803
-16.9323
-16.8686
-16.8155
-16.8494
-17.1612
-18.0984
-19.778
-20.7551
-21.1488
-21.3106
-21.438
-21.6164
-21.8837
-22.2619
-22.7669
-23.4043
-24.144
-24.8455
-25.0663
-23.6749
-18.6007
-9.16427
-4.09718
-2.72049
-2.96418
-3.69802
-4.48114
-5.17518
-5.75264
-6.22174
-6.5996
-6.90338
-7.14783
-7.34496
-7.50429
-7.63339
-7.73821
-7.82349
-7.89299
-7.9497
-7.99604
-8.03393
-8.06495
-8.09036
-8.11118
-8.12824
-8.14224
-8.15372
-8.16313
-8.17085
-8.17717
-8.18235
-8.18658
-8.19003
-8.19283
-8.1951
-8.19691
-8.19828
-8.1994
-8.20008
-8.20053
-8.20083
-16.9565
-16.924
-16.8591
-16.764
-16.6568
-16.608
-16.8374
-17.8537
-20.0514
-21.1101
-21.4267
-21.5146
-21.6014
-21.7684
-22.0491
-22.4661
-23.0433
-23.8045
-24.7529
-25.7991
-26.5374
-25.6649
-20.1411
-7.61737
-2.10118
-1.24433
-2.00709
-3.08807
-4.08359
-4.90698
-5.56513
-6.08623
-6.49872
-6.82629
-7.08754
-7.2968
-7.46509
-7.60091
-7.71086
-7.80009
-7.87267
-7.93181
-7.98007
-8.0195
-8.05175
-8.07814
-8.09976
-8.11748
-8.132
-8.1439
-8.15366
-8.16167
-8.16822
-8.17359
-8.17798
-8.18156
-8.18446
-8.18681
-8.18869
-8.1901
-8.19124
-8.19198
-8.19242
-8.19278
-16.913
-16.8734
-16.7922
-16.6651
-16.4987
-16.3477
-16.4448
-17.4958
-20.4321
-21.5277
-21.7165
-21.7098
-21.749
-21.9018
-22.1928
-22.6443
-23.2882
-24.1676
-25.3252
-26.7441
-28.1148
-28.0576
-22.3473
-5.40398
0.298404
0.339058
-1.05751
-2.51332
-3.72128
-4.66773
-5.40011
-5.96795
-6.41107
-6.75943
-7.03523
-7.25494
-7.43089
-7.57244
-7.68675
-7.77933
-7.85452
-7.91571
-7.96559
-8.00631
-8.03959
-8.06682
-8.08911
-8.10737
-8.12233
-8.1346
-8.14465
-8.15289
-8.15964
-8.16517
-8.16969
-8.17338
-8.17637
-8.17878
-8.18072
-8.18217
-8.18333
-8.18413
-8.18457
-8.18496
-16.8751
-16.829
-16.7325
-16.5741
-16.3459
-16.0745
-15.9773
-16.9729
-20.9723
-22.0142
-22.0126
-21.8921
-21.8792
-22.0158
-22.3146
-22.7961
-23.4996
-24.4879
-25.8475
-27.653
-29.762
-30.8907
-25.5328
-2.21059
3.13901
1.99309
-0.142908
-1.98718
-3.39979
-4.45942
-5.25803
-5.86674
-6.33627
-6.70238
-6.9905
-7.219
-7.40139
-7.54774
-7.66567
-7.76104
-7.83839
-7.90128
-7.9525
-7.99429
-8.02843
-8.05635
-8.07919
-8.0979
-8.11323
-8.12579
-8.13609
-8.14452
-8.15144
-8.15709
-8.16172
-8.1655
-8.16856
-8.17104
-8.17302
-8.17451
-8.17566
-8.17653
-8.17697
-8.17737
-16.8427
-16.7911
-16.6807
-16.4933
-16.2033
-15.7976
-15.4337
-16.2096
-21.7478
-22.5716
-22.3065
-22.0569
-21.9905
-22.1105
-22.4148
-22.9216
-23.6765
-24.7615
-26.3078
-28.4961
-31.425
-34.1725
-30.1525
2.41759
6.42904
3.66377
0.706804
-1.52172
-3.12328
-4.28309
-5.1388
-5.78213
-6.27376
-6.6546
-6.95288
-7.1886
-7.37625
-7.5265
-7.64739
-7.74502
-7.82413
-7.8884
-7.94071
-7.98336
-8.01819
-8.04667
-8.06996
-8.08903
-8.10466
-8.11746
-8.12795
-8.13654
-8.14358
-8.14935
-8.15406
-8.15791
-8.16104
-8.16355
-8.16557
-8.1671
-8.16824
-8.16918
-8.16963
-8.16997
-16.8157
-16.7595
-16.6372
-16.4241
-16.076
-15.529
-14.8215
-15.0981
-22.867
-23.1926
-22.5864
-22.1997
-22.0817
-22.1861
-22.4943
-23.0215
-23.819
-24.9859
-26.6963
-29.2431
-33.0317
-37.8587
-36.8573
9.13146
10.124
5.2789
1.46144
-1.12683
-2.8943
-4.13886
-5.04178
-5.71333
-6.22279
-6.61542
-6.9218
-7.16327
-7.35508
-7.50842
-7.63164
-7.73106
-7.81155
-7.8769
-7.93006
-7.9734
-8.00877
-8.03768
-8.06133
-8.08068
-8.09654
-8.10953
-8.12017
-8.12889
-8.13603
-8.14188
-8.14666
-8.15057
-8.15375
-8.15629
-8.15833
-8.15991
-8.16102
-8.16201
-8.1625
-8.16272
-16.794
-16.7341
-16.6022
-16.3677
-15.9687
-15.2836
-14.1626
-13.4861
-24.4824
-23.8558
-22.838
-22.3164
-22.1525
-22.2432
-22.5539
-23.0969
-23.9279
-25.1603
-27.006
-29.8663
-34.4936
-41.8177
-46.5651
18.8489
14.0925
6.74995
2.09318
-0.809425
-2.71371
-4.02597
-4.96591
-5.65931
-6.18249
-6.58415
-6.8967
-7.14252
-7.33749
-7.49317
-7.61815
-7.71892
-7.80046
-7.86662
-7.92043
-7.96427
-8.00005
-8.02929
-8.0532
-8.07277
-8.0888
-8.10193
-8.11269
-8.1215
-8.12872
-8.13463
-8.13947
-8.14342
-8.14663
-8.1492
-8.15124
-8.15288
-8.15396
-8.15498
-8.15551
-8.1556
-16.777
-16.7147
-16.5755
-16.3248
-15.8852
-15.0778
-13.5012
-11.1621
-26.806
-24.5175
-23.0454
-22.4038
-22.2028
-22.2828
-22.5951
-23.1494
-24.0048
-25.2855
-27.2337
-30.3433
-35.7118
-45.7851
-60.5505
32.8445
18.0699
7.97795
2.5796
-0.572999
-2.58078
-3.94296
-4.90981
-5.61897
-6.15198
-6.56007
-6.87702
-7.12593
-7.32314
-7.48047
-7.6067
-7.70842
-7.79069
-7.85743
-7.91169
-7.9559
-7.99197
-8.02144
-8.04554
-8.06526
-8.08141
-8.09464
-8.10548
-8.11436
-8.12163
-8.12758
-8.13245
-8.13644
-8.13968
-8.14226
-8.1443
-8.14599
-8.14706
-8.14805
-8.14866
-8.14865
-16.7646
-16.7007
-16.5569
-16.2955
-15.8279
-14.9281
-12.9136
-7.83735
-30.1272
-25.1019
-23.1928
-22.4602
-22.2335
-22.3064
-22.6195
-23.181
-24.052
-25.364
-27.3798
-30.6603
-36.5886
-49.3022
-80.5548
52.8591
21.5973
8.86482
2.90646
-0.417518
-2.4935
-3.88797
-4.87206
-5.59124
-6.13048
-6.54264
-6.86236
-7.11323
-7.31184
-7.47021
-7.59722
-7.69954
-7.78228
-7.84937
-7.90392
-7.94836
-7.98461
-8.01422
-8.03844
-8.05825
-8.07448
-8.08777
-8.09866
-8.10758
-8.11489
-8.12087
-8.12576
-8.12977
-8.13302
-8.13561
-8.13764
-8.13939
-8.14045
-8.14137
-8.14208
-8.14205
-16.7563
-16.6917
-16.5457
-16.2791
-15.7975
-14.8476
-12.5211
-3.12349
-34.8347
-25.4882
-23.2676
-22.4856
-22.246
-22.3152
-22.6287
-23.1937
-24.0721
-25.3992
-27.4479
-30.8141
-37.0456
-51.6391
-108.918
81.2323
23.9446
9.33218
3.07041
-0.3393
-2.44852
-3.85855
-4.85089
-5.57486
-6.11706
-6.53116
-6.8522
-7.10399
-7.30327
-7.46214
-7.58951
-7.69212
-7.77507
-7.84234
-7.89702
-7.94157
-7.9779
-8.00758
-8.03185
-8.05172
-8.06798
-8.0813
-8.09221
-8.10115
-8.10847
-8.11447
-8.11938
-8.12339
-8.12666
-8.12925
-8.13125
-8.13306
-8.13412
-8.13494
-8.13576
-8.13578
)
;

boundaryField
{
    left
    {
        type            calculated;
        value           nonuniform List<scalar> 
32
(
-18.0417
-18.0371
-18.028
-18.0144
-17.9959
-17.9723
-17.9433
-17.9086
-17.8683
-17.8224
-17.7712
-17.7149
-17.6543
-17.59
-17.523
-17.4541
-17.3843
-17.3149
-17.2467
-17.1809
-17.1182
-17.0595
-17.0055
-16.9565
-16.913
-16.8751
-16.8427
-16.8157
-16.794
-16.777
-16.7646
-16.7563
)
;
    }
    right
    {
        type            calculated;
        value           nonuniform List<scalar> 
32
(
-8.36776
-8.36613
-8.36305
-8.35872
-8.35333
-8.34705
-8.34002
-8.33239
-8.32429
-8.31581
-8.30705
-8.29811
-8.28904
-8.27993
-8.27081
-8.26172
-8.25269
-8.24374
-8.23489
-8.22615
-8.21754
-8.20909
-8.20083
-8.19278
-8.18496
-8.17737
-8.16997
-8.16272
-8.1556
-8.14865
-8.14205
-8.13578
)
;
    }
    interface
    {
        type            calculated;
        value           nonuniform List<scalar> 
64
(
-16.7531
-16.6884
-16.5419
-16.2739
-15.7889
-14.8259
-12.3921
-0.363769
-37.5905
-25.6134
-23.2856
-22.4906
-22.2478
-22.3161
-22.6298
-23.1955
-24.0758
-25.4065
-27.4632
-30.8504
-37.1613
-52.4015
-125.523
97.8429
24.7124
9.45314
3.112
-0.318807
-2.43609
-3.84987
-4.84419
-5.56931
-6.11222
-6.52679
-6.84814
-7.10015
-7.29959
-7.45858
-7.58605
-7.68872
-7.77172
-7.83903
-7.89375
-7.93832
-7.97467
-8.00437
-8.02865
-8.04853
-8.0648
-8.07813
-8.08904
-8.09799
-8.10532
-8.11131
-8.11622
-8.12024
-8.12351
-8.1261
-8.12809
-8.12993
-8.13099
-8.13175
-8.13263
-8.13268
)
;
    }
    bottom
    {
        type            calculated;
        value           nonuniform List<scalar> 
64
(
-18.0429
-18.0471
-18.055
-18.0652
-18.0756
-18.0837
-18.0859
-18.0783
-18.0564
-18.0155
-17.9503
-17.8559
-17.7274
-17.5603
-17.3508
-17.0957
-16.7935
-16.4436
-16.0478
-15.6094
-15.1343
-14.6303
-14.107
-13.5753
-13.0461
-12.5303
-12.0372
-11.5745
-11.1476
-10.7599
-10.4126
-10.1055
-9.83675
-9.60391
-9.40382
-9.23307
-9.08826
-8.96606
-8.8634
-8.77746
-8.70575
-8.64606
-8.59649
-8.55539
-8.52137
-8.49324
-8.47001
-8.45085
-8.43505
-8.42204
-8.41134
-8.40254
-8.39531
-8.38938
-8.38454
-8.38058
-8.37738
-8.37479
-8.37274
-8.37113
-8.36991
-8.36903
-8.36847
-8.36819
)
;
    }
    defaultFaces
    {
        type            empty;
    }
}


// ************************************************************************* //
