/*--------------------------------*- C++ -*----------------------------------*\
| =========                 |                                                 |
| \\      /  F ield         | OpenFOAM: The Open Source CFD Toolbox           |
|  \\    /   O peration     | Version:  5.x                                   |
|   \\  /    A nd           | Web:      www.OpenFOAM.org                      |
|    \\/     M anipulation  |                                                 |
\*---------------------------------------------------------------------------*/
FoamFile
{
    version     2.0;
    format      ascii;
    class       volScalarField;
    location    "1";
    object      gradTx;
}
// * * * * * * * * * * * * * * * * * * * * * * * * * * * * * * * * * * * * * //

dimensions      [0 -1 0 1 0 0 0];

internalField   nonuniform List<scalar> 
2048
(
-0.000981546
-0.00279783
-0.00415266
-0.00473677
-0.00424188
-0.00234812
0.00123552
0.00676438
0.0144409
0.0243955
0.0366761
0.0512421
0.0679599
0.0865962
0.106806
0.128117
0.149914
0.171437
0.191794
0.210006
0.225089
0.23616
0.242547
0.243898
0.240235
0.231949
0.219743
0.204523
0.187278
0.168969
0.150443
0.132385
0.115303
0.0995301
0.085255
0.0725464
0.0613855
0.0516943
0.0433579
0.0362426
0.0302088
0.0251194
0.0208458
0.0172701
0.0142876
0.011806
0.00974529
0.00803688
0.00662232
0.00545214
0.00448468
0.00368497
0.00302375
0.00247655
0.00202294
0.00164585
0.00133102
0.0010665
0.000842272
0.000649833
0.000481851
0.000331868
0.000194208
6.39006e-05
-0.00302516
-0.00864674
-0.0129134
-0.0149009
-0.0136925
-0.00833708
0.00204399
0.0182224
0.0408091
0.0701986
0.106537
0.149709
0.199324
0.254704
0.314841
0.37835
0.443419
0.507786
0.568774
0.623429
0.668752
0.702033
0.721208
0.725185
0.71403
0.688953
0.652119
0.606306
0.554532
0.499704
0.444368
0.390565
0.339785
0.293002
0.250744
0.213189
0.180258
0.151703
0.127169
0.10625
0.0885251
0.073586
0.0610489
0.0505652
0.0418242
0.0345539
0.0285186
0.0235164
0.0193754
0.0159505
0.0131193
0.0107793
0.00884478
0.00724398
0.00591706
0.00481404
0.00389315
0.00311945
0.00246363
0.00190085
0.00140963
0.000970873
0.000567598
0.000186428
-0.00531478
-0.0152554
-0.0230063
-0.027046
-0.0258586
-0.0178603
-0.00156547
0.024337
0.0608854
0.10875
0.168183
0.239004
0.320594
0.411874
0.51124
0.616475
0.724637
0.831997
0.934077
1.02585
1.10214
1.15822
1.19045
1.19689
1.17766
1.13489
1.0724
0.995046
0.908051
0.816374
0.724293
0.635178
0.551439
0.4746
0.405446
0.344188
0.290629
0.244302
0.204584
0.170782
0.142187
0.118118
0.0979427
0.0810875
0.0670456
0.0553739
0.0456904
0.0376682
0.0310298
0.0255411
0.0210051
0.0172571
0.014159
0.0115958
0.00947149
0.00770576
0.00623168
0.00499327
0.0039436
0.00304297
0.00225712
0.00155519
0.000907771
0.000297031
-0.00800364
-0.023084
-0.035208
-0.0422841
-0.0421946
-0.0326986
-0.0116579
0.0228282
0.0722664
0.137625
0.219268
0.316959
0.429875
0.556594
0.695011
0.842184
0.994135
1.14571
1.29056
1.42141
1.5306
1.61099
1.65705
1.66577
1.63732
1.57499
1.4846
1.37349
1.24937
1.1195
0.989946
0.865394
0.749079
0.642955
0.547933
0.464144
0.391179
0.328286
0.274528
0.228894
0.190376
0.158014
0.130929
0.108331
0.0895263
0.0739099
0.0609635
0.0502451
0.0413803
0.034054
0.0280017
0.0230023
0.0188711
0.0154539
0.0126223
0.010269
0.00830458
0.00665433
0.00525561
0.00405552
0.00300877
0.00207485
0.00120968
0.000394077
-0.0111898
-0.032436
-0.0500481
-0.0613967
-0.0637557
-0.0541811
-0.0298072
0.0119381
0.0730928
0.15495
0.257984
0.381892
0.525665
0.687607
0.865233
1.05503
1.25212
1.44999
1.64035
1.81341
1.95857
2.06573
2.1269
2.1377
2.09835
2.01364
1.89194
1.74363
1.57945
1.40919
1.24084
1.08036
0.93165
0.796941
0.677097
0.572021
0.480972
0.402828
0.336282
0.279971
0.232568
0.192832
0.159638
0.131988
0.109009
0.0899485
0.0741612
0.0611008
0.0503061
0.0413896
0.0340271
0.0279477
0.0229257
0.0187729
0.0153325
0.0124737
0.0100876
0.00808328
0.0063845
0.00492672
0.00365534
0.00252317
0.00146992
0.000476761
-0.0149244
-0.0434768
-0.0678382
-0.0848821
-0.0912651
-0.0832734
-0.057203
-0.00969014
0.0619235
0.159284
0.282952
0.432515
0.606778
0.803844
1.021
1.25437
1.4984
1.74534
1.98491
2.20445
2.38985
2.52724
2.60538
2.61804
2.56551
2.45455
2.29689
2.1068
1.89865
1.68513
1.47626
1.27913
1.09816
0.935614
0.792089
0.667081
0.559384
0.467413
0.389424
0.32367
0.268486
0.222347
0.183889
0.151912
0.125377
0.103394
0.0852062
0.0701728
0.0577565
0.0475067
0.0390476
0.0320658
0.0263005
0.0215346
0.0175872
0.0143078
0.0115711
0.00927245
0.00732429
0.00565208
0.0041934
0.00289734
0.00168682
0.000544692
-0.0192161
-0.056248
-0.0886938
-0.112988
-0.125162
-0.120643
-0.0947335
-0.0431064
0.0376406
0.149533
0.293149
0.467882
0.672307
0.9044
1.16141
1.43939
1.73242
2.03172
2.32502
2.5965
2.82771
2.99995
3.09763
3.11192
3.04319
2.90093
2.70134
2.46369
2.20678
1.94659
1.6952
1.46068
1.24768
1.05818
0.892275
0.748842
0.626063
0.521788
0.43378
0.359873
0.298055
0.246515
0.203655
0.168089
0.138624
0.114248
0.0941016
0.0774656
0.0637364
0.0524103
0.0430681
0.035361
0.0289994
0.0237424
0.0193895
0.0157739
0.0127569
0.0102233
0.00807617
0.00623251
0.00462362
0.00319747
0.0018602
0.000597865
-0.0240347
-0.070676
-0.112551
-0.145738
-0.165638
-0.166711
-0.143052
-0.0891309
-0.00062727
0.124882
0.28787
0.487362
0.721614
0.988532
1.28557
1.60909
1.9532
2.30852
2.66088
2.99093
3.27501
3.48811
3.60873
3.62443
3.53562
3.35557
3.10657
2.81433
2.50306
2.19241
1.89644
1.62392
1.37932
1.164
0.977228
0.817053
0.680889
0.565928
0.469386
0.388653
0.321366
0.265432
0.219034
0.180611
0.148835
0.122582
0.100912
0.0830352
0.0682938
0.0561411
0.0461227
0.0378619
0.0310462
0.025416
0.0207555
0.0168851
0.013656
0.0109445
0.0086468
0.00667303
0.00494966
0.00342577
0.00199104
0.000636589
-0.0293131
-0.0865797
-0.139175
-0.18294
-0.212659
-0.221687
-0.202634
-0.148422
-0.053571
0.0847516
0.266696
0.490638
0.754342
1.05569
1.39263
1.76228
2.15943
2.57456
2.99197
3.3885
3.73421
3.9959
4.14396
4.16081
4.04692
3.82089
3.51326
3.15812
2.78615
2.42102
2.07854
1.7677
1.49229
1.25259
1.04672
0.871676
0.723953
0.600002
0.496451
0.410236
0.338642
0.27931
0.230218
0.18965
0.156158
0.128529
0.105749
0.086976
0.0715084
0.0587658
0.0482673
0.0396149
0.0324792
0.026587
0.0217112
0.0176628
0.0142854
0.0114497
0.00904685
0.00698169
0.00517733
0.00358588
0.00208114
0.000661421
-0.0349502
-0.103677
-0.168175
-0.224206
-0.265979
-0.285599
-0.27382
-0.221541
-0.121763
0.0287517
0.229483
0.477712
0.770438
1.10555
1.48181
1.89769
2.3494
2.82811
3.31708
3.7893
4.20737
4.5275
4.70893
4.72667
4.58129
4.29892
3.92144
3.49372
3.05415
2.63051
2.23992
1.89089
1.58589
1.32363
1.10073
0.912875
0.755533
0.624345
0.515331
0.424969
0.350209
0.288444
0.237469
0.195434
0.160792
0.132255
0.108756
0.0894091
0.0734817
0.0603692
0.0495722
0.0406783
0.0333468
0.0272952
0.0222891
0.0181334
0.0146666
0.0117559
0.00928968
0.00716858
0.00531395
0.00368243
0.00213284
0.000673129
-0.0408143
-0.121595
-0.199004
-0.268949
-0.32515
-0.358311
-0.356862
-0.309013
-0.205719
-0.0433533
0.176349
0.448915
0.770179
1.13804
1.55246
2.01398
2.52112
3.06682
3.63421
4.19266
4.69612
5.08721
5.3098
5.32819
5.14302
4.79128
4.33041
3.81908
3.30459
2.81866
2.3789
1.99243
1.65963
1.37704
1.13943
0.941002
0.77607
0.639432
0.526494
0.433295
0.35647
0.293192
0.241101
0.198234
0.162968
0.133959
0.110098
0.0904724
0.0743288
0.0610472
0.0501171
0.041118
0.033703
0.0275851
0.0225257
0.0183265
0.0148234
0.0118823
0.00939025
0.00724502
0.0053678
0.00372068
0.00214895
0.000672718
-0.0467469
-0.139874
-0.230977
-0.316392
-0.389515
-0.439527
-0.451958
-0.411393
-0.305963
-0.131679
0.10768
0.404928
0.754195
1.15339
1.60412
2.10978
2.67233
3.2878
3.94056
4.59704
5.20157
5.67951
5.95352
5.97231
5.7366
5.29909
4.73862
4.13134
3.53446
2.983
2.49382
2.07142
1.71318
1.41292
1.16321
0.956584
0.786151
0.645854
0.530502
0.435725
0.35788
0.293954
0.241457
0.198345
0.162935
0.133848
0.109951
0.090313
0.074172
0.0609012
0.049986
0.0410033
0.0336051
0.0275034
0.0224593
0.0182734
0.0147811
0.0118489
0.00936429
0.00722294
0.00534768
0.0037064
0.0021328
0.000661495
-0.0525689
-0.15799
-0.263278
-0.365569
-0.458207
-0.528794
-0.559279
-0.529338
-0.423099
-0.236251
0.024129
0.346795
0.723491
1.15216
1.63657
2.18383
2.8006
3.48763
4.23242
4.99986
5.72412
6.30905
6.64809
6.66705
6.36669
5.82278
5.14352
4.42679
3.74027
3.12095
2.58309
2.12714
1.74647
1.43162
1.17264
0.960303
0.786483
0.644289
0.527978
0.432817
0.35493
0.291151
0.238899
0.196071
0.160951
0.132139
0.108494
0.0890804
0.0731356
0.0600341
0.0492636
0.0404042
0.0331104
0.0270975
0.0221283
0.0180052
0.0145648
0.0116758
0.00922761
0.00711441
0.00526269
0.0036457
0.00208821
0.000641142
-0.0580872
-0.175366
-0.294982
-0.415333
-0.530126
-0.625476
-0.678991
-0.663685
-0.55789
-0.357028
-0.0733664
0.275944
0.679452
1.13524
1.64985
2.23503
2.90342
3.66244
4.50516
5.39734
6.2633
6.98067
7.40288
7.42178
7.03818
6.36192
5.54136
4.70082
3.91812
3.22985
2.64532
2.15917
1.75973
1.43371
1.16849
0.952979
0.777866
0.635481
0.51959
0.425158
0.348123
0.285215
0.233791
0.191719
0.157271
0.129046
0.105905
0.086922
0.0713414
0.0585465
0.0480333
0.039389
0.0322753
0.0264131
0.0215703
0.0175524
0.0141992
0.0113826
0.0089957
0.00693128
0.00512196
0.003545
0.00201962
0.000613739
-0.0631029
-0.191396
-0.325082
-0.464363
-0.603928
-0.728724
-0.811264
-0.815539
-0.711354
-0.493921
-0.18356
0.194191
0.623839
1.10388
1.64432
2.2625
2.97835
3.80801
4.75323
5.78428
6.81739
7.69932
8.22905
8.24767
7.75606
6.91487
5.92703
4.94795
4.06382
3.30721
2.67942
2.16739
1.75343
1.42
1.15167
0.935539
0.761171
0.620213
0.506025
0.413338
0.337965
0.276571
0.226491
0.185588
0.152144
0.124774
0.102355
0.0839791
0.0689062
0.0565348
0.046374
0.038023
0.0311532
0.0254943
0.0208209
0.0169441
0.0137075
0.0109881
0.00868333
0.00668492
0.00493453
0.00341097
0.00193192
0.000581674
-0.0674211
-0.205471
-0.352516
-0.511186
-0.678
-0.837425
-0.956261
-0.986385
-0.884869
-0.646789
-0.304856
0.103756
0.558758
1.05962
1.62068
2.2657
3.02312
3.91992
4.97021
6.15386
7.38307
8.4699
9.14002
9.15818
8.52528
7.47837
6.29383
5.16188
4.17304
3.35074
2.68468
2.15209
1.72838
1.39152
1.12325
0.908995
0.737314
0.599289
0.487974
0.397946
0.324949
0.265633
0.217342
0.177963
0.145807
0.119519
0.098006
0.0803846
0.0659394
0.0540889
0.0443601
0.036367
0.029794
0.0243816
0.0199135
0.0162072
0.0131115
0.0105096
0.00830441
0.00638611
0.00470917
0.00325047
0.00183026
0.000547408
-0.0708606
-0.217012
-0.376214
-0.554202
-0.75044
-0.950122
-1.1141
-1.17821
-1.08031
-0.815416
-0.435253
0.00725863
0.486623
1.0043
1.57993
2.24448
3.03583
3.99378
5.14892
6.49748
7.95486
9.29697
10.1522
10.1697
9.35046
8.04707
6.63326
5.33554
4.2415
3.35862
2.66088
2.11393
1.68566
1.34946
1.08441
0.874415
0.707228
0.573509
0.466114
0.379547
0.309547
0.252791
0.206668
0.169111
0.13848
0.113463
0.0930063
0.0762613
0.0625419
0.0512919
0.0420595
0.0344768
0.0282435
0.0231127
0.0188785
0.0153665
0.0124312
0.00996308
0.0078718
0.00604488
0.00445418
0.00307031
0.00171958
0.000513085
-0.0732644
-0.225495
-0.395141
-0.591726
-0.819045
-1.06492
-1.2848
-1.39367
-1.30021
-0.99945
-0.572264
-0.0922939
0.410081
0.939946
1.52341
2.19914
3.01507
4.02545
5.2816
6.80462
8.5245
10.1842
11.2859
11.3026
10.2354
8.61279
6.93494
5.46138
4.26524
3.32957
2.60832
2.05399
1.62662
1.29519
1.03638
0.83289
0.671846
0.543656
0.441096
0.35868
0.292203
0.238411
0.194768
0.159278
0.130365
0.106771
0.0874921
0.0717206
0.0588052
0.0482188
0.0395339
0.032403
0.026543
0.0217212
0.0177435
0.0144442
0.0116845
0.00936303
0.00739729
0.00567049
0.00417719
0.00287704
0.00160407
0.000480055
-0.0745084
-0.230487
-0.408352
-0.622045
-0.881312
-1.17937
-1.46812
-1.63627
-1.54796
-1.19828
-0.712818
-0.191533
0.331929
0.868735
1.45269
2.13046
2.96008
4.01133
5.36026
7.06277
9.08017
11.1337
12.5662
12.582
11.182
9.16382
7.18655
5.53158
4.24089
3.26303
2.5279
1.97373
1.55283
1.23017
0.980468
0.78551
0.632077
0.510479
0.413533
0.335846
0.273325
0.222827
0.181915
0.148688
0.121643
0.099592
0.0815855
0.0668627
0.0548113
0.0449367
0.0368383
0.0301907
0.0247293
0.0202372
0.0165329
0.0134604
0.0108876
0.00872236
0.00689151
0.00527136
0.00388489
0.00267654
0.00148658
0.00044845
-0.0745094
-0.23167
-0.415048
-0.643493
-0.934464
-1.29031
-1.66337
-1.91066
-1.82808
-1.41087
-0.853136
-0.286781
0.254998
0.792855
1.36956
2.03969
2.87086
3.94863
5.37706
7.25762
9.60563
12.1443
14.0249
14.0397
12.1896
9.68406
7.37391
5.53851
4.1659
3.15929
2.42109
1.87496
1.46603
1.15593
0.917952
0.733343
0.588786
0.47468
0.383993
0.311506
0.253287
0.20634
0.168356
0.137539
0.112478
0.092059
0.0753948
0.061776
0.0506326
0.041505
0.034021
0.0278794
0.0228351
0.0186874
0.0152684
0.0124325
0.0100547
0.00805249
0.00636392
0.00485514
0.00358285
0.00247365
0.00136834
0.00041698
-0.0732302
-0.228863
-0.414625
-0.654534
-0.975504
-1.39377
-1.86911
-2.22293
-2.14653
-1.63539
-0.988613
-0.37414
0.182034
0.714431
1.27595
1.92856
2.74829
3.83567
5.32479
7.3733
10.0793
13.2104
15.702
15.7157
13.2524
10.152
7.48133
5.4752
4.03888
3.01952
2.28992
1.75978
1.36809
1.07405
0.850106
0.677405
0.542789
0.436908
0.352996
0.286075
0.232422
0.18922
0.154307
0.126008
0.103013
0.0842882
0.0690148
0.0565378
0.0463322
0.0379751
0.0311245
0.0255038
0.0208885
0.0170947
0.0139688
0.0113758
0.00919815
0.00736336
0.00582278
0.00442864
0.00327535
0.0022718
0.00124895
0.000383131
-0.0706826
-0.222034
-0.406724
-0.653869
-1.00132
-1.48477
-2.08267
-2.58101
-2.51115
-1.86884
-1.11369
-0.449608
0.115558
0.635419
1.17386
1.79919
2.59408
3.67213
5.19749
7.39305
10.4736
14.3183
17.6485
17.661
14.3567
10.5402
7.49221
5.33589
3.85978
2.84582
2.13692
1.63049
1.26095
0.986059
0.778148
0.618652
0.494833
0.397753
0.321008
0.259923
0.211027
0.171704
0.139959
0.114249
0.0933714
0.0763807
0.0625276
0.051215
0.0419646
0.0343915
0.0281849
0.0230935
0.0189137
0.015479
0.01265
0.0103035
0.00832875
0.00666358
0.00527512
0.00399794
0.00296538
0.0020728
0.00112699
0.000343854
-0.0669268
-0.211307
-0.391263
-0.640536
-1.00883
-1.55729
-2.29949
-2.99527
-2.9322
-2.10634
-1.22177
-0.509262
0.0577234
0.557522
1.06526
1.65405
2.41083
3.45921
4.99105
7.30008
10.7541
15.443
19.9294
19.9408
15.4777
10.8143
7.3899
5.1167
3.63011
2.64115
1.96502
1.48957
1.14652
0.893454
0.703219
0.55796
0.445596
0.357742
0.28844
0.233374
0.189357
0.153997
0.125476
0.102394
0.0836608
0.0684226
0.0560032
0.0458646
0.0375762
0.0307922
0.0252332
0.0206738
0.0169314
0.0138571
0.011326
0.00922674
0.00745567
0.00596055
0.00472672
0.0035683
0.00265481
0.00187686
0.001001
0.000296678
-0.0620675
-0.196951
-0.368456
-0.614016
-0.995193
-1.6042
-2.5122
-3.47914
-3.42301
-2.34023
-1.30523
-0.549475
0.0101927
0.482122
0.952036
1.49584
2.2019
3.19971
4.7038
7.07883
10.8795
16.5419
22.6281
22.6382
16.5728
10.9332
7.15899
4.81616
3.35297
2.40927
1.77745
1.3395
1.02671
0.797639
0.62637
0.496123
0.395682
0.317337
0.255652
0.206711
0.167636
0.136275
0.110999
0.0905547
0.0739713
0.060487
0.0495007
0.0405344
0.033206
0.0272088
0.0222953
0.0182658
0.0149589
0.0122431
0.0100081
0.00815478
0.00658669
0.00526056
0.00418214
0.00314415
0.00234473
0.00168284
0.000870733
0.000241001
-0.0562474
-0.179362
-0.338805
-0.574314
-0.958083
-1.61742
-2.70938
-4.05002
-4.0009
-2.55884
-1.35551
-0.567192
-0.0259777
0.410238
0.835963
1.32741
1.97126
2.89805
4.33704
6.71654
10.8027
17.548
25.8513
25.8602
17.575
10.8498
6.78687
4.43577
3.03305
2.15456
1.57759
1.18277
0.903289
0.699906
0.548547
0.43384
0.345615
0.276938
0.222952
0.180172
0.146049
0.118685
0.0966437
0.0788256
0.0643781
0.0526346
0.0430692
0.0352643
0.0288864
0.0236677
0.0193926
0.015887
0.0130105
0.0106488
0.0087059
0.00709536
0.00572826
0.004569
0.00364481
0.00272906
0.00203598
0.00148884
0.000738249
0.000179122
-0.0496377
-0.15904
-0.303083
-0.522019
-0.895965
-1.5882
-2.87389
-4.7303
-4.68818
-2.74479
-1.36346
-0.560239
-0.0504104
0.342517
0.718616
1.15161
1.72337
2.56008
3.89541
6.20512
10.4723
18.3595
29.7356
29.7432
18.3827
10.5126
6.26554
3.98035
2.67645
1.88185
1.36886
1.02175
0.777911
0.60142
0.470587
0.371723
0.29585
0.236888
0.190599
0.153957
0.124753
0.10135
0.0825087
0.0672839
0.0549434
0.0449153
0.036749
0.0300869
0.0246437
0.0201904
0.0165427
0.0135517
0.0110978
0.00908358
0.00742719
0.00605476
0.00488568
0.00389043
0.00311715
0.00232558
0.00172965
0.00129291
0.000608195
0.000116515
-0.0424269
-0.136554
-0.262281
-0.458321
-0.808435
-1.50776
-2.98076
-5.54867
-5.51349
-2.87291
-1.31994
-0.527648
-0.0634358
0.27925
0.601376
0.971238
1.4629
2.1928
3.38695
5.54303
9.83618
18.8272
34.4553
34.4616
18.8466
9.86991
5.59358
3.45809
2.29043
1.59617
1.1546
0.858646
0.652065
0.503207
0.393212
0.310291
0.246767
0.19747
0.158809
0.128231
0.103877
0.08437
0.0686724
0.0559921
0.045717
0.0373691
0.0305723
0.0250283
0.0204992
0.0167941
0.0137594
0.0112713
0.00923021
0.00755517
0.00617821
0.00503798
0.00406315
0.00322871
0.00260076
0.00193524
0.00142761
0.00109384
0.00048697
6.09153e-05
-0.0348088
-0.112505
-0.21755
-0.38497
-0.696508
-1.36827
-2.99443
-6.5417
-6.51335
-2.9075
-1.21682
-0.469955
-0.0660638
0.220415
0.485406
0.788911
1.19456
1.80407
2.82297
4.73713
8.84814
18.7378
40.2317
40.2368
18.7535
8.87533
4.77792
2.88043
1.88303
1.30256
0.937937
0.695451
0.527059
0.406149
0.317033
0.249978
0.198682
0.158916
0.127757
0.103128
0.0835221
0.067825
0.0551976
0.045
0.0367385
0.0300277
0.0245646
0.020109
0.0164693
0.0134921
0.0110538
0.00905472
0.0074149
0.00606949
0.00496383
0.00404894
0.0032639
0.00258705
0.00209672
0.00155848
0.00113275
0.000891651
0.000380555
2.01017e-05
-0.0269703
-0.0874936
-0.170125
-0.304191
-0.562852
-1.16431
-2.86547
-7.75564
-7.73396
-2.79897
-1.04843
-0.389426
-0.0598947
0.165744
0.371664
0.607009
0.922887
1.40208
2.21748
3.80408
7.4761
17.7945
47.3443
47.3482
17.8065
7.49691
3.83531
2.2615
1.46263
1.00584
0.721725
0.533918
0.404011
0.310987
0.242556
0.191139
0.151847
0.121412
0.0975796
0.0787511
0.0637688
0.0517769
0.0421325
0.0343456
0.0280381
0.0229152
0.0187452
0.0153445
0.0125668
0.0102948
0.00843414
0.00690866
0.00565742
0.00463105
0.00378779
0.00309062
0.00249033
0.00196804
0.00160578
0.00119477
0.000848933
0.000687792
0.000291394
-1.25161e-06
-0.0190821
-0.0620918
-0.121254
-0.218535
-0.411873
-0.894917
-2.52655
-9.24856
-9.23335
-2.47989
-0.813604
-0.290144
-0.0469704
0.114799
0.260908
0.42762
0.65206
0.994936
1.58633
2.77085
5.71475
15.5923
56.1435
56.1462
15.6007
5.72935
2.79277
1.61725
1.0375
0.710422
0.508459
0.375536
0.283852
0.218324
0.170187
0.134054
0.106463
0.0851031
0.0683845
0.0551808
0.0446773
0.0362721
0.0295135
0.0240573
0.0196382
0.0160494
0.0131283
0.0107464
0.00880082
0.00720956
0.00590642
0.00483805
0.00396177
0.00324313
0.00265282
0.00216524
0.00174409
0.00137366
0.00112869
0.000842775
0.000580546
0.000484868
0.000215435
-4.6159e-06
-0.0112916
-0.0368202
-0.0721254
-0.130691
-0.249591
-0.566289
-1.88774
-11.0927
-11.0837
-1.86027
-0.518394
-0.177874
-0.0295778
0.067051
0.153724
0.252509
0.385757
0.590242
0.946123
1.67405
3.6018
11.5902
67.0648
67.0664
11.5951
3.6104
1.68696
0.964342
0.615338
0.420192
0.300253
0.221533
0.167331
0.12864
0.100241
0.0789376
0.0626779
0.0500951
0.040249
0.0324746
0.0262912
0.0213437
0.0173658
0.0141548
0.0115543
0.00944259
0.00772385
0.00632234
0.00517766
0.00424145
0.00347476
0.0028462
0.00233067
0.00190796
0.00156079
0.00127433
0.00102623
0.00080523
0.000666307
0.000500673
0.000331651
0.000286016
0.000141178
1.14919e-06
-0.00372128
-0.0121415
-0.0238183
-0.0432746
-0.0832263
-0.195229
-0.831197
-13.3771
-13.3741
-0.822164
-0.179484
-0.0596475
-0.0100245
0.0219545
0.0505423
0.0831081
0.127075
0.19469
0.312881
0.55739
1.23863
5.07851
80.6447
80.6452
5.08013
1.24146
0.561634
0.318872
0.202945
0.138404
0.0988235
0.0728791
0.0550303
0.0422963
0.0329535
0.0259469
0.0206004
0.0164636
0.013227
0.0106716
0.00863933
0.00701338
0.00570616
0.00465099
0.00379647
0.00310256
0.00253781
0.0020773
0.00170119
0.00139357
0.00114167
0.000935136
0.000765747
0.000626883
0.000512852
0.000418883
0.000337302
0.000263438
0.000219709
0.000166604
0.000104921
9.43398e-05
5.32359e-05
2.58896e-06
)
;

boundaryField
{
    left
    {
        type            calculated;
        value           uniform 0;
    }
    right
    {
        type            calculated;
        value           uniform 0;
    }
    interface
    {
        type            calculated;
        value           nonuniform List<scalar> 
64
(
-0.00372128
-0.0121415
-0.0238183
-0.0432746
-0.0832263
-0.195229
-0.831197
-13.3771
-13.3741
-0.822164
-0.179484
-0.0596475
-0.0100245
0.0219545
0.0505423
0.0831081
0.127075
0.19469
0.312881
0.55739
1.23863
5.07851
80.6447
80.6452
5.08013
1.24146
0.561634
0.318872
0.202945
0.138404
0.0988235
0.0728791
0.0550303
0.0422963
0.0329535
0.0259469
0.0206004
0.0164636
0.013227
0.0106716
0.00863933
0.00701338
0.00570616
0.00465099
0.00379647
0.00310256
0.00253781
0.0020773
0.00170119
0.00139357
0.00114167
0.000935136
0.000765747
0.000626883
0.000512852
0.000418883
0.000337302
0.000263438
0.000219709
0.000166604
0.000104921
9.43398e-05
5.32359e-05
2.58896e-06
)
;
    }
    bottom
    {
        type            calculated;
        value           nonuniform List<scalar> 
64
(
-0.000981546
-0.00279783
-0.00415266
-0.00473677
-0.00424188
-0.00234812
0.00123552
0.00676438
0.0144409
0.0243955
0.0366761
0.0512421
0.0679599
0.0865962
0.106806
0.128117
0.149914
0.171437
0.191794
0.210006
0.225089
0.23616
0.242547
0.243898
0.240235
0.231949
0.219743
0.204523
0.187278
0.168969
0.150443
0.132385
0.115303
0.0995301
0.085255
0.0725464
0.0613855
0.0516943
0.0433579
0.0362426
0.0302088
0.0251194
0.0208458
0.0172701
0.0142876
0.011806
0.00974529
0.00803688
0.00662232
0.00545214
0.00448468
0.00368497
0.00302375
0.00247655
0.00202294
0.00164585
0.00133102
0.0010665
0.000842272
0.000649833
0.000481851
0.000331868
0.000194208
6.39006e-05
)
;
    }
    defaultFaces
    {
        type            empty;
    }
}


// ************************************************************************* //
