/*--------------------------------*- C++ -*----------------------------------*\
| =========                 |                                                 |
| \\      /  F ield         | OpenFOAM: The Open Source CFD Toolbox           |
|  \\    /   O peration     | Version:  5.x                                   |
|   \\  /    A nd           | Web:      www.OpenFOAM.org                      |
|    \\/     M anipulation  |                                                 |
\*---------------------------------------------------------------------------*/
FoamFile
{
    version     2.0;
    format      ascii;
    class       volScalarField;
    location    "1";
    object      T;
}
// * * * * * * * * * * * * * * * * * * * * * * * * * * * * * * * * * * * * * //

dimensions      [0 0 0 1 0 0 0];

internalField   nonuniform List<scalar> 
2048
(
9.87038
9.87034
9.87029
9.87021
9.87014
9.87008
9.87007
9.87012
9.87028
9.87057
9.87104
9.87172
9.87264
9.87384
9.87535
9.87718
9.87935
9.88186
9.88471
9.88786
9.89127
9.89489
9.89865
9.90247
9.90627
9.90998
9.91352
9.91685
9.91991
9.9227
9.92519
9.9274
9.92933
9.931
9.93244
9.93367
9.93471
9.93559
9.93632
9.93694
9.93746
9.93788
9.93824
9.93854
9.93878
9.93898
9.93915
9.93929
9.9394
9.93949
9.93957
9.93963
9.93969
9.93973
9.93976
9.93979
9.93981
9.93983
9.93985
9.93986
9.93987
9.93987
9.93988
9.93988
9.61683
9.61673
9.61656
9.61633
9.61609
9.6159
9.61583
9.61597
9.6164
9.61724
9.61859
9.62057
9.62327
9.6268
9.63123
9.63664
9.64306
9.65049
9.65892
9.66827
9.67841
9.68917
9.70034
9.7117
9.72301
9.73402
9.74454
9.7544
9.76348
9.77173
9.7791
9.78561
9.7913
9.79623
9.80046
9.80407
9.80712
9.8097
9.81186
9.81367
9.81518
9.81644
9.81748
9.81835
9.81906
9.81965
9.82014
9.82055
9.82088
9.82115
9.82138
9.82156
9.82171
9.82184
9.82194
9.82202
9.82209
9.82214
9.82219
9.82222
9.82225
9.82227
9.82228
9.82228
9.37446
9.37429
9.37398
9.37358
9.37314
9.37277
9.37258
9.37272
9.37334
9.37462
9.37674
9.37988
9.38421
9.3899
9.39708
9.40587
9.41634
9.42852
9.44234
9.45771
9.4744
9.49215
9.5106
9.52935
9.548
9.56615
9.58346
9.59966
9.61456
9.62804
9.64007
9.65067
9.65992
9.66791
9.67475
9.68058
9.68551
9.68966
9.69314
9.69605
9.69848
9.7005
9.70217
9.70356
9.7047
9.70565
9.70643
9.70708
9.70761
9.70805
9.70841
9.70871
9.70895
9.70915
9.70931
9.70944
9.70955
9.70964
9.70971
9.70976
9.7098
9.70983
9.70985
9.70986
9.14284
9.14259
9.14212
9.14149
9.1408
9.14017
9.13977
9.1398
9.14049
9.14206
9.14479
9.14892
9.15469
9.16235
9.17209
9.18407
9.1984
9.21513
9.23421
9.25546
9.27863
9.3033
9.32897
9.35508
9.38103
9.40625
9.43024
9.45264
9.47317
9.49168
9.50815
9.52262
9.53519
9.54603
9.55529
9.56315
9.56979
9.57537
9.58005
9.58395
9.5872
9.5899
9.59214
9.59399
9.59553
9.59679
9.59784
9.5987
9.59941
9.59999
9.60047
9.60086
9.60119
9.60145
9.60167
9.60185
9.60199
9.60211
9.6022
9.60227
9.60233
9.60237
9.60239
9.6024
8.92154
8.92119
8.92053
8.91963
8.91861
8.91764
8.91692
8.9167
8.91729
8.91899
8.92213
8.92705
8.93407
8.94348
8.95555
8.97052
8.98852
9.00965
9.03384
9.06091
9.0905
9.12211
9.15506
9.18858
9.22186
9.25415
9.28479
9.31327
9.33928
9.36263
9.38331
9.40141
9.41707
9.43052
9.44198
9.45168
9.45985
9.46671
9.47244
9.47722
9.48119
9.48449
9.48722
9.48948
9.49134
9.49288
9.49415
9.4952
9.49606
9.49677
9.49736
9.49784
9.49823
9.49855
9.49882
9.49903
9.49921
9.49935
9.49946
9.49955
9.49961
9.49966
9.49969
9.49971
8.71017
8.7097
8.70881
8.70759
8.70616
8.70473
8.70356
8.70295
8.70326
8.70488
8.70823
8.71372
8.72175
8.73268
8.74687
8.76459
8.78607
8.81142
8.84061
8.87344
8.9095
8.94813
8.98848
9.02955
9.07029
9.10972
9.14699
9.1815
9.21283
9.24083
9.26549
9.28696
9.30546
9.32128
9.3347
9.34603
9.35555
9.36351
9.37016
9.37568
9.38027
9.38407
9.38722
9.38982
9.39197
9.39374
9.3952
9.3964
9.39739
9.3982
9.39887
9.39942
9.39988
9.40025
9.40055
9.4008
9.401
9.40116
9.40129
9.40139
9.40146
9.40152
9.40155
9.40157
8.50834
8.50774
8.50658
8.50497
8.50305
8.50106
8.49928
8.4981
8.49793
8.49927
8.50261
8.50843
8.51723
8.52944
8.54549
8.56574
8.59047
8.61987
8.65396
8.69253
8.7351
8.7809
8.82885
8.8777
8.9261
8.9728
9.01675
9.05722
9.09374
9.12618
9.15457
9.17915
9.20022
9.21814
9.23329
9.24603
9.25669
9.26559
9.273
9.27915
9.28424
9.28846
9.29195
9.29482
9.2972
9.29916
9.30077
9.3021
9.30319
9.30409
9.30483
9.30543
9.30593
9.30634
9.30667
9.30695
9.30717
9.30735
9.30749
9.3076
9.30768
9.30774
9.30778
9.3078
8.31568
8.31492
8.31347
8.31141
8.30891
8.30623
8.3037
8.30176
8.30092
8.30174
8.30482
8.31074
8.32005
8.33329
8.35094
8.37346
8.40123
8.4345
8.47337
8.51765
8.56683
8.62
8.67584
8.73277
8.7891
8.84326
8.89396
8.94034
8.98191
9.01856
9.05042
9.07782
9.10117
9.12093
9.13755
9.15146
9.16308
9.17274
9.18076
9.18741
9.19291
9.19745
9.2012
9.2043
9.20685
9.20895
9.21068
9.2121
9.21327
9.21424
9.21503
9.21568
9.21621
9.21665
9.21701
9.2173
9.21753
9.21772
9.21788
9.21799
9.21808
9.21815
9.21819
9.21821
8.13182
8.13091
8.12912
8.12656
8.1234
8.11991
8.11647
8.11358
8.11183
8.11191
8.11448
8.12024
8.12982
8.14381
8.16281
8.18733
8.21788
8.25482
8.29833
8.34831
8.40422
8.46501
8.5291
8.59451
8.65912
8.72097
8.77852
8.83076
8.87721
8.91783
8.95287
8.98278
9.00811
9.02942
9.04725
9.06213
9.07449
9.08475
9.09324
9.10027
9.10606
9.11085
9.11479
9.11804
9.12072
9.12292
9.12474
9.12623
9.12745
9.12846
9.12929
9.12997
9.13053
9.13099
9.13136
9.13166
9.13191
9.13211
9.13227
9.13239
9.13249
9.13255
9.1326
9.13262
7.95644
7.95534
7.9532
7.95009
7.94619
7.94178
7.93726
7.93322
7.93034
7.92941
7.93124
7.93659
7.94617
7.96066
7.98072
8.00697
8.04002
8.08039
8.1284
8.18405
8.24681
8.31553
8.3883
8.46268
8.53601
8.60584
8.67035
8.72839
8.77953
8.82383
8.86173
8.89383
8.92082
8.94339
8.96218
8.97779
8.99071
9.0014
9.01022
9.0175
9.0235
9.02844
9.03252
9.03587
9.03862
9.04089
9.04276
9.04429
9.04555
9.04659
9.04744
9.04813
9.04871
9.04918
9.04956
9.04987
9.05013
9.05033
9.05049
9.05062
9.05072
9.05079
9.05083
9.05085
7.78918
7.7879
7.78538
7.78168
7.77697
7.77152
7.76577
7.76037
7.75612
7.75394
7.75476
7.75945
7.76879
7.78352
7.80435
7.83203
7.86729
7.91082
7.96313
8.02439
8.09415
8.17114
8.25313
8.33707
8.41963
8.49779
8.56936
8.63312
8.68871
8.73638
8.77679
8.81073
8.83905
8.86259
8.88208
8.8982
8.91149
8.92245
8.93147
8.9389
8.94501
8.95004
8.95418
8.95758
8.96037
8.96267
8.96456
8.96611
8.96738
8.96843
8.96929
8.97
8.97058
8.97105
8.97144
8.97175
8.97201
8.97222
8.97238
8.97251
8.97261
8.97268
8.97273
8.97275
7.62971
7.62825
7.62534
7.62104
7.61546
7.60886
7.60172
7.59474
7.58886
7.58518
7.58475
7.58854
7.5974
7.61211
7.63345
7.66224
7.69938
7.74575
7.80212
7.86889
7.94578
8.03144
8.12326
8.21749
8.3099
8.39676
8.47549
8.54484
8.6046
8.65529
8.69782
8.73322
8.76255
8.78676
8.8067
8.82311
8.8366
8.84768
8.85678
8.86426
8.8704
8.87544
8.87958
8.88299
8.88578
8.88808
8.88996
8.89151
8.89279
8.89383
8.89469
8.89539
8.89597
8.89644
8.89683
8.89715
8.8974
8.89761
8.89777
8.8979
8.898
8.89807
8.89811
8.89813
7.47773
7.47609
7.47279
7.46786
7.46137
7.45354
7.44484
7.43606
7.4283
7.42284
7.42092
7.4236
7.43176
7.44621
7.46776
7.49735
7.53601
7.58487
7.645
7.71713
7.80124
7.89601
7.9984
8.10376
8.20674
8.30272
8.38871
8.46346
8.52704
8.58034
8.62457
8.66106
8.69105
8.71564
8.73578
8.75228
8.76579
8.77686
8.78593
8.79336
8.79945
8.80445
8.80855
8.81192
8.81468
8.81695
8.81881
8.82034
8.82159
8.82262
8.82347
8.82416
8.82473
8.8252
8.82558
8.82589
8.82614
8.82634
8.82651
8.82663
8.82673
8.8268
8.82684
8.82686
7.33291
7.33109
7.32743
7.32188
7.31445
7.30531
7.2949
7.28409
7.27416
7.26666
7.26301
7.26436
7.27163
7.2856
7.30711
7.33715
7.37695
7.42789
7.4914
7.56867
7.66007
7.7644
7.87821
7.99574
8.11014
8.21568
8.30895
8.38885
8.45586
8.51129
8.55679
8.59396
8.62426
8.64895
8.66907
8.68547
8.69885
8.70977
8.71871
8.72601
8.73199
8.73689
8.7409
8.7442
8.7469
8.74911
8.75093
8.75242
8.75364
8.75465
8.75547
8.75615
8.75671
8.75716
8.75753
8.75783
8.75808
8.75828
8.75843
8.75856
8.75865
8.75872
8.75876
8.75878
7.19494
7.19297
7.18896
7.18281
7.17445
7.16393
7.15167
7.13858
7.12619
7.11635
7.11075
7.11062
7.11682
7.13011
7.15132
7.1815
7.22202
7.27457
7.34102
7.42311
7.52178
7.63615
7.76238
7.89331
8.02012
8.13569
8.23621
8.32091
8.39084
8.4479
8.49419
8.53163
8.56192
8.58643
8.60629
8.62242
8.63553
8.6462
8.65491
8.66202
8.66783
8.67258
8.67647
8.67966
8.68227
8.68441
8.68617
8.68761
8.68879
8.68976
8.69056
8.69121
8.69175
8.69219
8.69254
8.69284
8.69307
8.69326
8.69342
8.69354
8.69363
8.69369
8.69373
8.69375
7.06351
7.06141
7.05709
7.05039
7.04112
7.0292
7.01495
6.99932
6.98412
6.97167
6.96391
6.96214
6.96716
6.9796
7.00027
7.03025
7.07107
7.12472
7.19357
7.28004
7.38588
7.51076
7.65056
7.79639
7.93675
8.0628
8.17045
8.25948
8.33176
8.38989
8.43647
8.47379
8.50373
8.5278
8.54721
8.5629
8.57562
8.58594
8.59434
8.60119
8.60678
8.61135
8.61508
8.61814
8.62064
8.6227
8.62438
8.62576
8.62689
8.62782
8.62858
8.6292
8.62972
8.63014
8.63048
8.63076
8.63098
8.63117
8.63131
8.63143
8.63151
8.63157
8.63161
8.63163
6.93834
6.93612
6.93156
6.92437
6.91424
6.90092
6.88455
6.8661
6.84773
6.83234
6.82225
6.81874
6.82247
6.83395
6.85386
6.88332
6.924
6.97819
7.0488
7.13909
7.25185
7.38768
7.54238
7.70494
7.86018
7.99714
8.11165
8.20443
8.27839
8.33698
8.38335
8.42013
8.44941
8.47281
8.49158
8.50669
8.5189
8.52879
8.53683
8.54336
8.54869
8.55303
8.55659
8.55949
8.56187
8.56382
8.56542
8.56673
8.5678
8.56868
8.5694
8.57
8.57048
8.57088
8.5712
8.57147
8.57168
8.57186
8.57199
8.5721
8.57218
8.57224
8.57228
8.57229
6.81912
6.81683
6.81207
6.80448
6.79358
6.77888
6.7603
6.73873
6.71675
6.6981
6.68552
6.68022
6.68263
6.69303
6.712
6.74064
6.78073
6.83486
6.90652
6.99991
7.11917
7.2663
7.43742
7.61899
7.79063
7.93884
8.05978
8.15556
8.23045
8.28885
8.3345
8.37036
8.39868
8.42119
8.43916
8.45358
8.46519
8.47457
8.48218
8.48836
8.49339
8.49749
8.50084
8.50357
8.50581
8.50765
8.50915
8.51038
8.51139
8.51222
8.5129
8.51345
8.51391
8.51428
8.51459
8.51484
8.51504
8.5152
8.51533
8.51543
8.51551
8.51557
8.5156
8.51562
6.70556
6.70323
6.69836
6.69047
6.67892
6.66293
6.64207
6.61705
6.59093
6.56868
6.55349
6.5464
6.5475
6.55678
6.57465
6.60217
6.64123
6.69468
6.76658
6.86218
6.98729
7.14594
7.33522
7.53863
7.72841
7.88807
8.01478
8.11265
8.18764
8.24518
8.28961
8.32418
8.35129
8.3727
8.38973
8.40334
8.41428
8.4231
8.43023
8.43602
8.44073
8.44456
8.44769
8.45024
8.45234
8.45405
8.45545
8.4566
8.45754
8.45831
8.45894
8.45946
8.45988
8.46023
8.46052
8.46075
8.46094
8.46109
8.46121
8.4613
8.46137
8.46143
8.46146
8.46147
6.5974
6.59507
6.59016
6.5821
6.57005
6.5529
6.52973
6.50092
6.47002
6.44379
6.42593
6.41713
6.41697
6.4251
6.44174
6.4679
6.50548
6.55761
6.62888
6.72564
6.85568
7.02582
7.23519
7.4641
7.67393
7.84503
7.97656
8.07546
8.14964
8.20564
8.24836
8.2813
8.30696
8.32712
8.34308
8.3558
8.366
8.3742
8.38083
8.3862
8.39057
8.39412
8.39701
8.39938
8.40131
8.40289
8.40419
8.40525
8.40612
8.40683
8.40742
8.40789
8.40829
8.40861
8.40887
8.40909
8.40926
8.4094
8.40951
8.4096
8.40966
8.40971
8.40974
8.40975
6.49435
6.49206
6.4872
6.47911
6.46675
6.44862
6.42319
6.39021
6.35372
6.32313
6.30262
6.29224
6.29093
6.29793
6.31325
6.3378
6.37352
6.42368
6.49338
6.59008
6.7238
6.90506
7.13662
7.39575
7.62774
7.80989
7.94499
8.04368
8.11609
8.16989
8.21045
8.24145
8.26545
8.28421
8.29901
8.31077
8.32018
8.32774
8.33383
8.33877
8.34277
8.34603
8.34868
8.35085
8.35262
8.35407
8.35526
8.35623
8.35702
8.35768
8.35821
8.35865
8.35901
8.3593
8.35954
8.35974
8.3599
8.36002
8.36013
8.36021
8.36027
8.36031
8.36034
8.36035
6.39616
6.39395
6.38922
6.38124
6.36879
6.34995
6.32239
6.28487
6.24173
6.20639
6.18333
6.17159
6.16928
6.1752
6.18914
6.21188
6.24536
6.29295
6.36012
6.45537
6.59115
6.78267
7.0386
7.33419
7.59051
7.78284
7.91989
8.01697
8.08663
8.13759
8.17557
8.20436
8.22652
8.24377
8.25733
8.26809
8.27667
8.28355
8.2891
8.29358
8.29722
8.30018
8.30258
8.30455
8.30615
8.30747
8.30854
8.30942
8.31014
8.31073
8.31122
8.31161
8.31194
8.3122
8.31242
8.3126
8.31274
8.31286
8.31295
8.31302
8.31308
8.31312
8.31314
8.31315
6.30257
6.30048
6.29597
6.28826
6.27595
6.25673
6.22729
6.18487
6.13369
6.09324
6.06786
6.05506
6.05195
6.05686
6.06937
6.09015
6.12106
6.16549
6.22916
6.32146
6.45729
6.65753
6.93988
7.28032
7.56303
7.764
7.90098
7.99493
8.06087
8.10837
8.14341
8.16978
8.18996
8.20561
8.21788
8.22758
8.23532
8.24151
8.24649
8.25052
8.25379
8.25644
8.2586
8.26036
8.2618
8.26298
8.26394
8.26473
8.26537
8.2659
8.26633
8.26669
8.26698
8.26722
8.26741
8.26757
8.2677
8.26781
8.26789
8.26795
8.268
8.26804
8.26806
8.26807
6.21335
6.21141
6.2072
6.1999
6.18801
6.1688
6.13788
6.09029
6.02916
5.98332
5.95602
5.94254
5.93885
5.94285
5.95392
5.9726
6.00066
6.04141
6.10065
6.18841
6.32187
6.52839
6.8388
7.23552
7.54625
7.75342
7.88791
7.97714
8.03841
8.08192
8.1137
8.13747
8.15556
8.16955
8.18049
8.18912
8.19599
8.20149
8.20591
8.20948
8.21237
8.21472
8.21663
8.21819
8.21946
8.2205
8.22135
8.22204
8.22261
8.22308
8.22347
8.22378
8.22404
8.22425
8.22442
8.22456
8.22467
8.22476
8.22484
8.2249
8.22494
8.22497
8.22499
8.225
6.12827
6.12651
6.12266
6.11592
6.10471
6.08598
6.05417
6.00131
5.92761
5.87628
5.84764
5.83392
5.82992
5.83311
5.84274
5.85924
5.88422
5.92084
5.97478
6.05637
6.18467
6.39396
6.73305
7.20181
7.54118
7.75103
7.88024
7.96312
8.01885
8.0579
8.08618
8.1072
8.12314
8.13543
8.14502
8.15257
8.15857
8.16337
8.16723
8.17034
8.17286
8.1749
8.17657
8.17792
8.17903
8.17994
8.18068
8.18128
8.18178
8.18218
8.18252
8.18279
8.18301
8.1832
8.18335
8.18347
8.18357
8.18365
8.18371
8.18376
8.1838
8.18383
8.18384
8.18385
6.0471
6.04554
6.04213
6.03607
6.02581
6.00807
5.97618
5.91826
5.82836
5.77176
5.74258
5.72915
5.72508
5.72758
5.73578
5.75003
5.77177
5.80389
5.85177
5.92562
6.04568
6.25288
6.61942
7.18211
7.54889
7.75658
7.87741
7.95237
8.0018
8.03601
8.0606
8.07879
8.09253
8.1031
8.11133
8.1178
8.12294
8.12705
8.13035
8.13301
8.13516
8.13691
8.13833
8.13948
8.14043
8.1412
8.14183
8.14235
8.14277
8.14312
8.1434
8.14364
8.14383
8.14398
8.14411
8.14421
8.1443
8.14437
8.14442
8.14446
8.14449
8.14452
8.14453
8.14454
5.96964
5.96831
5.96537
5.96011
5.95105
5.93485
5.90393
5.8417
5.73053
5.66941
5.64075
5.62816
5.62427
5.62617
5.63299
5.64497
5.66334
5.69068
5.73187
5.79653
5.90509
6.10391
6.49344
7.18063
7.57036
7.76959
7.8788
7.94439
7.98686
8.01596
8.03674
8.05205
8.06358
8.07242
8.0793
8.08471
8.089
8.09242
8.09517
8.09738
8.09918
8.10063
8.10181
8.10278
8.10356
8.10421
8.10473
8.10516
8.10551
8.1058
8.10604
8.10623
8.10639
8.10652
8.10663
8.10671
8.10678
8.10684
8.10688
8.10692
8.10694
8.10697
8.10698
8.10698
5.89569
5.89461
5.89218
5.88781
5.88015
5.86604
5.83739
5.77247
5.63296
5.56892
5.5421
5.5309
5.52742
5.52883
5.5343
5.544
5.55896
5.58133
5.61534
5.66955
5.76337
5.94606
6.34893
7.2033
7.60633
7.78934
7.88368
7.93865
7.9737
7.9975
8.0144
8.02681
8.03613
8.04328
8.04883
8.05318
8.05664
8.05939
8.0616
8.06339
8.06483
8.066
8.06695
8.06772
8.06835
8.06887
8.06929
8.06964
8.06992
8.07015
8.07034
8.0705
8.07062
8.07073
8.07081
8.07088
8.07094
8.07099
8.07102
8.07105
8.07107
8.07109
8.0711
8.0711
5.82509
5.82425
5.82236
5.81893
5.81285
5.80134
5.77646
5.7118
5.5341
5.47011
5.44663
5.43735
5.43446
5.43547
5.43964
5.44709
5.45861
5.47593
5.50243
5.54522
5.6213
5.77885
6.17738
7.25836
7.65701
7.81481
7.89129
7.93467
7.96197
7.98038
7.9934
8.00293
8.01008
8.01555
8.0198
8.02313
8.02577
8.02788
8.02957
8.03093
8.03203
8.03292
8.03365
8.03424
8.03472
8.03511
8.03544
8.0357
8.03592
8.03609
8.03624
8.03636
8.03645
8.03653
8.0366
8.03665
8.03669
8.03673
8.03676
8.03678
8.03679
8.03681
8.03682
8.03682
5.75765
5.75705
5.75571
5.75326
5.74888
5.74039
5.72091
5.66144
5.4319
5.3729
5.3544
5.34747
5.34533
5.346
5.34892
5.35416
5.36228
5.37453
5.39338
5.42411
5.47996
5.60269
5.96722
7.35718
7.72179
7.8447
7.90084
7.93197
7.95138
7.96439
7.97358
7.98028
7.98531
7.98915
7.99213
7.99447
7.99632
7.9978
7.99898
7.99994
8.00071
8.00133
8.00184
8.00225
8.00259
8.00287
8.00309
8.00328
8.00343
8.00355
8.00366
8.00374
8.00381
8.00386
8.00391
8.00395
8.00398
8.004
8.00402
8.00403
8.00404
8.00405
8.00406
8.00406
5.69321
5.69286
5.69206
5.69061
5.68798
5.68281
5.67028
5.62382
5.32364
5.27745
5.2655
5.26125
5.25995
5.26033
5.26204
5.26513
5.26993
5.27718
5.28838
5.30675
5.34069
5.41931
5.70288
7.51508
7.79871
7.87743
7.91153
7.93015
7.94167
7.94938
7.9548
7.95876
7.96172
7.96399
7.96574
7.96712
7.96821
7.96908
7.96978
7.97034
7.97079
7.97116
7.97146
7.9717
7.9719
7.97206
7.9722
7.9723
7.97239
7.97247
7.97253
7.97257
7.97261
7.97265
7.97267
7.9727
7.97271
7.97273
7.97274
7.97275
7.97275
7.97276
7.97276
7.97276
5.63164
5.63152
5.63126
5.63078
5.6299
5.62817
5.6238
5.6022
5.20577
5.18426
5.18008
5.17865
5.17821
5.17834
5.1789
5.17992
5.1815
5.18389
5.18758
5.19366
5.205
5.23237
5.3637
7.75252
7.88387
7.91127
7.92266
7.92882
7.93263
7.93517
7.93695
7.93825
7.93923
7.93997
7.94055
7.941
7.94136
7.94165
7.94188
7.94206
7.94221
7.94233
7.94243
7.94251
7.94258
7.94263
7.94267
7.94271
7.94274
7.94276
7.94278
7.9428
7.94281
7.94282
7.94283
7.94284
7.94284
7.94285
7.94285
7.94285
7.94286
7.94286
7.94286
7.94286
)
;

boundaryField
{
    left
    {
        type            zeroGradient;
    }
    right
    {
        type            zeroGradient;
    }
    interface
    {
        type            fixedValue;
        value           nonuniform List<scalar> 
64
(
5.60155
5.60155
5.60155
5.60155
5.60155
5.60155
5.60155
5.60155
5.13826
5.13826
5.13826
5.13826
5.13826
5.13826
5.13826
5.13826
5.13826
5.13826
5.13826
5.13826
5.13826
5.13826
5.13826
7.92825
7.92825
7.92825
7.92825
7.92825
7.92825
7.92825
7.92825
7.92825
7.92825
7.92825
7.92825
7.92825
7.92825
7.92825
7.92825
7.92825
7.92825
7.92825
7.92825
7.92825
7.92825
7.92825
7.92825
7.92825
7.92825
7.92825
7.92825
7.92825
7.92825
7.92825
7.92825
7.92825
7.92825
7.92825
7.92825
7.92825
7.92825
7.92825
7.92825
7.92825
)
;
    }
    bottom
    {
        type            fixedValue;
        value           uniform 10;
    }
    defaultFaces
    {
        type            empty;
    }
}


// ************************************************************************* //
