/*--------------------------------*- C++ -*----------------------------------*\
| =========                 |                                                 |
| \\      /  F ield         | OpenFOAM: The Open Source CFD Toolbox           |
|  \\    /   O peration     | Version:  5.x                                   |
|   \\  /    A nd           | Web:      www.OpenFOAM.org                      |
|    \\/     M anipulation  |                                                 |
\*---------------------------------------------------------------------------*/
FoamFile
{
    version     2.0;
    format      ascii;
    class       volScalarField;
    location    "1.2";
    object      gradTy;
}
// * * * * * * * * * * * * * * * * * * * * * * * * * * * * * * * * * * * * * //

dimensions      [0 -1 0 1 0 0 0];

internalField   nonuniform List<scalar> 
6300
(
8385.82
23136.9
37826.1
52411.8
66851.8
81103.5
95123.2
108867
122290
135349
148001
160203
171918
183111
193754
30.1073
90.4974
151.397
213.081
275.729
339.377
403.861
468.767
533.377
596.63
657.118
713.117
762.693
803.861
834.807
49.9819
150.258
251.445
354.051
458.425
564.683
672.615
781.586
890.442
997.423
1100.14
1195.61
1280.43
1351.04
1404.16
69.5395
209.098
350.058
493.225
639.202
788.272
940.276
1094.46
1249.31
1402.4
1550.31
1688.66
1812.25
1915.57
1993.42
88.6124
266.521
446.437
629.556
816.837
1008.87
1205.69
1406.58
1609.82
1812.43
2009.92
2196.3
2364.19
2505.43
2612.1
106.996
321.916
539.58
761.679
989.663
1224.59
1466.93
1716.24
1970.85
2227.41
2480.48
2722.25
2942.56
3129.63
3271.49
124.444
374.543
628.25
887.86
1155.47
1432.82
1721.08
2020.47
2329.77
2645.7
2962.14
3269.42
3553.93
3798.78
3985.74
140.669
423.535
710.97
1005.97
1311.44
1630.04
1963.97
2314.61
2681.86
3063.27
3452.74
3839.08
4204.71
4525.51
4773.29
155.359
467.929
786.07
1113.55
1454.19
1811.79
2190.01
2591.95
3019.59
3472.52
3946.19
4429.16
4899.99
5324.92
5659.5
168.186
506.716
851.773
1207.89
1579.86
1972.8
2392.13
2843.41
3331.78
3860.79
4430.04
5031.05
5640.81
6214.29
6680.8
178.844
538.94
906.353
1286.29
1684.44
2107.26
2562.13
3057.56
3603.08
4208.52
4881.83
5623.81
6417.51
7210.17
7892.09
187.082
563.808
948.348
1346.36
1764.24
2209.51
2691.38
3221.39
3814.19
4488.09
5264.59
6164.44
7194.76
8316.22
9377.81
192.746
580.824
976.804
1386.48
1816.51
2275
2772.28
3322.2
3943.94
4664.76
5523.62
6574.13
7880.34
9481.51
11257.7
195.813
589.897
991.499
1406.14
1840.19
2301.52
2800.37
3350.98
3974.33
4703.06
5590.59
6727.64
8270.35
10471.1
13601.3
196.409
591.414
993.092
1406.28
1836.48
2290.36
2776.5
3306.8
3899.07
4582.25
5407.62
6475.01
8001.72
10530.6
15667
202985
210973
218550
225718
232481
238846
244825
250432
255683
260595
265189
269484
273502
277262
280786
284093
287203
290136
292908
295537
298039
300430
302722
304929
307063
309133
311148
313116
315043
316933
318791
320617
322414
324182
325921
327630
329308
330953
332563
334138
335673
337167
338616
340019
341371
342670
343912
345096
346217
347273
348261
349178
350021
350787
351471
352069
352576
352987
353297
353498
353585
353550
353385
353083
352633
352027
351253
350299
349152
347796
346218
344400
342323
339969
337317
334347
331037
327364
323305
318838
313938
308584
302753
296427
289586
282217
274307
265850
256844
247292
852.519
860.048
858.9
849.322
831.882
807.404
776.889
741.431
702.14
660.077
616.214
571.406
526.382
481.744
437.982
395.483
354.552
315.429
278.308
243.352
210.705
180.501
152.872
127.945
105.835
86.6385
70.4113
57.1547
46.7962
39.1789
34.0609
31.1293
30.0294
30.4031
31.9291
34.355
37.5106
41.3028
45.6924
50.6604
56.1747
62.1653
68.5166
75.0776
81.6888
88.2162
94.5831
100.79
106.921
113.13
119.616
126.594
134.264
142.784
152.253
162.718
174.177
186.614
200.018
214.418
229.897
246.6
264.725
284.511
306.212
330.071
356.298
385.048
416.411
450.405
486.986
526.057
567.481
611.094
656.697
704.049
752.842
802.671
852.999
903.126
952.171
999.056
1042.53
1081.19
1113.59
1138.26
1153.89
1159.42
1154.12
1137.73
1434.48
1447.21
1444.91
1428.05
1397.67
1355.27
1302.67
1241.8
1174.62
1102.96
1028.49
952.645
876.64
801.466
727.911
656.593
587.993
522.481
460.355
401.866
347.24
296.692
250.444
208.715
171.718
139.635
112.591
90.6142
73.6023
61.2938
53.2631
48.9432
47.681
48.8159
51.7634
56.0794
61.4899
67.8763
75.2255
83.5592
92.8627
103.032
113.858
125.047
136.278
147.279
157.89
168.103
178.078
188.108
198.576
209.89
222.422
236.459
252.171
269.608
288.735
309.473
331.766
355.632
381.2
408.719
438.548
471.119
506.896
546.325
589.787
637.561
689.799
746.525
807.644
872.976
942.281
1015.28
1091.67
1171.09
1253.06
1336.96
1421.96
1506.91
1590.37
1670.51
1745.18
1811.96
1868.26
1911.48
1939.24
1949.58
1941.19
1913.54
2037.64
2055.82
2051.69
2026.02
1980.53
1917.62
1840.12
1751.04
1653.31
1549.66
1442.49
1333.86
1225.45
1118.61
1014.38
913.556
816.754
724.43
636.944
554.602
477.686
406.483
341.3
282.467
230.32
185.174
147.273
116.726
93.4387
77.0533
66.9274
62.1604
61.688
64.4271
69.4358
76.0378
83.8747
92.8748
103.153
114.875
128.118
142.769
158.492
174.77
191.017
206.724
221.586
235.581
248.976
262.277
276.139
291.252
308.236
327.546
349.422
373.887
400.79
429.911
461.065
494.211
529.505
567.325
608.231
652.917
702.126
756.574
816.868
883.442
956.519
1036.11
1122.02
1213.96
1311.53
1414.37
1522.07
1634.2
1750.24
1869.43
1990.72
2112.6
2233.08
2349.57
2458.94
2557.56
2641.48
2706.67
2749.38
2766.45
2755.72
2716.31
2672.33
2696.38
2689.3
2652.37
2588.3
2500.79
2394.09
2272.56
2140.37
2001.26
1858.46
1714.62
1571.87
1431.85
1295.79
1164.61
1038.95
919.299
806.02
699.422
599.808
507.513
422.927
346.507
278.76
220.204
171.293
132.315
103.267
83.7327
72.8099
69.1301
71.0085
76.7095
84.7546
94.1602
104.528
115.977
128.949
143.949
161.294
180.914
202.281
224.493
246.49
267.342
286.49
303.882
319.969
335.599
351.86
369.882
390.659
414.896
442.907
474.611
509.611
547.376
587.452
629.646
674.125
721.431
772.417
828.143
889.752
958.341
1034.83
1119.88
1213.79
1316.49
1427.65
1546.71
1673.12
1806.34
1945.95
2091.58
2242.75
2398.75
2558.47
2720.16
2881.35
3038.71
3187.99
3324.13
3441.46
3534.06
3596.25
3623.14
3611.33
3559.36
3351.01
3381.49
3369.63
3317.56
3229.58
3111.37
2969.19
2809.24
2637.21
2458.03
2275.77
2093.67
1914.22
1739.24
1570.06
1407.57
1252.38
1104.89
965.377
834.094
711.308
597.363
492.723
397.991
313.902
241.284
180.951
133.551
99.3443
77.9625
68.2151
68.0508
74.7806
85.5741
98.0737
110.858
123.588
136.853
151.789
169.617
191.167
216.516
244.83
274.504
303.593
330.393
353.906
374.048
391.602
407.999
425.03
444.529
468.087
496.793
531.058
570.569
614.43
661.491
710.766
761.763
814.646
870.208
929.742
994.857
1067.28
1148.68
1240.43
1343.51
1458.31
1584.64
1721.8
1868.82
2024.79
2189
2361.08
2540.86
2728.17
2922.6
3123.22
3328.28
3535
3739.31
3935.77
4117.59
4276.87
4405.06
4493.73
4535.39
4524.6
4458.91
4089.63
4127.32
4107.6
4034.22
3914.16
3756.24
3569.67
3363.13
3144.19
2919.08
2692.73
2468.81
2250.03
2038.24
1834.64
1639.99
1454.69
1278.95
1112.87
956.521
810.073
673.819
548.263
434.162
332.55
244.699
172.017
115.823
76.9899
55.4779
49.8621
57.0875
72.7464
92.0289
111.032
127.682
141.932
155.374
170.524
189.986
215.632
247.913
285.49
325.428
364.067
398.254
426.253
448.02
464.98
479.569
494.725
513.412
538.181
570.764
611.732
660.338
714.713
772.49
831.666
891.232
951.373
1013.32
1079.08
1151.09
1231.95
1324.14
1429.76
1550.29
1686.26
1837.21
2001.75
2178.06
2364.56
2560.3
2765.08
2979.24
3203.27
3437.47
3681.48
3933.92
4192
4451.09
4704.51
4943.37
5156.86
5332.82
5458.72
5522.99
5516.77
5435.73
4909.69
4955.5
4922.56
4817.78
4653
4442.08
4198.62
3934.59
3659.75
3381.67
3105.9
2836.34
2575.58
2325.23
2086.17
1858.77
1643.09
1438.97
1246.19
1064.57
894.042
734.761
587.204
452.258
331.292
226.186
139.261
73.02
29.6225
10.0348
12.9516
33.9158
65.4317
98.8238
127.321
147.904
161.382
171.383
182.996
201.397
230.493
271.639
322.708
378.186
430.915
474.992
507.545
528.885
541.746
550.297
559.311
573.511
596.997
632.634
681.378
741.77
810.064
881.436
951.964
1019.83
1085.44
1150.9
1219.37
1294.54
1380.24
1480.17
1597.56
1734.73
1892.56
2070.11
2264.62
2472.52
2690.89
2918.43
3155.42
3403.21
3663.56
3938.01
4227.38
4531.22
4847.27
5170.78
5493.92
5805.4
6090.6
6332.36
6512.13
6611.77
6616.37
6517.8
5841.97
5896.72
5840.6
5687.35
5457.88
5174.42
4856.85
4521.24
4179.64
3840.58
3509.78
3190.84
2885.8
2595.64
2320.59
2060.4
1814.56
1582.39
1363.21
1156.42
961.586
778.601
607.779
450.022
306.999
181.306
76.5383
-2.85727
-52.2064
-67.9879
-50.1184
-4.62017
55.2459
112.499
154.835
178.191
185.674
184.904
185.532
197.249
227.847
280.919
353.426
434.754
510.076
568.187
604.844
621.827
624.585
620.226
616.297
620.105
638.186
675.497
734.113
811.687
900.843
991.455
1075.94
1151.53
1219.58
1283.99
1349.85
1422.63
1507.85
1610.89
1736.69
1889.21
2070.27
2278.35
2508
2751.64
3003.76
3262.69
3529.93
3808.8
4103.2
4416.72
4752.07
5110.57
5491.4
5890.57
6299.68
6704.8
7086.42
7420.68
7680.42
7836.9
7863.99
7745.3
6933.81
6997.16
6898.03
6666.17
6340.05
5955.42
5540.67
5116.18
4695.57
4287.34
3896.37
3525.12
3174.43
2844.13
2533.45
2241.25
1966.22
1707.01
1462.31
1230.96
1012.01
804.877
609.494
426.532
257.726
106.271
-22.736
-122.012
-182.38
-194.473
-152.978
-63.8505
48.8172
147.649
209.675
231.326
221.846
196.408
172.1
165.914
192.845
262.228
371.46
499.995
614.051
692.305
730.509
735.293
717.71
689.578
662.181
646.185
651.723
687.719
759.584
864.955
989.554
1110.31
1212.76
1294.1
1358.97
1415.01
1470.36
1532.81
1609.81
1708.79
1837.34
2002.55
2209.03
2455.47
2731.15
3018.45
3306.74
3594.84
3887.53
4191.89
4515.15
4863.79
5243.22
5657.54
6108.86
6595.78
7110.87
7637.71
8150.07
8615.93
8996.98
9247.94
9321.12
9180.4
8265.07
8330.99
8146.05
7780.26
7305.99
6779.36
6238.09
5705.13
5193.3
4708.89
4254.27
3829.52
3433.44
3064.16
2719.51
2397.19
2094.95
1810.59
1542.07
1287.51
1045.3
814.142
593.24
382.586
183.4
-1.14617
-164.875
-297.242
-382.113
-398.168
-324.471
-157.024
62.2634
235.749
322.602
329.24
280.944
206.234
132.526
86.8468
96.6723
186.119
361.67
586.065
769.561
874.086
904.291
880.96
826.024
757.869
691.645
641.257
621.399
648.282
736.796
890.523
1083.78
1255.51
1379.94
1460.35
1511.03
1546.97
1580.61
1622
1680.03
1764.06
1885.15
2056.35
2290.17
2590.37
2937.45
3283.68
3609.82
3920.22
4228.15
4547.54
4890.31
5266.25
5683.84
6150.93
6674.71
7260.06
7904.74
8591.03
9280.22
9932.8
10500.4
10914.4
11085.7
10927.3
9989.02
10025.5
9653.92
9050.04
8346.79
7623.91
6923.06
6263.24
5651.13
5087.15
4568.79
4092.29
3653.54
3248.44
2873.12
2523.98
2197.68
1891.14
1601.51
1326.12
1062.52
808.474
562.081
321.986
87.8638
-138.662
-352.29
-540.974
-681.05
-731.21
-631.07
-324.963
141.544
448.476
550.907
506.128
377.948
214.488
52.4643
-72.2719
-114.274
-14.0971
281.44
730.93
1038.7
1162.8
1155.08
1072.06
953.295
823.304
698.23
592.29
523.69
520.02
620.019
859.085
1208.89
1468.74
1610.4
1669.32
1684.21
1682.1
1679.6
1687.09
1712.7
1765.82
1860.65
2019.83
2275.53
2657.57
3144.78
3577.58
3935.33
4248.88
4551.95
4869.23
5217.37
5608.37
6052.8
6562.27
7151.47
7838.39
8638.18
9539.61
10462.5
11371.4
12224.1
12929.8
13324.4
13185
12460
12306.7
11495.6
10462.2
9415.25
8436.15
7548.45
6752.21
6039.26
5399.39
4822.73
4300.45
3824.94
3389.63
2988.87
2617.72
2271.82
1947.24
1640.33
1347.66
1065.9
791.736
521.809
252.753
-18.6323
-294.764
-575.627
-854.703
-1109.46
-1280.68
-1234.26
-723.884
450.588
955.649
991.151
803.07
525.709
220.631
-81.3313
-350.563
-529.989
-495.655
-20.4947
1079.88
1572.31
1641.37
1514.32
1314.65
1096.75
881.685
677.287
489.576
332.507
242.496
303.002
668.189
1463.53
1852.18
1959.95
1941.7
1881.82
1817.78
1764.17
1726.04
1705.72
1707.49
1743.42
1844.26
2078.89
2573.23
3430.34
3979.43
4324.31
4592.43
4855.07
5146.27
5482.43
5873.28
6327.77
6858.45
7487.13
8253.77
9224.76
10456.8
11664.2
12890.5
14158.9
15392.3
16331.4
16413.8
16724.6
15534.3
13656.7
11893.2
10385.3
9116.19
8041.59
7120.75
6321.7
5620.21
4997.98
4440.96
3938.16
3480.82
3061.73
2674.89
2315.09
1977.71
1658.5
1353.37
1058.24
768.785
480.19
186.795
-118.364
-444.115
-801.588
-1203.49
-1658.2
-2143.57
-2505.59
-2079.16
1723.49
2138.87
1753.23
1228.45
713.263
222.173
-262.375
-758.285
-1253.63
-1612.11
-1222.83
2304.2
2715.5
2402.3
1978.1
1583.43
1236.1
924.658
632.27
342.696
44.7178
-251.815
-452.798
-142.192
2303.75
2639.98
2490.9
2273.91
2085.34
1938.35
1826.36
1739.24
1666.84
1599.86
1532.61
1475.91
1508.11
1966.37
4159.21
4675.11
4823.54
4943.62
5116.77
5358.24
5668.4
6046.2
6492.64
7013.09
7623.64
8374.38
9434.85
11408.8
12838
14348.1
16143.1
18277.6
20570.9
21975.2
26790.7
19750.4
15652.5
12955.3
11010.7
9515.52
8312.74
7313.45
6463.22
5726.53
5079
4503.08
3985.67
3516.66
3087.97
2692.95
2325.92
1981.89
1656.26
1344.58
1042.32
744.527
445.427
137.733
-188.475
-547.808
-963.576
-1476.26
-2162.76
-3184.05
-4912.27
-8296.15
7873.92
4475.45
2715.55
1639.91
866.004
214.185
-427.164
-1166.93
-2174.46
-3805.45
-6943.6
8015.12
4901.97
3323.04
2399.34
1783.99
1323.74
940.165
583.172
207.896
-245.174
-883.735
-1945.3
-4027.48
6181.86
4126.54
3119.54
2565.11
2228.91
2008.44
1852.66
1731.16
1620.07
1492.54
1306.5
979.473
323.735
-1138.43
7302.67
5899.67
5363.33
5218.12
5279.8
5470.96
5756.66
6119.89
6550.53
7037.58
7557.8
8048.46
8328.91
13144.6
13894.7
15394.6
17637.2
20933.4
26089.5
35093.5
236191
223327
209741
195474
180573
165093
149089
132618
115741
98513.8
80994.3
63237.9
45299.1
27230.9
9085.52
1107.73
1060.37
1000.35
930.169
852.511
769.981
684.865
599.001
513.733
429.929
348.03
268.132
190.056
113.419
37.7005
1862.34
1781.24
1678.46
1558.5
1426.2
1286.13
1142.23
997.637
854.568
714.407
577.814
444.859
315.164
188.018
62.4873
2642.03
2523.61
2373.57
2199.04
2007.52
1805.96
1600.19
1394.65
1192.4
995.247
803.911
618.302
437.714
261.001
86.7227
3458.9
3297.43
3092.99
2856.41
2598.75
2329.88
2057.78
1788.25
1525.05
1270.18
1024.21
786.678
556.367
331.54
110.127
4327.48
4114.07
3844.38
3534.72
3201.04
2856.91
2512.69
2175.42
1849.28
1536.1
1235.98
947.769
669.496
398.645
132.367
5265.91
4986.81
4635.56
4236.9
3813.62
3383.91
2960.53
2551.39
2160.47
1788.89
1435.75
1098.85
775.149
461.147
153.055
6297.86
5931.37
5473.86
4963.41
4432.42
3904.34
3393.96
2908.99
2452.22
2023.15
1619.21
1236.64
871.048
517.702
171.745
7455.86
6966.48
6364.66
5710.09
5047.95
4406.81
3801.68
3238.17
2716.14
2232.18
1781.21
1357.39
954.635
566.832
187.955
8787.09
8113.68
7307.87
6464.01
5642.21
4873.05
4167.56
3525.66
2941.79
2408.07
1915.94
1456.99
1023.2
606.996
201.186
10362.2
9392.87
8288.77
7195.56
6183.53
5275.35
4469.61
3754.94
3117.15
2542.22
2017.39
1531.34
1074.11
636.723
210.965
12289.4
10806.2
9258.19
7845.38
6620.61
5574.89
4680.28
3907.1
3229.46
2626.13
2079.91
1576.79
1105.09
654.781
216.901
14721.9
12283.7
10091.9
8306.62
6878.24
5723
4769.22
3963.47
3267.29
2652.77
2099.21
1590.72
1114.62
660.367
218.745
17746.1
13514.1
10518.6
8410.46
6862.34
5669.32
4709.81
3910.04
3223.25
2618.3
2073.32
1572.14
1102.22
653.286
216.444
20387.5
13507.3
10057.2
7953.76
6490.9
5381.81
4490.39
3743.37
3097.19
2523.71
2003.48
1522.2
1068.77
634.072
210.178
195.094
587.126
984.753
1391.91
1812.91
2252.62
2716.94
3213.39
3752.46
4350.19
5033.96
5855.44
6922.07
8478.31
11119.5
192.469
578.891
969.773
1368.11
1776.9
2199.14
2637.68
3095.04
3572.87
4070.82
4583.61
5091.23
5522.32
5600.38
4154.1
188.805
567.534
949.575
1336.98
1731.48
2134.24
2545.25
2962.35
3379.13
3780.97
4136.65
4380
4367.42
3780.75
1953.74
184.358
553.854
925.614
1300.86
1680.26
2063.52
2448.51
2829.76
3195.63
3523.01
3767.53
3846.32
3610.99
2822.33
1198.04
179.361
538.58
899.198
1261.79
1626.3
1991.54
2354.29
2707.77
3038.74
3322.43
3513.39
3530.62
3238.71
2444.08
978.274
174.011
522.316
871.376
1221.34
1571.78
1921.22
2266.44
2601.31
2914.59
3186.16
3379.79
3429.46
3215.46
2531.85
1099.27
168.458
505.511
842.891
1180.53
1517.91
1853.76
2185.73
2509.76
2819.31
3103.93
3346.05
3511.33
3518.23
3139.68
1752.16
162.806
488.463
814.198
1139.87
1465.05
1788.97
2110.46
2428.18
2741.26
3051.19
3365.56
3703.14
4088.6
4448.15
3875.03
157.117
471.346
785.523
1099.51
1413.04
1725.83
2037.78
2349.76
2665.33
2995.32
3368.86
3861.66
4676.92
6404.27
10981.8
151.43
454.256
756.96
1059.42
1361.51
1663.23
1965.06
2268.78
2579.32
2909.2
3289.29
3796.21
4631.8
6381.02
10975.8
145.765
437.241
728.548
1019.57
1310.21
1600.53
1891.01
2183.03
2479.81
2788.2
3121.59
3502.47
3952.19
4381.65
3860.41
140.137
420.34
700.325
979.949
1259.09
1537.69
1815.88
2093.94
2372.19
2649.82
2920.87
3160.9
3286.61
3042.46
1744.72
134.558
403.586
672.345
940.65
1208.31
1475.12
1740.8
2004.7
2264.96
2515.97
2741.68
2898.69
2877.86
2434.93
1151.04
129.041
387.018
644.675
901.786
1158.1
1413.31
1666.92
1917.97
2164.14
2399.67
2610.17
2759.98
2762.21
2411.38
1264.42
123.596
370.669
617.378
863.465
1108.65
1352.59
1594.81
1834.6
2070.67
2300.73
2520.79
2723.72
2891.74
2940.69
2337.46
118.235
354.571
590.507
825.763
1060.04
1293.03
1524.38
1753.8
1981.36
2208.72
2443.28
2711.7
3103.96
3922.9
6238.06
112.964
338.749
564.102
788.73
1012.33
1234.6
1455.27
1674.26
1892.16
2111.69
2342.25
2613.67
3019.86
3866.07
6218.67
107.791
323.222
538.195
752.402
965.528
1177.26
1387.3
1595.47
1801.81
2006.99
2212.81
2422.03
2630.2
2763.13
2278.37
102.722
308.008
512.814
716.817
919.684
1121.08
1320.63
1517.93
1712.26
1901.83
2080.99
2231.11
2292.78
2089.14
1165.82
97.7628
293.123
487.985
682.011
874.855
1066.15
1255.52
1442.43
1625.98
1803.88
1969.32
2101.6
2139.58
1914.91
1031.27
92.9166
278.58
463.729
648.017
831.085
1012.57
1192.08
1369.25
1543.62
1714.56
1880.65
2037.55
2168.75
2198.28
1715.39
88.1875
264.389
440.066
614.861
788.407
960.328
1130.27
1297.98
1463.61
1628.58
1798.33
1991.3
2268.48
2837.45
4446.6
83.5776
250.558
417.008
582.564
746.845
909.45
1069.98
1228.15
1384.05
1539.24
1699.87
1886.54
2165.54
2754.21
4411.52
79.0883
237.091
394.565
551.145
706.434
859.996
1011.33
1159.86
1304.96
1446.1
1583.3
1717.61
1847.49
1928.79
1594.87
74.7188
223.986
372.738
520.612
667.213
812.076
954.608
1093.94
1228.59
1355.67
1468.69
1551.74
1563.13
1391.67
761.382
70.4664
211.236
351.514
490.956
629.186
765.762
900.092
1031.24
1157.47
1274.97
1374.87
1435.58
1405.72
1173.14
547.65
66.3258
198.825
330.865
462.133
592.299
720.994
847.768
971.957
1092.37
1206.48
1308.23
1382.28
1389.07
1227.42
660.163
62.2899
186.729
310.748
434.069
556.422
677.55
797.223
915.27
1031.64
1146.56
1260.79
1375.67
1489.35
1563.33
1295.63
58.3506
174.923
291.11
406.671
521.388
635.105
747.796
859.731
971.898
1087.09
1212.86
1369.85
1617.18
2136.48
3544.62
54.5002
163.38
271.904
379.851
487.04
593.364
698.882
804.015
910.034
1020.26
1143.23
1301.27
1556.09
2092.31
3527.97
50.7326
152.083
253.093
353.554
453.286
552.176
650.224
747.671
845.231
944.576
1049.21
1165.45
1299.54
1423.46
1241.65
47.0442
141.02
234.661
327.757
420.113
511.564
601.977
691.24
779.176
865.199
947.118
1017.22
1050.04
966.892
553.558
43.4335
130.188
216.606
302.47
387.564
471.668
554.523
635.724
714.441
788.661
853.218
894.862
881.041
739.599
347.245
39.9008
119.588
198.935
277.714
355.698
432.637
508.213
581.928
652.822
718.829
775.224
811.013
800.664
686.543
350.743
36.447
109.225
181.656
253.51
324.556
394.549
463.195
530.089
594.597
655.669
711.54
759.204
792.351
787.434
608.194
33.0739
99.1027
164.777
229.866
294.146
357.398
419.394
479.907
538.76
596.124
653.559
717.484
810.479
1009.4
1585.9
29.7834
89.2268
148.304
206.783
264.451
321.119
376.627
430.88
483.963
536.539
591.08
655.59
755.067
969.171
1570.7
26.5788
79.6057
132.247
184.265
235.454
285.649
334.736
382.673
429.528
475.601
521.692
569.43
620.075
659.933
558.846
23.4651
70.2531
116.623
162.324
207.15
250.952
293.651
335.225
375.646
414.668
451.18
481.275
492.6
448.599
252.99
20.4505
61.1916
101.464
140.992
179.559
217.027
253.356
288.589
322.75
355.497
385.147
406.182
403.578
342.576
162.685
17.5471
52.4561
86.8229
120.331
152.735
183.899
213.831
242.71
270.852
298.499
325.126
347.542
355.148
319.151
173.423
14.7723
44.0976
72.7791
100.437
126.776
151.632
175.046
197.356
219.316
242.235
268.065
299.23
337.051
371.982
323.863
12.1499
36.1862
59.4463
81.4615
101.849
120.371
137.036
152.257
167.135
183.978
207.337
246.349
321.03
482.575
890.782
9.71012
28.8135
46.9774
63.6162
78.2178
90.4039
100.036
107.407
113.607
121.226
135.781
168.756
244.775
422.012
866.038
7.48994
22.0919
35.5661
47.1843
56.2635
62.2111
64.6093
63.3805
59.1105
53.6826
51.4736
61.3318
98.3191
176.319
240.135
5.53142
16.1511
25.4406
32.5118
36.4804
36.4805
31.7015
21.4706
5.43051
-16.0742
-41.1788
-64.8804
-76.5426
-59.4313
-7.83755
3.87942
11.1306
16.8502
19.9876
19.4462
14.0616
2.57442
-16.4065
-44.4483
-83.3151
-134.778
-199.408
-271.325
-319.059
-230.824
2.57825
7.16892
10.0455
10.0082
5.76369
-4.13175
-21.361
-48.0006
-86.8127
-141.802
-219.214
-328.838
-482.85
-673.048
-713.083
1.6678
4.39098
5.2538
2.93647
-4.0115
-17.2515
-38.7815
-71.1604
-117.957
-184.724
-281.273
-427.415
-669.194
-1131.24
-2213.45
1.17982
2.89655
2.65689
-0.938182
-9.44055
-24.6416
-48.6976
-84.3374
-135.259
-206.986
-308.897
-459.566
-702.528
-1158.65
-2224.84
1.13482
2.75031
2.37298
-1.42878
-10.2482
-25.9191
-50.6104
-86.9442
-138.156
-208.327
-302.686
-427.636
-587.806
-762.314
-751.932
1.53986
3.97534
4.44626
1.53587
-6.33588
-20.9793
-44.4921
-79.2768
-127.947
-192.933
-275.287
-371.29
-463.144
-494.351
-316.104
2.38729
6.54969
8.84284
7.91099
2.23337
-9.93736
-30.6137
-62.0419
-106.487
-165.565
-238.5
-317.912
-380.67
-371.884
-195.53
3.65403
10.4047
15.45
17.541
15.2582
6.94414
-9.34962
-35.8606
-74.9686
-128.693
-197.344
-276.232
-348.013
-365.898
-224.111
5.30122
15.4242
24.0756
30.1613
32.41
29.2899
18.9161
-1.04132
-33.4274
-81.6013
-149.25
-239.68
-352.995
-471.002
-465.625
7.27402
21.4436
34.4459
45.3933
53.2208
56.5859
53.7314
42.2833
18.9287
-21.1634
-85.544
-187.484
-355.015
-662.145
-1350.45
9.50169
28.2494
46.2024
62.7337
77.0537
88.1045
94.3968
93.7363
82.7404
55.938
4.00397
-90.0373
-260.473
-589.151
-1321.78
11.8984
35.5814
58.9026
81.5472
103.074
122.823
139.763
152.213
157.345
150.269
122.531
60.1411
-56.4528
-236.212
-370.618
14.365
43.1375
72.0265
101.071
130.241
159.382
188.109
215.608
240.228
258.713
264.848
247.639
191.051
84.8101
-27.9021
16.7929
50.5845
84.9947
120.439
157.338
196.113
237.168
280.83
327.164
375.485
423.092
462.154
472.681
409.995
197.605
19.0682
57.573
97.1956
138.727
183.04
231.143
284.274
344.022
412.507
492.498
586.975
696.139
804.794
838.817
549.914
21.0783
63.7563
108.022
155.013
206.016
262.566
326.64
400.971
489.648
599.192
740.348
930.112
1188.33
1491.49
1465.12
22.7167
68.8089
116.906
168.446
225.048
288.651
361.74
447.782
552.083
683.671
859.635
1116.15
1540.15
2372.43
4396.35
23.8887
72.4418
123.352
178.295
239.133
308.039
387.711
481.741
595.361
737.081
922.645
1185.48
1607.89
2424.94
4417.02
24.5135
74.4122
126.952
183.989
247.534
319.852
403.586
501.937
618.924
759.809
931.687
1143.58
1401.01
1660.61
1533.71
24.5256
74.5249
127.389
185.103
249.767
323.646
409.202
509.05
625.713
760.804
912.678
1069.74
1192.18
1164.16
691.878
23.8728
72.6271
124.423
181.339
245.533
319.251
404.797
504.368
619.547
749.963
889.855
1019.69
1087.53
975.904
482.822
22.5142
68.6
117.869
172.476
234.627
306.573
390.573
488.748
602.679
732.401
873.861
1012.52
1107.35
1052.39
601.858
20.4167
62.3486
107.582
158.339
216.871
285.466
366.44
462.109
574.755
706.59
859.716
1035.67
1231.1
1403.55
1243.94
17.5529
53.7934
93.44
138.774
192.091
255.721
332.049
423.621
533.444
665.938
829.652
1045.28
1370.8
1985.36
3502.96
13.8986
42.8645
75.3347
113.644
160.128
217.13
287.04
372.415
476.35
603.583
763.508
978.59
1309.83
1940.21
3485.66
9.43131
29.4966
53.1649
82.8256
120.846
169.562
231.279
308.299
403.059
518.533
659.065
831.275
1041.23
1259.8
1187.32
4.12847
13.6242
26.8291
46.1946
74.1297
112.965
164.894
231.864
315.385
416.109
532.655
657.811
766.725
781.642
487.829
-2.03373
-4.82297
-3.7844
3.61161
19.8438
47.2818
88.0767
143.951
215.784
302.739
400.315
495.696
557.59
517.977
261.904
-9.08152
-25.9239
-38.8069
-45.1014
-42.2167
-27.6651
0.808928
44.9859
105.714
182.046
269.562
356.919
419.037
404.719
221.95
-17.0435
-49.7671
-78.3939
-100.176
-112.364
-112.26
-97.335
-65.4352
-15.147
53.6486
138.993
235.764
333.672
408.549
363.401
-25.9489
-76.4457
-122.719
-161.894
-191.024
-207.121
-207.23
-188.578
-148.804
-86.1716
0.582263
113.925
264.435
495.885
978.367
-35.8235
-106.046
-171.957
-230.562
-278.705
-313.049
-330.108
-326.334
-298.269
-242.665
-156.192
-33.604
139.146
409.128
946.634
-46.6831
-138.628
-226.248
-306.467
-375.933
-430.941
-467.404
-480.895
-466.785
-420.511
-337.942
-215.844
-53.5046
136.823
262.338
-58.5255
-174.199
-285.655
-389.808
-483.16
-561.662
-620.597
-654.555
-657.555
-623.475
-547.04
-425.914
-265.454
-90.3182
29.7083
-71.32
-212.684
-350.11
-480.613
-600.656
-705.917
-791.073
-849.64
-873.988
-855.758
-787.072
-663.189
-487.484
-279.084
-78.2482
-84.996
-253.887
-419.346
-578.644
-728.366
-864.074
-979.945
-1068.41
-1119.9
-1122.98
-1065.34
-936.348
-732.123
-462.524
-155.38
-99.4311
-297.457
-492.83
-683.284
-865.754
-1035.94
-1187.77
-1312.76
-1399.33
-1432.27
-1393.04
-1261.66
-1022.07
-671.972
-234.997
-114.441
-342.851
-569.699
-793.424
-1011.61
-1220.48
-1414.15
-1583.71
-1715.88
-1791.58
-1784.62
-1662
-1388.68
-941.69
-337.522
-129.772
-389.311
-648.701
-907.36
-1163.88
-1415.49
-1657.19
-1880.5
-2071.54
-2208.17
-2256.4
-2166.89
-1875.8
-1320.49
-489.242
-145.098
-435.852
-728.173
-1022.73
-1319.5
-1617.29
-1912.89
-2199.59
-2464.84
-2686.02
-2823.69
-2811.64
-2546.28
-1890.84
-743.176
-160.029
-481.281
-806.055
-1136.49
-1474.33
-1820.54
-2174.64
-2533.46
-2888.6
-3221.69
-3494.81
-3632.13
-3487.5
-2802.91
-1232.26
-174.123
-524.238
-879.963
-1245.06
-1623.26
-2018.18
-2433
-2869.72
-3327.53
-3798.85
-4260.04
-4648.22
-4803.49
-4330.17
-2341.99
-186.912
-563.273
-947.32
-1344.45
-1760.49
-2201.9
-2676.01
-3191.19
-3756.88
-4382.85
-5075.73
-5825.82
-6555.73
-6909.24
-5323.7
-197.932
-596.944
-1005.55
-1430.64
-1880
-2362.79
-2890.34
-3477.41
-4144.2
-4920.14
-5851.42
-7017.15
-8568.99
-10834.5
-14598.1
14398.5
10728.8
8514.69
6994.79
5850.25
4933.24
4166.47
3504.9
2919.86
2391.77
1906.37
1452.77
1022.21
607.285
201.435
5260.36
6852.66
6525.11
5819.03
5087.29
4407.43
3789.82
3228.52
2714.43
2238.68
1793.43
1371.81
967.778
575.911
191.185
2322.32
4309.44
4798.1
4660.86
4288.1
3838.21
3373.91
2919.22
2482.24
2064.33
1664
1278.57
904.861
539.557
179.293
1229.68
2806.64
3505.55
3666.05
3542.28
3278.82
2951.18
2597.51
2236.71
1877.68
1524.17
1177.13
836.072
499.681
166.227
749.752
1913.49
2586.74
2868.49
2893.31
2763.88
2546.39
2280.65
1989.84
1687.13
1379.77
1071.5
764.008
457.745
152.461
502.962
1360.88
1939.69
2249.23
2351.35
2309.98
2174.99
1981.11
1751.16
1499.74
1235.93
965.282
691.058
415.113
138.436
358.929
1002.05
1479.54
1773.91
1908.93
1921
1844.42
1706.51
1527.32
1320.89
1096.8
861.506
619.277
372.97
124.542
266.786
758.183
1146.5
1409.18
1551.82
1593.49
1556.35
1460.52
1322.33
1154.24
965.413
762.507
550.304
332.287
111.098
203.919
585.866
900.676
1127.74
1264.76
1320.64
1308.97
1243.89
1138.06
1001.93
843.761
669.935
485.344
293.793
98.3484
159.023
460.147
715.744
908.786
1034.01
1094.65
1098.61
1055.5
974.774
864.883
732.95
584.811
425.199
257.992
86.4645
125.874
366.024
574.222
736.89
848.057
907.97
920.909
893.185
831.704
743.109
633.364
507.63
370.312
225.182
75.5502
100.772
294.075
464.296
600.729
697.664
753.873
771.403
754.275
707.429
635.992
544.854
438.474
320.835
195.487
65.6532
81.3902
238.142
377.814
491.97
575.522
626.605
645.931
635.972
600.203
542.53
466.907
377.12
276.697
168.901
56.776
66.1911
194.061
309.035
404.444
475.903
521.363
540.769
535.565
508.162
461.511
398.776
323.136
237.669
145.315
48.8874
54.1228
158.927
253.831
333.532
394.32
434.19
452.676
450.551
429.467
391.641
339.592
275.964
203.413
124.551
41.9325
44.442
130.661
209.173
275.738
327.248
361.849
378.878
378.683
362.381
331.632
288.435
234.978
173.532
106.391
35.8415
36.6102
107.741
172.803
228.388
271.903
301.694
317.026
317.984
305.313
280.254
244.391
199.529
147.598
90.5923
30.5366
30.2283
89.0291
143.008
189.409
226.078
251.567
265.144
266.737
256.835
236.367
206.587
168.981
125.181
76.9088
25.937
24.9948
73.6623
118.47
157.18
188.007
209.701
221.572
223.463
215.685
198.935
174.21
142.728
105.865
65.0966
21.9629
20.6783
60.973
98.1604
130.42
156.272
174.648
184.921
186.893
180.756
167.033
146.517
120.207
89.2566
54.9244
18.5377
17.0985
50.4389
81.269
108.105
129.721
145.215
154.027
155.948
151.088
139.842
122.841
100.903
74.9929
46.1765
15.5902
14.1128
41.6462
67.1482
89.4089
107.418
120.415
127.913
129.705
125.849
116.643
102.588
84.3546
62.7442
38.6557
13.0547
11.6071
34.2625
55.2756
73.662
88.5919
99.4293
105.756
107.378
104.32
96.8054
85.2325
70.1475
52.2138
32.1837
10.8717
9.48918
28.0181
45.2248
60.3128
72.604
81.5721
86.8618
88.2981
85.8824
79.7822
70.3128
57.916
43.1371
26.6007
8.98776
7.68298
22.6908
36.6439
48.9034
58.9213
66.2661
70.6405
71.8893
70.0001
65.0958
57.4233
47.3366
35.2792
21.7644
7.35527
6.12525
18.0951
29.2377
39.0489
47.0927
53.0206
56.5872
57.6573
56.2089
52.3295
46.2081
38.1239
28.4321
17.5484
5.93184
4.76221
14.0734
22.7551
30.4207
36.7318
41.4133
44.2656
45.1722
44.1041
41.1184
36.3545
30.0263
22.4118
13.8406
4.67987
3.54713
10.4885
16.9774
22.7322
27.5016
31.0752
33.2938
34.0573
33.3296
31.1408
27.5861
22.8212
17.0554
10.5417
3.56599
2.43815
7.21771
11.7092
15.7277
19.1012
21.6773
23.3319
23.9772
23.569
22.1112
19.6575
16.3107
12.2179
7.56353
2.56057
1.39634
4.14701
6.76932
9.17118
11.2545
12.9193
14.0706
14.6285
14.5371
13.7728
12.3489
10.3181
7.77012
4.82737
1.63721
0.383775
1.16565
1.98292
2.83622
3.69897
4.51814
5.22182
5.73101
5.97284
5.89249
5.4619
4.68463
3.59662
2.26309
0.772392
-0.638585
-1.83985
-2.82784
-3.50445
-3.82537
-3.80178
-3.49098
-2.98001
-2.36703
-1.74404
-1.18399
-0.732736
-0.406156
-0.191883
-0.0548094
-1.71342
-4.99277
-7.85372
-10.0907
-11.5874
-12.3195
-12.3412
-11.7605
-10.7126
-9.33591
-7.75365
-6.06307
-4.33062
-2.59305
-0.862894