/*--------------------------------*- C++ -*----------------------------------*\
| =========                 |                                                 |
| \\      /  F ield         | OpenFOAM: The Open Source CFD Toolbox           |
|  \\    /   O peration     | Version:  5.x                                   |
|   \\  /    A nd           | Web:      www.OpenFOAM.org                      |
|    \\/     M anipulation  |                                                 |
\*---------------------------------------------------------------------------*/
FoamFile
{
    version     2.0;
    format      ascii;
    class       volScalarField;
    location    "11.3";
    object      T;
}
// * * * * * * * * * * * * * * * * * * * * * * * * * * * * * * * * * * * * * //

dimensions      [0 0 0 1 0 0 0];

internalField   nonuniform List<scalar> 
6300
(
10.4755
11.4252
12.3706
13.3089
14.2374
15.1531
16.0534
16.9353
17.7962
18.6334
19.4443
20.2267
20.9783
21.6974
22.3827
10.4769
11.4293
12.3775
13.3186
14.2499
15.1684
16.0714
16.956
17.8195
18.6592
19.4725
20.2569
21.0103
21.7308
22.417
10.4797
11.4376
12.3914
13.3381
14.2749
15.199
16.1075
16.9975
17.8663
18.711
19.529
20.3176
21.0746
21.7979
22.486
10.4838
11.4501
12.4122
13.3672
14.3124
15.2449
16.1617
17.06
17.9368
18.7892
19.6144
20.4095
21.172
21.8997
22.5907
10.4894
11.4667
12.4399
13.4061
14.3625
15.3061
16.2342
17.1436
18.0313
18.8943
19.7293
20.5335
21.3038
22.0377
22.7329
10.4963
11.4874
12.4745
13.4546
14.425
15.3828
16.325
17.2485
18.1502
19.0267
19.8748
20.6908
21.4715
22.2137
22.9146
10.5045
11.5122
12.5159
13.5127
14.5
15.4748
16.4341
17.3749
18.2938
19.1873
20.0517
20.883
21.6772
22.4303
23.1389
10.5141
11.541
12.5639
13.5802
14.5872
15.5819
16.5615
17.5228
18.4624
19.3766
20.2613
21.1118
21.9234
22.6909
23.4097
10.525
11.5737
12.6185
13.657
14.6864
15.704
16.7069
17.6921
18.656
19.595
20.5044
21.3791
22.2131
22.9997
23.7324
10.5371
11.6101
12.6794
13.7426
14.7971
15.8404
16.8697
17.8821
18.8743
19.8424
20.7817
21.6865
22.5495
23.3619
24.1139
10.5504
11.6501
12.7462
13.8366
14.9189
15.9906
17.0492
18.0921
19.1162
20.1181
21.0931
22.0352
22.9359
23.7837
24.5639
10.5648
11.6934
12.8188
13.9387
15.051
16.1535
17.2441
18.3204
19.38
20.4201
21.4368
22.4246
23.3747
24.2724
25.0958
10.5803
11.74
12.8966
14.0481
15.1926
16.3281
17.4528
18.565
19.6629
20.7449
21.8089
22.8513
23.8651
24.8347
25.7291
10.5968
11.7895
12.9793
14.1644
15.3429
16.5132
17.6737
18.8234
19.9613
21.0873
22.202
23.3061
24.3988
25.4717
26.4907
10.6143
11.8418
13.0667
14.2871
15.5013
16.7077
17.9053
19.093
20.271
21.4406
22.6052
23.7716
24.9517
26.1618
27.4068
22.9789
23.4964
23.9894
24.4582
24.9031
25.325
25.7248
26.1035
26.4624
26.8029
27.1265
27.4345
27.7287
28.0105
28.2816
28.5436
28.798
29.0462
29.2899
29.5303
29.7689
30.0069
30.2456
30.4859
30.729
30.9756
31.2264
31.4821
31.7431
32.0096
32.2817
32.5594
32.8425
33.1309
33.424
33.7214
34.0227
34.327
34.6339
34.9424
35.2518
35.5611
35.8694
36.1756
36.4787
36.7778
37.0719
37.36
37.6412
37.9149
38.1802
38.4363
38.6826
38.9183
39.1424
39.3543
39.5531
39.7377
39.9073
40.0609
40.1975
40.3161
40.4157
40.4951
40.5531
40.5886
40.6002
40.5863
40.5453
40.4755
40.3748
40.2413
40.0727
39.8667
39.6209
39.3327
38.9996
38.619
38.188
37.7042
37.1649
36.5674
35.9094
35.1887
34.4032
33.5515
32.6324
31.6452
30.5899
29.4669
23.0135
23.531
24.0237
24.4917
24.9356
25.3562
25.7544
26.1313
26.4882
26.8266
27.1479
27.4537
27.7456
28.0251
28.294
28.5537
28.8059
29.052
29.2936
29.5321
29.7688
30.0051
30.2422
30.4811
30.7229
30.9684
31.2185
31.4735
31.7341
32.0004
32.2725
32.5505
32.834
33.1229
33.4167
33.7149
34.017
34.3224
34.6303
34.9401
35.2507
35.5614
35.8711
36.1788
36.4834
36.7838
37.0792
37.3685
37.6509
37.9257
38.192
38.4493
38.6966
38.9334
39.1588
39.3719
39.572
39.758
39.929
40.084
40.2221
40.3422
40.4433
40.5244
40.5842
40.6217
40.6354
40.6239
40.5855
40.5184
40.4208
40.2904
40.1252
39.9227
39.6805
39.3961
39.0668
38.69
38.2629
37.7829
37.2473
36.6533
35.9985
35.2806
34.4975
33.6475
32.7293
31.7423
30.6862
29.5617
23.0833
23.6008
24.0927
24.5593
25.001
25.4189
25.8138
26.187
26.5399
26.874
27.1909
27.4921
27.7793
28.0543
28.3185
28.5737
28.8215
29.0634
29.3008
29.5354
29.7684
30.0012
30.2351
30.4711
30.7104
30.9539
31.2022
31.456
31.7158
31.9818
32.254
32.5324
32.8168
33.1067
33.4018
33.7016
34.0055
34.3128
34.623
34.9352
35.2485
35.562
35.8746
36.1852
36.4927
36.7959
37.0939
37.3857
37.6704
37.9473
38.2157
38.475
38.7246
38.9636
39.1914
39.4071
39.6097
39.7985
39.9723
40.1301
40.2711
40.3942
40.4984
40.5828
40.6462
40.6876
40.7055
40.6987
40.6655
40.604
40.5124
40.3884
40.2299
40.0344
39.7995
39.5226
39.201
38.8319
38.4127
37.9404
37.4123
36.8255
36.1773
35.4652
34.6868
33.8403
32.9242
31.9376
30.8802
29.7524
23.1894
23.7069
24.1976
24.6618
25.1002
25.5138
25.9037
26.2712
26.6179
26.9455
27.2555
27.5498
27.83
28.098
28.3553
28.6037
28.8448
29.0801
29.3114
29.54
29.7673
29.9949
30.2239
30.4556
30.691
30.9312
31.177
31.429
31.6876
31.9531
32.2256
32.5048
32.7904
33.082
33.3792
33.6813
33.9878
34.2981
34.6116
34.9274
35.2448
35.5626
35.8797
36.1949
36.5069
36.8144
37.1163
37.4117
37.6998
37.9798
38.2512
38.5136
38.7663
39.0087
39.2401
39.4596
39.6663
39.8591
40.0371
40.1992
40.3445
40.4719
40.5807
40.6699
40.7386
40.7857
40.81
40.8102
40.7847
40.7316
40.6491
40.5348
40.3864
40.2016
39.9777
39.7121
39.4021
39.0448
38.6375
38.1771
37.6605
37.0848
36.4469
35.7439
34.9731
34.1323
33.2195
32.2337
31.1743
30.0417
23.3333
23.8508
24.3398
24.8008
25.2345
25.6421
26.0249
26.3846
26.7228
27.0413
27.342
27.6268
27.8976
28.156
28.404
28.6432
28.8753
29.102
29.3248
29.5454
29.7651
29.9855
30.2078
30.4335
30.6638
30.8995
31.1418
31.3913
31.6484
31.9135
32.1863
32.4668
32.7543
33.0483
33.3482
33.6535
33.9635
34.2777
34.5956
34.9164
35.2392
35.563
35.8865
36.208
36.5262
36.8396
37.1469
37.447
37.7394
38.0233
38.2986
38.5647
38.8215
39.0683
39.3045
39.5291
39.7413
39.9398
40.1234
40.2912
40.442
40.5752
40.6898
40.7852
40.8606
40.9151
40.9478
40.9573
40.9421
40.9004
40.83
40.7287
40.5941
40.4236
40.2145
39.9642
39.6698
39.3286
38.9374
38.4932
37.9926
37.4324
36.8089
36.1189
35.3591
34.5266
33.619
32.6346
31.5727
30.4336
23.5175
24.0349
24.5217
24.9783
25.4058
25.8054
26.1788
26.5281
26.8551
27.1619
27.4507
27.7233
27.9819
28.2283
28.4644
28.692
28.9128
29.1285
29.3407
29.551
29.761
29.9722
30.1861
30.4041
30.6275
30.8575
31.0953
31.3416
31.5969
31.8615
32.1352
32.4175
32.7077
33.005
33.3086
33.6177
33.932
34.2509
34.5742
34.9012
35.2311
35.5628
35.8946
36.2248
36.5513
36.8723
37.1864
37.4924
37.7897
38.0782
38.3576
38.6281
38.8896
39.1418
39.3841
39.6154
39.8347
40.0404
40.2312
40.406
40.5637
40.7036
40.8251
40.9278
41.0112
41.0747
41.1175
41.1385
41.1363
41.1088
41.054
40.9693
40.8521
40.6997
40.5093
40.2783
40.0037
39.6828
39.3123
38.889
38.4094
37.8696
37.2655
36.5932
35.8486
35.0278
34.1277
33.146
32.0813
30.9337
23.7451
24.2626
24.7464
25.1972
25.6163
26.0055
26.3669
26.7028
27.0156
27.3078
27.5816
27.8393
28.0829
28.3146
28.5363
28.7497
28.9567
29.159
29.3583
29.5561
29.7542
29.9541
30.1574
30.3658
30.5806
30.8035
31.0355
31.2778
31.531
31.7953
32.0705
32.3557
32.6498
32.9515
33.2597
33.5735
33.8926
34.2168
34.5462
34.8806
35.2193
35.5611
35.904
36.2455
36.583
36.9138
37.2362
37.5489
37.8517
38.1446
38.4282
38.7031
38.9698
39.2283
39.478
39.7177
39.946
40.161
40.3608
40.544
40.7097
40.8571
40.9861
41.0967
41.1889
41.2625
41.3171
41.3519
41.3652
41.3553
41.3196
41.2552
41.1593
41.029
40.8613
40.6536
40.403
40.1068
39.7618
39.3647
38.9114
38.3979
37.8192
37.1704
36.4463
35.642
34.7529
33.7757
32.7082
31.5501
24.0205
24.5381
25.0179
25.461
25.8692
26.2448
26.5908
26.9099
27.2051
27.4793
27.7349
27.9745
28.2003
28.4145
28.619
28.8158
29.0065
29.193
29.377
29.56
29.7438
29.9301
30.1206
30.3171
30.5213
30.7351
30.9599
31.1973
31.448
31.7125
31.9903
32.2801
32.5799
32.8877
33.2016
33.5206
33.8446
34.1741
34.5099
34.8525
35.2018
35.5566
35.9142
36.271
36.6229
36.9662
37.2985
37.6186
37.9264
38.2231
38.51
38.7887
39.0605
39.326
39.5847
39.8352
40.0753
40.302
40.5129
40.706
40.8804
41.0356
41.1722
41.2908
41.3919
41.4763
41.544
41.5944
41.6263
41.6375
41.6249
41.5851
41.5148
41.4105
41.2695
41.089
40.8667
40.5997
40.2852
39.9196
39.499
39.0185
38.4725
37.8547
37.1584
36.3768
35.5038
34.5341
33.4643
32.2934
24.3494
24.8672
25.3417
25.7744
26.1681
26.5262
26.8525
27.1506
27.4242
27.6765
27.9104
28.1286
28.3336
28.5274
28.7121
28.8896
29.0616
29.2299
29.396
29.5618
29.7289
29.899
30.0742
30.2563
30.4474
30.6497
30.8654
31.0964
31.3442
31.6095
31.8917
32.1889
32.4975
32.8139
33.135
33.4594
33.7876
34.1213
34.4626
34.8136
35.1754
35.5467
35.9242
36.3022
36.6738
37.0334
37.3773
37.7045
38.016
38.3142
38.6022
38.8829
39.159
39.4321
39.7019
39.9665
40.2222
40.4644
40.6891
40.8936
41.077
41.2397
41.3829
41.5083
41.6177
41.7127
41.7942
41.8623
41.9159
41.9523
41.9678
41.9577
41.9175
41.8436
41.733
41.5835
41.3931
41.1596
40.8805
40.5526
40.1715
39.7321
39.2278
38.6506
37.9918
37.2422
36.3927
35.4355
34.3648
33.1785
24.7399
25.2579
25.7248
26.1432
26.5174
26.8526
27.1538
27.4259
27.6732
27.8994
28.1077
28.3011
28.4819
28.6525
28.8147
28.9703
29.1211
29.2688
29.4148
29.5608
29.7086
29.8599
30.0168
30.1815
30.3564
30.5442
30.7479
30.9703
31.2142
31.4811
31.7707
32.08
32.403
32.7323
33.0625
33.3918
33.7217
34.0562
34.4001
34.7583
35.1338
35.5268
35.9325
36.3413
36.741
37.1218
37.4788
37.8117
38.1235
38.4189
38.7034
38.9824
39.2607
39.5414
39.8252
40.1093
40.3872
40.6507
40.8929
41.1102
41.3022
41.4704
41.6178
41.7475
41.8629
41.967
42.0622
42.1496
42.2285
42.296
42.3462
42.3721
42.3675
42.3279
42.251
42.1354
41.9801
41.7838
41.5448
41.2605
40.9267
40.538
40.0866
39.5628
38.9549
38.2501
37.4355
36.4989
35.4307
34.2259
25.2034
25.7215
26.1769
26.5747
26.9222
27.2271
27.4964
27.7362
27.9517
28.147
28.3257
28.4907
28.6443
28.7887
28.9258
29.0571
29.1844
29.309
29.4325
29.5563
29.6822
29.8118
29.9473
30.091
30.2457
30.4148
30.6022
30.8124
31.05
31.3189
31.6203
31.9505
32.2984
32.6483
32.9901
33.322
33.6481
33.9763
34.316
34.6766
35.066
35.4873
35.935
36.3923
36.834
37.2431
37.6137
37.9481
38.2533
38.5379
38.8111
39.0816
39.3574
39.6448
39.9466
40.2594
40.5717
40.8662
41.1311
41.3619
41.56
41.7298
41.8765
42.0057
42.1228
42.2328
42.3399
42.4475
42.5563
42.6628
42.7581
42.8291
42.8661
42.8646
42.8234
42.743
42.6244
42.4679
42.273
42.038
41.7596
41.4325
41.0482
40.5946
40.0559
39.4147
38.6526
37.7507
36.6919
35.4653
25.7571
26.2746
26.7113
27.078
27.3876
27.6519
27.8805
28.0807
28.2583
28.4178
28.5626
28.6956
28.819
28.9346
29.0441
29.149
29.2505
29.35
29.4487
29.548
29.6494
29.7544
29.865
29.9836
30.1134
30.2581
30.4228
30.6141
30.8398
31.1088
31.4275
31.7943
32.1898
32.5748
32.9311
33.2594
33.5704
33.8788
34.2005
34.5525
34.9512
35.4084
35.9227
36.4643
36.973
37.4188
37.7993
38.1252
38.4114
38.6722
38.9214
39.1718
39.4361
39.7262
40.0508
40.409
40.7803
41.1232
41.4168
41.6591
41.8573
42.0208
42.159
42.2801
42.3917
42.5011
42.6156
42.7422
42.8857
43.0445
43.2035
43.3335
43.4189
43.4569
43.4505
43.4043
43.3219
43.2059
43.0575
42.8765
42.6613
42.4079
42.1083
41.7476
41.3033
40.7522
40.0696
39.2271
38.1934
36.9428
26.4305
26.9435
27.3455
27.6625
27.9175
28.1275
28.3045
28.4567
28.5901
28.7088
28.8158
28.9136
29.0039
29.0884
29.1683
29.2447
29.3187
29.3912
29.4633
29.5359
29.6103
29.6878
29.7702
29.8594
29.9585
30.0715
30.2042
30.3651
30.5665
30.8259
31.1643
31.5959
32.0951
32.5417
32.9112
33.2206
33.4955
33.7608
34.0403
34.3601
34.7507
35.2463
35.8699
36.5823
37.2012
37.6872
38.062
38.3585
38.6045
38.8219
39.0285
39.2407
39.4763
39.7566
40.1053
40.5382
41.0283
41.4497
41.7748
42.0185
42.203
42.347
42.4645
42.5665
42.6621
42.7605
42.8724
43.011
43.1917
43.4242
43.6893
43.9006
44.0383
44.1114
44.1337
44.1161
44.0663
43.9891
43.8873
43.7627
43.6165
43.4485
43.2547
43.0196
42.7028
42.2775
41.7157
40.9773
40.0059
38.7366
27.2825
27.7713
28.1014
28.3356
28.5112
28.6497
28.7632
28.8592
28.9423
29.0156
29.0814
29.1412
29.1964
29.2479
29.2965
29.343
29.388
29.4321
29.476
29.5203
29.5658
29.6135
29.6644
29.7201
29.7827
29.8557
29.9441
30.0567
30.2088
30.4284
30.7657
31.2994
32.0749
32.6185
32.9767
33.2303
33.4334
33.6211
33.8211
34.0644
34.3976
34.8989
35.688
36.8336
37.6195
38.1142
38.4365
38.663
38.8375
38.986
39.1262
39.2744
39.4508
39.6871
40.0372
40.5836
41.3741
41.9133
42.2485
42.4617
42.6055
42.7096
42.7911
42.8607
42.9271
42.999
43.0891
43.2179
43.4215
43.7553
44.2512
44.5719
44.7491
44.8377
44.8725
44.8728
44.8487
44.806
44.7483
44.6787
44.6015
44.5245
44.4593
44.4078
44.2572
43.9979
43.6145
43.0617
42.2459
41.0045
28.4664
28.8266
28.9948
29.0919
29.1576
29.2069
29.2464
29.2793
29.3075
29.3324
29.3546
29.3747
29.3933
29.4106
29.4269
29.4425
29.4576
29.4724
29.4872
29.5021
29.5174
29.5335
29.5507
29.5697
29.5912
29.6166
29.6482
29.6904
29.7529
29.8602
30.0835
30.6536
32.3877
32.9613
33.1919
33.3114
33.3924
33.4627
33.5384
33.6382
33.8013
34.136
34.9914
37.6017
38.456
38.7883
38.9474
39.041
39.1068
39.1605
39.211
39.2661
39.3376
39.4523
39.6848
40.2764
42.0801
42.6692
42.8966
43.0033
43.0637
43.1034
43.1331
43.1582
43.1824
43.21
43.2485
43.3157
43.4622
43.8516
45.0635
45.4486
45.5861
45.6397
45.6596
45.6629
45.6564
45.643
45.6248
45.6039
45.5849
45.5819
45.6424
45.9373
45.9665
45.8953
45.7558
45.5233
45.0973
44.1569
28.1584
26.638
25.0285
23.3353
21.5642
19.7218
17.8149
15.8507
13.8363
11.779
9.68561
7.56309
5.41811
3.2572
1.08679
28.2505
26.726
25.1115
23.4124
21.6348
19.7855
17.8716
15.9003
13.8789
11.8146
9.71442
7.58529
5.43385
3.26659
1.08991
28.4359
26.903
25.2782
23.5671
21.7764
19.9132
17.985
15.9994
13.9638
11.8856
9.77188
7.62954
5.4652
3.2853
1.09613
28.7168
27.1711
25.5302
23.8006
21.9897
20.1052
18.1553
16.1479
14.0908
11.9917
9.85764
7.69553
5.51193
3.31317
1.10539
29.097
27.5333
25.8701
24.1147
22.2758
20.362
18.3824
16.3455
14.2595
12.1323
9.97111
7.78273
5.57363
3.34994
1.11761
29.5818
27.9942
26.3011
24.5116
22.6359
20.684
18.6661
16.5915
14.469
12.3065
10.1114
7.89038
5.64971
3.39526
1.13266
30.1784
28.5594
26.8275
24.994
23.0712
21.0714
19.0058
16.8849
14.7179
12.5129
10.2772
8.01742
5.73938
3.44863
1.15037
30.8963
29.2368
27.4545
25.5647
23.5828
21.5236
19.4002
17.2239
15.0043
12.7496
10.4669
8.1624
5.84156
3.50939
1.17053
31.7487
30.0359
28.1882
26.2265
24.1709
22.0394
19.8469
17.6055
15.3251
13.0138
10.678
8.32343
5.95489
3.5767
1.19286
32.7529
30.9687
29.0349
26.9812
24.8342
22.6155
20.3417
18.0255
15.6765
13.3019
10.9075
8.49815
6.07766
3.64956
1.21701
33.9334
32.0501
30.0005
27.8283
25.5683
23.2458
20.8783
18.4778
16.0528
13.6093
11.1518
8.68366
6.20785
3.72676
1.24259
35.3246
33.2968
31.0876
28.7622
26.3641
23.9203
21.447
18.9539
16.4471
13.9303
11.4062
8.8766
6.3431
3.8069
1.26914
36.9771
34.7238
32.2899
29.7677
27.2046
24.6235
22.0348
19.4431
16.8507
14.2581
11.6656
9.07317
6.48082
3.88849
1.29617
38.9622
36.3302
33.5793
30.813
28.0624
25.3334
22.6246
19.9326
17.2538
14.5853
11.9245
9.26938
6.61831
3.96996
1.32315
41.35
38.0542
34.8829
31.8417
28.8974
26.0222
23.1969
20.4081
17.6462
14.9043
12.1773
9.46121
6.75287
4.04974
1.34959
10.631
11.8922
13.1508
14.405
15.6532
16.894
18.1261
19.3487
20.5622
21.7684
22.9724
24.1852
25.4304
26.7618
28.3273
10.6469
11.9398
13.2301
14.5162
15.7964
17.0691
18.3331
19.5873
20.8317
22.0677
23.2997
24.5383
25.8052
27.144
28.633
10.6633
11.9891
13.3123
14.6314
15.9445
17.2501
18.5465
19.8324
21.1066
22.3692
23.6221
24.8712
26.1295
27.4213
28.7788
10.6803
12.04
13.3973
14.7505
16.0977
17.4372
18.7671
20.0852
21.3893
22.6771
23.9467
25.1971
26.43
27.6523
28.8759
10.6978
12.0926
13.4851
14.8735
16.2561
17.6308
18.9955
20.3474
21.6828
22.9972
24.2841
25.5346
26.7375
27.8818
28.9662
10.7159
12.1468
13.5756
15.0004
16.4196
17.8312
19.2326
20.6206
21.9906
23.3361
24.6464
25.9047
27.0851
28.1522
29.0786
10.7344
12.2025
13.6686
15.1311
16.5883
18.0384
19.4787
20.9059
22.3152
23.6988
25.0442
26.3285
27.5108
28.5199
29.2591
10.7534
12.2596
13.764
15.2652
16.7618
18.252
19.7335
21.2033
22.657
24.0878
25.4839
26.8226
28.0561
29.0743
29.6285
10.7728
12.3179
13.8615
15.4024
16.9396
18.4714
19.9962
21.5115
23.0144
24.5004
25.9628
27.3892
28.7504
29.9505
30.5713
10.7925
12.3771
13.9606
15.5421
17.1208
18.6955
20.2651
21.8281
23.3831
24.929
26.4662
28.0005
29.556
31.2282
33.4435
10.8124
12.4371
14.061
15.6836
17.3045
18.9229
20.5381
22.1498
23.7577
25.3631
26.9711
28.5965
30.2799
32.1279
34.3959
10.8325
12.4975
14.1621
15.8263
17.4896
19.1521
20.8134
22.4736
24.1335
25.795
27.4634
29.1516
30.8888
32.7353
34.7877
10.8527
12.558
14.2635
15.9692
17.6752
19.3818
21.089
22.7974
24.5077
26.2215
27.9414
29.6721
31.4212
33.1989
35.0132
10.8727
12.6184
14.3646
16.1117
17.8602
19.6106
21.3635
23.1194
24.8791
26.6433
28.4113
30.1792
31.933
33.6363
35.2203
10.8926
12.6782
14.4648
16.2531
18.0437
19.8375
21.6354
23.4383
25.247
27.0618
28.8807
30.6955
32.4791
34.1559
35.5367
10.9123
12.7374
14.5638
16.3926
18.2247
20.0613
21.9035
23.7527
25.6102
27.4769
29.3525
31.2326
33.0988
34.8801
36.261
10.9316
12.7955
14.661
16.5296
18.4024
20.2808
22.1664
24.061
25.9664
27.8852
29.8205
31.7786
33.7768
35.8815
38.399
10.9505
12.8523
14.7561
16.6634
18.5758
20.495
22.4227
24.3612
26.3129
28.2815
30.2721
32.296
34.38
36.5953
39.1202
10.9689
12.9075
14.8485
16.7935
18.7443
20.7028
22.6711
24.6517
26.6473
28.6617
30.7001
32.7711
34.8912
37.0933
39.4314
10.9867
12.961
14.938
16.9194
18.9073
20.9036
22.9107
24.9312
26.9681
29.0247
31.1047
33.2112
35.3448
37.4961
39.6348
11.0039
13.0126
15.0242
17.0406
19.064
21.0965
23.1405
25.1989
27.2747
29.3709
31.4901
33.6319
35.7851
37.9067
39.8746
11.0204
13.0622
15.1069
17.1569
19.2141
21.2809
23.36
25.4541
27.5665
29.7005
31.8593
34.0439
36.2465
38.4233
40.3652
11.0361
13.1095
15.186
17.2678
19.3572
21.4565
23.5686
25.6962
27.8428
30.0123
32.2098
34.4426
36.7251
39.1021
41.7699
11.0512
13.1545
15.2612
17.3732
19.493
21.623
23.7659
25.9245
28.1025
30.304
32.5351
34.806
37.1372
39.578
42.2432
11.0654
13.1973
15.3324
17.4731
19.6215
21.7802
23.9518
26.139
28.3453
30.5746
32.8322
35.1266
37.4724
39.8971
42.4407
11.0788
13.2376
15.3997
17.5672
19.7426
21.9281
24.1263
26.3398
28.5716
30.8248
33.1031
35.4106
37.7521
40.1325
42.5523
11.0915
13.2756
15.463
17.6558
19.8563
22.0668
24.2897
26.5274
28.7824
31.057
33.3529
35.6701
38.004
40.3397
42.6469
11.1034
13.3112
15.5223
17.7388
19.9628
22.1966
24.4424
26.7025
28.979
31.2737
33.5872
35.9173
38.2536
40.5658
42.7776
11.1145
13.3445
15.5777
17.8162
20.0621
22.3176
24.5847
26.8656
29.1624
31.4766
33.8093
36.1592
38.5193
40.8606
43.0596
11.1248
13.3755
15.6293
17.8883
20.1546
22.4301
24.717
27.0173
29.333
31.6661
34.0186
36.3934
38.7969
41.2534
43.876
11.1344
13.4043
15.6772
17.9552
20.2402
22.5343
24.8395
27.1577
29.491
31.8414
34.2118
36.6068
39.037
41.5297
44.1511
11.1433
13.4308
15.7213
18.0168
20.3192
22.6305
24.9525
27.2872
29.6365
32.0023
34.3871
36.7948
39.2328
41.7157
44.2662
11.1514
13.4552
15.7619
18.0734
20.3918
22.7188
25.0563
27.406
29.7698
32.1492
34.5457
36.961
39.3965
41.8537
44.3317
11.1588
13.4774
15.7989
18.1251
20.458
22.7994
25.151
27.5146
29.8917
32.2835
34.6906
37.1122
39.5443
41.9764
44.3883
11.1655
13.4975
15.8324
18.1719
20.5181
22.8725
25.237
27.6133
30.0028
32.4065
34.8247
37.2553
39.6912
42.1121
44.4686
11.1716
13.5156
15.8625
18.214
20.572
22.9382
25.3144
27.7023
30.1034
32.5188
34.9493
37.3939
39.8476
42.2917
44.6458
11.1769
13.5316
15.8891
18.2513
20.6198
22.9965
25.3832
27.7816
30.1933
32.62
35.0633
37.5252
40.01
42.5326
45.1644
11.1816
13.5456
15.9125
18.2839
20.6616
23.0476
25.4435
27.8511
30.2723
32.709
35.1636
37.6399
40.145
42.6966
45.3358
11.1856
13.5576
15.9324
18.3118
20.6975
23.0913
25.4951
27.9106
30.3399
32.7849
35.2482
37.7335
40.247
42.7989
45.403
11.1889
13.5676
15.9491
18.335
20.7273
23.1277
25.5381
27.9601
30.3959
32.8473
35.3167
37.8069
40.3213
42.8638
45.4353
11.1916
13.5756
15.9624
18.3537
20.7512
23.1569
25.5724
27.9996
30.4404
32.8965
35.37
37.8625
40.3753
42.9076
45.4546
11.1936
13.5817
15.9724
18.3677
20.7692
23.1788
25.5981
28.0291
30.4735
32.9331
35.4093
37.9032
40.4147
42.9404
45.4707
11.1949
13.5857
15.9792
18.3771
20.7813
23.1934
25.6153
28.0488
30.4956
32.9574
35.4355
37.931
40.4433
42.9689
45.4943
11.1956
13.5878
15.9827
18.3819
20.7874
23.2009
25.6241
28.0587
30.5067
32.9696
35.449
37.9461
40.4618
42.9966
45.555
11.1957
13.588
15.9829
18.3822
20.7878
23.2012
25.6243
28.0589
30.5068
32.9697
35.4493
37.9475
40.4661
43.0068
45.5715
11.1951
13.5862
15.9799
18.378
20.7823
23.1944
25.6162
28.0494
30.4958
32.9574
35.436
37.934
40.4541
42.9993
45.571
11.1939
13.5825
15.9737
18.3693
20.771
23.1805
25.5996
28.0301
30.4738
32.9326
35.4086
37.9044
40.4238
42.9726
45.5575
11.192
13.5768
15.9643
18.3561
20.7539
23.1595
25.5747
28.0011
30.4407
32.8952
35.3666
37.8575
40.3721
42.9197
45.5217
11.1895
13.5693
15.9517
18.3384
20.7311
23.1315
25.5414
27.9625
30.3966
32.8454
35.3103
37.7933
40.2966
42.828
45.4257
11.1864
13.5599
15.936
18.3164
20.7027
23.0966
25.5
27.9144
30.3418
32.7836
35.2409
37.7141
40.2007
42.6894
45.1332
11.1826
13.5486
15.9172
18.2899
20.6686
23.0548
25.4503
27.8569
30.2763
32.7102
35.1597
37.6249
40.1025
42.581
45.0308
11.1782
13.5355
15.8953
18.2592
20.6289
23.0061
25.3925
27.7899
30.2003
32.6254
35.067
37.5263
40.0027
42.4915
44.9804
11.1733
13.5206
15.8704
18.2242
20.5837
22.9506
25.3266
27.7135
30.1134
32.5285
34.9613
37.4149
39.8934
42.4011
44.9393
11.1677
13.504
15.8425
18.1851
20.5331
22.8884
25.2526
27.6276
30.0155
32.4186
34.8403
37.2855
39.763
42.2885
44.8844
11.1616
13.4856
15.8118
18.1418
20.4773
22.8197
25.1707
27.5323
29.9063
32.2953
34.7023
37.1329
39.5984
42.126
44.7798
11.1549
13.4655
15.7782
18.0947
20.4162
22.7445
25.0811
27.4278
29.7863
32.1587
34.5473
36.9553
39.3899
41.875
44.5204
11.1477
13.4438
15.742
18.0437
20.3503
22.6632
24.9841
27.3145
29.6561
32.0103
34.378
36.7585
39.1454
41.5119
43.7398
11.14
13.4206
15.7032
17.9891
20.2796
22.5761
24.8801
27.1931
29.5166
31.8518
34.1992
36.5566
38.9144
41.2441
43.4738
11.1318
13.396
15.662
17.931
20.2044
22.4834
24.7694
27.0639
29.3684
31.6843
34.0128
36.3535
38.702
41.0449
43.3545
11.1231
13.37
15.6184
17.8698
20.125
22.3855
24.6524
26.9273
29.2117
31.5076
33.8174
36.1444
38.4929
40.8678
43.2717
11.1141
13.3427
15.5729
17.8055
20.0418
22.2827
24.5295
26.7836
29.0465
31.3205
33.6093
35.9195
38.2645
40.6699
43.1755
11.1046
13.3143
15.5254
17.7386
19.9551
22.1756
24.4013
26.6332
28.873
31.1226
33.3857
35.6699
37.9934
40.4016
43.0033
11.0948
13.2849
15.4762
17.6693
19.8652
22.0645
24.2682
26.4771
28.6922
30.9148
33.1469
35.3924
37.6625
39.9982
42.5826
11.0848
13.2547
15.4255
17.598
19.7726
21.9502
24.1311
26.3162
28.5057
30.6999
32.898
35.097
37.2855
39.4212
41.3169
11.0745
13.2237
15.3736
17.5248
19.6779
21.8331
23.9909
26.1517
28.3155
30.4817
32.6481
34.8082
36.9445
39.0103
40.8932
11.0639
13.192
15.3207
17.4503
19.5813
21.7138
23.8483
25.9847
28.1231
30.2628
32.4018
34.5354
36.6517
38.7255
40.7145
11.0533
13.1599
15.267
17.3747
19.4833
21.593
23.7039
25.816
27.9294
30.0438
32.1589
34.2739
36.3877
38.4989
40.606
11.0425
13.1274
15.2127
17.2983
19.3844
21.471
23.5583
25.6461
27.7345
29.8239
31.9154
34.0126
36.1249
38.2743
40.4992
11.0316
13.0947
15.158
17.2214
19.2848
21.3484
23.4119
25.4753
27.5385
29.602
31.6674
33.7401
35.8357
37.9966
40.3274
11.0206
13.0619
15.1031
17.1442
19.185
21.2255
23.2653
25.3042
27.3419
29.3783
31.4138
33.4513
35.5004
37.6003
39.9256
11.0097
13.029
15.0482
17.067
19.0853
21.1027
23.119
25.1335
27.1457
29.1546
31.1585
33.1536
35.1293
37.0466
38.732
10.9988
12.9962
14.9933
16.99
18.9858
20.9805
22.9735
24.9641
26.9515
28.934
30.9087
32.8689
34.7982
36.6535
38.3314
10.9879
12.9635
14.9388
16.9134
18.887
20.8592
22.8294
24.7967
26.7602
28.7183
30.6684
32.6053
34.5178
36.3829
38.1625
10.977
12.931
14.8845
16.8373
18.789
20.7391
22.6869
24.6316
26.5723
28.5078
30.4368
32.3579
34.2697
36.1709
38.0613
10.9663
12.8987
14.8306
16.7619
18.6919
20.6203
22.5462
24.4689
26.3875
28.3013
30.2102
32.1166
34.0285
35.9658
37.9642
10.9556
12.8666
14.7772
16.6871
18.5959
20.5029
22.4075
24.3088
26.2058
28.0977
29.9848
31.8709
33.7692
35.7177
37.8112
10.9449
12.8347
14.7241
16.6129
18.5007
20.387
22.2708
24.1513
26.0272
27.897
29.7598
31.6163
33.4743
35.3684
37.4557
10.9343
12.803
14.6714
16.5394
18.4065
20.2724
22.1362
23.9967
25.8524
27.7008
29.5386
31.3601
33.1539
34.8845
36.3999
10.9238
12.7714
14.6189
16.4662
18.3131
20.1591
22.0036
23.8453
25.6823
27.5117
29.3282
31.1227
32.8767
34.5495
36.0501
10.9132
12.7397
14.5663
16.3931
18.22
20.0467
21.8726
23.6967
25.5172
27.331
29.1327
30.913
32.6556
34.3334
35.9106
10.9026
12.7079
14.5136
16.3199
18.1269
19.9345
21.7425
23.5503
25.3564
27.1584
28.9517
30.729
32.479
34.1866
35.8406
10.8919
12.6758
14.4604
16.2461
18.0331
19.8218
21.6124
23.4048
25.1982
26.9914
28.7814
30.5636
32.3312
34.0766
35.7964
10.881
12.6433
14.4064
16.1711
17.938
19.7077
21.4809
23.2581
25.0399
26.8262
28.6161
30.4079
32.1984
33.9838
35.762
10.8699
12.61
14.3513
16.0946
17.8407
19.5909
21.3462
23.1081
24.8782
26.658
28.4492
30.2526
32.0686
33.8956
35.7303
10.8585
12.5759
14.2947
16.0158
17.7406
19.4702
21.2067
22.9521
24.7093
26.4817
28.2732
30.0883
31.9307
33.8016
35.6964
10.8468
12.5408
14.2363
15.9345
17.6367
19.3447
21.0607
22.7877
24.5296
26.2917
28.0806
29.9046
31.7725
33.6906
35.6553
10.8347
12.5046
14.1761
15.8503
17.5288
19.2134
20.9069
22.6126
24.3356
26.0827
27.8632
29.6899
31.5789
33.5467
35.5982
10.8223
12.4673
14.1138
15.763
17.4163
19.0758
20.7442
22.4253
24.1247
25.8501
27.6133
29.4316
31.3303
33.344
35.5063
10.8095
12.4289
14.0496
15.6727
17.2995
18.9319
20.5725
22.2251
23.8952
25.591
27.3248
29.117
31.0013
33.0378
35.3287
10.7964
12.3895
13.9837
15.5796
17.1786
18.782
20.3923
22.0126
23.6477
25.305
26.9955
28.738
30.5663
32.5543
34.9081
43.7517
39.5191
35.9576
32.6949
29.5984
26.6071
23.6874
20.8186
17.9869
15.1826
12.3987
9.62963
6.87125
4.12001
1.37289
44.511
40.384
36.7261
33.3543
30.162
27.0885
24.0974
21.1655
18.2772
15.4212
12.5892
9.77512
6.97374
4.18095
1.39311
44.8273
40.9222
37.2949
33.8884
30.6424
27.5119
24.4656
21.4817
18.5445
15.6426
12.7672
9.91151
7.07012
4.23836
1.41218
44.9862
41.2666
37.7094
34.3101
31.0418
27.8762
24.79
21.7649
18.787
15.8452
12.9311
10.0378
7.15964
4.2918
1.42995
45.0791
41.4972
38.0134
34.6401
31.369
28.1847
25.0714
22.015
19.0038
16.0282
13.0802
10.1533
7.24184
4.34099
1.44632
45.1397
41.6587
38.2396
34.8983
31.6352
28.4433
25.3126
22.2331
19.1954
16.1916
13.2144
10.2578
7.31653
4.3858
1.46125
45.1822
41.7761
38.411
35.1013
31.8513
28.6586
25.5177
22.4215
19.3632
16.336
13.3339
10.3515
7.38372
4.42622
1.47474
45.2133
41.8641
38.543
35.2621
32.0268
28.8374
25.691
22.5832
19.5089
16.4627
13.4395
10.4346
7.44364
4.46236
1.48682
45.2369
41.9315
38.6461
35.3903
32.1696
28.9855
25.8369
22.7212
19.6345
16.5729
13.532
10.5079
7.49666
4.49442
1.49755
45.2551
41.9842
38.7276
35.4933
32.2861
29.1082
25.9595
22.8384
19.7423
16.6682
13.6126
10.5721
7.54323
4.52265
1.507
45.2695
42.0259
38.7928
35.5766
32.3816
29.21
26.0623
22.9377
19.8345
16.7503
13.6824
10.6279
7.58389
4.54735
1.51528
45.2809
42.0592
38.8454
35.6444
32.46
29.2944
26.1483
23.0216
19.9129
16.8206
13.7425
10.6762
7.61918
4.56883
1.5225
45.2901
42.0862
38.888
35.6998
32.5246
29.3645
26.2204
23.0923
19.9795
16.8807
13.7941
10.7178
7.64967
4.58743
1.52875
45.2976
42.108
38.9228
35.7452
32.578
29.4228
26.2807
23.1519
20.0359
16.9318
13.8382
10.7535
7.6759
4.60345
1.53413
45.3037
42.1259
38.9513
35.7826
32.6221
29.4713
26.3312
23.202
20.0836
16.9752
13.8758
10.784
7.69837
4.6172
1.53876
45.3087
42.1406
38.9748
35.8135
32.6587
29.5117
26.3734
23.2442
20.1239
17.012
13.9077
10.81
7.71755
4.62896
1.54272
45.3128
42.1527
38.9941
35.8391
32.6891
29.5454
26.4087
23.2795
20.1578
17.0431
13.9348
10.8321
7.73388
4.63897
1.5461
45.3162
42.1626
39.0101
35.8602
32.7143
29.5734
26.4382
23.3092
20.1863
17.0693
13.9577
10.8508
7.74773
4.64748
1.54896
45.3189
42.1708
39.0233
35.8777
32.7352
29.5968
26.4629
23.334
20.2102
17.0914
13.977
10.8666
7.75943
4.65467
1.55139
45.3212
42.1776
39.0342
35.8922
32.7526
29.6162
26.4834
23.3547
20.2303
17.1098
13.9932
10.8799
7.76929
4.66074
1.55344
45.3231
42.1832
39.0433
35.9042
32.767
29.6323
26.5005
23.372
20.247
17.1253
14.0068
10.891
7.77757
4.66583
1.55516
45.3247
42.1878
39.0507
35.9141
32.7789
29.6456
26.5146
23.3863
20.2608
17.1381
14.0181
10.9003
7.78447
4.67008
1.55659
45.326
42.1916
39.0568
35.9223
32.7887
29.6565
26.5262
23.3981
20.2723
17.1488
14.0274
10.908
7.79019
4.67361
1.55778
45.327
42.1947
39.0618
35.9289
32.7966
29.6654
26.5357
23.4078
20.2817
17.1575
14.0351
10.9143
7.79489
4.6765
1.55876
45.3279
42.1972
39.0657
35.9342
32.803
29.6726
26.5434
23.4155
20.2892
17.1645
14.0413
10.9194
7.79869
4.67885
1.55955
45.3285
42.1991
39.0689
35.9384
32.808
29.6783
26.5494
23.4217
20.2952
17.1701
14.0462
10.9235
7.80172
4.68071
1.56018
45.329
42.2006
39.0713
35.9416
32.8119
29.6826
26.554
23.4264
20.2998
17.1744
14.05
10.9266
7.80404
4.68215
1.56067
45.3294
42.2016
39.073
35.9439
32.8147
29.6858
26.5574
23.4298
20.3032
17.1775
14.0527
10.9289
7.80573
4.6832
1.56102
45.3296
42.2023
39.0741
35.9453
32.8165
29.6878
26.5596
23.432
20.3053
17.1795
14.0545
10.9303
7.80685
4.68388
1.56126
45.3297
42.2026
39.0746
35.946
32.8173
29.6888
26.5606
23.4331
20.3064
17.1805
14.0554
10.9311
7.80741
4.68424
1.56138
45.3297
42.2026
39.0746
35.946
32.8172
29.6887
26.5606
23.4331
20.3064
17.1806
14.0555
10.9311
7.80746
4.68426
1.56139
45.3296
42.2022
39.0739
35.9452
32.8163
29.6876
26.5595
23.432
20.3054
17.1796
14.0547
10.9305
7.80698
4.68397
1.56129
45.3293
42.2014
39.0727
35.9435
32.8144
29.6855
26.5573
23.4298
20.3033
17.1777
14.053
10.9291
7.80597
4.68335
1.56108
45.3289
42.2003
39.0708
35.941
32.8114
29.6823
26.5538
23.4264
20.3
17.1747
14.0504
10.927
7.80441
4.6824
1.56076
45.3284
42.1986
39.0682
35.9376
32.8073
29.6777
26.5491
23.4217
20.2955
17.1706
14.0468
10.9241
7.80226
4.68108
1.56031
45.3276
42.1965
39.0648
35.9331
32.802
29.6719
26.543
23.4156
20.2897
17.1652
14.0422
10.9203
7.79948
4.67938
1.55974
45.3267
42.1937
39.0603
35.9273