/*--------------------------------*- C++ -*----------------------------------*\
| =========                 |                                                 |
| \\      /  F ield         | OpenFOAM: The Open Source CFD Toolbox           |
|  \\    /   O peration     | Version:  5.x                                   |
|   \\  /    A nd           | Web:      www.OpenFOAM.org                      |
|    \\/     M anipulation  |                                                 |
\*---------------------------------------------------------------------------*/
FoamFile
{
    version     2.0;
    format      ascii;
    class       volScalarField;
    location    "1";
    object      gradTy;
}
// * * * * * * * * * * * * * * * * * * * * * * * * * * * * * * * * * * * * * //

dimensions      [0 -1 0 1 0 0 0];

internalField   nonuniform List<scalar> 
3200
(
288.434
-107.117
-111.241
-44.0856
-56.8229
-37.159
-41.6269
-34.5428
-36.0616
-34.0147
-33.6231
-34.0246
-33.6564
-36.1713
-32.8767
-42.1346
-24.6906
-37.3983
-27.3403
-37.2559
-28.1274
-36.3831
-28.8557
-35.0464
-31.9875
-37.9263
-30.5725
-42.8067
-20.8168
-35.5663
-21.3372
-33.5587
-22.535
-32.7331
-28.1995
-43.7112
-16.2527
-36.039
-18.951
-34.0115
-16.8252
-32.2173
-16.4959
-32.2442
-17.7646
-30.8748
-18.4376
-28.6434
-23.5919
-36.2155
-13.1413
-27.5267
-14.197
-24.4054
-19.3193
-31.1177
-10.6892
-23.0231
-17.8543
-29.6374
-18.8238
-39.8561
-4.22848
-30.8106
-6.41457
-33.3577
-7.70312
-39.8301
-10.2896
-50.5123
-16.5519
-64.6851
-32.3725
-85.0226
-56.4391
-110.287
-179.888
-208.914
-217.487
-219.59
231.867
-72.1687
-92.3081
-46.8071
-52.2009
-38.278
-40.0031
-34.9284
-35.4725
-33.9694
-33.5683
-33.8365
-33.7576
-35.4376
-33.3381
-39.2219
-27.4626
-35.6241
-29.2233
-35.6885
-29.7583
-35.1056
-30.2128
-34.3345
-32.7064
-36.5954
-31.6486
-39.2868
-24.233
-33.3866
-23.6148
-31.4818
-24.6897
-31.5674
-29.1495
-39.1532
-20.6364
-33.2197
-21.9561
-31.3871
-19.4331
-29.2705
-19.4252
-29.7625
-20.3487
-28.8034
-20.6222
-27.3932
-24.7423
-32.7395
-16.5439
-25.4046
-16.4835
-23.191
-20.4675
-27.997
-13.7861
-21.7293
-19.168
-27.2418
-20.8476
-34.2222
-9.63893
-26.4559
-10.7539
-28.4452
-12.4079
-33.8325
-15.9638
-43.2066
-23.5426
-56.8427
-40.0366
-77.1796
-64.2377
-109.659
-181.513
-209.734
-217.748
-219.676
187.46
-48.576
-76.001
-47.4925
-48.3511
-38.7702
-38.6504
-35.0882
-34.9642
-33.8788
-33.4856
-33.6611
-33.7872
-34.8539
-33.479
-37.0136
-29.4365
-34.4311
-30.5903
-34.6156
-30.9366
-34.2362
-31.208
-33.8512
-33.2033
-35.6163
-32.2199
-36.6731
-26.6793
-31.9624
-25.1854
-29.9896
-26.296
-30.7719
-29.601
-35.7345
-23.7745
-31.3526
-24.1318
-29.6165
-21.1678
-27.1095
-21.5457
-28.0692
-22.2166
-27.3958
-22.2072
-26.5185
-25.4654
-30.2298
-18.9429
-23.9924
-18.1435
-22.3525
-21.2044
-25.7447
-15.9957
-20.8545
-20.0553
-25.4239
-22.0798
-30.1058
-13.3927
-23.4015
-13.7571
-24.8818
-15.6142
-29.4068
-19.8339
-37.7776
-28.4156
-51.0056
-45.5442
-71.3416
-69.7037
-107.975
-184.886
-211.365
-218.254
-219.841
152.495
-33.3279
-61.9311
-47.0028
-44.9182
-38.8834
-37.4346
-35.1097
-34.4935
-33.7596
-33.3791
-33.4867
-33.7781
-34.3667
-33.4223
-35.2487
-30.9063
-33.5904
-31.6414
-33.8497
-31.8346
-33.6188
-31.9751
-33.4983
-33.5764
-34.8684
-32.476
-34.6359
-28.5134
-31.0193
-26.2914
-28.8361
-27.5743
-30.2009
-29.759
-33.0382
-26.1297
-30.0761
-25.798
-28.4019
-22.3255
-25.4074
-23.1813
-26.8697
-23.6419
-26.4018
-23.4109
-25.8572
-25.9546
-28.361
-20.6873
-23.015
-19.4
-21.7273
-21.7127
-24.063
-17.6199
-20.2051
-20.695
-23.9537
-22.8565
-26.9784
-16.0771
-21.1328
-15.9293
-22.1338
-17.898
-25.9159
-22.6037
-33.4415
-32.0112
-46.2916
-49.8025
-66.6024
-73.5748
-104.748
-190.278
-213.781
-218.975
-220.07
124.963
-24.3686
-49.6024
-45.9992
-41.643
-38.8127
-36.2534
-35.0622
-34.0269
-33.6256
-33.2525
-33.3043
-33.7564
-33.9402
-33.2541
-33.7298
-32.0943
-32.9341
-32.5255
-33.2519
-32.5799
-33.1377
-32.6147
-33.2024
-33.9002
-34.2671
-32.549
-32.9292
-30.0014
-30.3646
-27.1056
-27.8339
-28.6961
-29.7517
-29.7672
-30.7484
-28.0497
-29.1277
-27.188
-27.5336
-23.116
-23.9167
-24.5794
-25.946
-24.8268
-25.6369
-24.3964
-25.2889
-26.3506
-26.8945
-22.0308
-22.2745
-20.4181
-21.195
-22.1257
-22.7323
-18.8825
-19.6389
-21.2234
-22.6573
-23.424
-24.4515
-18.1229
-19.2743
-17.645
-19.8034
-19.6918
-22.8783
-24.8078
-29.5964
-34.979
-42.009
-53.5302
-62.2572
-76.479
-99.3478
-198.152
-216.931
-219.86
-220.344
103.404
-20.3732
-38.4271
-45.0255
-38.3066
-38.7309
-35.0172
-35.0082
-33.5347
-33.4903
-33.1086
-33.1056
-33.7452
-33.5482
-33.0391
-32.295
-33.183
-32.3276
-33.3638
-32.7097
-33.2756
-32.6996
-33.2096
-32.9018
-34.2369
-33.7488
-32.5379
-31.3545
-31.3574
-29.8546
-27.76
-26.826
-29.8098
-29.3439
-29.7365
-28.6056
-29.8184
-28.2997
-28.4862
-26.8555
-23.6975
-22.4312
-25.9491
-25.1213
-25.9343
-24.9537
-25.2961
-24.7136
-26.767
-25.6441
-23.1698
-21.6177
-21.3307
-20.6562
-22.5514
-21.5796
-19.9605
-19.0394
-21.7576
-21.3873
-23.9808
-22.2187
-19.8694
-17.5269
-19.2091
-17.5638
-21.3536
-19.891
-26.8976
-25.7277
-37.881
-37.547
-57.3699
-57.6927
-79.0377
-90.9106
-209.227
-220.716
-220.844
-220.638
86.7962
-20.6066
-27.71
-44.5845
-34.6846
-38.8147
-33.633
-35.013
-32.9855
-33.3687
-32.9497
-32.8814
-33.7677
-33.1689
-32.8337
-30.7951
-34.3417
-31.6455
-34.27
-32.119
-34.0173
-32.2182
-33.8374
-32.5357
-34.6468
-33.2596
-32.5259
-29.7326
-32.7739
-29.3684
-28.3682
-25.6617
-31.0618
-28.9019
-29.767
-26.3692
-31.6966
-27.4037
-29.8574
-26.2387
-24.2035
-20.7545
-27.4929
-24.2313
-27.1137
-24.2178
-26.2332
-24.0331
-27.3107
-24.448
-24.2721
-20.9106
-22.2589
-20.0149
-23.0919
-20.4531
-21.0109
-18.2946
-22.4155
-19.999
-24.712
-20.0096
-21.6158
-15.6185
-20.9064
-15.1069
-23.2256
-16.565
-29.3144
-21.3261
-41.2825
-32.2787
-61.9895
-52.287
-81.975
-78.2153
-224.575
-224.954
-221.84
-220.923
74.4845
-24.852
-16.6021
-45.2147
-30.5016
-39.2714
-31.9868
-35.1546
-32.3404
-33.2797
-32.7774
-32.6195
-33.8502
-32.7797
-32.6971
-29.0725
-35.7507
-30.7514
-35.368
-31.3669
-34.9075
-31.6008
-34.5828
-32.0339
-35.1974
-32.7451
-32.597
-27.8781
-34.449
-28.7868
-29.0455
-24.1739
-32.6169
-28.3398
-29.9688
-23.7846
-33.9605
-26.2386
-31.4724
-25.5594
-24.7669
-18.6712
-29.4375
-23.0963
-28.5251
-23.2863
-27.3396
-23.1343
-28.1007
-23.1451
-25.5026
-20.0158
-23.3315
-19.1615
-23.8618
-19.1993
-22.1927
-17.2767
-23.3355
-18.326
-25.8203
-17.5484
-23.6666
-13.2591
-23.0474
-12.0933
-25.6888
-12.4625
-32.5606
-15.8064
-45.842
-25.4612
-68.185
-45.3049
-86.2493
-59.5141
-245.762
-229.331
-222.748
-221.17
66.1464
-33.4008
-4.01978
-47.5782
-25.3798
-40.3709
-29.9231
-35.5363
-31.546
-33.2492
-32.5923
-32.3031
-34.0257
-32.352
-32.7032
-26.9389
-37.6279
-29.4737
-36.8118
-30.3144
-36.0728
-30.733
-35.5506
-31.3047
-35.9737
-32.1396
-32.8521
-25.5732
-36.6148
-27.9696
-29.9293
-22.1547
-34.6821
-27.5427
-30.4844
-20.547
-36.9415
-24.5566
-33.5344
-24.6766
-25.5437
-15.9146
-32.0676
-21.4918
-30.3644
-21.9842
-28.7775
-21.8698
-29.2888
-21.5508
-27.0479
-18.77
-24.7046
-17.9542
-25.0072
-17.6402
-23.6919
-15.8208
-24.699
-16.1535
-27.56
-14.5123
-26.379
-10.0922
-26.0184
-8.09794
-29.2249
-7.02695
-37.2805
-8.41464
-52.4175
-16.1187
-77.0035
-35.7686
-93.2294
-32.2921
-275.053
-233.313
-223.454
-221.353
61.7903
-47.1066
11.48
-52.5723
-18.771
-42.4886
-27.218
-36.303
-30.5249
-33.3142
-32.3935
-31.9074
-34.3383
-31.8444
-32.9552
-24.1484
-40.2602
-27.5777
-38.8103
-28.773
-37.6834
-29.4603
-36.8823
-30.2203
-37.0916
-31.3537
-33.4284
-22.537
-39.5694
-26.7297
-31.2039
-19.3251
-37.5356
-26.3439
-31.5167
-16.2576
-41.0753
-22.0217
-36.3115
-23.4063
-26.7419
-12.1283
-35.7684
-19.1108
-32.8953
-20.0767
-30.7649
-20.0336
-31.0846
-19.4285
-29.1456
-16.957
-26.5864
-16.1961
-26.7306
-15.5455
-25.7491
-13.696
-26.7604
-13.184
-30.2786
-10.4804
-30.2181
-5.63731
-30.3436
-2.54083
-34.494
0.506856
-44.3649
1.89246
-62.2041
-2.88773
-89.9054
-22.2828
-104.944
7.07989
-315.723
-236.017
-223.847
-221.451
65.3379
76.7731
35.2749
48.5528
44.8073
46.3004
45.5346
43.7609
45.2767
41.9327
44.8901
40.7716
45.8106
41.025
43.3387
32.1837
52.0028
37.3328
48.6458
37.5683
46.7955
37.5189
45.9628
37.8623
46.9739
38.6349
48.2916
38.128
46.5255
37.0972
39.8143
29.4937
46.5709
36.4407
41.2408
27.9344
50.6057
34.6181
45.5751
35.0374
38.0033
25.5298
46.6962
32.7376
43.2617
32.67
41.0754
32.2532
35.079
22.6678
44.4641
29.6139
41.573
29.9077
34.0757
16.7709
48.3387
27.6221
36.3411
7.58766
62.7361
25.873
62.3306
28.0871
66.3939
29.9538
72.2919
32.6378
79.8337
37.2521
89.0013
44.9546
101.736
61.1357
117.912
98.7478
95.4095
94.6754
94.5052
94.4671
64.8802
71.2156
40.7583
48.2208
45.6114
46.4002
45.5667
44.2079
44.8939
42.565
44.2903
41.6036
45.0067
41.8073
42.8128
35.5366
48.7921
39.3308
46.5058
39.227
45.0664
38.9943
44.4421
39.2957
45.5518
40.3057
46.6954
39.9225
44.7033
38.0682
38.8808
32.1205
43.9382
37.5151
40.2953
31.7177
46.9315
36.5976
43.3796
36.1227
36.9974
28.8478
43.4395
34.6012
41.2652
34.2567
39.4198
33.3075
34.1701
26.0961
41.1351
31.7326
39.3286
31.3483
32.8624
21.6985
43.5492
30.0748
34.2114
15.9946
54.655
31.8718
56.2282
34.4874
60.0824
36.9865
65.3886
40.3632
72.2261
45.5318
80.7808
53.5552
92.9981
68.7095
109.481
98.1148
95.3053
94.6528
94.4999
94.4656
64.1688
67.1294
44.7247
48.2918
46.2799
46.5655
45.6204
44.5738
44.6324
43.0358
43.8677
42.1928
44.4676
42.4221
42.6189
38.069
46.491
40.6642
44.9448
40.3619
43.8145
40.0096
43.3459
40.2738
44.5905
41.5119
45.6267
41.2557
43.3386
38.7422
38.251
34.0051
42.0361
38.2223
39.805
34.5504
44.2801
37.8933
41.7464
36.8836
36.3533
31.257
41.1209
35.8456
39.8166
35.3574
38.2161
34.0837
33.6195
28.6008
38.7846
33.1721
37.7082
32.4099
32.157
25.3063
40.1734
31.8238
32.9765
22.1271
49.0322
35.9856
51.9703
38.9948
55.7191
41.9596
60.6228
45.8134
66.9611
51.3339
75.0594
59.4891
86.8094
73.6809
103.135
97.1395
95.1149
94.6103
94.4898
94.4627
63.3386
64.0577
47.6523
48.5862
46.8569
46.7805
45.6788
44.896
44.4377
43.4101
43.5459
42.6247
44.102
42.9479
42.6156
40.0833
44.7605
41.5939
43.739
41.1761
42.8536
40.7401
42.5067
40.9571
43.9257
42.4311
44.8981
42.3314
42.2418
39.2527
37.7722
35.3993
40.6086
38.7143
39.589
36.7844
42.2741
38.7803
40.4627
37.472
35.8926
33.0686
39.4087
36.7209
38.706
36.1661
37.2927
34.7139
33.2518
30.4981
37.0667
34.2065
36.4818
33.2704
31.7161
28.046
37.727
33.1934
32.2223
26.75
45.0081
38.9386
48.8713
42.3146
52.5754
45.6362
57.1962
49.8255
63.1673
55.5622
70.9101
63.7076
82.2388
76.9491
98.2078
96.0054
94.8636
94.5523
94.476
94.4587
62.4795
61.6708
49.8863
48.9873
47.3681
47.0369
45.7248
45.2057
44.2662
43.7382
43.2668
42.961
43.8421
43.4412
42.7006
41.8096
43.3441
42.3117
42.7221
41.821
42.0448
41.3158
41.8007
41.4601
43.4399
43.1922
44.3712
43.3086
41.2615
39.7033
37.3295
36.4907
39.4657
39.0962
39.5207
38.6872
40.628
39.4607
39.3665
38.0045
35.4823
34.5142
38.0581
37.4099
37.7769
36.8287
36.5181
35.2999
32.9362
32.0231
35.7265
35.0358
35.4754
34.065
31.3604
30.2522
35.8495
34.4209
31.6486
30.4241
41.9575
41.2519
46.4322
44.962
50.12
48.5731
54.5271
53.0093
60.2116
58.8725
67.6629
66.8968
78.621
79.1553
94.2188
94.8288
94.5791
94.485
94.4598
94.4539
61.6526
59.7228
51.6849
49.4173
47.8279
47.3327
45.7392
45.5323
44.0784
44.0643
42.9812
43.25
43.6336
43.9483
42.7919
43.439
42.0307
42.9719
41.7577
42.4212
41.2743
41.8431
41.1279
41.8704
43.0435
43.8965
43.9343
44.3253
40.2617
40.1867
36.8257
37.4298
38.4568
39.4465
39.5028
40.4792
39.1065
40.0983
38.3211
38.5835
35.0099
35.7795
36.8753
38.0584
36.9005
37.4659
35.78
35.932
32.5628
33.3635
34.5621
35.8202
34.5432
34.9116
30.9409
32.1903
34.2533
35.7022
31.0132
33.588
39.3966
43.3298
44.2592
47.3444
47.9329
51.21
52.1568
55.8444
57.5976
61.7777
64.7981
69.5864
75.4509
80.7804
90.8079
93.6867
94.2884
94.4149
94.4429
94.449
60.903
58.0193
53.2528
49.8202
48.2439
47.6723
45.698
45.9087
43.8329
44.433
42.6415
43.5343
43.4277
44.5141
42.8109
45.1506
40.6231
43.7181
40.7181
43.0937
40.4351
42.4216
40.3966
42.2634
42.6596
44.6333
43.4831
45.5201
39.1023
40.8015
36.1631
38.3518
37.4492
39.8339
39.4481
42.365
37.4902
40.8466
37.194
39.3159
34.3637
37.0315
35.6889
38.8004
35.9551
38.1931
34.9681
36.7047
32.0225
34.6879
33.3953
36.7058
33.545
35.9316
30.3126
34.0957
32.6815
37.229
30.087
36.6224
36.9105
45.5279
41.9998
49.8265
45.6382
53.9401
49.6769
58.7569
54.8865
64.7292
61.8624
72.2329
72.3021
82.2176
87.6829
92.6356
94.0168
94.3487
94.4268
94.4443
60.2688
56.3913
54.7674
50.1488
48.6195
48.0678
45.5691
46.3763
43.48
44.897
42.194
43.8582
43.1737
45.1912
42.6678
47.1364
38.9103
44.7078
39.4631
43.9671
39.4096
43.1602
39.5093
42.7148
42.2123
45.4946
42.9039
47.0527
37.6178
41.6693
35.2269
39.3971
36.3097
40.3317
39.2607
44.562
35.5442
41.8748
35.8355
40.3307
33.4123
38.4436
34.3239
39.7802
34.8059
39.1383
33.9574
37.7338
31.1878
36.1702
32.0439
37.8498
32.3245
37.2715
29.3077
36.2086
30.8708
39.223
28.6134
39.9064
34.091
48.2114
39.286
52.789
42.8437
57.1725
46.663
62.1871
51.6267
68.1889
58.3972
75.2914
68.7595
83.8327
84.5784
91.7273
93.787
94.2927
94.4132
94.4403
59.79
54.6735
56.4018
50.3536
48.9557
48.5406
45.3075
46.9914
42.9539
45.5252
41.5713
44.2754
42.8111
46.0492
42.2444
49.6294
36.6358
46.1385
37.8174
45.2023
38.0511
44.1942
38.347
43.3139
41.6129
46.5901
42.0545
49.1279
35.5932
42.9561
33.8656
40.7319
34.8851
41.0325
38.8178
47.3311
32.9834
43.397
34.0548
41.8014
31.9821
40.2209
32.5752
41.1765
33.2837
40.4634
32.5877
39.175
29.8913
38.0161
30.2945
39.4464
30.6844
39.1271
27.7076
38.8104
28.5119
41.9748
26.2631
43.8741
30.4735
51.8162
35.6746
56.689
39.0778
61.3981
42.6075
66.6605
47.2818
72.7026
53.8643
79.2868
64.3525
86.0209
81.2178
91.0227
93.6195
94.2521
94.4033
94.4374
59.5162
52.6821
58.3474
50.3721
49.252
49.1256
44.8485
47.8347
42.1629
46.4137
40.6815
44.8587
42.2596
47.1882
41.3727
52.9367
33.4607
48.2813
35.5427
47.0181
36.1601
45.707
36.7513
44.1789
40.7456
48.0654
40.7399
52.0266
32.7318
44.9003
31.8651
42.5744
32.9798
42.067
37.9448
51.0137
29.4314
45.7086
31.5897
43.9738
29.8287
42.6327
30.1756
43.2317
31.1577
42.3898
30.6386
41.2502
27.8976
40.495
27.8693
41.7588
28.3553
41.7764
25.2058
42.2675
25.2018
45.8929
22.5792
49.0816
25.4656
56.9199
30.5764
62.1336
33.7142
67.2678
36.8379
72.8708
41.1446
78.9863
47.5608
84.8963
58.4813
89.2678
77.2728
90.6063
93.5305
94.2307
94.3981
94.4359
-64.5453
-56.2596
-60.8814
-50.0296
-49.8348
-47.1798
-44.2978
-45.1761
-40.8801
-43.3399
-38.7543
-41.5562
-39.0327
-42.3614
-37.7652
-45.4257
-29.4483
-41.5673
-30.4127
-42.156
-32.1962
-41.6866
-33.2531
-40.3409
-37.0794
-43.8202
-36.97
-47.1724
-29.6284
-40.4478
-28.8646
-38.1315
-29.3966
-37.2373
-33.5448
-45.4459
-25.0278
-40.5423
-26.8541
-39.3486
-25.0361
-38.5959
-25.0951
-39.7808
-26.682
-39.8731
-27.4214
-39.2309
-28.4414
-38.2472
-34.425
-46.7447
-26.8176
-40.2797
-35.2921
-50.5349
-26.6169
-42.9645
-37.7436
-54.0721
-41.0229
-69.7178
-23.0211
-57.9898
-26.9978
-59.2543
-29.2639
-63.0798
-30.8581
-68.8148
-33.8929
-77.3698
-47.2572
-89.6306
-86.586
-106.894
-111.716
-112.899
-113.184
-113.248
-64.877
-58.5305
-58.7134
-50.3773
-49.1583
-46.9172
-44.4173
-44.6372
-41.3539
-42.6906
-39.3879
-41.1019
-39.4639
-41.5567
-38.3947
-42.9983
-31.6953
-39.4053
-32.5875
-40.3897
-34.0505
-40.2449
-34.7888
-39.5353
-37.8968
-42.4656
-38.1841
-44.5557
-32.2182
-38.74
-30.6323
-36.5208
-31.0622
-36.3197
-34.2979
-41.9996
-28.3273
-38.2465
-29.2685
-37.1226
-27.2173
-35.9636
-27.6802
-37.4251
-29.0951
-37.7049
-29.6426
-37.3313
-30.4189
-37.0799
-35.4895
-43.5518
-29.9627
-38.8257
-36.6728
-46.6723
-30.4333
-41.2855
-39.4212
-50.8856
-43.7128
-62.2181
-30.2679
-52.4995
-32.5947
-53.7194
-34.7348
-57.0109
-36.76
-61.9556
-40.5303
-70.2777
-54.3927
-85.6377
-91.4609
-107.513
-111.861
-112.934
-113.192
-113.25
-65.4627
-60.5403
-56.8861
-50.44
-48.5219
-46.6643
-44.4272
-44.2375
-41.6419
-42.226
-39.82
-40.7809
-39.7449
-40.9612
-38.7126
-41.2062
-33.1808
-37.8235
-34.1765
-39.188
-35.4025
-39.2682
-35.9154
-38.9842
-38.4648
-41.4639
-38.971
-42.6864
-34.0527
-37.6164
-31.8392
-35.3629
-32.2982
-35.6921
-34.6609
-39.4072
-30.6821
-36.7054
-31.0085
-35.6059
-28.6513
-34.0113
-29.543
-35.7914
-30.8297
-36.2026
-31.2327
-36.0148
-31.8525
-36.2416
-36.1669
-41.2238
-32.2087
-37.8112
-37.5664
-43.8581
-33.1649
-40.1142
-40.5647
-48.4436
-45.3745
-56.7356
-35.3466
-48.6938
-36.5496
-49.7881
-38.5545
-52.6424
-40.8434
-56.9607
-45.1203
-65.0107
-59.6427
-82.6613
-95.9262
-108.599
-112.136
-113.002
-113.208
-113.253
-66.2456
-62.4996
-55.1704
-50.3212
-47.8826
-46.4258
-44.3545
-43.9333
-41.802
-41.8802
-40.1165
-40.5388
-39.935
-40.5035
-38.8399
-39.8339
-34.1587
-36.5723
-35.4183
-38.3372
-36.4475
-38.5794
-36.7842
-38.5757
-38.8912
-40.6811
-39.5088
-41.3102
-35.3984
-36.8655
-32.6732
-34.4676
-33.2748
-35.2407
-34.7919
-37.3527
-32.4461
-35.6323
-32.3359
-34.5503
-29.5918
-32.4512
-30.9763
-34.6051
-32.1498
-35.113
-32.4317
-35.055
-32.943
-35.581
-36.6382
-39.4579
-33.869
-37.0297
-38.1976
-41.7225
-35.19
-39.2019
-41.4102
-46.4386
-46.4582
-52.5623
-39.035
-45.907
-39.4885
-46.835
-41.3607
-49.3088
-43.8096
-53.0836
-48.4407
-60.7536
-63.7569
-80.0747
-100.415
-110.051
-112.517
-113.095
-113.229
-113.258
-67.1785
-64.6022
-53.3553
-50.1057
-47.2036
-46.2114
-44.2152
-43.6969
-41.8732
-41.6076
-40.3251
-40.3373
-40.0777
-40.1345
-38.8604
-38.7279
-34.8124
-35.4633
-36.4966
-37.6783
-37.3311
-38.0471
-37.509
-38.2257
-39.2581
-40.0162
-39.927
-40.2419
-36.4483
-36.3404
-33.2671
-33.6913
-34.1246
-34.8852
-34.802
-35.5963
-33.8857
-34.8179
-33.4421
-33.781
-30.2189
-31.0639
-32.2048
-33.6616
-33.2527
-34.2487
-33.418
-34.2841
-33.843
-34.983
-37.0383
-38.0276
-35.1788
-36.3274
-38.7339
-39.9885
-36.7928
-38.3613
-42.1423
-44.6335
-47.2979
-49.1737
-41.9069
-43.6512
-41.8763
-44.3942
-43.6296
-46.5127
-46.1846
-49.763
-51.0827
-56.8688
-67.3384
-77.3271
-105.331
-111.789
-112.974
-113.205
-113.254
-113.264
-68.2144
-67.0517
-51.2202
-49.8762
-46.4481
-46.037
-44.0166
-43.5126
-41.8818
-41.3754
-40.4817
-40.1465
-40.2075
-39.8185
-38.835
-37.7729
-35.2833
-34.3387
-37.5687
-37.0802
-38.1719
-37.5647
-38.1834
-37.8628
-39.6357
-39.3849
-40.3288
-39.3378
-37.3506
-35.9337
-33.7208
-32.9143
-34.961
-34.5633
-34.7767
-33.9399
-35.2194
-34.0955
-34.4796
-33.1676
-30.6696
-29.6645
-33.4205
-32.7924
-34.2991
-33.4571
-34.3362
-33.5652
-34.6795
-34.3481
-37.4809
-36.7507
-36.3285
-35.5745
-39.3161
-38.4324
-38.2048
-37.4319
-42.9258
-42.8212
-48.169
-46.1507
-44.4182
-41.5361
-44.0923
-42.0846
-45.7525
-43.8449
-48.4032
-46.5326
-53.5459
-52.7965
-70.9391
-73.8587
-111.11
-113.737
-113.469
-113.322
-113.281
-113.271
-69.2969
-70.0879
-48.5056
-49.73
-45.5719
-45.9271
-43.7575
-43.3735
-41.8456
-41.1589
-40.6161
-39.94
-40.3555
-39.5265
-38.8129
-36.8753
-35.6925
-33.0474
-38.7898
-36.4192
-39.0808
-37.0335
-38.8956
-37.4164
-40.0944
-38.706
-40.8082
-38.4737
-38.2303
-35.559
-34.1185
-32.0234
-35.8954
-34.2171
-34.7935
-32.199
-36.6494
-33.313
-35.5851
-32.6017
-31.0607
-28.0749
-34.8116
-31.8381
-35.4396
-32.5969
-35.3206
-32.7712
-35.574
-33.5748
-38.0781
-35.4617
-37.4916
-34.642
-40.0835
-36.8502
-39.6387
-36.252
-43.9334
-40.791
-49.3349
-43.1163
-46.9757
-39.2036
-46.4909
-39.5481
-48.0985
-40.9186
-50.8791
-42.9469
-56.3197
-47.9687
-75.1488
-69.0171
-118.273
-115.802
-113.959
-113.436
-113.306
-113.277
-70.3476
-74.0189
-44.8788
-49.7994
-44.5155
-45.9186
-43.4275
-43.2806
-41.7762
-40.9371
-40.7563
-39.6902
-40.5537
-39.2303
-38.8402
-35.9479
-36.1608
-31.421
-40.3359
-35.5574
-40.1787
-36.3464
-39.7419
-36.8041
-40.7163
-37.888
-41.4656
-37.5264
-39.2076
-35.1357
-34.5429
-30.8944
-37.0523
-33.7812
-34.9378
-30.1768
-38.3914
-32.3067
-36.9014
-31.9788
-31.5102
-26.0969
-36.5918
-30.6213
-36.8385
-31.5146
-36.5164
-31.7635
-36.6611
-32.542
-38.9607
-33.9873
-38.8504
-33.3784
-41.1984
-35.0276
-41.3202
-34.6299
-45.3745
-38.2939
-51.0918
-39.6794
-49.9989
-36.2692
-49.4592
-36.3922
-51.0741
-37.307
-54.071
-38.5093
-59.9627
-41.7198
-80.691
-61.9602
-127.506
-117.842
-114.397
-113.534
-113.328
-113.282
-71.2512
-79.2621
-39.8896
-50.2771
-43.1922
-46.0664
-43.0043
-43.2427
-41.681
-40.6897
-40.9327
-39.3641
-40.8402
-38.8976
-38.9684
-34.8971
-36.828
-29.2493
-42.4305
-34.3204
-41.6155
-35.371
-40.8424
-35.9188
-41.6086
-36.8146
-42.4245
-36.3552
-40.4158
-34.5739
-35.0904
-29.3739
-38.5873
-33.1691
-35.3197
-27.6365
-40.7063
-30.8741
-38.5992
-31.1785
-32.1583
-23.4834
-39.0314
-28.9179
-38.6999
-30.0201
-38.1033
-30.3707
-38.1098
-31.0886
-40.2998
-32.1203
-40.6234
-31.5839
-42.8737
-32.7074
-43.5218
-32.3112
-47.5294
-35.0024
-53.8178
-35.3739
-53.9847
-32.2587
-53.4785
-32.1271
-55.1883
-32.4747
-58.5564
-32.5916
-65.1939
-33.1826
-88.5417
-51.5325
-139.747
-119.633
-114.732
-113.606
-113.344
-113.286
-71.8342
-86.4006
-32.9101
-51.4543
-41.4711
-46.4525
-42.45
-43.2778
-41.5638
-40.3939
-41.1824
-38.9171
-41.2644
-38.4853
-39.2633
-33.6073
-37.8765
-26.2483
-45.3779
-32.4682
-43.5949
-33.9279
-42.3597
-34.6098
-42.9213
-35.3261
-43.8515
-34.7797
-42.0212
-33.7589
-35.8882
-27.2572
-40.7085
-32.2553
-36.0959
-24.2671
-43.9383
-28.7403
-40.9039
-30.0433
-33.1937
-19.9022
-42.4986
-26.4197
-41.3008
-27.8562
-40.3239
-28.3601
-40.1499
-28.9869
-42.3356
-29.5871
-43.0992
-28.9773
-45.4083
-29.5489
-46.6054
-28.9364
-50.7951
-30.4582
-58.0353
-29.5871
-59.585
-26.5312
-59.2014
-26.0863
-61.1342
-25.6914
-65.1243
-24.3317
-73.0101
-21.1509
-100.087
-36.0961
-156.322
-120.817
-114.916
-113.644
-113.352
-113.288
44.6906
50.9819
28.4906
36.6244
32.4416
33.9559
33.4901
29.6141
38.0081
31.8013
37.6222
32.7517
38.4251
33.8361
36.1785
27.3307
35.6218
19.02
46.2064
29.8948
42.3702
31.9581
39.9587
33.0269
36.0752
26.9133
35.327
19.2443
44.1333
29.561
35.224
22.1451
46.5218
30.8631
47.1259
31.0261
43.5011
28.5487
39.5679
28.8493
33.2312
15.101
46.7204
23.4089
40.6065
23.4096
37.0942
23.4606
28.7644
9.11407
50.4939
21.8037
47.8311
19.9688
43.6967
18.7792
41.5384
18.9833
28.5525
-6.39009
60.3202
16.5246
57.9841
19.8673
60.357
22.3467
64.9393
25.7388
71.1636
30.8756
79.2267
38.8804
91.7221
54.5561
100.267
41.9481
214.617
172.188
165.72
164.451
44.4392
47.94
31.4598
36.1041
33.228
34.0915
33.5719
31.0394
36.6781
32.7391
36.633
33.6063
37.5615
34.5539
35.6336
29.4383
33.8269
23.1354
42.0821
31.9348
40.0971
33.3411
38.4393
33.81
35.3841
29.0133
33.5068
23.0719
40.2483
30.8919
33.8364
25.658
43.1151
33.5859
44.4239
33.7227
40.7617
30.5909
37.3594
30.1115
32.2685
20.471
41.5607
26.4807
37.293
25.9254
34.4387
25.1136
27.3548
15.1537
44.8186
26.8066
42.7977
24.2851
39.2651
22.8884
37.3369
21.9664
26.0671
3.80708
50.4794
23.3495
50.934
26.6487
53.5734
29.4136
57.9219
33.1509
63.7967
38.5539
71.5522
46.7494
83.7275
61.4754
94.195
63.0026
192.928
170.75
165.513
164.4
44.048
45.6977
33.5846
35.8852
33.8656
34.2831
33.735
32.1387
35.7321
33.3647
35.9217
34.1828
36.9775
35.1092
35.3808
31.1239
32.6364
26.0666
39.1229
33.2437
38.422
34.2513
37.3104
34.3464
35.0122
30.68
32.2852
25.7966
37.426
31.7323
32.8952
28.147
40.7894
35.4955
42.5849
35.7112
38.7121
31.9571
35.713
30.999
31.8654
24.527
37.8492
28.5183
34.8681
27.6473
32.4981
26.3053
26.5243
19.52
41.0517
30.4506
39.1457
27.2629
36.0889
25.7659
34.3293
24.1717
24.6372
11.248
43.5916
27.9869
45.9598
31.3825
48.8339
34.3745
53.0364
38.3471
58.6661
43.9034
66.1906
52.1479
78.1027
66.1965
90.6806
77.6132
177.324
168.635
165.142
164.306
43.5912
44.0064
35.1332
35.8396
34.4064
34.5141
33.9408
33.0312
35.0253
33.7942
35.3832
34.5788
36.5809
35.58
35.3102
32.5797
31.7704
28.2139
36.9223
34.1115
37.122
34.8735
36.4236
34.7387
34.8414
32.1105
31.3886
27.7977
35.2979
32.2996
32.1917
29.9416
39.1824
36.911
41.3056
37.3059
37.054
32.904
34.4066
31.6646
31.7917
27.7579
35.045
29.9299
32.9873
28.8876
31.0004
27.2417
25.9838
22.746
38.5712
33.3239
36.3179
29.4133
33.6797
27.8888
32.0715
25.9531
23.7624
16.8605
38.6227
31.2821
42.2884
34.8361
45.3717
38.0114
49.4857
42.1436
54.9395
47.7716
62.2828
55.9471
73.9931
69.4626
88.6689
87.7133
166.057
166.313
164.665
164.179
43.118
42.6869
36.299
35.88
34.8859
34.7727
34.1606
33.8082
34.4482
34.1114
34.941
34.8632
36.3052
36.0222
35.3387
33.9594
31.015
29.8714
35.1832
34.7473
36.0332
35.3445
35.6669
35.0604
34.7847
33.4615
30.6076
29.3561
33.5906
32.7522
31.5747
31.2774
38.0368
38.0608
40.363
38.7516
35.5527
33.6257
33.2708
32.2162
31.8853
30.5367
32.7378
31.0153
31.3935
29.8801
29.7383
28.0788
25.5233
25.2103
36.9344
35.8683
33.8868
31.1176
31.6735
29.6134
30.2264
27.578
23.0767
21.3271
34.8185
33.8439
39.3558
37.5706
42.6258
40.8954
46.6882
45.1351
52.0119
50.773
59.2093
58.7714
70.787
71.7796
87.4641
94.6418
157.914
164.068
164.141
164.033
42.6621
41.6058
37.2262
35.9435
35.3303
35.0515
34.3701
34.5456
33.9104
34.3822
34.5353
35.0871
36.0987
36.4806
35.3953
35.402
30.1878
31.2709
33.6743
35.3144
35.0237
35.7753
34.9477
35.3691
34.7703
34.874
29.7628
30.6953
32.0865
33.2186
30.9229
32.3312
37.1609
39.1197
39.5773
40.2611
34.0009
34.2848
32.1633
32.7392
32.02
33.1739
30.5878
32.0171
29.8757
30.818
28.5372
28.952
24.9734
27.1933
35.8095
38.4495
31.4874
32.6892
29.7722
31.2313
28.512
29.2772
22.2812
25.1843
31.5932
36.1465
36.7154
40.0317
40.1516
43.4786
44.1846
47.7896
49.4091
53.3876
56.491
61.0978
68.0219
73.5091
86.5998
99.3267
152.056
162.066
163.626
163.883
42.2484
40.6575
38.0294
35.9802
35.7613
35.3463
34.5453
35.3153
33.3281
34.6656
34.1136
35.2923
35.9172
36.9976
35.408
37.0532
29.1086
32.6175
32.1958
35.9586
33.9722
36.2691
34.1783
35.7183
34.7275
36.4948
28.676
32.016
30.5925
33.822
30.1227
33.248
36.3996
40.2384
38.7823
42.048
32.187
35.0399
30.9477
33.3138
32.0794
35.9604
28.277
33.1614
28.2344
31.8846
27.2281
30.0008
24.1753
28.9203
34.9233
41.4146
28.7613
34.4253
27.6956
33.0162
26.658
31.2867
21.0895
28.901
28.4419
38.6082
33.9649
42.6205
37.5489
46.1665
41.5649
50.5234
46.7117
56.0371
53.7123
63.3314
65.3141
74.9344
85.7498
102.411
147.906
160.403
163.162
163.742
41.8983
39.7505
38.8092
35.9434
36.1997
35.6561
34.6572
36.1949
32.6123
35.0241
33.622
35.5192
35.7169
37.6208
35.2907
39.0873
27.5705
34.1205
30.5491
36.832
32.7488
36.9376
33.2629
36.1682
34.5736
38.4984
27.1421
33.5264
28.9117
34.7017
29.0487
34.163
35.6101
41.5682
37.7976
44.3593
29.8638
36.072
29.4731
34.0317
31.9335
39.2088
25.4627
34.6974
26.2492
33.2828
25.6211
31.3928
22.9537
30.5963
34.017
45.1448
25.3019
36.6565
25.1363
35.2677
24.364
33.8886
19.1769
32.948
24.865
41.6619
30.6819
45.7578
34.3982
49.3827
38.4024
53.7675
43.4885
59.1522
50.4556
65.8701
62.3005
76.3115
84.6657
104.342
145.076
159.128
162.785
163.625
41.6338
38.7949
39.6655
35.7812
36.6696
35.9835
34.6669
37.2785
31.6559
35.5343
32.9976
35.8132
35.4474
38.4124
34.9274
41.733
25.3088
36.0274
28.5072
38.119
31.1933
37.9197
32.0833
36.7969
34.1979
41.112
24.8974
35.4757
26.8135
36.0379
27.5428
35.2234
34.6389
43.2859
36.3985
47.5117
26.7113
37.6152
27.5509
35.0146
31.4115
43.2968
21.728
36.9396
23.6436
35.2677
23.4756
33.3521
21.0877
32.4401
32.8014
50.1128
20.5935
39.8017
21.7101
38.3596
21.2519
37.4592
16.1241
37.8684
20.2921
45.8258
26.3559
49.9519
30.1929
53.6368
34.1854
58.0368
39.2269
63.2411
46.2337
69.1675
58.5831
77.9142
83.128
105.43
143.313
158.268
162.52
163.54
41.4826
37.6905
40.7115
35.4274
37.2018
36.3354
34.5186
38.6906
30.3186
36.3001
32.1581
36.2334
35.0436
39.4609
34.1513
45.3067
21.96
38.6625
25.7787
40.0661
29.0904
39.4028
30.4803
37.7167
33.4403
44.6495
21.5796
38.1931
23.9984
38.0815
25.3885
36.613
33.2969
45.6235
34.2778
51.9392
22.2892
39.9957
24.9261
36.4387
30.2685
48.7215
16.5207
40.3207
20.0398
38.1879
20.4621
36.1958
18.2758
34.7222
30.9064
56.9528
13.9348
44.4378
16.8931
42.8007
16.8061
42.5303
11.3471
44.3605
13.9938
51.7889
20.3063
55.8793
24.2587
59.6059
28.2355
64.0117
33.2516
68.97
40.4135
73.8048
53.6683
80.081
80.9061
105.895
142.466
157.836
162.383
163.496
)
;

boundaryField
{
    F1_1
    {
        type            calculated;
        value           nonuniform List<scalar> 
80
(
320.149
-127.875
-121.404
-42.0929
-59.3792
-36.4076
-42.5259
-34.2812
-36.3826
-34.0238
-33.643
-34.1235
-33.5833
-36.5836
-32.5476
-43.8047
-23.0627
-38.4641
-26.2407
-38.1904
-27.1738
-37.1466
-28.0672
-35.4737
-31.5582
-38.6978
-29.88
-44.8409
-18.8145
-36.8856
-19.9859
-34.7789
-21.2891
-33.4302
-27.5695
-46.335
-13.6826
-37.7397
-17.1944
-35.5811
-15.2593
-33.9343
-14.7824
-33.7251
-16.2537
-32.113
-17.1638
-29.3859
-22.8815
-38.2424
-11.1381
-28.8056
-12.8647
-25.1304
-18.6155
-32.9384
-8.87512
-23.8032
-17.065
-31.013
-17.5649
-43.1293
-1.0236
-33.3882
-3.83746
-36.2285
-4.89266
-43.3139
-6.89992
-54.7471
-12.4065
-69.2335
-27.8722
-89.575
-51.8543
-110.392
-179.489
-208.708
-217.421
-219.568
)
;
    }
    F1_2
    {
        type            calculated;
        value           nonuniform List<scalar> 
80
(
59.4376
51.5932
59.4237
50.3259
49.3902
49.4514
44.5602
48.3253
41.6876
46.9371
40.1565
45.2025
41.9251
47.8428
40.7998
54.8382
31.5991
49.5704
34.2133
48.1031
35.0523
46.6098
35.8222
44.695
40.2282
48.919
39.9379
53.7227
31.0486
46.072
30.6736
43.6539
31.8792
42.6869
37.375
53.1324
27.3533
47.1049
30.1477
45.2717
28.5351
44.036
28.7748
44.4593
29.9101
43.5356
29.487
42.4791
26.6918
41.9315
26.4479
43.1322
26.9792
43.3405
23.6844
44.2625
23.2511
48.2037
20.3367
52.0747
22.5295
59.9299
27.5703
65.3298
30.5423
70.7077
33.4274
76.5103
37.5259
82.6739
43.8652
88.2016
55.094
91.2244
75.1086
90.4828
93.5075
94.2253
94.3967
94.4355
)
;
    }
    F1_3
    {
        type            calculated;
        value           nonuniform List<scalar> 
80
(
-64.4511
-55.0308
-62.0813
-49.7698
-50.1892
-47.3131
-44.2065
-45.487
-40.5882
-43.7204
-38.3774
-41.8245
-38.7709
-42.8268
-37.3546
-46.8299
-28.0972
-42.8293
-29.1445
-43.2113
-31.1151
-42.5495
-32.3611
-40.8234
-36.5929
-44.6053
-36.2301
-48.7047
-28.1056
-41.4791
-27.8128
-39.0775
-28.432
-37.7856
-33.0473
-47.428
-23.0907
-41.9209
-25.4401
-40.6755
-23.7213
-40.1236
-23.5799
-41.1789
-25.2673
-41.1604
-26.1181
-40.3593
-27.2877
-38.935
-33.7695
-48.6013
-24.975
-41.1468
-34.4472
-52.7819
-24.383
-43.9669
-36.7374
-55.8957
-39.3555
-74.0748
-18.7425
-61.2533
-23.6978