/*--------------------------------*- C++ -*----------------------------------*\
| =========                 |                                                 |
| \\      /  F ield         | OpenFOAM: The Open Source CFD Toolbox           |
|  \\    /   O peration     | Version:  5.x                                   |
|   \\  /    A nd           | Web:      www.OpenFOAM.org                      |
|    \\/     M anipulation  |                                                 |
\*---------------------------------------------------------------------------*/
FoamFile
{
    version     2.0;
    format      ascii;
    class       volScalarField;
    location    "1";
    object      gradTx;
}
// * * * * * * * * * * * * * * * * * * * * * * * * * * * * * * * * * * * * * //

dimensions      [0 -1 0 1 0 0 0];

internalField   nonuniform List<scalar> 
3200
(
190.587
213.355
58.7483
17.895
15.078
6.05507
5.31872
2.13381
1.83951
0.191854
0.049893
-0.541204
-0.667195
-2.3602
-2.77304
-9.47438
-9.6816
-6.86732
-6.69474
-5.86586
-5.76701
-4.81308
-4.68477
-2.87547
-2.86212
-4.5691
-4.96017
-11.6651
-11.8206
-8.40173
-8.23782
-7.57808
-7.44549
-4.69755
-5.02877
-14.9935
-15.2581
-10.9073
-10.6238
-9.6849
-9.69931
-10.4504
-10.4638
-9.29678
-9.14261
-7.775
-7.59314
-4.93317
-5.09011
-11.669
-11.7843
-8.15968
-7.88959
-4.84977
-4.95263
-10.5344
-10.5646
-5.39163
-5.34263
-8.27133
-8.85215
-18.9217
-19.2617
-16.1239
-16.1252
-17.593
-17.8945
-21.2614
-21.7327
-25.9595
-26.4085
-28.4265
-28.6703
-28.9341
-28.7758
-6.38173
-4.91582
-1.89659
-0.542974
193.079
207.624
177.576
62.7764
22.576
15.8948
7.40896
5.62932
2.63253
1.91939
0.405586
0.0578963
-0.553835
-0.850525
-2.30783
-3.2436
-8.78565
-9.26839
-7.07945
-6.69362
-5.92997
-5.69683
-4.8694
-4.58472
-3.15273
-3.11571
-4.45392
-5.32193
-10.8205
-11.168
-8.38867
-8.04698
-7.68732
-7.41524
-5.20241
-5.93391
-13.9928
-14.5831
-11.0958
-10.4341
-9.45325
-9.50516
-10.4322
-10.4901
-9.4034
-9.02994
-7.81859
-7.41956
-5.39226
-5.71888
-10.7532
-10.9902
-8.19817
-7.63285
-5.29915
-5.51429
-9.78241
-9.85925
-6.00566
-5.9445
-8.41525
-9.68425
-17.6568
-18.4267
-16.2797
-16.3506
-17.7452
-18.4805
-21.578
-22.7258
-26.6613
-27.7944
-30.0441
-30.7037
-31.3492
-31.747
-18.3081
-14.8096
-5.62315
-1.59219
236.795
222.527
148.52
63.8206
25.9164
16.7838
8.49465
5.98864
3.03993
2.03132
0.572689
0.0764723
-0.579059
-0.98742
-2.27631
-3.52991
-8.29928
-8.96204
-7.21945
-6.70762
-5.97286
-5.65042
-4.904
-4.53056
-3.37419
-3.31429
-4.35755
-5.49846
-10.1819
-10.6405
-8.2781
-7.85685
-7.79305
-7.46261
-5.5895
-6.54595
-13.2909
-14.0713
-11.1713
-10.2573
-9.1803
-9.276
-10.4488
-10.5622
-9.48149
-8.95079
-7.8297
-7.31112
-5.75719
-6.15936
-10.0293
-10.3173
-8.14759
-7.44687
-5.64658
-5.91383
-9.1981
-9.3111
-6.46801
-6.44513
-8.60726
-10.2482
-16.68
-17.7085
-16.3468
-16.523
-17.9238
-18.972
-21.9726
-23.6075
-27.4752
-29.1357
-31.7253
-32.7377
-33.7743
-35.2717
-29.8368
-24.9309
-9.1435
-2.53128
280.564
235.4
124.883
62.9931
28.106
17.6392
9.34909
6.36572
3.36976
2.16127
0.701316
0.101439
-0.614154
-1.08908
-2.24619
-3.67556
-7.97715
-8.75188
-7.3102
-6.73053
-5.99924
-5.62096
-4.92368
-4.50771
-3.55178
-3.46874
-4.25726
-5.53328
-9.71237
-10.2259
-8.08988
-7.65242
-7.90944
-7.57168
-5.8634
-6.92644
-12.8275
-13.7068
-11.1673
-10.0869
-8.86044
-9.00376
-10.5078
-10.682
-9.53759
-8.89527
-7.81671
-7.2441
-6.0439
-6.46113
-9.44867
-9.74274
-8.03827
-7.30488
-5.91133
-6.19272
-8.74066
-8.88121
-6.81758
-6.85839
-8.82016
-10.6206
-15.9194
-17.0859
-16.3526
-16.6466
-18.1166
-19.3855
-22.4219
-24.4
-28.3776
-30.44
-33.4698
-34.7709
-36.1811
-39.0738
-41.3445
-35.4875
-12.2968
-3.28731
324.414
246.361
105.635
61.0857
29.319
18.4077
9.99136
6.74338
3.62815
2.30133
0.795569
0.131057
-0.658855
-1.16343
-2.20516
-3.7063
-7.79608
-8.63037
-7.36647
-6.75948
-6.0115
-5.60425
-4.9321
-4.50646
-3.69445
-3.58831
-4.13745
-5.45196
-9.38942
-9.91721
-7.83371
-7.42021
-8.04962
-7.73557
-6.02645
-7.11341
-12.565
-13.4789
-11.1049
-9.92242
-8.4858
-8.6771
-10.62
-10.8546
-9.57361
-8.8572
-7.78351
-7.2022
-6.26593
-6.66011
-8.97582
-9.24812
-7.89013
-7.18933
-6.10911
-6.38097
-8.37956
-8.53953
-7.08302
-7.19485
-9.03957
-10.8532
-15.3241
-16.5394
-16.3173
-16.7232
-18.3176
-19.7284
-22.9137
-25.1126
-29.3567
-31.7057
-35.2836
-36.7998
-38.5288
-42.9008
-53.1774
-46.7376
-14.8829
-3.78907
368.373
255.519
89.9704
58.667
29.6979
19.0765
10.427
7.11582
3.81506
2.44858
0.856204
0.165716
-0.714946
-1.21627
-2.14572
-3.63347
-7.7452
-8.59276
-7.39644
-6.79407
-6.01012
-5.59813
-4.93065
-4.52065
-3.80888
-3.68166
-3.98702
-5.26572
-9.20283
-9.71297
-7.51074
-7.14627
-8.22753
-7.95526
-6.07764
-7.12578
-12.484
-13.3826
-10.9949
-9.7681
-8.04605
-8.28038
-10.8005
-11.0879
-9.58706
-8.83345
-7.73062
-7.17452
-6.43475
-6.78225
-8.58472
-8.81873
-7.71573
-7.08898
-6.25284
-6.50018
-8.09203
-8.26254
-7.28576
-7.46205
-9.26028
-10.9795
-14.8592
-16.0504
-16.257
-16.7524
-18.526
-20.0004
-23.4451
-25.7436
-30.4119
-32.9225
-37.18
-38.8205
-40.7709
-46.4919
-65.6791
-59.0043
-16.6385
-3.96994
412.455
262.967
77.269
56.1552
29.3431
19.6666
10.6492
7.48791
3.92466
2.60491
0.880794
0.208007
-0.786188
-1.25196
-2.06392
-3.45565
-7.82487
-8.63689
-7.40263
-6.83591
-5.99386
-5.60223
-4.9189
-4.5469
-3.89992
-3.7577
-3.79764
-4.97312
-9.15332
-9.61721
-7.11424
-6.8145
-8.45957
-8.23915
-6.01179
-6.96574
-12.5814
-13.4177
-10.8385
-9.63358
-7.52805
-7.79224
-11.0703
-11.3927
-9.57064
-8.82367
-7.65588
-7.1542
-6.5601
-6.8462
-8.25638
-8.44285
-7.5223
-6.99703
-6.35325
-6.56565
-7.86139
-8.03149
-7.44243
-7.66442
-9.48421
-11.0194
-14.5018
-15.601
-16.1852
-16.7306
-18.7465
-20.1938
-24.0225
-26.28
-31.5534
-34.0696
-39.1814
-40.829
-42.8623
-49.5444
-79.2153
-72.6986
-17.2063
-3.77355
456.669
268.757
67.0691
53.8714
28.303
20.2305
10.6373
7.87615
3.94457
2.77745
0.863358
0.263178
-0.878547
-1.27378
-1.95891
-3.15871
-8.04679
-8.76284
-7.38211
-6.88875
-5.95957
-5.61798
-4.89468
-4.58415
-3.97076
-3.82644
-3.56283
-4.56032
-9.25244
-9.64012
-6.62961
-6.40493
-8.76623
-8.60331
-5.81868
-6.61923
-12.8699
-13.5895
-10.6271
-9.5351
-6.91526
-7.18355
-11.4584
-11.7833
-9.51122
-8.83075
-7.55451
-7.13759
-6.65025
-6.86521
-7.97701
-8.11127
-7.31308
-6.90984
-6.41945
-6.58781
-7.67581
-7.83084
-7.56669
-7.80293
-9.71958
-10.9816
-14.2399
-15.1722
-16.1151
-16.6501
-18.9898
-20.2921
-24.6629
-26.6958
-32.8055
-35.113
-41.3214
-42.8222
-44.768
-51.6775
-94.1991
-88.352
-16.0916
-3.16372
501.008
272.893
59.0516
52.0827
26.5632
20.8553
10.3522
8.31127
3.85393
2.9799
0.793388
0.340028
-1.00075
-1.28399
-1.8333
-2.71421
-8.43559
-8.97266
-7.32609
-6.95902
-5.90177
-5.649
-4.85396
-4.63351
-4.02283
-3.89995
-3.27756
-3.99972
-9.52373
-9.79895
-6.03353
-5.89191
-9.17385
-9.07233
-5.48216
-6.05471
-13.3797
-13.9085
-10.3409
-9.49774
-6.18696
-6.41459
-12.0044
-12.2777
-9.38815
-8.86166
-7.41878
-7.1238
-6.71233
-6.84836
-7.73676
-7.817
-7.08809
-6.82616
-6.45931
-6.57321
-7.52757
-7.64698
-7.67097
-7.87427
-9.98118
-10.8639
-14.0711
-14.7431
-16.0614
-16.4975
-19.2748
-20.2677
-25.3968
-26.9487
-34.2097
-36.0006
-43.65
-44.7977
-46.4752
-52.3863
-111.118
-106.662
-12.6035
-2.14138
545.453
275.306
53.0359
51.036
24.031
21.6719
9.72865
8.84307
3.61999
3.23487
0.654105
0.452386
-1.16524
-1.28355
-1.69441
-2.07609
-9.03174
-9.26981
-7.21888
-7.05689
-5.81179
-5.70171
-4.79024
-4.69848
-4.05538
-3.99343
-2.93851
-3.24704
-10.005
-10.1194
-5.29251
-5.24195
-9.71681
-9.6809
-4.97913
-5.22008
-14.1614
-14.3914
-9.94566
-9.55909
-5.31712
-5.43116
-12.7631
-12.8987
-9.17057
-8.92924
-7.23714
-7.11469
-6.75251
-6.80142
-7.52884
-7.5551
-6.84442
-6.74669
-6.47996
-6.52501
-7.41275
-7.46696
-7.7681
-7.86948
-10.2918
-10.6534
-14.0037
-14.2882
-16.043
-16.2512
-19.6311
-20.0779
-26.274
-26.9734
-35.8329
-36.6538
-46.2387
-46.7522
-48.0131
-50.9822
-130.564
-128.556
-5.77165
-0.771845
589.969
491.609
17.5163
17.6293
3.14691
2.40402
0.035873
-0.160085
-1.44571
-1.54196
-2.22207
-2.27326
-2.94177
-2.9792
-2.79302
-3.17978
-10.9687
-11.184
-7.7907
-7.5687
-6.27968
-6.17222
-5.50605
-5.44004
-5.25411
-5.27019
-5.90324
-6.00301
-6.42378
-6.36863
-3.99979
-4.06786
-8.91817
-8.91302
-4.48939
-4.67849
-12.5089
-12.6707
-7.93623
-7.59207
-4.47227
-4.60085
-11.1574
-11.2558
-7.31391
-7.09928
-5.98342
-5.86858
-4.11792
-4.34634
-11.4506
-11.6059
-8.15233
-7.93927
-5.58466
-5.94046
-16.3886
-16.5912
-9.74675
-10.2468
-27.9143
-28.4261
-22.4061
-22.2267
-23.0445
-23.1795
-25.1459
-25.3448
-27.5997
-27.7837
-29.6554
-29.7571
-30.9333
-30.7478
-27.8785
-26.5527
-1.36548
-0.213471
-0.0465275
-0.0106842
259.198
505.484
14.8436
15.0992
3.82537
2.2113
0.0651618
-0.392243
-1.49529
-1.71309
-2.2733
-2.37703
-2.86235
-2.95832
-3.02874
-3.91586
-10.2537
-10.7413
-8.06297
-7.5665
-6.44108
-6.18834
-5.57732
-5.4081
-5.14896
-5.18058
-5.78214
-6.04728
-6.6099
-6.51798
-4.62217
-4.73257
-8.33963
-8.30669
-4.93014
-5.37629
-11.7258
-12.1002
-8.35148
-7.60565
-5.16448
-5.42306
-10.4173
-10.6158
-7.58282
-7.12406
-6.18202
-5.94298
-4.67798
-5.16736
-10.6511
-10.9835
-8.37663
-7.95272
-6.28018
-7.05229
-15.1673
-15.647
-10.7996
-11.9069
-25.618
-26.7282
-22.3298
-21.9853
-22.6519
-22.9562
-24.5914
-25.0353
-26.8869
-27.2885
-28.774
-28.9653
-29.6871
-29.1834
-26.2301
-23.2687
-3.13502
-0.601011
-0.134339
-0.0309683
240.301
518.828
12.6919
13.0303
4.11752
2.03992
0.0269371
-0.598558
-1.58027
-1.87053
-2.34279
-2.46553
-2.79849
-2.93847
-3.23179
-4.43391
-9.77279
-10.4252
-8.24796
-7.58946
-6.56757
-6.21878
-5.63091
-5.37976
-5.03217
-5.06818
-5.6745
-6.07965
-6.8222
-6.73948
-5.1643
-5.25741
-7.90668
-7.8341
-5.21797
-5.83796
-11.1817
-11.6947
-8.64662
-7.68704
-5.7487
-6.05584
-9.86896
-10.1051
-7.74876
-7.16818
-6.35251
-6.05841
-5.16787
-5.78861
-10.0576
-10.4787
-8.51362
-8.01613
-6.87791
-7.87041
-14.2513
-14.916
-11.6143
-13.0629
-23.8256
-25.2506
-22.0914
-21.7035
-22.2737
-22.6797
-24.0846
-24.6695
-26.2322
-26.7499
-27.9444
-28.1524
-28.4899
-27.7169
-24.582
-20.6716
-4.20059
-0.905862
-0.207621
-0.0481304
221.405
531.744
10.9548
11.3316
4.1364
1.86604
-0.0667318
-0.790596
-1.69289
-2.02068
-2.42625
-2.54562
-2.74235
-2.91247
-3.39849
-4.78647
-9.47931
-10.2223
-8.3722
-7.62695
-6.66715
-6.25879
-5.67104
-5.35528
-4.90004
-4.93296
-5.5749
-6.09852
-7.06751
-7.02068
-5.63969
-5.68
-7.5826
-7.46324
-5.37636
-6.11067
-10.8308
-11.4317
-8.85821
-7.80759
-6.24311
-6.54838
-9.46374
-9.69812
-7.84368
-7.22171
-6.50213
-6.19771
-5.5973
-6.26394
-9.61804
-10.0692
-8.59192
-8.10518
-7.39042
-8.47301
-13.564
-14.3435
-12.239
-13.8463
-22.4068
-23.9565
-21.7422
-21.3835
-21.9021
-22.3632
-23.6107
-24.2645
-25.6193
-26.1844
-27.1544
-27.3343
-27.3371
-26.345
-22.9649
-18.577
-4.73912
-1.10686
-0.259355
-0.0604862
202.51
544.308
9.55464
9.93601
3.95845
1.67879
-0.208689
-0.975463
-1.82848
-2.16772
-2.52115
-2.62261
-2.68726
-2.87383
-3.52908
-5.00683
-9.34381
-10.1231
-8.45224
-7.67303
-6.74466
-6.30597
-5.70028
-5.33637
-4.74838
-4.77338
-5.48003
-6.09957
-7.35345
-7.35524
-6.05822
-6.02809
-7.3394
-7.17108
-5.4219
-6.22395
-10.6446
-11.2956
-9.0089
-7.94869
-6.66272
-6.93652
-9.16575
-9.37466
-7.8893
-7.27915
-6.63516
-6.34885
-5.97606
-6.63176
-9.2946
-9.73699
-8.6306
-8.20335
-7.83105
-8.91528
-13.0491
-13.8865
-12.7152
-14.3516
-21.2685
-22.8129
-21.3188
-21.0283
-21.5329
-22.0154
-23.1605
-23.8316
-25.038
-25.6026
-26.3959
-26.5233
-26.2241
-25.0686
-21.3882
-16.8603
-4.86944
-1.19647
-0.285147
-0.0668634
183.618
556.574
8.43611
8.79493
3.63277
1.47597
-0.3954
-1.15684
-1.98461
-2.31417
-2.62613
-2.70107
-2.6273
-2.81643
-3.62677
-5.1128
-9.35061
-10.1219
-8.49662
-7.72508
-6.8026
-6.35984
-5.71986
-5.32642
-4.57219
-4.58653
-5.38864
-6.07525
-7.68947
-7.74174
-6.42607
-6.32251
-7.15537
-6.94215
-5.36537
-6.19247
-10.6093
-11.277
-9.11053
-8.09883
-7.01995
-7.24644
-8.94858
-9.11898
-7.89992
-7.33795
-6.75389
-6.50346
-6.31368
-6.91931
-9.05999
-9.46669
-8.64212
-8.29935
-8.21343
-9.23558
-12.6661
-13.5098
-13.0792
-14.6456
-20.3451
-21.7909
-20.8473
-20.6414
-21.1645
-21.641
-22.7293
-23.3773
-24.4824
-25.0117
-25.6641
-25.7295
-25.1455
-23.8933
-19.8453
-15.4423
-4.66705
-1.17563
-0.283221
-0.0666928
164.727
568.583
7.5611
7.8749
3.18705
1.26186
-0.626436
-1.33554
-2.16064
-2.46133
-2.74058
-2.78547
-2.5568
-2.73416
-3.69741
-5.10868
-9.49606
-10.2165
-8.50684
-7.78316
-6.84134
-6.4216
-5.72957
-5.33091
-4.36526
-4.36816
-5.30187
-6.01381
-8.08797
-8.18296
-6.74544
-6.57947
-7.01317
-6.76775
-5.21268
-6.0174
-10.7239
-11.3717
-9.16597
-8.25165
-7.32496
-7.49733
-8.79267
-8.91888
-7.88426
-7.39764
-6.85928
-6.65565
-6.61948
-7.14546
-8.89474
-9.24566
-8.63439
-8.38507
-8.5515
-9.45955
-12.3867
-13.1841
-13.3633
-14.7744
-19.5918
-20.8645
-20.3463
-20.2254
-20.7981
-21.2423
-22.3157
-22.9047
-23.9498
-24.416
-24.9558
-24.9616
-24.0936
-22.8298
-18.3168
-14.2791
-4.17332
-1.05083
-0.254264
-0.0600381
145.839
580.359
6.90608
7.15511
2.63099
1.04639
-0.904576
-1.50956
-2.35764
-2.60933
-2.8644
-2.88081
-2.47006
-2.62046
-3.75012
-4.98551
-9.78817
-10.4084
-8.47762
-7.84997
-6.8592
-6.49424
-5.72754
-5.35807
-4.11959
-4.11255
-5.22396
-5.89788
-8.56562
-8.68547
-7.01393
-6.81244
-6.89813
-6.64574
-4.9656
-5.68625
-11.0009
-11.5806
-9.16976
-8.40498
-7.586
-7.7033
-8.68354
-8.76521
-7.84669
-7.45941
-6.95128
-6.80114
-6.9028
-7.32267
-8.78544
-9.06311
-8.61218
-8.45418
-8.85992
-9.60277
-12.1924
-12.8831
-13.5981
-14.767
-18.9804
-20.0098
-19.8294
-19.7817
-20.4368
-20.8183
-21.9215
-22.4139
-23.4404
-23.8173
-24.2689
-24.2287
-23.0575
-21.8964
-16.7692
-13.3587
-3.40028
-0.833007
-0.201215
-0.0475734
126.953
591.915
6.46082
6.62638
1.95747
0.845662
-1.23651
-1.67383
-2.57848
-2.75719
-2.99777
-2.99323
-2.36087
-2.46757
-3.79859
-4.71964
-10.2476
-10.7022
-8.39628
-7.93131
-6.85204
-6.58296
-5.70963
-5.41999
-3.82465
-3.8122
-5.16354
-5.7022
-9.14519
-9.25964
-7.22362
-7.03391
-6.79662
-6.58082
-4.62247
-5.17134
-11.4672
-11.9092
-9.10771
-8.56047
-7.8096
-7.87476
-8.61034
-8.65156
-7.78787
-7.52601
-7.02897
-6.93656
-7.1734
-7.45817
-8.72354
-8.90972
-8.57827
-8.50075
-9.15486
-9.67213
-12.074
-12.5812
-13.8147
-14.6377
-18.4963
-19.2035
-19.3073
-19.3099
-20.0866
-20.3656
-21.5518
-21.9018
-22.9571
-23.2156
-23.6017
-23.5411
-22.0211
-21.1216
-15.153
-12.7002
-2.3316
-0.537766
-0.129043
-0.0305148
108.069
603.251
6.22846
6.29113
1.14175
0.683798
-1.63421
-1.8194
-2.82835
-2.90257
-3.14094
-3.13076
-2.22211
-2.2657
-3.86345
-4.26948
-10.9099
-11.1065
-8.2413
-8.03721
-6.81246
-6.69585
-5.66837
-5.53413
-3.4664
-3.4573
-5.13564
-5.39034
-9.85789
-9.91982
-7.35945
-7.25729
-6.69423
-6.5856
-4.17906
-4.42654
-12.1677
-12.3675
-8.95549
-8.7241
-8.00055
-8.0194
-8.56492
-8.5741
-7.70498
-7.60203
-7.09048
-7.05881
-7.44208
-7.55446
-8.70481
-8.77704
-8.53421
-8.51805
-9.45527
-9.66611
-12.0315
-12.2502
-14.0478
-14.3871
-18.1383
-18.4214
-18.7892
-18.8071
-19.7562
-19.8765
-21.2156
-21.3615
-22.5056
-22.6089
-22.9524
-22.9118
-20.9599
-20.5496
-13.3961
-12.3583
-0.919941
-0.187124
-0.0444635
-0.0105102
89.1851
597.172
7.08582
7.23038
2.53054
2.05878
-0.377937
-0.585768
-1.68144
-1.77403
-2.21471
-2.23046
-1.68533
-1.71577
-2.73103
-3.002
-7.96693
-8.22977
-7.78193
-7.74867
-6.68198
-6.55036
-5.45629
-5.30769
-3.25774
-3.23524
-4.72499
-4.9481
-8.90743
-8.95238
-6.49243
-6.38699
-5.85529
-5.75973
-3.6755
-3.92685
-11.3471
-11.5696
-8.77451
-8.59477
-8.15699
-8.21533
-9.27713
-9.33696
-8.74913
-8.66383
-8.02442
-7.94183
-7.06457
-6.93488
-4.60242
-4.76164
-10.7646
-10.8316
-5.95106
-6.0592
-13.0669
-13.1293
-6.96935
-6.94807
-11.0324
-11.8104
-25.2554
-25.645
-20.5672
-20.3825
-20.1761
-20.266
-21.8406
-22.0833
-24.5644
-24.8679
-25.7462
-25.612
-16.5672
-15.2608
-1.38449
-0.308692
-0.0751763
-0.0178553
62.9658
584.96
7.58162
7.95028
3.55066
2.38307
0.131196
-0.367636
-1.35973
-1.58344
-2.01063
-2.0633
-1.70166
-1.7766
-2.61917
-3.21455
-7.22927
-7.85813
-7.87008
-7.82821
-6.84163
-6.52267
-5.54307
-5.21114
-3.59982
-3.55293
-4.73938
-5.2086
-8.25156
-8.33002
-6.36896
-6.16389
-5.89977
-5.71008
-4.04361
-4.60434
-10.6394
-11.1396
-8.90483
-8.48056
-7.96527
-8.12
-9.30307
-9.4684
-8.89777
-8.68415
-8.08723
-7.8935
-7.15162
-6.88056
-5.15094
-5.49452
-10.1226
-10.2841
-6.69874
-6.94673
-12.3383
-12.4967
-7.95925
-7.97672
-11.4265
-13.1217
-23.7164
-24.5816
-20.867
-20.5094
-20.3968
-20.6188
-22.0266
-22.612
-24.9115
-25.712
-27.1028
-27.0163
-20.3453
-17.2385
-3.64143
-0.892376
-0.218477
-0.0518583
85.6093
572.491
8.31853
8.861
4.44158
2.7508
0.570246
-0.129752
-1.06875
-1.38472
-1.82152
-1.91272
-1.70052
-1.80672
-2.51719
-3.29033
-6.62705
-7.51117
-7.96038
-7.94554
-6.97458
-6.52141
-5.60395
-5.16577
-3.87933
-3.82129
-4.78245
-5.36614
-7.71426
-7.78924
-6.17525
-5.94314
-5.94126
-5.71951
-4.32263
-5.06285
-10.153
-10.8189
-8.96274
-8.36999
-7.74674
-7.98353
-9.36971
-9.62927
-9.03212
-8.7198
-8.13391
-7.86711
-7.21984
-6.88459
-5.61654
-6.05601
-9.65927
-9.88642
-7.29308
-7.62852
-11.819
-12.052
-8.76694
-8.86809
-11.8907
-14.0769
-22.5665
-23.7013
-21.0326
-20.6265
-20.6041
-20.9243
-22.2456
-23.0722
-25.3185
-26.5324
-28.5186
-28.684
-23.9808
-19.6358
-5.46442
-1.39303
-0.341473
-0.0809006
108.254
559.759
9.29695
9.97034
5.22349
3.13822
0.950137
0.117723
-0.802671
-1.18115
-1.64624
-1.77427
-1.68665
-1.81266
-2.4127
-3.26355
-6.12292
-7.18159
-8.06924
-8.10111
-7.08682
-6.53873
-5.64565
-5.15433
-4.1097
-4.04888
-4.84063
-5.4531
-7.26789
-7.31601
-5.92627
-5.71318
-5.99155
-5.77593
-4.51616
-5.34736
-9.8436
-10.5992
-8.97011
-8.26064
-7.49381
-7.80108
-9.48142
-9.82442
-9.15509
-8.7664
-8.16783
-7.85594
-7.27558
-6.92594
-6.01384
-6.49096
-9.33097
-9.60157
-7.77028
-8.15611
-11.458
-11.748
-9.4392
-9.6426
-12.3884
-14.7801
-21.7108
-22.9732
-21.1077
-20.7282
-20.7978
-21.1897
-22.4844
-23.4757
-25.7668
-27.322
-30.0073
-30.5464
-27.602
-22.4261
-6.88336
-1.77285
-0.432814
-0.102191
130.901
546.742
10.5336
11.2967
5.89912
3.52988
1.27588
0.368755
-0.558252
-0.974116
-1.48443
-1.64444
-1.66422
-1.79964
-2.29816
-3.15642
-5.6908
-6.85885
-8.21232
-8.29852
-7.18042
-6.56985
-5.67129
-5.16503
-4.30072
-4.24237
-4.90597
-5.49196
-6.89219
-6.9003
-5.63021
-5.46356
-6.0616
-5.87412
-4.62604
-5.48526
-9.68383
-10.4749
-8.94069
-8.15359
-7.19792
-7.56371
-9.64662
-10.06
-9.26683
-8.82139
-8.19029
-7.8555
-7.3221
-6.98978
-6.35557
-6.83139
-9.10544
-9.4008
-8.15879
-8.56706
-11.2175
-11.5479
-10.011
-10.3154
-12.9003
-15.3017
-21.0818
-22.3702
-21.1233
-20.8121
-20.9786
-21.419
-22.7354
-23.8272
-26.2447
-28.0664
-31.5819
-32.5482
-31.3124
-25.631
-7.88494
-2.0018
-0.483759
-0.113644
153.552
533.403
12.0616
12.8696
6.45382
3.91708
1.54782
0.620625
-0.33426
-0.763291
-1.33663
-1.52021
-1.63716
-1.77209
-2.16923
-2.98223
-5.31332
-6.52868
-8.40608
-8.5441
-7.25372
-6.61249
-5.68124
-5.19005
-4.4595
-4.40698
-4.97441
-5.49825
-6.57216
-6.53571
-5.29002
-5.18335
-6.16306
-6.01472
-4.65163
-5.48958
-9.66035
-10.4435
-8.88139
-8.05328
-6.84917
-7.25766
-9.87859
-10.3439
-9.36466
-8.88382
-8.2009
-7.86302
-7.36057
-7.06571
-6.6529
-7.09989
-8.95906
-9.26152
-8.4813
-8.88834
-11.0697
-11.4225
-10.5091
-10.8971
-13.4195
-15.6881
-20.6326
-21.8687
-21.1015
-20.8768
-21.1484
-21.6134
-22.9954
-24.1258
-26.7464
-28.7431
-33.2585
-34.6381
-35.2006
-29.3185
-8.41193
-2.05609
-0.488768
-0.114068
176.205
519.689
13.9324
14.7318
6.85355
4.29772
1.76217
0.873643
-0.131283
-0.546685
-1.20441
-1.39865
-1.60938
-1.73405
-2.02365
-2.7473
-4.98047
-6.17201
-8.66941
-8.84682
-7.30105
-6.66674
-5.6736
-5.22465
-4.59117
-4.54679
-5.0446
-5.48254
-6.29655
-6.21949
-4.90426
-4.85968
-6.30963
-6.20391
-4.58917
-5.36058
-9.77238
-10.506
-8.79274
-7.96801
-6.43592
-6.8631
-10.1968
-10.6856
-9.44256
-8.95433
-8.19771
-7.87713
-7.39075
-7.14635
-6.91584
-7.31191
-8.87496
-9.16556
-8.75632
-9.13864
-10.9952
-11.3478
-10.9552
-11.3933
-13.9489
-15.9676
-20.3317
-21.4473
-21.0581
-20.9218
-21.3106
-21.7711
-23.2655
-24.3647
-27.2732
-29.3192
-35.0605
-36.7606
-39.3466
-33.6068
-8.35682
-1.91878
-0.446057
-0.103304
198.862
505.526
16.2198
16.9412
7.04056
4.67767
1.9107
1.13135
0.0481295
-0.320378
-1.09073
-1.27642
-1.58504
-1.6894
-1.86071
-2.45199
-4.68926
-5.7631
-9.02553
-9.21847
-7.31193
-6.73534
-5.64419
-5.26663
-4.69927
-4.66491
-5.11717
-5.45178
-6.05658
-5.95279
-4.46767
-4.47623
-6.51843
-6.45345
-4.43126
-5.08596
-10.0315
-10.6663
-8.66853
-7.91103
-5.9443
-6.35228
-10.6288
-11.0966
-9.49027
-9.03558
-8.17709
-7.89787
-7.41125
-7.22644
-7.15372
-7.47726
-8.84175
-9.09759
-8.99968
-9.32997
-10.9808
-11.3029
-11.368
-11.8049
-14.4998
-16.1532
-20.1608
-21.0862
-21.0046
-20.9457
-21.4699
-21.8875
-23.5515
-24.5314
-27.8346
-29.7475
-37.0243
-38.8478
-43.8255
-38.6755
-7.54916
-1.58282
-0.358135
-0.0822781
221.522
490.815
19.0262
19.5757
6.9262
5.07388
1.97979
1.40124
0.198965
-0.0779911
-1.00043
-1.14928
-1.56887
-1.64206
-1.68095
-2.09082
-4.44458
-5.26664
-9.50443
-9.67409
-7.26961
-6.82454
-5.58624
-5.3162
-4.78604
-4.76356
-5.19446
-5.41022
-5.84495
-5.74134
-3.97132
-4.01142
-6.81151
-6.78128
-4.16627
-4.6397
-10.4631
-10.932
-8.49472
-7.90243
-5.35769
-5.68672
-11.2131
-11.5905
-9.49191
-9.13299
-8.1333
-7.92692
-7.41969
-7.30205
-7.37575
-7.60097
-8.8529
-9.04377
-9.22592
-9.46849
-11.0196
-11.2682
-11.766
-12.1261
-15.0924
-16.2447
-20.1131
-20.7653
-20.9502
-20.9464
-21.6336
-21.954
-23.8649
-24.6052
-28.4516
-29.9613
-39.2062
-40.8087
-48.7095
-44.7831
-5.73505
-1.05715
-0.232253
-0.0529736
244.184
475.423
22.4922
22.7382
6.38004
5.51981
1.94828
1.6961
0.312796
0.190218
-0.941068
-1.0113
-1.56654
-1.59609
-1.48636
-1.65189
-4.26116
-4.63354
-10.1461
-10.2327
-7.14892
-6.94546
-5.48957
-5.37619
-4.85252
-4.84408
-5.28034
-5.35989
-5.65485
-5.59654
-3.40258
-3.43621
-7.2178
-7.21249
-3.77774
-3.97944
-11.1088
-11.3138
-8.24711
-7.97192
-4.65612
-4.81327
-12.0034
-12.1835
-9.42396
-9.25603
-8.05778
-7.96799
-7.41254
-7.37001
-7.59173
-7.68361
-8.90648
-8.9903
-9.44974
-9.55467
-11.1104
-11.2236
-12.1696
-12.3431
-15.7575
-16.2275
-20.1941
-20.4631
-20.9033
-20.9194
-21.8119
-21.957
-24.2251
-24.5548
-29.162
-29.8657
-41.6939
-42.5177
-54.0665
-52.2956
-2.5461
-0.377346
-0.0805442
-0.0182798
266.848
462.466
9.58342
9.69614
2.79648
2.38037
-0.0652231
-0.393904
-4.52203
-4.66605
-3.57422
-3.49464
-3.15126
-3.12895
-2.60449
-2.84853
-6.97131
-7.45665
-14.0686
-14.0619
-8.22166
-7.85154
-5.43782
-5.22341
-3.16833
-3.29391
-7.00836
-7.44015
-13.1641
-13.0755
-5.86372
-5.77981
-11.8996
-12.0656
-9.98584
-9.98504
-9.77767
-9.70183
-7.91099
-7.65992
-5.00976
-5.46608
-17.6035
-17.9193
-12.087
-11.7091
-9.56881
-9.34499
-6.47192
-6.86731
-19.9865
-20.5347
-18.132
-18.0494
-16.1704
-15.9993
-15.1527
-14.993
-11.3609
-12.1453
-33.8556
-34.4178
-25.7847
-25.4146
-24.7
-24.6956
-25.4889
-25.5658
-26.6691
-26.7421
-27.6458
-27.6643
-28.3558
-28.1775
-25.2007
-26.6294
-69.5762
-68.5761
-3.0732
-0.410033
591.815
471.849
8.14488
8.40065
3.0619
2.15412
-0.00270258
-0.752092
-4.1499
-4.47205
-3.59256
-3.40488
-3.06454
-3.03054
-2.81378
-3.4215
-7.09973
-8.16519
-13.1425
-13.0911
-8.49587
-7.68608
-5.63498
-5.15335
-3.51307
-3.83349
-7.14883
-8.10122
-12.3997
-12.1863
-6.6121
-6.39733
-10.8888
-11.2387
-9.88384
-9.97287
-10.1375
-9.98387
-8.27351
-7.67784
-5.5813
-6.60729
-16.491
-17.2115
-12.5893
-11.7443
-9.88171
-9.39287
-7.23953
-8.04749
-18.0649
-19.3247
-18.3519
-18.2689
-16.5497
-16.1318
-15.3548
-15.042
-12.5711
-14.2641
-31.1018
-32.3102
-25.853
-25.0873
-24.4485
-24.4317
-25.045
-25.2061
-26.0673
-26.2118
-26.8572
-26.8503
-27.1237
-26.6659
-24.2581
-27.0599
-59.0201
-56.8422
-6.70602
-1.13735
558.805
480.942
6.98755
7.32896
3.15012
1.97785
0.00354434
-1.00432
-3.90079
-4.3261
-3.58322
-3.3212
-2.96557
-2.93944
-2.99007
-3.87163
-7.33265
-8.71723
-12.4175
-12.302
-8.61867
-7.57027
-5.76936
-5.12963
-3.77938
-4.25326
-7.38382
-8.62843
-11.8158
-11.5115
-7.1461
-6.8266
-10.0438
-10.48
-9.72409
-9.95768
-10.5101
-10.3282
-8.59145
-7.7558
-6.02795
-7.39418
-15.7451
-16.7174
-12.9405
-11.8202
-10.1397
-9.50734
-7.88869
-8.8593
-16.4937
-18.2041
-18.5362
-18.5537
-16.8769
-16.2786
-15.5383
-15.1774
-13.6148
-15.7772
-28.9731
-30.5093
-25.6937
-24.7548
-24.1721
-24.1426
-24.6192
-24.8183
-25.4941
-25.6614
-26.0947
-26.0252
-25.9208
-25.2323
-23.1072
-26.324
-49.8296
-47.0267
-8.55614
-1.67991
525.832
489.799
6.05218
6.43813
3.11812
1.83371
-0.028828
-1.18097
-3.75049
-4.22685
-3.55463
-3.24126
-2.8534
-2.84525
-3.13312
-4.21857
-7.6486
-9.17664
-11.8452
-11.6557
-8.63606
-7.48456
-5.85729
-5.13433
-3.97271
-4.56676
-7.69423
-9.07792
-11.3716
-10.9991
-7.51826
-7.11439
-9.31
-9.76902
-9.52475
-9.92974
-10.9121
-10.7347
-8.87334
-7.86944
-6.35082
-7.90169
-15.2943
-16.4133
-13.1855
-11.9185
-10.3557
-9.66127
-8.43429
-9.40455
-15.1594
-17.1386
-18.7331
-18.9064
-17.161
-16.4312
-15.7067
-15.3609
-14.5095
-16.8489
-27.3109
-28.9624
-25.3794
-24.4081
-23.8737
-23.8333
-24.2045
-24.4116
-24.9413
-25.1005
-25.3523
-25.2015
-24.7413
-23.8562
-21.7425
-24.7765
-41.6914
-38.6378
-9.1425
-2.00312
492.915
498.461
5.29595
5.6956
3.00475
1.71275
-0.0895668
-1.30089
-3.68388
-4.17352
-3.51165
-3.16428
-2.72602
-2.7392
-3.24423
-4.47169
-8.0406
-9.59039
-11.3871
-11.1225
-8.57872
-7.41789
-5.90905
-5.15658
-4.09581
-4.7789
-8.07437
-9.49099
-11.034
-10.6111
-7.76734
-7.29821
-8.64565
-9.08614
-9.29945
-9.8787
-11.3604
-11.2086
-9.12094
-8.00368
-6.55092
-8.17553
-15.0944
-16.283
-13.3521
-12.0286
-10.5371
-9.83651
-8.89201
-9.75843
-13.9762
-16.0885
-18.9868
-19.3358
-17.4045
-16.5835
-15.86
-15.5645
-15.2766
-17.5957
-26.0011
-27.625
-24.9606
-24.044
-23.5555
-23.5075
-23.7964
-23.9919
-24.4034
-24.5358
-24.626
-24.3901
-23.5787
-22.5292
-20.172
-22.6738
-34.3519
-31.3066
-8.83463
-2.10673
460.064
506.96
4.68839
5.07675
2.83549
1.61226
-0.17389
-1.37389
-3.69297
-4.16621
-3.45607
-3.0909
-2.58057
-2.61346
-3.32642
-4.63113
-8.51333
-9.99423
-11.0115
-10.6805
-8.46606
-7.36513
-5.93056
-5.19115
-4.14915
-4.88653
-8.52966
-9.89899
-10.775
-10.3199
-7.92143
-7.40935
-8.01759
-8.41234
-9.0595
-9.79158
-11.8741
-11.7599
-9.32973
-8.15133
-6.62792
-8.2376
-15.1238
-16.3175
-13.4543
-12.1455
-10.6868
-10.0215
-9.27729
-9.97826
-12.8772
-15.007
-19.3426
-19.8565
-17.6037
-16.732
-15.9961
-15.7679
-15.9395
-18.0991
-24.9625
-26.4591
-24.4719
-23.6628
-23.2197
-23.1683
-23.392
-23.5636
-23.8766
-23.9729
-23.9128
-23.6018
-22.4257
-21.2546
-18.4071
-20.2041
-27.6014
-24.7525
-7.89701
-2.01015
427.28
515.315
4.20877
4.56315
2.62558
1.53434
-0.281605
-1.40207
-3.77584
-4.20619
-3.38665
-3.02331
-2.41336
-2.46049
-3.38491
-4.68743
-9.08209
-10.4166
-10.6898
-10.3138
-8.30885
-7.32571
-5.92426
-5.23782
-4.1313
-4.87792
-9.07587
-10.3267
-10.5692
-10.1064
-8.00006
-7.47569
-7.39805
-7.72845
-8.81617
-9.65043
-12.4757
-12.4038
-9.48845
-8.31278
-6.5796
-8.0886
-15.3808
-16.5144
-13.4945
-12.2684
-10.8048
-10.2097
-9.60477
-10.1102
-11.809
-13.8373
-19.8512
-20.4879
-17.7476
-16.8751
-16.112
-15.9554
-16.5228
-18.4143
-24.1387
-25.4325
-23.9362
-23.267
-22.8682
-22.8181
-22.9898
-23.1297
-23.3585
-23.4162
-23.2096
-22.8481
-21.2725
-20.047
-16.4564
-17.5103
-21.2607
-18.7587
-6.52066
-1.74351
394.562
523.541
3.84458
4.14129
2.38187
1.48547
-0.417089
-1.38008
-3.93641
-4.29615
-3.29896
-2.96556
-2.21985
-2.2724
-3.42826
-4.62002
-9.77321
-10.8814
-10.3941
-10.0123
-8.11076
-7.30303
-5.88935
-5.30129
-4.03931
-4.73124
-9.73996
-10.7948
-10.3917
-9.95872
-8.0154
-7.52414
-6.7622
-7.01426
-8.58297
-9.42965
-13.1932
-13.1615
-9.57759
-8.49654
-6.40158
-7.70828
-15.8843
-16.8773
-13.4629
-12.4009
-10.888
-10.3983
-9.88785
-10.1944
-10.7276
-12.5082
-20.575
-21.2544
-17.8168
-17.0138
-16.2037
-16.1139
-17.0532
-18.5762
-23.4921
-24.5176
-23.3673
-22.8604
-22.5029
-22.4591
-22.5888
-22.6922
-22.8472
-22.8702
-22.5127
-22.1429
-20.1054
-18.934
-14.32
-14.7087
-15.1702
-13.1543
-4.8459
-1.34224
361.9
531.645
3.59095
3.80172
2.10369
1.47689
-0.590117
-1.29432
-4.18482
-4.44035
-3.18471
-2.92429
-1.99439
-2.04016
-3.47014
-4.39412
-10.6261
-11.41
-10.0941
-9.77153
-7.86892
-7.30458
-5.82142
-5.39172
-3.86916
-4.41188
-10.5622
-11.3211
-10.2153
-9.8714
-7.97266
-7.58343
-6.08578
-6.24741
-8.37865
-9.09219
-14.0625
-14.0613
-9.56661
-8.72085
-6.0875
-7.05319
-16.675
-17.4166
-13.3372
-12.5513
-10.9304
-10.5877
-10.1383
-10.2695
-9.59633
-10.9276
-21.5943
-22.1856
-17.7807
-17.1529
-16.2665
-16.2312
-17.5602
-18.6024
-23.0011
-23.6898
-22.7728
-22.4478
-22.125
-22.0931
-22.1889
-22.2527
-22.3412
-22.3393
-21.8162
-21.5045
-18.9036
-17.9587
-11.9834
-11.9041
-9.17866
-7.8016
-2.97896
-0.84415
329.28
539.627
3.45092
3.53854
1.78269
1.52595
-0.817633
-1.12109
-4.5386
-4.64498
-3.03063
-2.90979
-1.7299
-1.75255
-3.53226
-3.9559
-11.6969
-12.0225
-9.75441
-9.59397
-7.57355
-7.34289
-5.71135
-5.52585
-3.61639
-3.86821
-11.6001
-11.922
-10.0085
-9.84627
-7.86953
-7.68705
-5.34299
-5.40177
-8.23105
-8.58447
-15.1306
-15.1408
-9.40968
-9.01666
-5.62946
-6.05185
-17.821
-18.1488
-13.0798
-12.7352
-10.9216
-10.7814
-10.3654
-10.3768
-8.38488
-8.97362
-23.0166
-23.3166
-17.5935
-17.3023
-16.2953
-16.2939
-18.0787
-18.4944
-22.6585
-22.9261
-22.1546
-22.0351
-21.7354
-21.7221
-21.7903
-21.8123
-21.8389
-21.8293
-21.1113
-20.9576
-17.6355
-17.1846
-9.41097
-9.20542
-3.13323
-2.58672
-1.00453
-0.28785
296.688
)
;

boundaryField
{
    F1_1
    {
        type            calculated;
        value           nonuniform List<scalar> 
80
(
190.587
213.355
58.7483
17.895
15.078
6.05507
5.31872
2.13381
1.83951
0.191854
0.049893
-0.541204
-0.667195
-2.3602
-2.77304
-9.47438
-9.6816
-6.86732
-6.69474
-5.86586
-5.76701
-4.81308
-4.68477
-2.87547
-2.86212
-4.5691
-4.96017
-11.6651
-11.8206
-8.40173
-8.23782
-7.57808
-7.44549
-4.69755
-5.02877
-14.9935
-15.2581
-10.9073
-10.6238
-9.6849
-9.69931
-10.4504
-10.4638
-9.29678
-9.14261
-7.775
-7.59314
-4.93317
-5.09011
-11.669
-11.7843
-8.15968
-7.88959
-4.84977
-4.95263
-10.5344
-10.5646
-5.39163
-5.34263
-8.27133
-8.85215
-18.9217
-19.2617
-16.1239
-16.1252
-17.593
-17.8945
-21.2614
-21.7327
-25.9595
-26.4085
-28.4265
-28.6703
-28.9341
-28.7758
-6.38173
-4.91582
-1.89659
-0.542974
193.079
)
;
    }