/*--------------------------------*- C++ -*----------------------------------*\
| =========                 |                                                 |
| \\      /  F ield         | OpenFOAM: The Open Source CFD Toolbox           |
|  \\    /   O peration     | Version:  5.x                                   |
|   \\  /    A nd           | Web:      www.OpenFOAM.org                      |
|    \\/     M anipulation  |                                                 |
\*---------------------------------------------------------------------------*/
FoamFile
{
    version     2.0;
    format      ascii;
    class       volScalarField;
    location    "1";
    object      T;
}
// * * * * * * * * * * * * * * * * * * * * * * * * * * * * * * * * * * * * * //

dimensions      [0 0 0 1 0 0 0];

internalField   nonuniform List<scalar> 
3200
(
1.60074
17.458
22.9363
23.3328
24.7258
24.8406
25.3313
25.3725
25.5447
25.5565
25.5639
25.5614
25.5097
25.4947
25.2737
25.2174
24.3263
24.2493
23.6395
23.5798
23.053
23.0031
22.5716
22.5346
22.2841
22.2484
21.8272
21.7524
20.6607
20.5703
19.8205
19.7465
19.0627
19.002
18.5929
18.4991
17.0936
16.9733
16.0029
15.9109
15.0344
14.941
13.9893
13.8946
13.0597
12.9804
12.2822
12.221
11.7888
11.712
10.6219
10.5336
9.80598
9.74465
9.321
9.24939
8.26756
8.19292
7.7284
7.65866
6.90127
6.77344
5.00909
4.84727
3.39671
3.23475
1.63741
1.4453
-0.488731
-0.727968
-3.08468
-3.36882
-5.92733
-6.23585
-8.82074
-9.11343
-9.45891
-9.60501
-9.64857
-9.65931
4.16794
16.5944
21.9255
22.8721
24.1831
24.4615
24.924
25.0245
25.1873
25.2164
25.2278
25.2222
25.1724
25.1371
24.9417
24.8128
24.0631
23.8859
23.3551
23.2166
22.7621
22.6469
22.2752
22.1884
21.9599
21.8769
21.5145
21.3447
20.4325
20.2279
19.5936
19.4232
18.8249
18.6816
18.3047
18.0882
16.9054
16.6299
15.7958
15.5865
14.8505
14.636
13.8072
13.587
12.8669
12.684
12.085
11.942
11.5458
11.3702
10.4705
10.2711
9.65068
9.50784
9.12077
8.95642
8.14253
7.97049
7.54196
7.37604
6.70044
6.40762
4.93476
4.56494
3.30679
2.92989
1.53227
1.08184
-0.625524
-1.19074
-3.29165
-3.97018
-6.29606
-7.04055
-9.43098
-10.2152
-11.2618
-11.6962
-11.8241
-11.8554
6.23808
16.0146
21.0901
22.3967
23.6818
24.0751
24.5312
24.6739
24.8352
24.8771
24.8925
24.8847
24.8346
24.786
24.6069
24.433
23.777
23.5368
23.0551
22.866
22.4578
22.301
21.9674
21.8479
21.63
21.5165
21.1942
20.9666
20.176
19.9026
19.3482
19.1169
18.5689
18.3706
18.01
17.7161
16.6809
16.3089
15.5637
15.2832
14.6457
14.3556
13.6008
13.2994
12.6527
12.4043
11.8697
11.6732
11.294
11.0572
10.2911
10.0255
9.47631
9.28083
8.91165
8.68945
7.99184
7.75834
7.34504
7.11382
6.48431
6.089
4.81632
4.31815
3.18163
2.66585
1.38925
0.768652
-0.808008
-1.5921
-3.55553
-4.50567
-6.72806
-7.77944
-10.1055
-11.3066
-13.0892
-13.7997
-14.0035
-14.0528
7.91714
15.6229
20.4055
21.9222
23.2161
23.6861
24.151
24.3227
24.488
24.5388
24.5581
24.549
24.4967
24.4401
24.2721
24.0725
23.4744
23.1973
22.7433
22.5243
22.1434
21.9622
21.651
21.5114
21.2959
21.1645
20.8701
20.6112
19.8989
19.5886
19.0899
18.8234
18.299
18.0662
17.7126
17.3736
16.4299
16.0029
15.3132
14.9942
14.4271
14.0938
13.3763
13.0256
12.4226
12.1361
11.6409
11.4117
11.0365
10.7656
10.0916
9.79128
9.28782
9.06079
8.69668
8.44152
7.82262
7.5534
7.14086
6.86756
6.25884
5.8055
4.66691
4.09691
3.03165
2.43225
1.21999
0.493704
-1.0222
-1.9463
-3.85996
-4.99029
-7.20694
-8.46738
-10.8251
-12.3748
-14.9595
-15.9235
-16.1892
-16.2522
9.28798
15.3481
19.8515
21.4566
22.7834
23.2974
23.7825
23.9717
24.1453
24.2019
24.2249
24.215
24.159
24.0986
23.9385
23.728
23.1589
22.865
22.4222
22.189
21.8211
21.6286
21.3279
21.178
20.9584
20.8191
20.5447
20.2739
19.6058
19.2822
18.8224
18.5402
18.0174
17.7666
17.4148
17.0553
16.1583
15.7074
15.0478
14.7152
14.1992
13.8474
13.1372
12.762
12.1798
11.8763
11.4015
11.156
10.7749
10.49
9.87732
9.56522
9.08831
8.84628
8.4774
8.20819
7.63944
7.35423
6.93114
6.63475
6.02718
5.54943
4.49477
3.8955
2.86305
2.22317
1.03129
0.250335
-1.26008
-2.26093
-4.19576
-5.4315
-7.72412
-9.11148
-11.577
-13.4016
-16.8947
-18.0753
-18.383
-18.4542
10.4164
15.1355
19.4134
21.0022
22.3832
22.9099
23.4259
23.6215
23.8074
23.8663
23.8931
23.8829
23.8216
23.7613
23.607
23.3979
22.8325
22.5386
22.0928
21.8592
21.4918
21.2994
20.9988
20.8474
20.6179
20.4792
20.2192
19.9526
19.2989
18.9813
18.5478
18.2667
17.7251
17.4712
17.1173
16.7586
15.8689
15.4203
14.7694
14.4435
13.9648
13.6155
12.8847
12.5067
11.926
11.6233
11.153
10.9059
10.5095
10.2277
9.65103
9.34579
8.87945
8.63689
8.25417
7.98688
7.44497
7.16062
6.71639
6.41442
5.79036
5.31647
4.30445
3.71143
2.67875
2.03618
0.826153
0.0361389
-1.51836
-2.53822
-4.55954
-5.83047
-8.27755
-9.71252
-12.3546
-14.3617
-18.9225
-20.2621
-20.5864
-20.6591
11.3561
14.9406
19.083
20.5561
22.0173
22.5228
23.0822
23.2716
23.4747
23.5321
23.5627
23.5529
23.4841
23.4277
23.2777
23.0821
22.4952
22.2184
21.755
21.5348
21.1556
20.9746
20.6637
20.5199
20.2737
20.1442
19.8939
19.6468
18.9786
18.6851
18.2672
18.0037
17.4212
17.1798
16.82
16.4832
15.5619
15.1414
14.4781
14.178
13.7253
13.3988
12.6182
12.2596
11.6612
11.3772
10.8956
10.6618
10.2396
9.97715
9.41393
9.13286
8.66169
8.43316
8.02637
7.77659
7.24023
6.97345
6.49599
6.207
5.54757
5.10506
4.09738
3.54496
2.47886
1.8719
0.604216
-0.147485
-1.79803
-2.77548
-4.95338
-6.18244
-8.87151
-10.2653
-13.1577
-15.2198
-21.0793
-22.4896
-22.7999
-22.867
12.1523
14.7234
18.8592
20.1105
21.6895
22.1336
22.7533
22.9212
23.1477
23.1989
23.2341
23.2253
23.1462
23.0979
22.9503
22.782
22.1456
21.9057
21.4074
21.2169
20.8115
20.6551
20.322
20.1966
19.9249
19.814
19.5686
19.358
18.6434
18.3939
17.9804
17.7535
17.1038
16.8931
16.5219
16.2312
15.235
14.8723
14.1722
13.9187
13.4807
13.2004
12.3349
12.0221
11.3838
11.139
10.6283
10.4252
9.96328
9.73871
9.16558
8.92758
8.43428
8.2366
7.79233
7.57781
7.02475
6.79473
6.26808
6.01444
5.29612
4.91628
3.87213
3.39905
2.26062
1.73404
0.36164
-0.295161
-2.10465
-2.96474
-5.38519
-6.47605
-9.51734
-10.7583
-13.9941
-15.926
-23.414
-24.7612
-25.0232
-25.0776
12.8457
14.4436
18.7509
19.6518
21.4072
21.7374
22.4425
22.5685
22.8278
22.8665
22.9072
22.9005
22.8071
22.7721
22.6238
22.5007
21.7802
21.6034
21.0476
20.9075
20.4574
20.3426
19.972
19.8792
19.5698
19.4892
19.242
19.0893
18.2896
18.1094
17.6863
17.5202
16.7689
16.613
16.2207
16.0075
14.8827
14.6166
13.8486
13.6669
13.2299
13.0254
12.0295
11.7976
11.0907
10.9115
10.3488
10.1991
9.67755
9.51425
8.90387
8.73255
8.19506
8.04993
7.54913
7.39261
6.79638
6.62791
6.02928
5.84048
5.03116
4.75409
3.62405
3.27978
2.01792
1.63003
0.09044
-0.396735
-2.44924
-3.09161
-5.87022
-6.69167
-10.2352
-11.1714
-14.8827
-16.4101
-25.9945
-27.0763
-27.2549
-27.2904
13.4753
14.0554
18.7788
19.159
21.1819
21.3262
22.1548
22.2105
22.5168
22.534
22.5822
22.5792
22.4657
22.4508
22.2963
22.2432
21.3931
21.3163
20.6712
20.6106
20.09
20.0404
19.611
19.5705
19.2055
19.1712
18.9116
18.8465
17.9111
17.8346
17.3819
17.3104
16.4102
16.3423
15.9123
15.8203
14.4961
14.3811
13.5016
13.4252
12.9698
12.8821
11.6935
11.5922
10.7765
10.6993
10.0528
9.98783
9.37751
9.30769
8.62463
8.55218
7.94018
7.87751
7.29219
7.22501
6.55091
6.47831
5.7741
5.69137
4.74492
4.62603
3.34455
3.19721
1.74026
1.57209
-0.222858
-0.4357
-2.85026
-3.13304
-6.43354
-6.79842
-11.0574
-11.4736
-15.8587
-16.5719
-28.9151
-29.4275
-29.4923
-29.5047
24.5442
24.6167
26.2958
26.3796
26.6105
26.62
26.6141
26.604
26.4695
26.4498
26.2473
26.2225
25.9531
25.9246
25.6738
25.6066
24.577
24.4882
23.7979
23.7313
23.1699
23.1141
22.6193
22.5701
22.0939
22.0431
21.5036
21.4428
20.8612
20.8059
20.4612
20.3991
19.5694
19.5078
19.1205
19.04
17.8696
17.7729
17.076
17.0137
16.6288
16.5536
15.513
15.428
14.7816
14.7181
14.1833
14.1313
13.7715
13.6966
12.6264
12.536
11.8112
11.7421
11.2527
11.1481
9.61386
9.48894
8.63919
8.46426
5.84775
5.62165
3.60715
3.39899
1.30269
1.08104
-1.21189
-1.45345
-3.97186
-4.23181
-6.9374
-7.20752
-10.0307
-10.2823
-12.8186
-12.9376
-12.9551
-12.9589
-12.9598
-12.96
25.1961
25.3523
26.6805
26.8622
27.063
27.0834
27.0695
27.0441
26.92
26.8728
26.6927
26.6351
26.4064
26.3393
26.1036
25.9477
25.0782
24.8736
24.2719
24.1169
23.6278
23.4981
23.0701
22.9573
22.5552
22.4392
21.9769
21.8345
21.316
21.1827
20.8537
20.7094
20.0198
19.8788
19.5268
19.3411
18.3542
18.1311
17.519
17.3705
17.0026
16.8282
15.9609
15.7667
15.2026
15.0542
14.5844
14.46
14.1166
13.9432
13.0515
12.8449
12.2138
12.0496
11.5858
11.3444
10.0691
9.77966
8.98911
8.58897
6.42731
5.91615
4.19433
3.71762
1.92914
1.422
-0.530001
-1.08153
-3.2187
-3.81038
-6.0961
-6.70691
-9.06481
-9.62525
-11.6878
-11.9521
-12.0013
-12.0122
-12.0147
-12.0153
25.8418
26.041
27.111
27.3441
27.5227
27.548
27.5254
27.4882
27.3674
27.3011
27.1331
27.0546
26.8533
26.7607
26.5301
26.3173
25.5528
25.2748
24.728
24.5159
24.0713
23.894
23.5082
23.356
23.005
22.8492
22.4375
22.2412
21.7553
21.5673
21.2389
21.0416
20.4482
20.2581
19.9264
19.6743
18.8082
18.5049
17.9436
17.7362
17.3687
17.1306
16.3818
16.1201
15.6069
15.4033
14.9717
14.7974
14.4549
14.2186
13.4491
13.1707
12.5978
12.3691
11.91
11.582
10.4848
10.0904
9.32342
8.78415
6.94085
6.25909
4.73171
4.08873
2.50434
1.82076
0.0958792
-0.646183
-2.52734
-3.32118
-5.32179
-6.13642
-8.17077
-8.90811
-10.629
-10.9753
-11.049
-11.0659
-11.0698
-11.0707
26.4795
26.6949
27.575
27.8281
27.9886
28.0147
27.9819
27.9356
27.8127
27.7335
27.57
27.479
27.2958
27.1877
26.9559
26.7091
26.008
25.6869
25.1708
24.9242
24.5041
24.2983
23.937
23.7628
23.447
23.2695
22.8895
22.6596
22.1827
21.9575
21.6188
21.3895
20.8605
20.6432
20.3229
20.0321
19.2398
18.889
18.354
18.1082
17.7297
17.4534
16.7833
16.4836
15.9989
15.7614
15.3487
15.1416
14.789
14.5152
13.8272
13.5083
12.968
12.6978
12.2289
11.8505
10.8725
10.4161
9.64864
9.03151
7.40795
6.63586
5.23373
4.49752
3.04352
2.26119
0.682456
-0.165263
-1.87947
-2.7837
-4.59491
-5.51713
-7.32862
-8.15163
-9.62511
-10.0093
-10.099
-10.12
-10.125
-10.1261
27.1086
27.3222
28.064
28.3158
28.4599
28.4837
28.439
28.3861
28.2562
28.1693
28.004
27.9071
27.7353
27.6197
27.3824
27.119
26.448
26.1067
25.6028
25.3394
24.9283
24.7088
24.3583
24.1752
23.8835
23.6978
23.3355
23.0879
22.6001
22.3523
21.9943
21.7495
21.2604
21.0324
20.7182
20.41
19.6537
19.2805
18.7528
18.4856
18.0866
17.792
17.17
16.8545
16.381
16.1266
15.7175
15.4917
15.1199
14.8285
14.1905
13.8548
13.3274
13.0345
12.5443
12.143
11.2394
10.7543
9.96786
9.31915
7.84102
7.03786
5.70914
4.93503
3.55585
2.73349
1.2398
0.350327
-1.264
-2.20993
-3.90358
-4.86227
-6.526
-7.36913
-8.66481
-9.05516
-9.15176
-9.17481
-9.18027
-9.1815
27.7291
27.9283
28.5727
28.8078
28.936
28.9554
28.8964
28.8397
28.698
28.6083
28.4354
28.3382
28.1726
28.0566
27.81
27.5453
26.8749
26.5331
26.0252
25.7606
25.345
25.1246
24.773
24.592
24.3158
24.1333
23.7769
23.5258
23.008
22.7516
22.3654
22.1193
21.6498
21.4251
21.1133
20.8059
20.0523
19.6782
19.1413
18.8683
18.4393
18.1437
17.5444
17.2318
16.7545
16.498
16.0791
15.8476
15.4477
15.1557
14.5417
14.209
13.6775
13.3791
12.8561
12.4555
11.5895
11.1046
10.2816
9.63999
8.2471
7.4609
6.16238
5.39676
4.04592
3.23265
1.773
0.894924
-0.675241
-1.60625
-3.24165
-4.17919
-5.7562
-6.56853
-7.74073
-8.11275
-8.20744
-8.23031
-8.23576
-8.23698
28.3416
28.5166
29.0977
29.3041
29.4164
29.4303
29.3538
29.2968
29.1377
29.0506
28.8637
28.7721
28.608
28.4987
28.2383
27.9878
27.2886
26.9661
26.438
26.1878
25.7538
25.5457
25.1809
25.0126
24.7443
24.5758
24.2142
23.9744
23.4054
23.1561
22.7308
22.4981
22.0295
21.8214
21.5082
21.2196
20.4358
20.0824
19.5192
19.2573
18.7867
18.5075
17.9075
17.6157
17.1191
16.8759
16.4331
16.2103
15.7712
15.4958
14.8817
14.5712
14.0183
13.7327
13.1631
12.7868
11.9245
11.4683
10.5881
9.99091
8.62895
7.90446
6.59432
5.88191
4.51451
3.75769
2.28294
1.46722
-0.112042
-0.97438
-2.60762
-3.47054
-5.01698
-5.75352
-6.84865
-7.18143
-7.26599
-7.28651
-7.29141
-7.29252
28.9471
29.0887
29.6378
29.8042
29.9009
29.9089
29.8104
29.7579
29.5746
29.497
29.2882
29.2089
29.0412
28.9468
28.6662
28.4483
27.6874
27.4074
26.8396
26.6225
26.1537
25.973
25.5809
25.4372
25.169
25.026
24.6466
24.4362
23.79
23.5676
23.0886
22.8864
22.3988
22.2218
21.9022
21.6532
20.8022
20.4951
19.8852
19.6546
19.1266
18.8843
18.2582
18.0078
17.4736
17.2618
16.7784
16.5817
16.0881
15.8495
15.2096
14.9431
14.3484
14.0977
13.4624
13.1374
12.2432
11.8491
10.8833
10.3724
8.98531
8.37146
7.00237
6.39329
4.95869
4.31146
2.76653
2.07006
0.42249
-0.311666
-2.0044
-2.73454
-4.31015
-4.92417
-5.98707
-6.26004
-6.3271
-6.34334
-6.34722
-6.3481
29.547
29.6445
30.1931
30.3071
30.3888
30.3917
30.2652
30.2243
30.0073
29.9486
29.7076
29.6492
29.4715
29.4025
29.0916
28.9305
28.0669
27.8603
27.2272
27.0672
26.542
26.4089
25.9711
25.8669
25.5886
25.4857
25.0722
24.9154
24.1577
23.9895
23.4354
23.2861
22.7557
22.628
22.2934
22.1109
21.1467
20.9199
20.236
20.0639
19.455
19.2764
18.594
18.4113
17.8152
17.6587
17.1123
16.965
16.3949
16.2192
15.5226
15.3282
14.6648
14.4781
13.7493
13.5109
12.5419
12.2528
11.1604
10.789
9.31077
8.86868
7.38004
6.93769
5.37138
4.90114
3.2162
2.71096
0.920493
0.389398
-1.43968
-1.96471
-3.64179
-4.07687
-5.15709
-5.34688
-5.39025
-5.40066
-5.40315
-5.40371
30.1429
30.1822
30.7658
30.8113
30.88
30.8797
30.7165
30.6977
30.4337
30.4075
30.1196
30.0944
29.8974
29.8678
29.5111
29.4409
28.4201
28.3302
27.5959
27.5265
26.9147
26.8569
26.3479
26.3035
26.0012
25.9578
25.4877
25.4187
24.5019
24.4268
23.7659
23.701
23.0965
23.0425
22.6786
22.5998
21.4618
21.3631
20.5663
20.4907
19.7662
19.6887
18.9097
18.8313
18.1392
18.0711
17.4302
17.3652
16.686
16.6098
15.8155
15.7321
14.9621
14.8803
14.0165
13.9137
12.8134
12.6886
11.4086
11.2499
9.59478
9.40778
7.71587
7.52707
5.74024
5.53942
3.61869
3.40327
1.36813
1.14239
-0.927117
-1.1488
-3.0231
-3.20376
-4.36272
-4.43959
-4.45471
-4.4583
-4.45916
-4.45935
29.8351
29.8822
30.5437
30.6052
30.7967
30.8111
30.7589
30.7525
30.5908
30.5751
30.3693
30.3521
30.2008
30.1805
29.9277
29.8803
29.131
29.0573
28.3528
28.2824
27.6846
27.6274
27.1389
27.0966
26.8132
26.7731
26.3407
26.2783
25.4499
25.3831
24.8007
24.7444
24.2152
24.1684
23.8476
23.7757
22.7129
22.6187
21.8354
21.7593
21.0197
20.9377
20.092
20.004
19.2171
19.1377
18.4147
18.3435
17.7082
17.65
17.248
17.1738
16.1715
16.0907
15.5764
15.4847
14.2697
14.1718
13.5728
13.477
12.4696
12.296
9.94401
9.73145
7.88728
7.6932
5.86967
5.66661
3.68562
3.45828
1.22917
0.971484
-1.34544
-1.58972
-3.00216
-3.1158
-3.14061
-3.14667
-3.14813
-3.14846
29.1887
29.3073
29.9468
30.1023
30.3019
30.3406
30.315
30.3039
30.179
30.1455
29.978
29.9392
29.8078
29.7615
29.5459
29.4401
28.823
28.6543
28.036
27.8714
27.3518
27.2192
26.7975
26.6981
26.4375
26.3428
25.9636
25.8219
25.1384
24.9889
24.5015
24.3725
23.9115
23.8015
23.5072
23.3411
22.4433
22.2271
21.5528
21.3791
20.7562
20.5671
19.8259
19.6202
18.9362
18.7518
18.1274
17.9624
17.4123
17.2744
16.8972
16.7249
15.8849
15.6965
15.215
15.0019
13.9812
13.7522
13.1853
12.9545
12.0426
11.6423
9.67101
9.18419
7.58431
7.13325
5.54462
5.07137
3.34196
2.81017
0.850818
0.238972
-1.85947
-2.46266
-3.894
-4.18651
-4.25814
-4.27575
-4.27999
-4.28094
28.5375
28.7116
29.3694
29.5977
29.8135
29.8727
29.8706
29.8598
29.7637
29.7213
29.5815
29.53
29.4115
29.3494
29.1598
29.0203
28.4971
28.2692
27.701
27.4746
27.0036
26.8225
26.4432
26.3059
26.0552
25.9238
25.577
25.3872
24.8056
24.6083
24.188
24.0139
23.5939
23.442
23.1617
22.9357
22.1464
21.8538
21.2501
21.0168
20.4754
20.2185
19.5384
19.2555
18.6352
18.3836
17.8218
17.5968
17.0998
16.9084
16.5382
16.3028
15.5723
15.3141
14.843
14.5513
13.6611
13.3461
12.7844
12.4593
11.5953
11.0516
9.33865
8.68146
7.23539
6.61882
5.17498
4.52639
2.95042
2.21917
0.418569
-0.434071
-2.4333
-3.30247
-4.83138
-5.26605
-5.37782
-5.40536
-5.41197
-5.41345
27.8794
28.0965
28.8091
29.0935
29.3315
29.4073
29.4265
29.4191
29.3462
29.301
29.1816
29.1236
29.0129
28.9423
28.7717
28.6159
28.1594
27.8978
27.3524
27.0877
26.6438
26.4338
26.0792
25.9184
25.6682
25.5135
25.1842
24.9682
24.4574
24.2366
23.8647
23.6653
23.2656
23.0877
22.814
22.5529
21.8296
21.493
20.9326
20.6669
20.1832
19.8868
19.2351
18.9044
18.3196
18.0277
17.5028
17.2422
16.7752
16.5496
16.1738
15.9005
15.2407
14.9403
14.4637
14.1247
13.3179
12.9499
12.374
11.9856
11.1352
10.5076
8.96408
8.21031
6.85331
6.13749
4.77353
4.01852
2.52509
1.67095
-0.0515876
-1.06124
-3.05232
-4.11588
-5.81252
-6.3585
-6.50086
-6.53578
-6.54414
-6.546
27.2126
27.4616
28.266
28.5912
28.8559
28.9442
28.9835
28.9811
28.9277
28.8837
28.7792
28.7192
28.6128
28.5393
28.383
28.2236
27.8139
27.5378
26.9927
26.7079
26.2746
26.0509
25.7075
25.5344
25.2774
25.1102
24.7868
24.561
24.0976
23.871
23.5346
23.3246
22.9284
22.7372
22.4658
22.1887
21.4974
21.1412
20.6034
20.3258
19.8836
19.5694
18.9189
18.5634
17.9922
17.6813
17.1732
16.8957
16.441
16.1968
15.8054
15.5136
14.8949
14.5736
14.079
13.7168
12.9573
12.5621
11.9562
11.5305
10.6661
10.0003
8.55795
7.76332
6.44562
5.68212
4.34776
3.54021
2.07422
1.15749
-0.550245
-1.64914
-3.70843
-4.90396
-6.83968
-7.46707
-7.62817
-7.66725
-7.67655
-7.67861
26.5358
26.8044
27.742
28.0914
28.3874
28.4831
28.5422
28.5452
28.5087
28.4688
28.3751
28.3168
28.2114
28.1396
27.9944
27.8414
27.4631
27.1885
26.6225
26.3341
25.8971
25.6729
25.329
25.1539
24.8831
24.7132
24.3856
24.1633
23.7284
23.5098
23.1994
22.9914
22.5831
22.39
22.1179
21.841
21.1519
20.7966
20.2638
19.9913
19.5788
19.2656
18.591
18.2312
17.6545
17.3428
16.8344
16.5565
16.0984
15.8499
15.4331
15.1399
14.5372
14.2138
13.689
13.3249
12.5821
12.1827
11.5312
11.093
10.1892
9.52416
8.12594
7.33729
6.01579
5.24961
3.90094
3.08827
1.6014
0.675694
-1.07324
-2.19862
-4.39909
-5.66243
-7.91915
-8.59427
-8.76034
-8.79988
-8.80922
-8.81129
25.8483
26.1205
27.2416
27.5937
27.9269
28.0235
28.1031
28.1108
28.09
28.0562
27.9696
27.9163
27.8086
27.7429
27.6063
27.4682
27.1082
26.851
26.2413
25.9663
25.5112
25.2996
24.9438
24.7772
24.4847
24.3225
23.9802
23.7742
23.3506
23.1523
22.8602
22.6663
22.2292
22.0459
21.7703
21.5099
20.793
20.4593
19.9138
19.6625
19.2702
18.9762
18.2505
17.9076
17.3062
17.0122
16.4865
16.2244
15.7474
15.5098
15.0558
14.7786
14.1683
13.8621
13.2927
12.9482
12.1932
11.8134
11.0976
10.6741
9.70275
9.07733
7.66958
6.9326
5.56377
4.84043
3.43271
2.66332
1.10616
0.226843
-1.62116
-2.70507
-5.12722
-6.38114
-9.06187
-9.74182
-9.89756
-9.9337
-9.94216
-9.94403
25.1499
25.4027
26.7719
27.0968
27.476
27.5646
27.667
27.6777
27.6718
27.6457
27.5628
27.518
27.4043
27.3491
27.2182
27.1039
26.7493
26.5276
25.8467
25.6057
25.1155
24.9322
24.5511
24.4055
24.0812
23.939
23.5695
23.3939
22.9638
22.7986
22.517
22.351
21.8652
21.7056
21.4221
21.197
20.4189
20.1304
19.5521
19.3393
18.9576
18.7041
17.8947
17.5944
16.9457
16.6908
16.128
15.901
15.3869
15.1784
14.6715
14.4307
13.7873
13.5209
12.8874
12.5879
11.7893
11.4576
10.6525
10.2772
9.2025
8.66183
7.18643
6.55322
5.08597
4.45865
2.93897
2.2699
0.583821
-0.183244
-2.19963
-3.15799
-5.90206
-7.04277
-10.2846
-10.9103
-11.0395
-11.0686
-11.0753
-11.0768
24.4414
24.6402
26.344
26.5977
27.0366
27.1051
27.2346
27.2452
27.2545
27.2374
27.1544
27.1225
26.9976
26.9583
26.8295
26.7492
26.385
26.2226
25.4346
25.2552
24.7076
24.5727
24.149
24.0411
23.6704
23.5647
23.1509
23.0237
22.5664
22.4496
22.1693
22.0484
21.4882
21.3703
21.0715
20.9063
20.0252
19.8131
19.1757
19.0229
18.64
18.4542
17.5187
17.2952
16.5695
16.3819
15.7561
15.5892
15.0142
14.859
14.2766
14.0989
13.3913
13.1945
12.4687
12.2476
11.3668
11.1208
10.1902
9.90821
8.68092
8.28375
6.66961
6.20722
4.57459
4.11258
2.41123
1.91718
0.0247388
-0.543344
-2.82042
-3.53947
-6.74104
-7.62034
-11.612
-12.0987
-12.1855
-12.2044
-12.2087
-12.2097
23.7249
23.8174
25.9741
26.0913
26.6121
26.6432
26.8069
26.8128
26.8382
26.8319
26.7441
26.7307
26.5875
26.5711
26.4388
26.4059
26.0127
25.9426
24.9981
24.9193
24.2832
24.2248
23.7342
23.6872
23.249
23.2027
22.721
22.6668
22.1555
22.1071
21.8152
21.7635
21.0934
21.0422
20.7157
20.6443
19.6048
19.5129
18.7801
18.7157
18.3145
18.2344
17.1141
17.016
16.1717
16.0904
15.3659
15.2936
14.6247
14.5566
13.8655
13.7883
12.9749
12.8892
12.0299
11.9338
10.9189
10.8114
9.7019
9.5771
8.12615
7.95435
6.10673
5.90804
4.0164
3.8161
1.83521
1.6204
-0.587307
-0.835076
-3.50351
-3.82164
-7.6729
-8.07342
-13.0796
-13.303
-13.3342
-13.3407
-13.3422
-13.3425
23.1034
23.1432
24.0617
24.1128
24.3414
24.3509
24.3348
24.3115
23.8826
23.8449
23.5252
23.4954
23.2101
23.1825
22.9496
22.8977
22.2525
22.152
20.8457
20.7458
20.0235
19.9607
19.4797
19.4383
19.1629
19.1089
18.462
18.3649
17.1456
17.0574
16.5593
16.4794
15.3693
15.2728
14.3707
14.2743
13.3929
13.3041
12.6018
12.5381
12.1009
11.9915
10.3405
10.1996
9.13182
9.02868
8.17494
8.09419
7.52775
7.40746
5.5291
5.35399
3.7159
3.54904
2.09886
1.94911
0.583593
0.449814
-0.552494
-0.764718
-3.93805
-4.20649
-6.51652
-6.74796
-8.98652
-9.21751
-11.5354
-11.7741
-14.2023
-14.4483
-16.9669
-17.2147
-19.8025
-20.0325
-22.3225
-22.6954
-29.2802
-29.553
-29.5875
-29.594
23.5495
23.6355
24.364
24.4755
24.6702
24.6909
24.6699
24.6157
24.2549
24.1685
23.8956
23.828
23.5892
23.525
23.3078
23.1828
22.5978
22.3663
21.2836
21.0572
20.434
20.2886
19.8705
19.7733
19.5192
19.3899
18.8043
18.5798
17.5643
17.3612
16.9031
16.7214
15.8142
15.5976
14.8259
14.6003
13.8121
13.6019
12.9848
12.8341
12.4266
12.1734
10.7775
10.4522
9.5186
9.2778
8.53043
8.33851
7.80647
7.53376
5.99998
5.60129
4.16479
3.7744
2.50983
2.16122
0.974344
0.657021
-0.282768
-0.769394
-3.39294
-4.00041
-5.97825
-6.50914
-8.4231
-8.95231
-10.9276
-11.4729
-13.5343
-14.0941
-16.22
-16.7791
-18.9324
-19.4457
-21.3582
-22.1517
-27.2602
-27.8359
-27.9308
-27.9497
23.9922
24.102
24.6909
24.8349
25.0059
25.0327
25.0063
24.9323
24.6162
24.4997
24.2579
24.1675
23.9613
23.8736
23.6623
23.4864
22.929
22.6147
21.6873
21.3845
20.8254
20.6275
20.2485
20.1145
19.8706
19.6892
19.1322
18.8263
17.9506
17.6752
17.236
16.9925
16.2316
15.9445
15.2592
14.9488
14.2082
13.9159
13.349
13.1404
12.7462
12.4009
11.1717
10.7292
9.87768
9.54719
8.86371
8.59646
8.07484
7.71053
6.42547
5.89012
4.57186
4.03475
2.88417
2.40688
1.33033
0.889142
-0.031152
-0.688577
-2.92846
-3.7395
-5.49784
-6.21499
-7.91505
-8.62924
-10.377
-11.1111
-12.9264
-13.6772
-15.5358
-16.2797
-18.1279
-18.803
-20.4386
-21.4354
-25.4216
-26.138
-26.2772
-26.306
24.4304
24.5494
25.0357
25.1932
25.3475
25.3766
25.3446
25.2585
24.9695
24.8358
24.6141
24.5117
24.3287
24.2272
24.0154
23.8053
23.2506
22.8877
22.0661
21.7221
21.2024
20.9736
20.6167
20.4602
20.2194
20.0035
19.45
19.0957
18.3129
17.9958
17.561
17.2844
16.63
16.3075
15.6776
15.3145
14.5864
14.241
13.699
13.4541
13.0639
12.6639
11.5345
11.0226
10.216
9.83074
9.18039
8.86462
8.33696
7.92416
6.82101
6.2103
4.94771
4.31966
3.2316
2.67654
1.66093
1.14046
0.209976
-0.544434
-2.52111
-3.44068
-5.05905
-5.88149
-7.44642
-8.26482
-9.86687
-10.706
-12.361
-13.216
-14.8962
-15.7362
-17.3704
-18.1218
-19.5446
-20.5994
-23.7137
-24.4632
-24.628
-24.6635
24.864
24.9821
25.3936
25.5517
25.6941
25.723
25.6851
25.5929
25.3167
25.1755
24.9655
24.8591
24.6929
24.5852
24.3685
24.138
23.5645
23.179
22.4257
22.0667
21.5679
21.3249
20.977
20.8093
20.5674
20.3314
19.7599
19.3823
18.6565
18.3212
17.8798
17.5914
17.0152
16.6828
16.0853
15.6949
14.9493
14.574
14.0372
13.7737
13.3821
12.9561
11.8726
11.3278
10.5374
10.1249
9.48372
9.14129
8.59452
8.16545
7.1969
6.5566
5.29821
4.62301
3.55776
2.96466
1.97176
1.4082
0.444097
-0.351366
-2.15601
-3.11386
-4.65207
-5.51826
-7.00762
-7.86902
-9.38725
-10.2682
-11.8276
-12.7218
-14.2902
-15.1608
-16.6481
-17.4137
-18.6653
-19.6811
-22.1005
-22.8118
-22.9839
-23.0224
25.2928
25.4032
25.7616
25.9108
26.0452
26.0721
26.0278
25.9347
25.6585
25.5181
25.3129
25.209
25.0548
24.9476
24.7222
24.4845
23.8709
23.4851
22.7697
22.417
21.9231
21.6805
21.3301
21.1614
20.9151
20.6727
20.0622
19.6828
18.9847
18.6509
18.1925
17.9099
17.3908
17.0687
16.4848
16.0895
15.2974
14.9135
14.3644
14.0984
13.7016
13.2746
12.1893
11.6429
10.8438
10.4283
9.77515
9.42619
8.84742
8.42837
7.5597
6.92766
5.62544
4.94201
3.86507
3.26881
2.26546
1.69201
0.671511
-0.117892
-1.82474
-2.7638
-4.27193
-5.13008
-6.5939
-7.44691
-8.9331
-9.80327
-11.3208
-12.2006
-13.712
-14.5607
-15.9546
-16.6862
-17.7953
-18.7066
-20.5555
-21.1819
-21.3452
-21.3829
25.7172
25.8143
26.1381
26.2706
26.4007
26.424
26.3725
26.2838
25.9949
25.8632
25.6562
25.5609
25.4149
25.3148
25.0764
24.8461
24.1682
23.8044
23.0992
22.773
22.2683
22.0405
21.6759
21.5167
21.2628
21.0289
20.3552
19.9962
19.2983
18.9856
18.4983
18.238
17.7585
17.4651
16.8769
16.5001
15.6293
15.2597
14.6804
14.4284
14.0225
13.6196
12.4844
11.9681
11.1349
10.7413
10.0545
9.72033
9.09399
8.70932
7.91309
7.32559
5.92796
5.2768
4.1532
3.58929
2.542
1.99375
0.889721
0.15232
-1.52415
-2.39093
-3.91776
-4.71763
-6.20459
-6.99944
-8.50356
-9.31241
-10.8394
-11.654
-13.1604
-13.9388
-15.2876
-15.9435
-16.9333
-17.6946
-19.0593
-19.5704
-19.7114
-19.7448
26.1378
26.2163
26.5222
26.6304
26.7604
26.779
26.7187
26.641
26.3251
26.2114
25.9952
25.9148
25.7732
25.6876
25.4304
25.2256
24.453
24.1374
23.4136
23.1362
22.6026
22.4059
22.0136
21.8758
21.6097
21.4026
20.6357
20.3232
19.5965
19.3273
18.795
18.5749
18.1188
17.8735
17.2605
16.9305
15.9411
15.6143
14.9834
14.7647
14.3432
13.9939
12.7548
12.3061
11.4085
11.066
10.3197
10.0262
9.33093
9.00677
8.25817
7.75596
6.20067
5.63052
4.41898
3.92913
2.79862
2.31775
1.0933
0.460129
-1.2559
-1.99163
-3.59264
-4.27767
-5.84292
-6.52358
-8.1018
-8.7928
-10.3865
-11.0798
-12.6378
-13.2941
-14.6483
-15.1875
-16.0803
-16.6584
-17.5973
-17.9738
-18.0819
-18.108
26.5552
26.6093
26.9143
26.9894
27.1247
27.1371
27.0656
27.0077
26.6472
26.5637
26.3287
26.2712
26.1293
26.0672
25.7822
25.6278
24.7196
24.4868
23.7102
23.5097
22.9233
22.7792
22.3412
22.24
21.9543
21.7988
20.898
20.6667
19.8765
19.6796
19.0792
18.9213
18.4707
18.2965
17.6328
17.3873
16.2266
15.9812
15.2699
15.1091
14.6611
14.4038
12.9936
12.6621
11.6599
11.407
10.5669
10.3482
9.55306
9.32124
8.59343
8.22848
6.434
6.00993
4.65593
4.29464
3.02928
2.67152
1.27326
0.81128
-1.02685
-1.55769
-3.30413
-3.80247
-5.51662
-6.01179
-7.73551
-8.23706
-9.96964
-10.471
-12.1513
-12.6214
-14.0416
-14.4173
-15.24
-15.6077
-16.1578
-16.3879
-16.4557
-16.4723
26.9704
26.9922
27.3155
27.3461
27.4938
27.4987
27.412
27.3865
26.9582
26.922
26.6551
26.6311
26.4821
26.4558
26.1289
26.0602
24.9592
24.858
23.9838
23.8986
23.2264
23.1643
22.6553
22.6117
22.2936
22.2249
21.1336
21.0327
20.1328
20.0481
19.3458
19.2793
18.8115
18.7392
17.9884
17.8807
16.4754
16.3666
15.5344
15.465
14.9715
14.8598
13.1894
13.0449
11.8814
11.7714
10.7892
10.6933
9.75268
9.65557
8.9142
8.75821
6.61254
6.42655
4.85319
4.69633
3.22366
3.06693
1.41578
1.2175
-0.850063
-1.07512
-3.06552
-3.27863
-5.23907
-5.45084
-7.41809
-7.63207
-9.60199
-9.815
-11.7131
-11.9108
-13.4767
-13.6292
-14.4178
-14.5498
-14.7311
-14.8084
-14.8315
-14.8372
)
;

boundaryField
{
    F1_1
    {
        type            fixedValue;
        value           nonuniform List<scalar> 
80
(
0
18.0974
23.5433
23.5433
25.0227
25.0227
25.5439
25.5439
25.7266
25.7266
25.7321
25.7321
25.6776
25.6776
25.4364
25.4364
24.4416
24.4416
23.7707
23.7707
23.1888
23.1888
22.712
22.712
22.4419
22.4419
21.9766
21.9766
20.7548
20.7548
19.9204
19.9204
19.1691
19.1691
18.7308
18.7308
17.162
17.162
16.0888
16.0888
15.1107
15.1107
14.0632
14.0632
13.1409
13.1409
12.368
12.368
11.9032
11.9032
10.6776
10.6776
9.8703
9.8703
9.41408
9.41408
8.31194
8.31194
7.81372
7.81372
6.98909
6.98909
5.01421
5.01421
3.4159
3.4159
1.66187
1.66187
-0.454232
-0.454232
-3.02265
-3.02265
-5.78797
-5.78797
-8.56147
-8.56147
-8.56147
-8.56147
-8.56147
-8.56147
)
;
    }
    F1_2
    {
        type            fixedValue;
        value           nonuniform List<scalar> 
80
(
30.4401
30.4401
31.0629
31.0629
31.1269
31.1269
30.9393
30.9393
30.6422
30.6422
30.3204
30.3204
30.107
30.107
29.7151
29.7151
28.5781
28.5781
27.767
27.767
27.09
27.09
26.527
26.527
26.2024
26.2024
25.6873
25.6873
24.6571
24.6571
23.9193
23.9193
23.2559
23.2559
22.8655
22.8655
21.5986
21.5986
20.717
20.717
19.9089
19.9089
19.0536
19.0536
18.2888
18.2888
17.5776
17.5776
16.8194
16.8194
15.9477
15.9477
15.097
15.097
14.135
14.135
12.9296
12.9296
11.5103
11.5103
9.70743
9.70743
7.85372
7.85372
5.89296
5.89296
3.78582
3.78582
1.55575
1.55575
-0.707791
-0.707791
-2.74763
-2.74763
-3.98717
-3.98717
-3.98717
-3.98717
-3.98717
-3.98717
)
;
    }
    F1_3
    {
        type            fixedValue;
        value           nonuniform List<scalar> 
80
(
30.1573
30.1573
30.8541
30.8541
31.0477
31.0477
30.9799
30.9799
30.7937
30.7937
30.5612
30.5612
30.3946
30.3946
30.1144
30.1144
29.2715
29.2715
28.4985
28.4985
27.8402
27.8402
27.3008
27.3008
26.9961
26.9961
26.5218
26.5218
25.5905
25.5905
24.9398
24.9398
24.3573
24.3573
24.0128
24.0128
22.8284
22.8284
21.9626
21.9626
21.1384
21.1384
20.2099
20.2099
19.3435
19.3435
18.5453
18.5453
17.8447
17.8447
17.4168
17.4168
16.2964
16.2964
15.7486
15.7486
14.3916
14.3916
13.7565
13.7565
12.6663
12.6663
10.0377
10.0377
8.00577
8.00577
5.99979
5.99979
3.82237
3.82237
1.37893
1.37893
-1.12988
-1.12988
-2.58222
-2.58222
-2.58222
-2.58222
-2.58222
-2.58222
)
;
    }
    F1_4
    {
        type            fixedValue;
        value           nonuniform List<scalar> 
80
(
27.1776
27.1776
27.522
27.522
27.6812
27.6812
27.584
27.584
27.1059
27.1059
26.8135
26.8135
26.6561
26.6561
26.2971
26.2971
25.059
25.059
24.1048
24.1048
23.3658
23.3658
22.803
22.803
22.4584
22.4584
21.2316
21.2316
20.2446
20.2446
19.4664
19.4664
18.9741
18.9741
18.1534
18.1534
16.5739
16.5739
15.6514
15.6514
15.119
15.119
13.2567
13.2567
11.9711
11.9711
10.8827
10.8827
9.83563
9.83563
9.06288
9.06288
6.66262
6.66262
4.92349
4.92349
3.29453
3.29453
1.45799
1.45799
-0.798517
-0.798517
-2.98176
-2.98176
-5.13526
-5.13526
-7.29445
-7.29445
-9.4533
-9.4533
-11.5281
-11.5281
-13.2225
-13.2225
-14.0198
-14.0198
-14.0198
-14.0198
-14.0198
-14.0198
)
;
    }
    F2_1
    {
        type            fixedValue;
        value           nonuniform List<scalar> 
80
(
13.7784
13.7784
18.8797
18.8797
21.1069
21.1069
22.0265
22.0265
22.3671
22.3671
22.4208
22.4208
22.293
22.293
22.1305
22.1305
21.184