/*--------------------------------*- C++ -*----------------------------------*\
| =========                 |                                                 |
| \\      /  F ield         | OpenFOAM: The Open Source CFD Toolbox           |
|  \\    /   O peration     | Version:  5.x                                   |
|   \\  /    A nd           | Web:      www.OpenFOAM.org                      |
|    \\/     M anipulation  |                                                 |
\*---------------------------------------------------------------------------*/
FoamFile
{
    version     2.0;
    format      ascii;
    class       volScalarField;
    location    "4";
    object      gradTx;
}
// * * * * * * * * * * * * * * * * * * * * * * * * * * * * * * * * * * * * * //

dimensions      [0 -1 0 1 0 0 0];

internalField   nonuniform List<scalar> 
6300
(
2936.78
2928.39
2911.58
2886.3
2852.47
2810.02
2758.9
2699.11
2630.71
2553.92
2469.08
2376.74
2277.71
2172.99
2063.84
2945.07
2936.71
2919.96
2894.74
2860.99
2818.59
2767.48
2707.61
2639.02
2561.88
2476.48
2383.37
2283.31
2177.34
2066.75
2961.61
2953.32
2936.69
2911.63
2878.04
2835.78
2784.72
2724.74
2655.81
2577.99
2491.52
2396.86
2294.74
2186.22
2072.68
2986.35
2978.17
2961.74
2936.96
2903.67
2861.68
2810.77
2750.73
2681.38
2602.67
2514.66
2417.72
2312.5
2200.07
2081.92
3019.17
3011.15
2995.04
2970.69
2937.91
2896.4
2845.86
2785.92
2716.24
2636.53
2546.67
2446.77
2337.39
2219.56
2094.94
3059.9
3052.12
3036.46
3012.76
2980.75
2940.06
2890.25
2830.77
2761.03
2680.47
2588.61
2485.24
2370.63
2245.76
2112.46
3108.31
3100.85
3085.83
3063.05
3032.17
2992.75
2944.2
2885.76
2816.56
2735.62
2641.96
2534.84
2414.06
2280.31
2135.63
3164.08
3157.04
3142.86
3121.31
3092.02
3054.47
3007.93
2951.42
2883.74
2803.38
2708.68
2598.04
2470.36
2325.73
2166.22
3226.77
3220.27
3207.16
3187.21
3160.04
3125.08
3081.51
3028.17
2963.49
2885.37
2791.24
2678.17
2543.52
2385.94
2207.11
3295.85
3289.99
3278.18
3260.21
3235.73
3204.19
3164.75
3116.16
3056.56
2983.29
2892.63
2779.82
2639.5
2467.34
2263.18
3370.67
3365.55
3355.25
3339.61
3318.37
3291.08
3257.03
3215.03
3163.2
3098.48
3016.08
2908.86
2767.22
2580.66
2343.31
3450.49
3446.18
3437.55
3424.51
3406.95
3384.63
3357.13
3323.64
3282.63
3231.25
3164.23
3072.24
2939.77
2744.67
2465.03
3534.5
3531.03
3524.12
3513.81
3500.16
3483.25
3463.11
3439.64
3412.3
3379.53
3337.26
3275.98
3174.86
2993.11
2667.43
3621.86
3619.21
3613.97
3606.32
3596.51
3584.97
3572.3
3559.38
3547.3
3537.19
3529.2
3519.43
3490.46
3385.38
3050.91
3711.75
3709.84
3706.12
3700.86
3694.47
3687.68
3681.62
3678.14
3680.22
3692.6
3722.81
3781.96
3882.02
4006.93
3921.17
1961.24
1866.75
1772.13
1678.33
1586.23
1496.64
1410.29
1327.78
1249.62
1176.18
1107.73
1044.46
986.442
933.698
886.183
843.798
806.407
773.835
745.877
722.301
702.845
687.221
675.111
666.169
660.019
656.26
654.469
654.21
655.046
656.55
658.326
660.014
661.305
661.945
661.728
660.492
658.103
654.448
649.423
642.927
634.868
625.171
613.783
600.687
585.903
569.489
551.531
532.131
511.389
489.387
466.176
441.772
416.148
389.249
360.989
331.272
299.996
267.06
232.367
195.822
157.323
116.751
73.9644
28.7843
-19.0044
-69.656
-123.46
-180.732
-241.808
-307.024
-376.715
-451.198
-530.769
-615.696
-706.217
-802.534
-904.812
-1013.16
-1127.64
-1248.23
-1374.8
-1507.1
-1644.77
-1787.24
-1933.8
-2083.56
-2235.46
-2388.29
-2540.74
-2691.46
1962.7
1866.86
1770.91
1675.83
1582.55
1491.93
1404.7
1321.48
1242.78
1168.95
1100.25
1036.85
978.814
926.138
878.763
836.58
799.44
767.165
739.544
716.345
697.305
682.139
670.529
662.127
656.556
653.407
652.244
652.615
654.063
656.141
658.433
660.566
662.225
663.16
663.178
662.132
659.908
656.405
651.523
645.159
637.211
627.588
616.227
603.101
588.234
571.696
553.593
534.05
513.191
491.114
467.884
443.514
417.976
391.197
363.079
333.51
302.379
269.583
235.028
198.632
160.303
119.94
77.4097
32.5414
-14.8796
-65.113
-118.459
-175.25
-235.835
-300.57
-369.801
-443.856
-523.038
-607.621
-697.846
-793.925
-896.034
-1004.31
-1118.82
-1239.57
-1366.49
-1499.34
-1637.79
-1781.29
-1929.13
-2080.41
-2234.04
-2388.75
-2543.17
-2695.85
1965.69
1867.06
1768.36
1670.67
1575
1482.28
1393.28
1308.65
1228.86
1154.28
1085.11
1021.48
963.431
910.913
863.837
822.069
785.443
753.765
726.82
704.374
686.166
671.913
661.303
653.989
649.586
647.672
647.789
649.449
652.152
655.406
658.75
661.78
664.17
665.677
666.139
665.45
663.536
660.328
655.738
649.654
641.948
632.493
621.193
608.005
592.956
576.141
557.713
537.851
516.73
494.491
471.218
446.93
421.578
395.062
367.247
337.989
307.153
274.63
240.338
204.218
166.211
126.248
84.2207
39.9749
-6.70257
-56.0839
-108.494
-164.296
-223.878
-287.629
-355.926
-429.116
-507.513
-591.398
-681.021
-776.606
-878.351
-986.426
-1100.96
-1222.01
-1349.57
-1483.49
-1623.47
-1769.02
-1919.45
-2073.83
-2230.98
-2389.55
-2548.01
-2704.75
1970.3
1867.32
1764.3
1662.53
1563.15
1467.21
1375.54
1288.79
1207.43
1131.76
1061.95
998.058
940.046
887.82
841.238
800.128
764.293
733.523
707.596
686.275
669.309
656.422
647.312
641.638
639.012
638.995
641.092
644.761
649.43
654.522
659.499
663.897
667.365
669.681
670.739
670.513
669.011
666.223
662.086
656.467
649.184
640.038
628.863
615.574
600.203
582.894
563.883
543.45
521.866
499.342
476.003
451.865
426.846
400.788
373.485
344.73
314.347
282.216
248.276
212.515
174.935
135.524
94.2255
50.9106
5.36971
-42.6905
-93.6373
-147.893
-205.908
-268.134
-334.992
-406.861
-484.067
-566.893
-655.588
-750.389
-851.523
-959.214
-1073.67
-1195.05
-1323.45
-1458.85
-1601.07
-1749.68
-1904.03
-2063.17
-2225.82
-2390.44
-2555.26
-2718.39
1976.76
1867.55
1758.4
1650.86
1546.32
1445.94
1350.66
1261.12
1177.75
1100.77
1030.24
966.128
908.297
856.569
810.733
770.562
735.823
706.285
681.716
661.885
646.554
635.471
628.353
624.877
624.663
627.254
632.111
638.615
646.077
653.786
661.061
667.333
672.202
675.479
677.167
677.393
676.319
674.044
670.547
665.659
659.087
650.488
639.557
626.127
610.224
592.081
572.085
550.693
528.339
505.356
481.924
458.055
433.602
408.295
381.805
353.808
324.052
292.399
258.832
223.425
186.289
147.517
107.132
65.0517
21.0713
-25.1374
-74.0117
-126.07
-181.868
-241.957
-306.831
-376.907
-452.513
-533.914
-621.341
-715.026
-815.226
-922.233
-1036.36
-1157.93
-1287.21
-1424.37
-1569.39
-1722.02
-1881.67
-2047.37
-2217.73
-2390.95
-2564.88
-2737.17
1985.35
1867.64
1750.13
1634.82
1523.41
1417.3
1317.46
1224.53
1138.83
1060.44
989.266
925.118
867.73
816.806
772.043
733.147
699.84
671.866
648.99
630.993
617.664
608.788
604.128
603.402
606.254
612.229
620.742
631.069
642.352
653.654
664.051
672.768
679.311
683.547
685.681
686.129
685.335
683.606
680.994
677.255
671.891
664.277
653.835
640.222
623.453
603.92
582.282
559.307
535.706
512.001
488.461
465.075
441.573
417.496
392.286
365.41
336.48
305.331
272.032
236.819
199.995
161.83
122.478
81.928
39.9821
-3.74337
-49.7979
-98.8542
-151.644
-208.879
-271.169
-338.974
-412.599
-492.241
-578.062
-670.256
-769.098
-874.961
-988.314
-1109.68
-1239.59
-1378.51
-1526.71
-1684.19
-1850.53
-2024.8
-2205.46
-2390.36
-2576.79
-2761.7
1996.54
1867.36
1738.66
1613.08
1492.83
1379.56
1274.27
1177.49
1089.35
1009.67
938.14
874.342
817.824
768.143
724.88
687.66
656.155
630.085
609.218
593.358
582.341
576.016
574.221
576.754
583.33
593.529
606.743
622.126
638.581
654.805
669.441
681.315
689.722
694.622
696.605
696.631
695.677
694.421
693.047
691.17
687.915
682.119
672.662
658.843
640.648
618.772
594.387
568.809
543.205
518.396
494.765
472.246
450.362
428.318
405.154
379.959
352.093
321.353
287.982
252.526
215.629
177.85
139.547
100.813
61.4555
21.0058
-21.2588
-66.2577
-115.013
-168.512
-227.556
-292.649
-364.006
-441.653
-525.585
-615.89
-712.832
-816.878
-928.69
-1049.08
-1178.97
-1319.23
-1470.61
-1633.53
-1807.92
-1992.97
-2187.02
-2387.48
-2590.83
-2792.89
2011.06
1866.35
1722.61
1583.59
1452.18
1330.26
1218.79
1117.99
1027.62
947.131
875.847
813.049
758.046
710.211
668.991
633.921
604.621
580.793
562.214
548.73
540.244
536.702
538.064
544.267
555.17
570.471
589.603
611.623
635.121
658.226
678.79
694.833
705.163
709.878
710.327
708.527
706.434
705.389
705.802
707.052
707.581
705.213
697.751
683.747
663.127
637.221
608.193
578.335
549.547
523.078
499.453
478.491
459.369
440.739
420.938
398.345
371.835
341.155
306.927
270.302
232.525
194.62
157.234
120.592
84.5015
48.3686
11.2196
-28.2487
-71.5461
-120.156
-175.222
-237.295
-306.341
-382.001
-463.913
-551.947
-646.312
-747.583
-856.676
-974.794
-1103.36
-1243.89
-1397.83
-1566.33
-1749.89
-1948.09
-2159.29
-2380.35
-2606.61
-2832.14
2030.03
1863.87
1699.71
1543.09
1397.81
1265.88
1147.88
1043.44
951.628
871.309
801.303
740.501
687.922
642.727
604.222
571.852
545.189
523.923
507.854
496.886
491.012
490.31
494.918
504.996
520.662
541.878
568.286
598.973
632.21
665.284
694.63
716.559
728.669
731.256
727.27
720.824
715.661
714.237
717.334
723.955
731.397
735.623
732.242
718.159
693.201
660.148
623.177
586.303
552.534
523.654
500.295
482.072
467.654
454.834
440.734
422.358
397.572
366.056
329.316
289.731
249.601
210.639
173.847
139.575
107.607
77.1942
47.0387
15.2761
-20.4255
-62.4979
-112.79
-171.892
-239.14
-313.33
-393.41
-478.868
-569.825
-667.001
-771.637
-885.43
-1010.48
-1149.18
-1304.06
-1477.39
-1670.73
-1884.45
-2117.27
-2365.66
-2623.36
-2881.59
2055.28
1858.45
1665.91
1486.2
1324.15
1181.39
1057.43
950.658
859.058
780.609
713.477
656.089
607.142
565.588
530.6
501.546
477.966
459.551
446.135
437.689
434.316
436.257
443.88
457.663
478.143
505.793
540.793
582.631
629.514
677.694
721.13
752.402
765.871
762.079
747.734
731.253
719.486
716.555
723.769
739.658
759.823
776.969
782.123
768.211
734.915
688.7
638.006
589.784
548.468
516.262
493.729
480.161
473.626
470.761
466.673
455.594
432.988
398.469
355.795
309.939
264.988
223.526
186.825
155.239
128.472
105.648
85.1717
64.4739
39.8706
7.00068
-37.67
-94.7487
-161.936
-236.166
-315.151
-397.852
-484.363
-575.655
-673.386
-779.83
-897.898
-1031.16
-1183.69
-1359.58
-1562.14
-1793.25
-2052.78
-2337.47
-2639.27
-2944.63
2089.95
1846.8
1613.59
1403.81
1222.66
1069.8
942.182
835.986
747.515
673.583
611.594
559.496
515.696
478.974
448.414
423.342
403.289
387.965
377.246
371.172
369.956
374.008
383.956
400.673
425.285
459.109
503.437
559.007
624.933
696.916
765.125
813.86
827.906
808.076
771.252
734.876
710.565
704.242
717.692
749.181
792.578
835.559
859.441
846.155
795.21
723.684
649.258
583.305
531.266
494.929
474.237
468.11
474.3
488.435
502.665
505.416
485.548
442.615
386.846
328.834
275.345
229.549
192.435
163.96
143.656
130.718
123.622
119.295
112.071
93.4933
55.3202
-3.04524
-74.5835
-152.147
-231.531
-311.335
-392
-475.018
-562.566
-657.465
-763.414
-885.347
-1029.62
-1203.33
-1412.42
-1661.04
-1951.99
-2284.55
-2649.97
-3026.96
2139.85
1820.75
1527.45
1280.14
1080.42
921.81
796.066
695.769
615.013
549.337
495.447
450.934
414.037
383.472
358.311
337.896
321.789
309.736
301.656
297.645
298
303.258
314.271
332.301
359.15
397.287
449.877
520.454
611.614
721.554
837.139
925.25
938.697
878.521
794.106
721.103
675.721
663.439
685.621
741.539
825.91
921.63
990.257
978.304
885.121
762.824
648.292
556.773
491.44
451.053
433.762
438.309
463.52
505.959
555.175
587.796
571.305
505.233
421.116
341.21
274.615
223.065
185.599
160.911
148.229
147.371
158.084
178.284
200.617
208.201
177.387
107.628
21.4487
-65.5018
-147.295
-223.57
-296.231
-367.843
-441.142
-519.167
-605.885
-707.343
-833.117
-996.116
-1205.7
-1467.81
-1791.23
-2184.26
-2643.9
-3138.69
2216.68
1757.49
1375.04
1087.92
878.935
726.454
613.271
527.388
460.774
408.098
365.781
331.391
303.247
280.176
261.36
246.236
234.44
225.775
220.196
217.824
218.973
224.213
234.472
251.22
276.751
314.639
370.401
452.249
571.233
738.041
948.692
1144.13
1155.48
983.846
800.502
667.54
593.191
572.991
604.95
692.903
842.879
1046.69
1237.08
1227.4
1016.93
790.765
614.168
492.52
415.676
373.907
361.825
378.743
427.918
513.71
631.566
740.882
728.444
593.823
449.311
334.409
252.21
196.294
160.359
140.57
135.772
147.358
178.879
234.198
310.397
378.199
355.529
241.943
118.593
13.7194
-70.9982
-141.003
-201.964
-258.228
-312.896
-368.334
-427.112
-494.3
-582.984
-721.78
-923.32
-1186.26
-1530.19
-1987.98
-2587.12
-3299.41
2346.45
1583.67
1085.32
783.11
596.063
474.484
391.147
331.238
286.451
251.926
224.687
202.841
185.14
170.745
159.085
149.776
142.577
137.361
134.11
132.925
134.05
137.931
145.323
157.483
176.548
206.246
253.35
330.556
461.969
691.374
1082.12
1628.06
1635.73
1106.01
734.324
529.555
432.669
407.419
443.633
554.935
782.302
1191.04
1771.98
1765.6
1171.31
747.309
500.9
363.735
289.395
254
248.122
272.713
339.577
475.274
720.239
1069.27
1061.51
696.639
434.853
280.506
191.954
140.742
111.867
98.6354
99.7203
118.634
165.399
260.039
432.259
678.464
664.579
390.313
189.126
63.9169
-15.8849
-71.4537
-114.454
-150.9
-183.53
-212.679
-236.217
-250.286
-260.669
-357.068
-552.493
-788.041
-1105.12
-1588.08
-2367.34
-3550.86
2588.9
1029.01
513.102
312.448
218.894
167.43
135.273
113.301
97.3419
85.2522
75.8207
68.3144
62.2664
57.3692
53.4168
50.273
47.8524
46.1118
45.0469
44.6965
45.1537
46.5896
49.3006
53.8019
61.0257
72.7828
92.943
130.795
211.583
412.352
992.058
2887.06
2889.78
1000.56
427.768
236.204
168.98
153.328
174.178
249.816
460.529
1087.4
3152.57
3150.33
1080.45
448.098
230.308
144.473
107.026
91.5805
90.5369
105.803
152.106
279.478
659.037
1911.41
1908.77
650.996
265.674
131.851
77.9206
53.0219
40.8467
36.0823
37.992
49.8009
82.9758
174.155
447.571
1353.24
1348.56
433.436
150.246
48.7266
4.33359
-19.9999
-36.3787
-49.0635
-59.1708
-65.0976
-58.949
-11.5699
185.515
150.253
-123.874
-272.392
-441.137
-761.468
-1565.34
-3986.32
-2853.41
-3023.99
-3185.98
-3337.67
-3477.73
-3605.21
-3719.56
-3820.5
-3908.02
-3982.28
-4043.52
-4092.04
-4128.14
-4152.05
-4163.96
-2859.87
-3032.49
-3196.19
-3349.2
-3490.19
-3618.24
-3732.84
-3833.8
-3921.17
-3995.17
-4056.11
-4104.34
-4140.19
-4163.92
-4175.73
-2873.01
-3049.8
-3216.97
-3372.64
-3515.47
-3644.6
-3759.65
-3860.56
-3947.56
-4020.99
-4081.28
-4128.89
-4164.21
-4187.57
-4199.18
-2893.33
-3076.63
-3249.15
-3408.83
-3554.33
-3684.93
-3800.46
-3901.13
-3987.38
-4059.81
-4119.02
-4165.6
-4200.07
-4222.82
-4234.12
-2921.64
-3114.14
-3294.05
-3459.09
-3607.97
-3740.21
-3856.01
-3955.97
-4040.91
-4111.71
-4169.25
-4214.3
-4247.51
-4269.37
-4280.22
-2959.24
-3164.14
-3353.72
-3525.41
-3678.11
-3811.81
-3927.29
-4025.71
-4108.43
-4176.74
-4231.83
-4274.7
-4306.16
-4326.81
-4337.04
-3008.08
-3229.37
-3431.14
-3610.62
-3767.13
-3901.52
-4015.48
-4111.03
-4190.21
-4254.85
-4306.48
-4346.38
-4375.49
-4394.53
-4403.94
-3071.23
-3314.01
-3530.75
-3718.67
-3878.16
-4011.54
-4121.94
-4212.59
-4286.4
-4345.81
-4392.74
-4428.69
-4454.77
-4471.74
-4480.11
-3153.57
-3424.57
-3659.08
-3855.04
-4015.17
-4144.39
-4248.03
-4330.87
-4396.87
-4449.1
-4489.83
-4520.73
-4542.99
-4557.42
-4564.52
-3263.27
-3571.52
-3825.83
-4027.11
-4182.95
-4302.69
-4394.76
-4465.85
-4520.99
-4563.74
-4596.59
-4621.26
-4638.91
-4650.29
-4655.88
-3414.91
-3772.28
-4045.49
-4244.47
-4386.72
-4488.53
-4562.3
-4616.66
-4657.35
-4688.13
-4711.38
-4728.65
-4740.93
-4748.82
-4752.68
-3636.87
-4057.1
-4339.23
-4518.42
-4630.79
-4702.25
-4749.1
-4780.97
-4803.49
-4819.88
-4832
-4840.89
-4847.18
-4851.22
-4853.2
-3991.32
-4479.87
-4735.78
-4859.06
-4915.61
-4940.45
-4950.71
-4954.49
-4955.6
-4955.76
-4955.66
-4955.57
-4955.53
-4955.53
-4955.54
-4636.14
-5135.12
-5264.8
-5266.25
-5232.01
-5193.07
-5158.6
-5130.52
-5108.53
-5091.73
-5079.16
-5070.02
-5063.67
-5059.68
-5057.75
-6048.62
-6159.53
-5921.88
-5708.96
-5552.94
-5441.04
-5359.92
-5300.31
-5256.12
-5223.3
-5199.07
-5181.5
-5169.3
-5161.6
-5157.88
3795.78
3794.45
3791.91
3788.43
3784.53
3781.03
3779.34
3781.81
3792.49
3818.61
3873.62
3984.98
4218.06
4769.67
6408.74
3873.02
3872.12
3870.44
3868.26
3866.03
3864.56
3865.19
3870.25
3883.75
3913
3971.49
4084.91
4302.26
4707.76
5350.42
3950.79
3950.24
3949.25
3948.01
3946.9
3946.52
3947.89
3952.72
3963.99
3986.99
4031.12
4112.58
4255.67
4481.05
4739.74
4028.84
4028.58
4028.12
4027.59
4027.17
4027.18
4028.09
4030.63
4035.99
4046.19
4064.72
4097.36
4151.84
4231.08
4310.07
4106.99
4106.97
4106.96
4106.98
4107.04
4107.11
4107.06
4106.49
4104.54
4099.5
4088.4
4066.89
4030.7
3981.18
3936.65
4185.05
4185.27
4185.68
4186.24
4186.79
4187.03
4186.28
4183.21
4175.14
4156.93
4119.21
4046.52
3918.7
3727.71
3533.68
4262.86
4263.33
4264.21
4265.4
4266.67
4267.52
4267.03
4263.31
4252.68
4227.78
4174.21
4064.35
3850.47
3476.27
2997.37
4340.26
4341
4342.42
4344.42
4346.72
4348.85
4349.91
4348.12
4340.01
4318.45
4268.19
4154.3
3893.49
3297.44
2129.89
4417.04
4418.09
4420.14
4423.1
4426.78
4430.83
4434.66
4437.22
4436.57
4428.96
4406.25
4346.16
4169.24
3515.38
453.039
4493
4494.39
4497.13
4501.18
4506.46
4512.85
4520.2
4528.45
4537.84
4549.85
4570.16
4619.05
4776.09
5405.78
8448.94
4567.9
4569.64
4573.1
4578.3
4585.27
4594.09
4605.02
4618.78
4637.17
4664.87
4714.12
4816.72
5054.6
5620.05
6761.74
4641.5
4643.58
4647.75
4654.08
4662.67
4673.75
4687.79
4705.8
4729.91
4764.82
4820.92
4920.32
5105.53
5434.02
5868.93
4713.56
4715.96
4720.81
4728.18
4738.23
4751.23
4767.69
4788.47
4815.04
4849.95
4897.54
4964.2
5056.84
5173.96
5279.72
4783.85
4786.55
4792
4800.29
4811.61
4826.21
4844.5
4867
4894.23
4926.17
4960.81
4989.91
4991.03
4921.68
4765.54
4852.15
4855.12
4861.1
4870.2
4882.59
4898.51
4918.27
4942.15
4970.03
5000.42
5027.79
5034.95
4974.04
4729.55
4144.52
4918.3
4921.49
4927.92
4937.7
4950.99
4968.03
4989.09
5014.41
5043.94
5076.64
5108.7
5127.13
5084.43
4773.8
3118.82
4982.12
4985.5
4992.3
5002.63
5016.67
5034.63
5056.83
5083.65
5115.52
5153.2
5198.96
5261.63
5380.77
5751.5
7437.65
5043.49
5047.02
5054.11
5064.88
5079.49
5098.17
5121.27
5149.26
5182.94
5224.04
5277.36
5356.78
5502.28
5815.57
6436.9
5102.32
5105.94
5113.25
5124.33
5139.35
5158.53
5182.2
5210.81
5245.06
5286.28
5337.51
5405.92
5507.14
5665.6
5869.32
5158.51
5162.21
5169.65
5180.93
5196.2
5215.65
5239.58
5268.32
5302.21
5341.43
5385.61
5432.14
5472.13
5484.07
5444.9
5212.02
5215.76
5223.27
5234.64
5250
5269.55
5293.52
5322.15
5355.52
5393.03
5431.97
5462.78
5456.47
5337.9
4994.99
5262.83
5266.57
5274.08
5285.44
5300.77
5320.25
5344.1
5372.57
5405.82
5443.52
5483.83
5519.06
5518.66
5347.39
4308.66
5310.94
5314.65
5322.1
5333.36
5348.54
5367.79
5391.35
5419.56
5452.88
5492.08
5539.1
5599.95
5699.4
5959.15
7052.06
5356.36
5360.01
5367.35
5378.43
5393.33
5412.2
5435.27
5462.89
5495.7
5535.09
5584.65
5653.91
5768.69
5992.19
6406.84
5399.12
5402.7
5409.89
5420.71
5435.24
5453.58
5475.91
5502.49
5533.81
5570.93
5616.39
5676.11
5762.35
5892.36
6051.33
5439.28
5442.77
5449.77
5460.29
5474.37
5492.07
5513.47
5538.67
5567.76
5600.84
5638.1
5679.76
5725.48
5772.27
5808
5476.9
5480.29
5487.07
5497.26
5510.85
5527.86
5548.29
5572.04
5598.8
5627.71
5656.64
5680.44
5687.75
5659.74
5591.25
5512.06
5515.34
5521.9
5531.73
5544.82
5561.16
5580.67
5603.19
5628.21
5654.43
5678.63
5692.42
5674.44
5575.2
5328.72
5544.82
5547.98
5554.32
5563.8
5576.41
5592.11
5610.85
5632.48
5656.65
5682.44
5707.72
5726.33
5717.43
5592.76
4896.82
5575.26
5578.32
5584.42
5593.56
5605.71
5620.83
5638.9
5659.9
5683.8
5710.67
5741.3
5779.21
5840.68
6006.92
6724.51
5603.46
5606.41
5612.3
5621.1
5632.8
5647.36
5664.8
5685.18
5708.74
5736.18
5769.71
5815.6
5891.04
6038.06
6311.26
5629.49
5632.34
5638.02
5646.5
5657.76
5671.77
5688.53
5708.14
5730.84
5757.31
5789.4
5831.32
5891.56
5981.43
6089.56
5653.43
5656.18
5661.66
5669.84
5680.68
5694.12
5710.17
5728.83
5750.18
5774.42
5802.13
5834.19
5871.37
5911.99
5944.8
5675.35
5678.01
5683.3
5691.2
5701.64
5714.55
5729.87
5747.52
5767.35
5789
5811.72
5833.35
5848.66
5847.82
5824.65
5695.29
5697.87
5703.01
5710.65
5720.74
5733.16
5747.83
5764.58
5783.11
5802.72
5821.93
5836.77
5837.05
5799.02
5690.26
5713.33
5715.84
5720.84
5728.28
5738.06
5750.09
5764.23
5780.29
5797.95
5816.59
5835.03
5850.15
5851.92
5799.19
5482.18
5729.5
5731.96
5736.86
5744.13
5753.69
5765.42
5779.17
5794.77
5811.97
5830.48
5850.31
5872.66
5904.52
5982.75
6311.79
5743.84
5746.26
5751.09
5758.26
5767.67
5779.2
5792.71
5808.02
5824.92
5843.31
5863.72
5888.42
5924.78
5992.01
6115.76
5756.36
5758.78
5763.57
5770.69
5780.04
5791.49
5804.88
5820.03
5836.69
5854.63
5874.01
5895.93
5923.5
5961.86
6007.52
5767.1
5769.51
5774.31
5781.44
5790.8
5802.28
5815.71
5830.88
5847.42
5864.81
5882.42
5899.39
5914.58
5926.52
5932.84
5776.03
5778.46
5783.3
5790.49
5799.95
5811.58
5825.22
5840.64
5857.4
5874.7
5891.14
5903.93
5907.79
5894.94
5864.4
5783.16
5785.62
5790.52
5797.82
5807.45
5819.35
5833.38
5849.35
5866.86
5885.07
5902.28
5914.54
5912.49
5875.5
5776.61
5788.45
5790.95
5795.94
5803.38
5813.25
5825.5
5840.07
5856.87
5875.69
5896
5916.73
5934.93
5941.32
5898.9
5622
5791.89
5794.44
5799.51
5807.12
5817.25
5829.89
5845.08
5862.87
5883.33
5906.52
5932.81
5963.39
6003.93
6085.01
6382.82
5793.44
5796.03
5801.2
5808.97
5819.35
5832.38
5848.17
5866.91
5888.91
5914.76
5945.78
5984.8
6038.28
6120.48
6246.41
5793.07
5795.7
5800.96
5808.87
5819.47
5832.83
5849.09
5868.55
5891.66
5919.27
5953.08
5996.04
6052.55
6125.46
6199.28
5790.74
5793.41
5798.74
5806.76
5817.53
5831.11
5847.68
5867.53
5891.14
5919.36
5953.9
5997.73
6055.31
6129.67
6205.26
5786.45
5789.13
5794.51
5802.61
5813.47
5827.18
5843.87
5863.78
5887.27
5914.94
5948.15
5989.73
6046.32
6132.9
6265.57
5780.16
5782.86
5788.26
5796.4
5807.3
5821.04
5837.7
5857.42
5880.33
5906.56
5936.46
5971.16
6016.38
6104.01
6419.85
5771.87
5774.57
5779.98
5788.12
5799.02
5812.72
5829.28
5848.72
5870.93
5895.49
5921.31
5945.16
5956.86
5916.53
5626.79
5761.57
5764.27
5769.66
5777.78
5788.65
5802.29
5818.74
5837.97
5859.76
5883.44
5907.39
5927.46
5933.37
5902.12
5802.91
5749.28
5751.96
5757.32
5765.39
5776.19
5789.76
5806.14
5825.31
5847.12
5871.06
5896.05
5919.45
5935.56
5934.76
5912.01
5735
5737.65
5742.95
5750.94
5761.66
5775.15
5791.47
5810.7
5832.84
5857.83
5885.7
5916.36
5949.39
5982.52
6007.21
5718.75
5721.35
5726.58
5734.46
5745.05
5758.42
5774.67
5793.94
5816.42
5842.49
5873.27
5911.5
5963.03
6036.03
6121.43
5700.55
5703.1
5708.22
5715.95
5726.36
5739.54
5755.63
5774.82
5797.34
5823.73
5855.55
5897.26
5961.64
6080.8
6296.87
5680.45
5682.93
5687.9
5695.43
5705.59
5718.5
5734.32
5753.24
5775.43
5801.08
5830.82
5867.14
5922.08
6058.17
6624.28
5658.5
5660.88
5665.66
5672.92
5682.75
5695.29
5710.73
5729.27
5750.95
5775.45
5801.39
5823.93
5826.06
5736.8
5195.83
5634.76
5637.02
5641.56
5648.47
5657.87
5669.91
5684.86
5702.96
5724.36
5748.69
5774.17
5794.75
5793.36
5728.95
5544.71
5609.32
5611.42
5615.67
5622.15
5630.98
5642.37
5656.65
5674.23
5695.57
5720.99
5750.22
5780.68
5804.29
5804.14
5767.73
5582.26
5584.19
5588.08
5594.02
5602.14
5612.68
5626.02
5642.75
5663.78
5690.51
5725.25
5771.22
5831.58
5904.35
5967.57
5553.73
5555.45
5558.92
5564.22
5571.47
5580.89
5592.89
5608.14
5627.85
5654.32
5692.35
5751.61
5850.1
6011.04
6213.43
5523.86
5525.35
5528.34
5532.9
5539.11
5547.16
5557.35
5570.29
5587.06
5609.97
5644.57
5704.59
5825.11
6088.79
6601.97
5492.81
5494.04
5496.52
5500.26
5505.32
5511.77
5519.78
5529.63
5541.82
5557.35
5578.98
5615.41
5700.57
5993.15
7349.02
5460.75
5461.72
5463.66
5466.55
5470.38
5475.13
5480.77
5487.21
5494.09
5500.34
5502.96
5492.22
5431.84
5158.98
3812.03
5427.86
5428.57
5429.97
5432.02
5434.63
5437.7
5441.06
5444.34
5446.62
5445.7
5436.06
5403.36
5310.51
5070.53
4569.67
5394.33
5394.79
5395.68
5396.92
5398.38
5399.92
5401.26
5402
5401.21
5396.95
5385.03
5356.09
5291.23
5163.09
4981.76
5360.32
5360.56
5360.97
5361.48
5361.92
5362.09
5361.75
5360.55
5358.01
5353.37
5345.67
5333.59
5315.74
5292.42
5270.19
5325.99
5326.03
5326.04
5325.9
5325.45
5324.44
5322.66
5319.89
5316.09
5311.75
5309.21
5314.93
5343.9
5420.85
5545.48
5291.48
5291.35
5291.03
5290.38
5289.17
5287.17
5284.1
5279.8
5274.33
5268.74
5266.85
5279.95
5338.61
5516.04
5909.62
5256.89
5256.65
5256.09
5255.04
5253.26
5250.45
5246.25
5240.34
5232.48
5222.98
5213.92
5213.14
5250.71
5461
6549.42
5222.3
5222
5221.3
5220.03
5217.89
5214.51
5209.42
5202.05
5191.58
5176.74
5155.09
5119.53
5042.72
4795.99
3682
5187.75
5187.45
5186.74
5185.42
5183.17
5179.56
5174.02
5165.76
5153.52
5135.05
5105.73
5054.38
4952.55
4733.05
4309
5153.24
5153
5152.42
5151.27
5149.21
5145.77
5140.33
5132.04
5119.58
5100.71
5071.49
5024.08
4943.91
4811.94
4644.15
5118.73
5118.62
5118.3
5117.54
5115.99
5113.17
5108.46
5101.06
5089.86
5073.38
5049.69
5016.34
4971.06
4915.5
4865.43
5084.11
5084.21
5084.31
5084.17
5083.46
5081.69
5078.28
5072.52
5063.61
5050.86
5034.42
5016.68
5005.17
5015.04
5054.61
5049.24
5049.62
5050.28
5051
5051.44
5051.14
5049.54
5045.98
5039.81
5030.7
5019.86
5012.48
5024.26
5093.78
5273.99
5013.92
5014.65
5016.02
5017.82
5019.73
5021.3
5021.98
5021.07
5017.81
5011.55
5002.69
4994.76
5003.07
5095.47
5621.27
4977.91
4979.06
4981.27
4984.36
4988.03
4991.88
4995.33
4997.61
4997.66
4994
4984.66
4965.54
4923.3
4796.01
4243.85
4940.93
4942.54
4945.7
4950.27
4956
4962.52
4969.3
4975.5
4979.83
4980.2
4973.19
4952.14
4902.34
4791.33
4578.68
4902.63
4904.75
4908.96
4915.16
4923.19
4932.78
4943.47
4954.49
4964.52
4971.3
4971.26
4958.45
4923.65
4856.91
4768.95
4862.68
4865.33
4870.63
4878.56
4889.08
4902.05
4917.21
4933.97
4951.21
4966.91
4977.96
4979.76
4966.89
4936.95
4901.27
4820.7
4823.87
4830.26
4839.95
4853.04
4869.6
4889.64
4912.92
4938.72
4965.52
4990.85
5011.01
5021.73
5020.7
5011.97
4776.33
4779.98
4787.4
4798.76
4814.35
4834.52
4859.62
4889.91
4925.27
4964.91
5007.09
5048.55
5084.48
5109.5
5119.79
4729.23
4733.29
4741.58
4754.41
4772.26
4795.79
4825.8
4863.16
4908.6
4962.32
5023.6
5089.67
5154.55
5208.28
5237.92
4679.12
4683.48
4692.41
4706.35
4726
4752.33
4786.66
4830.6
4885.93
4954.26
5036.55
5131.35
5232.11
5323.5
5379.81
4625.8
4630.29
4639.55
4654.11
4674.87
4703.11
4740.66
4789.93
4853.95
4936.27
5040.56
5168.63
5315.93
5462.81
5563.98
4569.17
4573.61
4582.79
4597.35
4618.3
4647.21
4686.33
4738.81
4809.02
4902.8
5027.82
5192.29
5399.8
5633.58
5821.59
4509.26
4513.44
4522.1
4535.91
4555.99
4584.02
4622.51
4675.18
4747.44
4847.4
4987.46
5185.78
5465.19
5835.83
6212.94
4446.28
4449.96
4457.62
4469.92
4487.93
4513.34
4548.67
4597.74
4666.39
4763.93
4906.41
5122.69
5466.98
6033.31
6869.31
4380.55
4383.52
4389.72
4399.73
4414.52
4435.56
4465.09
4506.51
4565.01
4649.04
4773.89
4970.43
5314.34
6043.2
8109.36
-9992.34
-7417.9
-6501.36
-6062.42
-5806.56
-5639.97
-5524.56
-5441.65
-5380.85
-5335.89
-5302.7
-5278.61
-5261.84
-5251.24
-5246.1
-8456.23
-7410.37
-6696.34
-6256.47
-5974.99
-5785.14
-5651.54
-5554.66
-5483.15
-5429.94
-5390.46
-5361.68
-5341.57
-5328.82
-5322.63
-7648.25
-7172.24
-6700.77
-6340.38
-6079.67
-5891.13
-5752.85
-5649.94
-5572.61
-5514.33
-5470.67
-5438.6
-5416.07
-5401.72
-5394.74
-7172.67
-6930.78
-6627.92
-6354.92
-6134.1
-5962.07
-5829.46
-5727.35
-5648.74
-5588.45
-5542.7
-5508.76
-5484.75
-5469.4
-5461.91
-6866.93
-6731.51
-6534.19
-6333.08
-6154.51
-6005.5
-5884.74
-5788.3
-5712.03
-5652.35
-5606.38
-5571.9
-5547.31
-5531.49
-5523.75
-6657.1
-6575.08
-6442.92
-6295.45
-6154.26
-6029.18
-5923
-5835.1
-5763.68
-5706.61
-5661.94
-5628.04
-5603.64
-5587.86
-5580.11
-6506.1
-6453.33
-6362.13
-6253.31
-6142.68
-6039.6
-5948.4
-5870.35
-5805.24
-5752.14
-5709.89
-5677.43
-5653.87
-5638.53
-5630.97
-6393.61
-6358.11
-6293.45
-6212.27
-6125.74
-6041.64
-5964.51
-5896.49
-5838.35
-5789.98
-5750.91
-5720.52
-5698.26
-5683.68
-5676.47
-6307.66
-6283
-6236.08
-6174.81
-6106.97
-6038.7
-5974.13
-5915.66
-5864.54
-5821.25
-5785.75
-5757.82
-5737.19
-5723.59
-5716.84
-6240.71
-6223.21
-6188.53
-6141.77
-6088.38
-6033.07
-5979.36
-5929.58
-5885.19
-5846.96
-5815.19
-5789.92
-5771.09
-5758.62
-5752.4
-6187.79
-6175.22
-6149.22
-6113.19
-6070.98
-6026.19
-5981.7
-5939.63
-5901.45
-5868.07
-5839.97
-5817.41
-5800.46
-5789.18
-5783.53
-6145.49
-6136.42
-6116.73
-6088.75
-6055.25
-6018.96
-5982.21
-5946.84
-5914.25
-5885.36
-5860.78
-5840.85
-5825.78
-5815.69
-5810.63
-6111.36
-6104.85
-6089.85
-6068.01
-6041.33
-6011.91
-5981.62
-5952.01
-5924.34
-5899.54
-5878.21
-5860.78
-5847.51
-5838.58
-5834.09
-6083.64
-6079.04
-6067.59
-6050.48
-6029.19
-6005.33
-5980.4
-5955.7
-5932.33
-5911.16
-5892.8
-5877.67
-5866.08
-5858.26
-5854.31
-6060.99
-6057.85
-6049.13
-6035.71
-6018.7
-5999.36
-5978.87
-5958.32
-5938.68
-5920.71
-5904.99
-5891.96
-5881.92
-5875.12
-5871.68
-6042.4
-6040.39
-6033.8
-6023.29
-6009.71
-5994.04
-5977.23
-5960.19
-5943.73
-5928.56
-5915.19
-5904.02
-5895.39
-5889.51
-5886.53
-6027.1
-6025.97
-6021.06
-6012.86
-6002.04
-5989.36
-5975.61
-5961.51
-5947.78
-5935.02
-5923.7
-5914.19
-5906.81
-5901.76
-5899.2
-6014.47
-6014.04
-6010.46
-6004.12
-5995.53
-5985.31
-5974.08
-5962.45
-5951.04
-5940.35
-5930.8
-5922.75
-5916.46
-5912.16
-5909.97
-6004.03
-6004.15
-6001.64
-5996.79
-5990.01
-5981.81
-5972.68
-5963.12
-5953.66
-5944.74
-5936.73
-5929.94
-5924.62
-5920.96
-5919.09
-5995.39
-5995.96
-5994.31
-5990.67
-5985.37
-5978.82
-5971.42
-5963.6
-5955.78
-5948.37
-5941.67
-5935.97
-5931.48
-5928.38
-5926.8
-5988.25
-5989.17
-5988.21
-5985.56
-5981.47
-5976.27
-5970.32
-5963.93
-5957.5
-5951.36
-5945.79
-5941.01
-5937.23
-5934.63
-5933.29
-5982.34
-5983.56
-5983.16
-5981.31
-5978.2
-5974.12
-5969.35
-5964.17
-5958.9
-5953.83
-5949.2
-5945.21
-5942.05
-5939.86
-5938.73
-5977.47
-5978.93
-5978.99
-5977.78
-5975.48
-5972.32
-5968.53
-5964.33
-5960.03
-5955.86
-5952.02
-5948.7
-5946.06
-5944.22
-5943.27
-5973.49
-5975.13
-5975.56
-5974.88
-5973.23
-5970.82
-5967.83
-5964.45
-5960.94
-5957.51
-5954.34
-5951.58
-5949.37
-5947.83
-5947.03
-5970.24
-5972.04
-5972.77
-5972.51
-5971.39
-5969.58
-5967.24
-5964.53
-5961.67
-5958.86
-5956.24
-5953.93
-5952.08
-5950.79
-5950.12
-5967.64
-5969.55
-5970.52
-5970.6
-5969.9
-5968.57
-5966.76
-5964.58
-5962.26
-5959.94
-5957.76
-5955.83
-5954.28
-5953.18
-5952.62
-5965.59
-5967.6
-5968.75
-5969.09
-5968.72
-5967.77
-5966.37
-5964.62
-5962.71
-5960.79
-5958.96
-5957.34
-5956.01
-5955.08
-5954.6
-5964.03
-5966.11
-5967.39
-5967.94
-5967.81
-5967.15
-5966.06
-5964.64
-5963.05
-5961.43
-5959.88
-5958.49
-5957.35
-5956.54
-5956.12
-5962.91
-5965.04
-5966.42