/*--------------------------------*- C++ -*----------------------------------*\
| =========                 |                                                 |
| \\      /  F ield         | OpenFOAM: The Open Source CFD Toolbox           |
|  \\    /   O peration     | Version:  5.x                                   |
|   \\  /    A nd           | Web:      www.OpenFOAM.org                      |
|    \\/     M anipulation  |                                                 |
\*---------------------------------------------------------------------------*/
FoamFile
{
    version     2.0;
    format      ascii;
    class       volScalarField;
    location    "4";
    object      gradTy;
}
// * * * * * * * * * * * * * * * * * * * * * * * * * * * * * * * * * * * * * //

dimensions      [0 -1 0 1 0 0 0];

internalField   nonuniform List<scalar> 
6300
(
2471.51
5410.34
8336.61
11241.9
14117.7
16955.3
19746.3
22481.7
25153
27751.4
30268.8
32697
35028.9
37258
39379.2
6.20205
18.6307
31.13
43.7359
56.4665
69.3131
82.2316
95.1313
107.866
120.226
131.938
142.67
152.052
159.706
165.29
10.3092
30.9723
51.7646
72.7541
93.9806
115.441
137.072
158.734
180.191
201.094
220.981
239.278
255.333
268.47
278.066
14.3711
43.1836
72.1999
101.533
131.258
161.394
191.878
222.538
253.063
282.974
311.608
338.12
361.523
380.764
394.855
18.3625
55.1896
92.3163
129.916
168.121
206.995
246.502
286.47
326.54
366.121
404.345
440.061
471.86
498.192
517.552
22.2508
66.8943
111.956
157.691
204.31
251.955
300.658
350.291
400.497
450.611
499.579
545.903
587.65
622.575
648.407
25.9966
78.1783
130.92
184.577
239.467
295.849
353.875
413.528
474.533
536.231
597.437
656.301
710.238
756.027
790.206
29.5532
88.9
148.966
210.223
273.126
338.09
405.452
475.4
547.86
622.324
697.616
771.603
840.947
901.061
946.577
32.8687
98.8997
165.815
234.217
304.714
377.922
454.431
534.743
619.161
707.566
799.074
891.521
980.853
1060.66
1122.47
35.8893
108.011
181.175
256.106
333.583
414.442
499.589
589.963
686.453
789.68
899.562
1014.52
1130.25
1238.23
1324.96
38.5652
116.079
194.76
275.444
359.057
446.661
539.501
639.045
746.983
865.111
994.942
1136.72
1287.36
1436.99
1564.69
40.8565
122.976
206.337
291.844
380.529
473.629
572.692
679.711
797.295
928.811
1078.34
1250
1445.46
1657.64
1857.91
42.7403
128.628
215.762
305.056
397.573
494.619
597.906
709.787
833.646
974.463
1139.59
1339.43
1586.78
1890.12
2227.5
44.2157
133.031
223.019
315.037
410.073
509.353
614.504
727.862
853.009
995.775
1166.08
1381.32
1672.06
2088.48
2685.88
45.3059
136.258
228.241
321.989
418.318
518.197
622.874
734.121
854.727
989.516
1147.6
1347.64
1631.61
2105.8
3085.23
41221.2
42816.6
44332.5
45769.1
47127.6
48409.8
49618.1
50755.6
51825.8
52832.6
53780.1
54672.6
55514.5
56310.3
57064.4
57781.1
58464.7
59119.3
59748.9
60357.2
60947.7
61523.9
62088.9
62645.3
63195.8
63742.5
64287.2
64831.4
65376.2
65922.3
66470.1
67019.6
67570.6
68122.5
68674.8
69226.6
69777
70325
70869.4
71409.1
71942.8
72469.2
72986.8
73494.2
73989.9
74472.6
74940.9
75393.6
75829.4
76247.4
76646.5
77025.8
77384.2
77720.9
78034.6
78324.3
78588.6
78826.2
79035.8
79215.7
79364.5
79480.4
79561.7
79606.6
79612.8
79578.3
79500.5
79376.7
79203.9
78978.7
78697.6
78356.6
77951.7
77478.4
76932.2
76308.4
75601.9
74807.7
73920.6
72935.6
71847.5
70651.2
69342.1
67915.7
66368.3
64696.6
62898.3
60972.1
58917.5
56735.5
168.269
169.266
168.533
166.122
162.146
156.766
150.179
142.597
134.236
125.302
115.984
106.449
96.8388
87.2735
77.8512
68.6524
59.7438
51.1822
43.0186
35.3012
28.0788
21.4016
15.3224
9.89522
5.17251
1.20105
-1.98411
-4.36607
-5.95207
-6.77746
-6.90587
-6.42447
-5.43439
-4.03772
-2.32435
-0.362006
1.80765
4.16582
6.70736
9.42825
12.3133
15.3277
18.4152
21.5031
24.514
27.3805
30.0576
32.532
34.8239
36.9825
39.0769
41.1839
43.3755
45.7088
48.2201
50.9238
53.8169
56.8874
60.125
63.5302
67.1215
70.9374
75.035
79.4843
84.3605
89.7358
95.6706
102.208
109.368
117.149
125.53
134.473
143.932
153.853
164.18
174.85
185.788
196.901
208.07
219.14
229.917
240.162
249.596
257.91
264.775
269.866
272.886
273.595
271.833
267.538
283.178
284.864
283.56
279.361
272.476
263.197
251.879
238.898
224.634
209.442
193.646
177.526
161.319
145.219
129.387
113.949
99.0101
84.6592
70.9757
58.0359
45.918
34.7053
24.4872
15.3582
7.4128
0.738122
-4.59707
-8.55511
-11.1419
-12.4161
-12.4914
-11.5282
-9.71565
-7.24482
-4.28123
-0.943859
2.70284
6.64207
10.8851
15.4446
20.3087
25.4226
30.6836
35.9526
41.0782
45.9266
50.4096
54.5016
58.243
61.7309
65.0996
68.4966
72.0581
75.8889
80.051
84.5613
89.4014
94.535
99.9294
105.575
111.499
117.768
124.485
131.781
139.793
148.655
158.478
169.34
181.276
194.279
208.306
223.286
239.135
255.762
273.075
290.977
309.355
328.069
346.931
365.694
384.035
401.555
417.776
432.156
444.115
453.072
458.489
459.925
457.083
449.848
402.342
404.761
402.749
396.464
386.244
372.56
355.966
337.042
316.361
294.448
271.771
248.726
225.641
202.781
180.355
158.527
137.432
117.178
97.8649
79.5906
62.4578
46.5811
32.0888
19.1221
7.82894
-1.64764
-9.18686
-14.7122
-18.2151
-19.7745
-19.5653
-17.8481
-14.9379
-11.1546
-6.7695
-1.9644
3.18343
8.68742
14.6135
21.0287
27.9508
35.3115
42.9463
50.6148
58.0474
65.0048
71.3305
76.9816
82.0326
86.6562
91.0868
95.5777
100.358
105.597
111.385
117.729
124.568
131.812
139.376
147.224
155.383
163.955
173.107
183.048
194.005
206.193
219.793
234.928
251.649
269.936
289.709
310.848
333.217
356.681
381.12
406.415
432.436
459.019
485.931
512.847
539.33
564.812
588.597
609.877
627.768
641.364
649.814
652.405
648.648
638.346
527.802
531.018
528.068
519.21
504.977
486.091
463.381
437.693
409.835
380.53
350.4
319.958
289.616
259.695
230.438
202.032
174.621
148.322
123.24
99.4833
77.1714
56.4463
37.4769
20.4599
5.61334
-6.8388
-16.692
-23.7969
-28.1022
-29.695
-28.8257
-25.9012
-21.433
-15.9467
-9.87836
-3.49457
3.13484
10.1084
17.6205
25.8657
34.9435
44.7876
55.1423
65.598
75.6819
84.9736
93.2036
100.306
106.418
111.839
116.967
122.221
127.975
134.494
141.899
150.161
159.131
168.604
178.394
188.401
198.648
209.285
220.57
232.829
246.417
261.673
278.873
298.205
319.739
343.426
369.118
396.612
425.691
456.169
487.9
520.774
554.678
589.462
624.889
660.59
696.03
730.475
762.988
792.442
817.566
837.027
849.536
853.987
849.601
836.045
662.03
666.134
661.874
649.677
630.387
605.11
575.064
541.451
505.372
467.779
429.457
391.027
352.968
315.633
279.279
244.088
210.194
177.698
146.695
117.283
89.5888
63.7725
40.0435
18.663
-0.0590449
-15.7808
-28.1625
-36.9209
-41.9029
-43.1681
-41.0534
-36.1849
-29.4016
-21.5849
-13.4494
-5.38664
2.58224
10.7454
19.5633
29.4948
40.8231
53.5185
67.1823
81.1056
94.446
106.46
116.689
125.045
131.786
137.433
142.652
148.134
154.478
162.101
171.163
181.558
192.956
204.925
217.084
229.217
241.335
253.666
266.612
280.678
296.412
314.332
334.865
358.293
384.708
414.005
445.912
480.068
516.126
553.824
593.011
633.621
675.623
718.949
763.419
808.677
854.127
898.884
941.746
981.202
1015.48
1042.66
1060.82
1068.25
1063.71
1046.64
808.153
813.267
807.079
790.331
764.391
730.971
691.86
648.74
603.073
556.062
508.65
461.546
415.259
370.143
326.43
284.266
243.741
204.916
167.846
132.603
99.2937
68.0862
39.222
13.0325
-10.0567
-29.5371
-44.8548
-55.4863
-61.0596
-61.5121
-57.2499
-49.2297
-38.8624
-27.6863
-16.92
-7.14798
1.74524
10.4346
19.8974
31.1077
44.7288
60.8493
78.8423
97.4459
115.113
130.508
142.864
152.1
158.721
163.635
167.952
172.795
179.132
187.624
198.501
211.501
225.947
240.964
255.799
270.043
283.702
297.151
311.027
326.114
343.247
363.214
386.674
414.062
445.511
480.81
519.447
560.766
604.18
649.315
696.047
744.439
794.638
846.76
900.786
956.458
1013.19
1069.99
1125.37
1177.38
1223.58
1261.24
1287.51
1299.72
1295.85
1274.88
970.377
976.647
967.467
944.195
909.143
865.005
814.413
759.683
702.7
644.918
587.4
530.887
475.866
422.635
371.353
322.087
274.846
229.615
186.377
145.146
105.984
69.0377
34.5622
2.95168
-25.2363
-49.2721
-68.279
-81.3195
-87.5738
-86.6285
-78.8413
-65.6381
-49.4713
-33.1817
-18.943
-7.62786
1.21747
9.02575
17.7305
29.2648
45.0512
65.4993
89.638
115.149
139.068
158.943
173.548
182.936
188.126
190.71
192.508
195.318
200.696
209.728
222.793
239.378
258.126
277.277
295.378
311.722
326.383
340.033
353.707
368.616
386.009
407.076
432.833
463.99
500.778
542.813
589.123
638.451
689.755
742.505
796.691
852.651
910.876
971.824
1035.77
1102.7
1172.15
1243.11
1313.85
1381.89
1443.97
1496.22
1534.4
1554.34
1552.59
1527.23
1154.7
1162.24
1148.12
1115
1066.96
1008.31
942.9
873.844
803.458
733.377
664.689
598.069
533.889
472.315
413.37
356.989
303.058
251.443
202.023
154.711
109.489
66.4379
25.7845
-12.0491
-46.3858
-76.2386
-100.284
-116.914
-124.444
-121.586
-108.22
-86.3028
-60.2462
-35.713
-16.7455
-4.5409
2.19317
6.33559
11.498
21.308
38.6693
64.8436
98.4657
135.154
168.852
194.977
211.752
219.821
221.293
218.922
215.613
214.151
217.005
226.032
242.023
264.144
289.73
315.105
337.493
355.828
370.523
382.881
394.611
407.54
423.484
444.182
471.216
505.809
548.485
598.656
654.449
713.283
773.238
833.62
894.766
957.588
1023.18
1092.55
1166.45
1245.29
1328.92
1416.5
1506.2
1594.96
1678.49
1751.42
1807.53
1840.18
1843.27
1812.96
1370.3
1379.02
1356.07
1307.25
1240.01
1161.3
1076.61
989.877
903.729
819.783
738.957
661.693
588.119
518.17
451.659
388.33
327.9
270.081
214.602
161.24
109.841
60.3604
12.9222
-32.1082
-74.0137
-111.588
-142.988
-165.63
-176.292
-171.693
-149.932
-112.947
-68.8476
-30.2505
-4.83087
6.40176
6.879
2.15447
-1.44994
2.45343
19.5719
53.4378
102.852
159.437
209.515
244.444
262.462
266.178
259.963
248.454
236.025
226.739
224.39
232.277
252.391
283.887
321.606
357.201
385.405
405.142
417.991
426.595
433.75
442.085
454.07
472.125
498.673
535.945
585.355
646.359
715.348
786.451
856.053
923.582
990.372
1058.48
1129.98
1206.67
1289.97
1380.89
1479.94
1586.78
1699.8
1815.49
1928.18
2030.75
2114.36
2168.48
2181.95
2146.31
1632.66
1641.34
1601.24
1525.96
1429.53
1322.85
1213.21
1105.05
1000.8
901.675
808.078
719.984
637.116
559.063
485.353
415.489
348.978
285.342
224.132
164.942
107.429
51.3453
-3.40316
-56.6618
-107.871
-155.822
-198.293
-231.586
-250.107
-246.503
-213.558
-149.829
-69.5173
-5.80648
27.5181
32.8367
19.06
-3.63406
-25.2026
-35.424
-23.6352
19.6484
96.9159
193.093
271.993
318.264
333.764
326.836
306.255
279.313
251.914
229.34
217.037
220.918
246.369
294.671
356.538
409.935
445.508
464.369
471.567
472.391
471.184
471.37
475.91
487.834
510.679
548.594
605.521
682.549
773.189
861.763
941.836
1014.58
1084.06
1154.46
1229.29
1311.24
1402.47
1504.78
1619.69
1748.12
1889.53
2040.26
2192.42
2337.3
2463.61
2555.25
2591.28
2551.39
1971.44
1973.84
1897.01
1775.06
1633.77
1488.61
1347.65
1214.52
1090.48
975.572
869.247
770.728
679.16
593.688
513.495
437.809
365.907
297.102
230.748
166.227
102.958
40.4078
-21.8716
-84.1618
-146.416
-207.941
-266.807
-318.804
-355.772
-363.554
-321.502
-210.582
-46.277
62.3974
100.198
86.7716
44.0848
-11.04
-65.291
-104.992
-112.19
-63.0743
63.752
251.626
381.456
436.392
437.357
407.15
361.703
310.826
260.851
217.149
186.379
178.498
207.441
285.915
403.662
488.329
529.669
540.383
534.314
521.104
506.601
494.375
487.109
487.805
500.976
533.852
596.729
699.124
833.983
949.298
1038.14
1110.28
1176.36
1244.05
1318.31
1402.42
1498.96
1610.48
1739.91
1890.73
2065.78
2262.92
2467.08
2670.5
2862.72
3022.01
3109.87
3074.38
2455.29
2420.37
2257.72
2051.93
1843.52
1648.29
1470.75
1310.86
1166.98
1037.06
919.134
811.426
712.389
620.678
535.116
454.656
378.349
305.312
234.703
165.691
97.4365
29.0663
-40.3364
-111.724
-186.018
-263.893
-345.218
-427.666
-503.467
-552.37
-528.617
-348.215
57.0603
232.646
246.632
182.828
87.0086
-19.715
-126.342
-221.372
-281.845
-257.711
-57.3343
393.724
598.743
632.216
585.814
509.39
424.949
341.019
260.738
186.32
122.741
83.0339
97.1696
220.587
498.397
629.088
657.902
640.536
607.315
571.652
538.713
510.208
486.816
469.784
462.869
475.88
530.998
668.915
922.883
1074.91
1158.45
1214.64
1266.3
1324.15
1393.07
1475.63
1573.85
1690.31
1829.26
1998.36
2210.14
2475.4
2742.68
3019.74
3309.16
3591.51
3805.97
3821.97
3287.53
3050.76
2680.47
2332.48
2034.24
1782.44
1568.39
1384.11
1223.32
1081.25
954.281
839.617
735.051
638.8
549.378
465.513
386.075
310.023
236.356
164.066
92.0836
19.2163
-55.9357
-135.093
-220.451
-314.864
-421.998
-546.079
-689.876
-845.787
-961.284
-809.649
491.156
635.599
505.085
324.988
145.639
-28.5215
-204.08
-387.499
-573.319
-706.123
-539.391
890.115
1063.05
943.053
777.494
623.169
487.455
365.961
252.183
139.887
24.7336
-89.9559
-170.46
-67.0638
804.981
916.54
852.625
763.509
683.827
618.268
564.434
518.674
477.361
437.19
396.064
357.271
346.028
471.583
1158.56
1299.11
1318.14
1325.49
1347.31
1388.26
1448.15
1526.25
1622.45
1737.69
1875.15
2044.49
2277.42
2684.91
3004.12
3351.11
3765.67
4258.65
4787.76
5110.14
5248.23
3873.31
3070.99
2541.29
2158.03
1862.16
1623.1
1423.48
1252.65
1103.65
971.671
853.23
745.709
647.058
555.614
469.973
388.906
311.282
236.012
161.985
87.9942
12.6482
-65.7729
-149.538
-241.844
-347.515
-474.368
-636.093
-858.827
-1197.39
-1778.6
-2925.87
2590.39
1434.46
834.919
466.054
196.787
-35.32
-270.503
-550.163
-941.128
-1585.86
-2839.83
3195.94
1949.14
1319.47
952.972
710.127
529.465
379.776
241.482
97.5601
-73.9484
-312.176
-702.908
-1461.57
2206.64
1456.64
1083.61
872.87
739.976
647.975
578.506
520.713
466.241
405.953
325.879
198.974
-35.9491
-534.218
2181.05
1698.25
1494.59
1415.44
1400.72
1425.07
1476.94
1550.76
1643.57
1753.01
1875.05
1998.98
2093.27
3021.43
3225.43
3585.07
4109.13
4873.62
6067.09
8150.85
54197.3
51252.9
48140.8
44870.8
41454
37902.8
34230.5
30450.4
26576.2
22621.2
18598.8
14521.6
10402.4
6253.29
2086.4
260.081
248.617
234.276
217.632
199.305
179.893
159.919
139.805
119.858
100.274
81.153
62.5118
44.3043
26.4377
8.78781
437.151
417.544
393.009
364.583
333.377
300.443
266.687
232.823
199.36
166.611
134.723
103.705
73.4624
43.8227
14.5641
619.96
591.384
555.615
514.301
469.165
421.803
373.553
325.435
278.145
232.086
187.423
144.124
102.017
60.8265
20.2102
811.256
772.386
723.741
667.817
607.157
544.032
480.272
417.206
355.687
296.161
238.755
183.351
129.656
77.2556
25.6608
1014.34
963.132
899.112
826.041
747.587
666.874
586.277
507.411
431.218
358.104
288.078
220.866
155.998
92.8795
30.8385
1233.37
1166.66
1083.51
989.621
890.251
789.576
690.53
594.922
503.649
416.943
334.577
256.029
180.587
107.425
35.6528
1473.82
1386.6
1278.62
1158.66
1034.2
910.632
791.334
678.082
571.495
471.421
377.244
288.078
202.892
120.58
40.0001
1743.18
1627.26
1485.67
1332.19
1177.23
1027.39
886.076
754.57
632.814
519.987
414.885
316.137
222.317
131.998
43.7676
2052.25
1893.52
1704.54
1507.11
1315.11
1135.56
970.973
821.288
685.186
560.811
446.159
339.258
238.235
141.322
46.8394
2417.38
2189.97
1931.8
1676.57
1440.49
1228.73
1040.93
874.393
725.809
591.894
469.666
356.489
250.034
148.213
49.1064
2863.68
2517.12
2156.09
1826.83
1541.5
1297.93
1089.57
909.523
751.739
611.269
484.105
366.986
257.192
152.386
50.4781
3426.56
2858.65
2348.53
1933.08
1600.7
1331.86
1109.89
922.36
760.333
617.315
488.484
370.146
259.355
153.655
50.8974
4125.86
3142.31
2446.2
1956.21
1596.3
1318.88
1095.71
909.669
749.896
609.151
482.353
365.748
256.42
151.978
50.3526
4734.83
3138.45
2337.66
1849.21
1509.36
1251.61
1044.38
870.68
720.404
587.02
466.011
354.062
248.593
147.482
48.8863
46.017
138.339
231.527
326.165
422.849
522.204
624.921
731.836
844.136
963.83
1094.87
1245.8
1436.26
1713.42
2194.05
46.4411
139.563
233.393
328.372
424.886
523.216
623.473
725.478
828.571
931.279
1030.63
1120.28
1183.75
1165.4
837.402
46.6985
140.292
234.456
329.508
425.652
522.876
620.796
718.349
813.259
901.038
973.088
1012.91
988.028
832.403
416.01
46.8189
140.622
234.897
329.88
425.657
522.042
618.36
713.041
802.884
881.702
937.906
950.443
883.078
680.473
283.237
46.8241
140.621
234.843
329.693
425.229
521.243
617.048
711.077
800.147
878.053
933.029
943.449
872.021
663.688
267.983
46.7253
140.324
234.349
329.023
424.46
520.579
616.955
712.544
805.144
890.305
959.076
993.273
956.02
777.007
350.128
46.5232
139.728
233.399
327.816
423.208
519.725
617.397
716.073
815.287
913.918
1009.12
1092.69
1138.45
1062.44
622.111
46.2106
138.807
231.927
325.925
421.165
518.056
617.13
719.217
825.82
939.886
1067.23
1218.34
1405.41
1600.85
1452.34
45.7759
137.519
229.843
323.165
417.965
514.859
614.759
719.213
831.153
956.609
1108.83
1318.98
1666.53
2378.09
4196.55
45.2079
135.826
227.062
319.373
413.302
509.563
609.213
713.998
827.086
954.722
1110.18
1324.17
1674.85
2386.6
4200.46
44.499
133.702
223.532
314.453
407.01
501.901
600.088
703.003
812.904
933.491
1070.87
1234.4
1432.39
1629.73
1466.28
43.6471
131.14
219.241
308.39
399.091
491.94
587.666
687.142
791.285
900.578
1013.38
1120.68
1190.36
1123.36
655.055
42.6564
128.155
214.217
301.244
389.671
479.971
572.629
668.026
766.076
865.207
959.697
1033.07
1043.21
895.67
428.404
41.5361
124.775
208.521
293.122
378.944
466.355
555.677
647.054
740.1
833.043
920.658
989.345
1005.56
889.988
472.261
40.2989
121.042
202.225
284.146
367.107
451.403
537.288
624.911
714.182
804.564
894.745
982.039
1059.4
1094.12
881.94
38.9597
117.002
195.414
274.443
354.336
435.338
517.682
601.61
687.48
776.207
870.823
981.61
1142.84
1469.68
2369.17
37.5345
112.703
188.17
264.134
340.79
418.332
496.965
576.95
658.78
743.744
835.655
946.133
1111.24
1447.55
2361.37
36.0395
108.195
180.578
253.338
326.62
400.561
475.301
550.998
627.891
706.443
787.577
872.702
960.728
1024.35
857.652
34.4908
103.526
172.721
242.176
311.985
382.228
452.963
524.204
595.839
667.333
736.713
797.24
827.148
761.061
429.342
32.9042
98.7446
164.679
230.764
297.044
363.545
430.264
497.127
563.874
629.679
691.982
743.026
760.214
682.227
366.97
31.2947
93.8961
156.531
219.212
281.942
344.704
407.455
470.12
532.551
594.445
655.056
712.307
759.36
768.15
595.343
29.6764
89.0227
148.346
207.623
266.813
325.862
384.699
443.265
501.592
560.09
620.452
688.656
785.061
980.168
1530.57
28.0621
84.1634
140.192
196.089
251.778
307.161
362.125
416.567
470.505
524.427
580.39
645.408
742.203
945.436
1515.97
26.4633
79.3529
132.127
184.696
236.949
288.745
339.906
390.211
439.418
487.337
534.03
580.078
625.415
655.615
545.264
24.8898
74.6209
124.202
173.519
222.433
270.765
318.274
364.611
409.218
451.087
488.108
515.23
519.127
463.385
255.226
23.3495
69.9916
116.458
162.619
208.315
253.35
297.45
340.205
380.911
418.194
449.05
466.5
454.244
376.99
175.108
21.8484
65.4826
108.926
152.037
194.654
236.579
277.554
317.215
354.975
389.755
419.292
438.389
434.491
377.135
197.996
20.3902
61.1052
101.621
141.795
181.469
220.462
258.566
295.538
331.1
364.949
396.777
426.237
451.851
461.843
371.474
18.977
56.8649
94.5524
131.899
168.753
204.958
240.357
274.833
308.41
341.538
375.899
416.746
480.051
616.235
998.121
17.6093
52.7627
87.7187
122.34
156.485
190.01
222.785
254.748
286.025
317.262
350.509
391.651
457.63
599.986
991.987
16.2866
48.7965
81.1154
113.111
144.645
175.577
205.773
235.134
263.661
291.585
319.628
349.301
382.16
410.359
351.574
15.0074
44.9621
74.735
104.199
133.22
161.652
189.337
216.096
241.709
265.819
287.609
304.73
309.917
281.128
158.628
13.7696
41.2531
68.5675
95.5936
122.201
148.242
173.538
197.849
220.797
241.659
258.827
268.441
261.263
216.969
100.927
12.5702
37.6606
62.5988
87.2765
111.573
135.347
158.42
180.545
201.329
220.06
235.284
243.81
238.378
202.629
102.816
11.4053
34.1729
56.8098
79.2222
101.305
122.935
143.958
164.169
183.284
200.891
216.389
228.865
236.544
232.775
178.19
10.2699
30.7752
51.1753
71.3949
91.3498
110.942
130.055
148.55
166.281
183.184
199.589
217.248
242.657
298.208
463.141
9.15836
27.4499
45.665
63.7495
81.6439
99.2803
116.58
133.458
149.849
165.82
181.915
200.244
227.836
287.678
459.215
8.06404
24.1769
40.2441
56.2343
72.1149
87.8493
103.395
118.701
133.707
148.365
162.686
176.807
190.615
199.578
165.547
6.98002
20.935
34.8754
48.7938
62.6852
76.547
90.3742
104.148
117.804
131.142
143.595
153.583
156.757
141.335
78.1703
5.89928
17.7024
29.5208
41.3702
53.2742
65.2661
77.3876
89.6759
102.12
114.532
126.211
135.091
135.81
116.245
55.4988
4.81511
14.4584
24.1435
33.9071
43.7999
53.8927
64.2825
75.0926
86.4541
98.4286
110.771
122.263
128.95
119.754
67.7238
3.72159
11.1846
18.7104
26.3526
34.1846
42.3106
50.8827
60.1237
70.3601
82.0672
95.9182
112.771
133.12
153.009
137.878
2.61403
7.86626
13.1949
18.6645
24.3627
30.4161
37.0156
44.4604
53.2419
64.2145
78.9794
100.85
137.609
210.587
389.026
1.48936
4.49394
7.58001
10.8155
14.2916
18.1395
22.5582
27.8655
34.599
43.7254
57.104
78.588
116.948
194.931
382.841
0.34637
1.06401
1.85968
2.79706
3.95949
5.46336
7.48016
10.2765
14.2905
20.2799
29.5971
44.6054
68.7705
102.941
117.305
-0.814296
-2.42126
-3.96092
-5.38018
-6.61287
-7.5727
-8.14334
-8.16249
-7.39437
-5.48091
-1.86565
4.26108
13.6436
24.7062
24.6723
-1.99041
-5.95452
-9.86719
-13.6898
-17.3782
-20.8832
-24.1545
-27.1533
-29.8799
-32.4288
-35.0774
-38.3487
-42.6535
-45.8248
-33.7175
-3.17858
-9.52491
-15.8383
-22.0957
-28.2749
-34.3607
-40.3603
-46.3391
-52.4952
-59.3141
-67.8632
-80.2472
-99.7435
-126.971
-130.532
-4.37478
-13.1197
-21.8508
-30.5594
-39.2409
-47.9032
-56.5868
-65.4087
-74.6576
-85.0057
-97.9941
-117.215
-151.473
-224.56
-411.12
-5.57476
-16.7259
-27.8816
-39.0457
-50.2251
-61.437
-72.7243
-84.1895
-96.0651
-108.873
-123.807
-143.75
-176.25
-243.36
-418.527
-6.77428
-20.3306
-33.9097
-47.5258
-61.1923
-74.9249
-88.7461
-102.694
-116.835
-131.274
-146.153
-161.577
-177.004
-187.137
-155.127
-7.96908
-23.9215
-39.9155
-55.9754
-72.1196
-88.3586
-104.689
-121.075
-137.41
-153.381
-168.135
-179.414
-181.45
-160.19
-84.9631
-9.15472
-27.4856
-45.8793
-64.3714
-82.9877
-101.737
-120.601
-139.504
-158.25
-176.346
-192.543
-203.687
-202.087
-170.733
-80.5683
-10.3262
-31.0086
-51.7786
-72.6868
-93.7704
-115.046
-136.496
-158.054
-179.556
-200.646
-220.478
-236.829
-243.405
-222.133
-125.467
-11.4777
-34.4731
-57.5863
-80.8864
-104.428
-128.242
-152.329
-176.655
-201.163
-225.837
-250.85
-276.78
-304.084
-325.912
-277.51
-12.6022
-37.8586
-63.2685
-88.9248
-114.904
-141.259
-168.009
-195.143
-222.671
-250.811
-280.607
-315.802
-368.598
-478.496
-781.404
-13.6914
-41.1402
-68.7845
-96.7455
-125.129
-154.013
-183.434
-213.373
-243.772
-274.656
-306.637
-342.631
-393.494
-497.096
-788.565
-14.7359
-44.2891
-74.0854
-104.28
-135.015
-166.406
-198.513
-231.3
-264.555
-297.76
-329.906
-359.164
-381.803
-385.285
-300.993
-15.7247
-47.2723
-79.1148
-111.447
-144.457
-178.313
-213.134
-248.92
-285.39
-321.622
-355.206
-380.323
-383.447
-334.466
-172.964
-16.6462
-50.054
-83.8097
-118.151
-153.321
-189.562
-227.1
-266.08
-306.41
-347.345
-386.412
-416.78
-421.303
-361.812
-173.025
-17.4888
-52.5974
-88.1039
-124.288
-161.451
-199.925
-240.082
-282.322
-327.031
-374.386
-423.684
-471.211
-503.639
-478.97
-282.305
-18.2414
-54.8681
-91.9335
-129.753
-168.681
-209.134
-251.632
-296.867
-345.837
-400.101
-462.211
-536.154
-625.652
-715.592
-647.116
-18.8952
-56.8378
-95.2456
-134.458
-174.864
-216.937
-261.298
-308.837
-360.99
-420.393
-492.546
-590.325
-747.388
-1062.25
-1863.17
-19.4445
-58.4883
-98.0055
-138.343
-179.901
-223.166
-268.774
-317.622
-371.13
-431.858
-505.11
-603.357
-759.571
-1071.42
-1866.71
-19.8876
-59.8139
-100.202
-141.391
-183.765
-227.785
-274.018
-323.191
-376.279
-434.654
-500.343
-576.165
-663.709
-744.898
-658.777
-20.2271
-60.8227
-101.85
-143.624
-186.5
-230.883
-277.24
-326.065
-377.78
-432.4
-488.571
-540.864
-572.293
-534.595
-306.025
-20.4699
-61.5357
-102.987
-145.104
-188.2
-232.629
-278.768
-326.954
-377.29
-429.098
-479.525
-520.085
-528.915
-456.871
-219.593
-20.6265
-61.9853
-103.668
-145.913
-188.99
-233.205
-278.895
-326.375
-375.804
-426.788
-477.365
-521.376
-541.736
-493.924
-273.39
-20.7112
-62.2144
-103.967
-146.156
-189.004
-232.776
-277.8
-324.47
-373.269
-424.793
-479.801
-539.136
-601.941
-650.965
-553.77
-20.7412
-62.2749
-103.969
-145.953
-188.389
-231.497
-275.583
-321.113
-368.873
-420.414
-479.274
-554.532
-671.772
-909.608
-1535.83
-20.737
-62.2286
-103.779
-145.447
-187.324
-229.557
-272.388
-316.234
-361.883
-410.991
-467.401
-540.828
-657.921
-898.625
-1531.46
-20.722
-62.1461
-103.515
-144.807
-186.027
-227.222
-268.511
-310.129
-352.523
-396.538
-443.756
-496.855
-558.293
-615.424
-539.158
-20.7224
-62.1065
-103.312
-144.228
-184.762
-224.842
-264.431
-303.515
-342.071
-379.9
-416.072
-447.143
-461.716
-424.926
-242.781
-20.7663
-62.1957
-103.317
-143.927
-183.827
-222.824
-260.724
-297.295
-332.156
-364.454
-391.978
-408.936
-400.862
-335.42
-157.138
-20.8831
-62.5033
-103.684
-144.129
-183.534
-221.588
-257.965
-292.29
-324.054
-352.36
-375.268
-388.161
-379.9
-324.32
-165.959
-21.1027
-63.1202
-104.57
-145.063
-184.192
-221.536
-256.653
-289.092
-318.386
-344.054
-365.556
-382.133
-391.856
-384.652
-295.338
-21.454
-64.1348
-106.128
-146.954
-186.105
-223.047
-257.224
-288.102
-315.27
-338.682
-359.307
-380.923
-415.635
-502.085
-772.955
-21.964
-65.6304
-108.502
-150.016
-189.566
-226.494
-260.104
-289.714
-314.792
-335.285
-352.413
-370.679
-403.561
-491.56
-768.54
-22.6566
-67.6809
-111.824
-154.452
-194.86
-232.261
-265.781
-294.494
-317.523
-334.26
-344.77
-350.339
-353.283
-349.913
-280.203
-23.5504
-70.3456
-116.204
-160.435
-202.252
-240.737
-274.813
-303.241
-324.648
-337.589
-340.597
-331.869
-307.448
-254.409
-132.695
-24.6572
-73.6628
-121.717
-168.101
-211.968
-252.286
-287.78
-316.88
-337.669
-347.843
-344.606
-324.331
-281.529
-206.636
-84.9891
-25.979
-77.6422
-128.392
-177.519
-224.155
-267.194
-305.2
-336.303
-358.078
-367.427
-360.468
-332.463
-277.921
-191.358
-70.859
-27.5056
-82.2569
-136.196
-188.671
-238.844
-285.602
-327.422
-362.213
-387.127
-398.349
-390.958
-359.044
-296.565
-199.662
-71.4703
-29.2127
-87.4358
-145.019
-201.421
-255.908
-307.443
-354.527
-394.987
-425.691
-442.204
-438.481
-406.862
-339.121
-229.702
-82.3263
-31.06
-93.0587
-154.663
-215.502
-275.023
-332.375
-386.231
-434.534
-474.108
-500.115
-505.374
-479.766
-410.621
-286.102
-105.18
-32.9913
-98.9547
-164.837
-230.497
-295.644
-359.732
-421.788
-480.137
-531.94
-572.43
-593.692
-582.898
-520.569
-381.666
-148.476
-34.9353
-104.906
-175.163
-245.845
-316.997
-388.495
-459.912
-530.276
-597.615
-658.086
-704.257
-721.803
-683.68
-542.693
-236.051
-36.8091
-110.657
-185.191
-260.862
-338.105
-417.308
-498.758
-582.5
-668.043
-753.654
-834.68
-899.346
-918.2
-818.735
-438.524
-38.5231
-115.929
-194.425
-274.783
-357.843
-444.551
-535.997
-633.455
-738.4
-852.382
-976.435
-1108.67
-1234.85
-1289.69
-986.014
-39.9869
-120.441
-202.363
-286.822
-375.04
-468.491
-569.04
-679.187
-802.454
-944.091
-1112.47
-1322.14
-1601.01
-2009.54
-2692.03
3342.24
2491.95
1978.51
1625.82
1360.06
1147.03
968.836
815.051
679.031
556.229
443.348
337.858
237.726
141.23
46.8458
1221.27
1591.65
1516.06
1352.35
1182.51
1024.61
881.117
750.666
631.161
520.554
417.026
318.988
225.039
133.918
44.4566
539.27
1001
1114.77
1083.1
996.631
892.173
784.318
678.663
577.098
479.951
386.882
297.271
210.384
125.449
41.6864
285.599
651.978
814.467
851.883
823.225
762.074
685.974
603.803
519.954
436.506
354.33
273.656
194.369
116.165
38.6443
174.157
444.527
600.997
666.531
672.365
642.339
591.831
530.095
462.519
392.167
320.727
249.073
177.597
106.405
35.4403
116.841
316.161
450.663
522.622
546.392
536.814
505.472
460.431
407.002
348.575
287.265
224.36
160.624
96.4857
32.1771
83.3851
232.8
343.751
412.168
443.564
446.39
428.614
396.581
354.947
306.978
254.904
200.221
143.926
86.6825
28.945
61.9795
176.144
266.37
327.411
360.568
370.264
361.646
339.388
307.283
268.225
224.349
177.198
127.885
77.2205
25.8182
47.374
136.109
209.251
262.012
293.856
306.847
304.142
289.027
264.441
232.813
196.063
155.672
112.78
68.2692
22.8534
36.9431
106.899
166.281
211.132
240.23
254.323
255.249
245.236
226.483
200.953
170.3
135.881
98.7956
59.945
20.0902
29.241
85.0296
133.397
171.188
197.017
210.938
213.947
207.508
193.227
172.645
147.149
117.938
86.0353
52.317
17.5528
23.4088
68.312
107.854
139.548
162.068
175.127
179.2
175.223
164.342
147.747
126.575
101.863
74.5337
45.4141
15.2521
18.9053
55.3158
87.7591
114.276
133.684
145.551
150.041
147.728
139.42
126.024
108.458
87.6012
64.2741
39.2342
13.1885
15.3737
45.0732
71.7775
93.9376
110.535
121.094
125.602
124.393
118.029
107.193
92.6224
75.0538
55.2025
33.7518
11.3549
12.5695
36.9094
58.95
77.4598
91.5774
100.837
105.13
104.636
99.7396
90.9547
78.8668
64.0898
47.2404
28.9255
9.73834
10.3201
30.3414
48.5731
64.0303
75.9913
84.0258
87.98
87.9343
84.1484
77.0078
66.9768
54.5634
40.295
24.7044
8.32258
8.50025
25.0154
40.1217
53.0271
63.1302
70.0465
73.6058
73.8276
70.885
65.0664
56.7397
46.3238
34.2669
21.0322
7.08947
7.01722
20.6673
33.1978
43.9689
52.4806
58.3967
61.5476
61.9166
59.6172
54.8651
47.9521
39.2227
29.0559
17.8512
6.02019
5.80097
17.096
27.495
36.4787
43.6323
48.6659
51.4197
51.8573
50.0512
46.1631
40.4247
33.119
24.5648
15.1048
5.09615
4.79772
14.1467
22.7744
30.2584
36.2552
40.5172
42.899
43.3549
41.9297
38.745
33.9848
27.8814
20.7022
12.7389
4.29953
3.96553
11.6978
18.8475
25.0702
30.082
33.6732
35.7146
36.1579
35.029
32.4199
28.4769
23.3903
17.3834
10.7034
3.61368
3.27129
9.65326
15.5638
20.7223
24.8946
27.9044
29.6392
30.0516
29.1554
27.0202
23.7624
19.5376
14.5315
8.95229
3.02328
2.6885
7.9358
12.802
17.0588
20.5139
23.0202
24.4814
24.8531
24.1416
22.3992
19.7188
16.2269
12.0773
7.44378
2.51443
2.19571
6.48279
10.463
13.9515
16.7914
18.8612
20.0794
20.4062
19.8429
18.429
16.2381
13.3726
9.95874
6.14049
2.07462
1.77532
5.24271
8.46502
11.2941
13.6032
15.2931
16.2958
16.5768
16.1342
14.9978
13.2252
10.8987
8.12067
5.00895
1.69263
1.41268
4.17263
6.73987
8.99742
10.8445
12.2015
13.0129
13.2492
12.9069
12.0078
10.5966
8.73808
6.51401
4.01932
1.35845
1.09541
3.23621
5.22952
6.98538
8.42581
9.48838
10.1289
10.3228
10.0657
9.37298
8.27811
6.83093
5.09502
3.14492
1.06312
0.812824
2.40206
3.88379
5.19204
6.26904
7.06787
7.55447
7.70902
7.52658
7.01693
6.20388
5.12393
3.8245
2.36183
0.798599
0.55547
1.6424
2.65828
3.55895
4.30505
4.86371
5.21014
5.3288
5.21417
4.87112
4.31459
3.56901
2.66711