/*--------------------------------*- C++ -*----------------------------------*\
| =========                 |                                                 |
| \\      /  F ield         | OpenFOAM: The Open Source CFD Toolbox           |
|  \\    /   O peration     | Version:  5.x                                   |
|   \\  /    A nd           | Web:      www.OpenFOAM.org                      |
|    \\/     M anipulation  |                                                 |
\*---------------------------------------------------------------------------*/
FoamFile
{
    version     2.0;
    format      ascii;
    class       volScalarField;
    location    "4";
    object      T;
}
// * * * * * * * * * * * * * * * * * * * * * * * * * * * * * * * * * * * * * //

dimensions      [0 0 0 1 0 0 0];

internalField   nonuniform List<scalar> 
6300
(
24.6944
54.0412
83.2622
112.273
140.988
169.322
197.189
224.5
251.171
277.114
302.249
326.496
349.784
372.05
393.244
24.7358
54.1656
83.47
112.565
141.365
169.784
197.737
225.134
251.889
277.915
303.126
327.444
350.794
373.11
394.34
24.8184
54.4139
83.8848
113.148
142.117
170.708
198.833
226.403
253.328
279.519
304.888
329.349
352.825
375.244
396.549
24.942
54.785
84.5053
114.02
143.244
172.093
200.478
228.309
255.493
281.936
307.546
332.23
355.9
378.48
399.902
25.1058
55.2775
85.3288
115.178
144.743
173.936
202.671
230.854
258.389
285.178
311.12
336.112
360.055
382.859
404.447
25.3092
55.8888
86.3516
116.618
146.607
176.233
205.408
234.038
262.024
289.259
315.633
341.031
365.338
388.444
410.253
25.5509
56.6154
87.5679
118.332
148.829
178.975
208.684
237.859
266.399
294.191
321.111
347.03
371.808
395.311
417.415
25.8291
57.4524
88.97
120.31
151.396
182.15
212.486
242.309
271.514
299.983
327.582
354.157
379.542
403.564
426.057
26.1419
58.3934
90.5473
122.537
154.291
185.737
216.793
247.367
277.356
306.637
335.064
362.462
388.627
413.332
436.346
26.4865
59.4304
92.2863
124.994
157.491
189.709
221.574
253.004
283.897
314.135
343.563
371.987
399.159
424.777
448.506
26.8597
60.5536
94.1708
127.659
160.963
194.026
226.785
259.167
291.085
322.431
353.055
382.752
411.232
438.097
462.845
27.2578
61.752
96.1815
130.503
164.672
198.642
232.364
265.784
298.837
331.437
363.462
394.722
424.907
453.517
479.8
27.6768
63.0132
98.2975
133.496
168.574
203.499
238.239
272.761
307.031
341.007
374.622
407.752
440.141
471.249
500.004
28.1126
64.3245
100.497
136.604
172.623
208.534
244.322
279.98
315.51
350.926
386.254
421.51
456.642
491.319
524.35
28.5612
65.6738
102.758
139.796
176.775
213.686
250.529
287.318
324.091
360.922
397.943
435.379
473.583
513.019
553.721
411.653
427.605
442.766
457.14
470.738
483.577
495.682
507.082
517.812
527.909
537.415
546.371
554.822
562.812
570.384
577.582
584.447
591.022
597.344
603.453
609.383
615.167
620.836
626.419
631.939
637.419
642.877
648.327
653.78
659.244
664.723
670.217
675.723
681.238
686.756
692.267
697.764
703.236
708.671
714.059
719.387
724.64
729.806
734.87
739.818
744.635
749.309
753.827
758.178
762.35
766.334
770.12
773.697
777.056
780.185
783.072
785.706
788.072
790.157
791.945
793.421
794.567
795.367
795.8
795.846
795.483
794.685
793.425
791.673
789.395
786.556
783.117
779.036
774.271
768.775
762.5
755.399
747.42
738.513
728.626
717.709
705.713
692.591
678.3
662.803
646.07
628.077
608.812
588.273
566.467
412.77
428.728
443.884
458.243
471.815
484.619
496.68
508.03
518.705
528.743
538.187
547.081
555.468
563.394
570.904
578.04
584.847
591.364
597.633
603.69
609.572
615.312
620.941
626.487
631.976
637.43
642.866
648.301
653.743
659.202
664.679
670.176
675.688
681.213
686.741
692.266
697.777
703.264
708.717
714.123
719.469
724.743
729.929
735.013
739.981
744.817
749.509
754.044
758.41
762.597
766.595
770.395
773.987
777.361
780.507
783.413
786.066
788.452
790.559
792.369
793.869
795.041
795.868
796.331
796.41
796.083
795.325
794.109
792.404
790.178
787.395
784.015
779.997
775.298
769.87
763.667
756.638
748.733
739.9
730.086
719.24
707.311
694.251
680.015
664.563
647.863
629.889
610.629
590.077
568.243
415.019
430.99
446.136
460.463
473.981
486.713
498.686
509.934
520.496
530.415
539.734
548.5
556.759
564.557
571.941
578.955
585.642
592.045
598.205
604.159
609.944
615.595
621.143
626.617
632.043
637.443
642.837
648.24
653.661
659.109
664.585
670.088
675.615
681.158
686.709
692.26
697.8
703.319
708.805
714.248
719.633
724.947
730.175
735.3
740.308
745.183
749.91
754.478
758.875
763.09
767.116
770.944
774.565
777.97
781.149
784.091
786.782
789.21
791.36
793.216
794.763
795.986
796.867
797.39
797.534
797.278
796.599
795.47
793.861
791.738
789.067
785.806
781.915
777.348
772.058
765.997
759.115
751.358
742.674
733.009
722.307
710.516
697.583
683.458
668.099
651.467
633.535
614.284
593.709
571.817
418.433
434.425
449.555
463.83
477.264
489.883
501.718
512.808
523.197
532.932
542.06
550.631
558.694
566.299
573.491
580.319
586.827
593.057
599.052
604.851
610.49
616.006
621.431
626.794
632.125
637.445
642.774
648.13
653.52
658.953
664.429
669.945
675.494
681.068
686.655
692.247
697.831
703.397
708.934
714.432
719.876
725.251
730.543
735.732
740.802
745.736
750.517
755.134
759.575
763.832
767.897
771.765
775.428
778.879
782.108
785.104
787.854
790.343
792.557
794.481
796.099
797.397
798.358
798.967
799.206
799.056
798.495
797.496
796.03
794.064
791.561
788.481
784.78
780.413
775.332
769.487
762.825
755.294
746.838
737.4
726.921
715.342
702.607
688.658
673.445
656.924
639.059
619.827
599.219
577.239
423.066
439.085
454.191
468.392
481.706
494.164
505.805
516.675
526.824
536.304
545.17
553.475
561.272
568.613
575.548
582.125
588.391
594.389
600.162
605.751
611.194
616.527
621.785
626.999
632.199
637.41
642.654
647.946
653.297
658.713
664.194
669.731
675.316
680.935
686.574
692.221
697.864
703.493
709.098
714.668
720.192
725.653
731.033
736.312
741.469
746.483
751.337
756.018
760.515
764.823
768.938
772.855
776.572
780.082
783.377
786.445
789.274
791.846
794.147
796.16
797.871
799.265
800.329
801.051
801.414
801.402
800.995
800.168
798.894
797.137
794.861
792.023
788.579
784.481
779.681
774.126
767.763
760.539
752.393
743.266
733.094
721.812
709.355
695.656
680.654
664.295
646.531
627.332
606.682
584.584
428.989
445.045
460.117
474.214
487.364
499.604
510.985
521.562
531.394
540.543
549.068
557.03
564.487
571.493
578.1
584.36
590.319
596.024
601.517
606.84
612.034
617.135
622.18
627.204
632.237
637.308
642.441
647.654
652.958
658.359
663.853
669.427
675.065
680.749
686.458
692.177
697.893
703.599
709.287
714.949
720.574
726.147
731.646
737.044
742.316
747.435
752.381
757.14
761.703
766.068
770.237
774.209
777.988
781.569
784.946
788.107
791.036
793.715
796.125
798.249
800.072
801.582
802.769
803.624
804.135
804.29
804.072
803.46
802.425
800.933
798.943
796.413
793.294
789.536
785.09
779.902
773.919
767.084
759.336
750.612
740.842
729.952
717.866
704.507
689.797
673.665
656.05
636.907
616.211
593.96
436.306
452.408
467.429
481.385
494.313
506.266
517.306
527.504
536.931
545.66
553.759
561.295
568.331
574.926
581.134
587.007
592.595
597.943
603.096
608.096
612.985
617.802
622.586
627.373
632.198
637.095
642.09
647.207
652.459
657.85
663.372
669.007
674.728
680.503
686.305
692.113
697.915
703.708
709.489
715.258
721.008
726.724
732.377
737.935
743.358
748.612
753.671
758.518
763.151
767.572
771.791
775.818
779.662
783.324
786.8
790.077
793.133
795.945
798.489
800.745
802.697
804.338
805.662
806.664
807.342
807.688
807.692
807.334
806.588
805.417
803.779
801.625
798.902
795.558
791.541
786.798
781.276
774.918
767.661
759.439
750.177
739.79
728.189
715.28
700.964
685.148
667.748
648.697
627.956
605.517
445.152
461.311
476.258
490.021
502.651
514.224
524.822
534.537
543.456
551.664
559.241
566.261
572.792
578.895
584.629
590.045
595.194
600.122
604.874
609.492
614.02
618.497
622.965
627.464
632.036
636.717
641.544
646.544
651.737
657.129
662.708
668.442
674.288
680.195
686.12
692.034
697.928
703.808
709.685
715.571
721.469
727.364
733.223
738.993
744.618
750.045
755.239
760.182
764.878
769.341
773.596
777.665
781.57
785.321
788.916
792.337
795.555
798.534
801.241
803.65
805.746
807.525
808.99
810.146
811
811.554
811.806
811.741
811.335
810.549
809.332
807.628
805.377
802.523
799.011
794.791
789.812
784.019
777.352
769.741
761.105
751.352
740.374
728.054
714.268
698.89
681.8
662.901
642.128
619.458
455.714
471.941
486.778
500.269
512.496
523.566
533.594
542.697
550.985
558.558
565.507
571.913
577.849
583.378
588.561
593.449
598.092
602.535
606.824
610.999
615.105
619.183
623.277
627.432
631.693
636.109
640.725
645.581
650.708
656.118
661.796
667.695
673.738
679.839
685.926
691.96
697.94
703.888
709.844
715.844
721.91
728.034
734.17
740.238
746.139
751.791
757.142
762.177
766.913
771.386
775.641
779.724
783.675
787.519
791.256
794.864
798.295
801.49
804.396
806.979
809.225
811.139
812.736
814.036
815.062
815.83
816.349
816.614
816.603
816.273
815.562
814.394
812.697
810.408
807.475
803.851
799.493
794.354
788.377
781.493
773.62
764.652
754.467
742.918
729.843
715.072
698.436
679.784
659.008
636.062
468.246
484.555
499.221
512.321
523.991
534.39
543.68
552.014
559.525
566.331
572.535
578.223
583.47
588.342
592.896
597.185
601.255
605.151
608.914
612.587
616.209
619.825
623.48
627.223
631.108
635.192
639.538
644.206
649.248
654.697
660.543
666.716
673.083
679.481
685.785
691.943
697.972
703.934
709.915
715.997
722.242
728.661
735.192
741.696
747.995
753.945
759.474
764.578
769.303
773.72
777.908
781.948
785.91
789.842
793.757
797.62
801.35
804.836
807.991
810.766
813.157
815.183
816.882
818.297
819.469
820.438
821.23
821.857
822.305
822.522
822.421
821.894
820.842
819.195
816.906
813.943
810.275
805.87
800.681
794.647
787.684
779.682
770.498
759.954
747.838
733.918
717.951
699.705
678.993
655.717
483.12
499.521
513.9
526.414
537.297
546.792
555.126
562.495
569.06
574.954
580.286
585.147
589.611
593.742
597.594
601.215
604.65
607.937
611.116
614.224
617.302
620.39
623.535
626.789
630.213
633.877
637.865
642.268
647.182
652.684
658.797
665.436
672.361
679.234
685.829
692.088
698.077
703.931
709.815
715.893
722.301
729.102
736.227
743.426
750.33
756.68
762.391
767.501
772.113
776.355
780.361
784.259
788.163
792.164
796.304
800.542
804.727
808.634
812.104
815.082
817.585
819.671
821.411
822.878
824.143
825.272
826.322
827.333
828.31
829.201
829.869
830.123
829.818
828.88
827.282
825.021
822.093
818.487
814.176
809.111
803.218
796.388
788.463
779.227
768.407
755.687
740.723
723.154
702.647
678.988
500.9
517.382
531.245
542.84
552.581
560.847
567.945
574.115
579.541
584.365
588.696
592.622
596.212
599.523
602.603
605.495
608.235
610.858
613.397
615.886
618.358
620.852
623.412
626.09
628.951
632.076
635.572
639.574
644.246
649.767
656.272
663.72
671.693
679.365
686.335
692.6
698.353
703.862
709.411
715.289
721.77
729.054
737.13
745.558
753.435
760.31
766.149
771.115
775.429
779.306
782.946
786.535
790.251
794.26
798.684
803.513
808.481
813.035
816.901
820.054
822.588
824.631
826.306
827.724
828.987
830.194
831.444
832.829
834.415
836.173
837.885
839.129
839.679
839.487
838.587
837.032
834.861
832.095
828.73
824.742
820.078
814.644
808.288
800.759
791.687
780.664
767.223
750.81
730.819
706.745
522.549
538.998
551.84
561.915
569.972
576.564
582.079
586.785
590.869
594.465
597.671
600.561
603.194
605.615
607.864
609.971
611.968
613.879
615.731
617.549
619.361
621.198
623.098
625.106
627.285
629.719
632.529
635.892
640.066
645.413
652.367
661.224
671.436
680.482
687.833
693.824
698.959
703.71
708.509
713.793
720.057
727.841
737.502
748.459
757.959
765.408
771.138
775.644
779.347
782.572
785.578
788.602
791.891
795.734
800.453
806.26
812.801
818.401
822.698
825.889
828.271
830.093
831.543
832.766
833.886
835.028
836.342
838.01
840.245
843.183
846.548
849.109
850.581
851.085
850.809
849.902
848.459
846.536
844.155
841.321
838.017
834.202
829.778
824.486
817.749
809.097
797.978
783.594
764.845
740.475
550.005
565.79
576.4
583.878
589.452
593.813
597.36
600.332
602.88
605.106
607.079
608.851
610.46
611.937
613.306
614.588
615.802
616.964
618.091
619.199
620.307
621.434
622.605
623.856
625.23
626.798
628.668
631.021
634.177
638.72
645.7
656.755
672.834
684.018
691.268
696.256
700.094
703.467
706.884
710.861
716.133
723.9
735.983
753.433
765.41
772.955
777.865
781.303
783.928
786.126
788.161
790.262
792.706
795.921
800.627
807.925
818.448
825.617
830.059
832.864
834.734
836.064
837.08
837.928
838.724
839.59
840.701
842.347
845.035
849.551
856.343
860.627
862.848
863.78
863.913
863.515
862.722
861.607
860.207
858.548
856.663
854.611
852.491
850.267
846.54
841.059
833.406
822.64
806.938
783.184
588.299
600.013
605.449
608.565
610.657
612.213
613.447
614.468
615.336
616.09
616.757
617.354
617.895
618.391
618.851
619.282
619.689
620.079
620.458
620.83
621.203
621.583
621.979
622.404
622.876
623.421
624.089
624.97
626.269
628.497
633.141
645.031
681.259
693.194
697.935
700.324
701.872
703.14
704.427
706.043
708.591
713.718
726.714
766.261
779.22
784.269
786.688
788.107
789.096
789.891
790.622
791.4
792.386
793.935
797.044
804.919
828.9
836.732
839.75
841.16
841.948
842.458
842.832
843.139
843.433
843.772
844.263
845.155
847.165
852.615
869.719
875.091
876.943
877.595
877.755
877.667
877.422
877.061
876.604
876.075
875.519
875.092
875.327
878.184
877.831
876.119
873.291
868.767
860.6
842.678
541.11
511.704
480.63
447.984
413.876
378.429
341.772
304.038
265.362
225.878
185.717
145.007
103.876
62.4445
20.8347
542.836
513.355
482.187
449.431
415.203
379.627
342.838
304.971
266.162
226.547
186.259
145.425
104.172
62.6212
20.8934
546.311
516.676
485.315
452.337
417.863
382.027
344.971
306.834
267.759
227.883
187.34
146.258
104.762
62.9733
21.0104
551.579
521.706
490.047
456.723
421.87
385.636
348.172
309.627
270.149
229.879
188.953
147.499
105.641
63.4977
21.1847
558.711
528.504
496.428
462.623
427.246
390.463
352.442
313.343
273.322
232.525
191.088
149.14
106.802
64.1898
21.4146
567.805
537.153
504.522
470.079
434.013
396.517
357.777
317.971
277.263
235.803
193.728
151.166
108.234
65.0428
21.6979
578.997
547.766
514.41
479.143
442.198
403.801
364.167
323.491
281.947
239.687
196.85
153.557
109.922
66.0474
22.0314
592.472
560.487
526.192
489.872
451.818
412.308
371.588
329.87
287.336
244.141
200.42
156.287
111.846
67.1913
22.411
608.474
575.498
539.982
502.317
462.882
422.013
379.994
337.053
293.376
249.115
204.394
159.319
113.98
68.459
22.8314
627.336
593.032
555.905
516.515
475.363
432.856
389.309
344.961
299.992
254.541
208.717
162.609
116.292
69.8313
23.2863
649.519
613.369
574.073
532.459
489.184
444.725
399.413
353.479
307.08
260.332
213.318
166.104
118.745
71.2854
23.7682
675.683
636.831
594.541
550.047
504.173
457.431
410.128
362.449
314.508
266.379
218.111
169.739
121.293
72.7955
24.2684
706.792
663.711
617.195
568.995
520.014
470.683
421.205
371.669
322.115
272.557
223
173.444
123.888
74.3331
24.7777
744.214
694.004
641.512
588.708
536.187
484.068
432.325
380.896
329.715
278.725
227.88
177.142
126.48
75.8686
25.2864
789.31
726.557
666.119
608.12
551.94
497.061
443.119
389.862
337.113
284.74
232.647
180.759
129.017
77.3727
25.7848
28.9806
66.935
104.87
142.773
180.638
218.464
256.259
294.051
331.895
369.9
408.267
447.373
487.967
531.734
583.36
29.3662
68.0941
106.809
145.503
184.174
222.824
261.465
300.127
338.87
377.802
417.13
457.232
498.828
543.277
592.983
29.7546
69.2611
108.759
148.246
187.72
227.184
266.65
306.142
345.705
385.422
425.444
466.044
507.696
551.157
597.317
30.1445
70.4323
110.716
150.995
191.268
231.538
271.812
312.1
352.424
392.82
433.348
474.114
515.295
557.151
599.917
30.535
71.6048
112.674
153.744
194.814
235.885
276.956
318.026
359.086
400.117
441.076
481.885
522.414
562.499
602.038
30.925
72.776
114.63
156.49
198.355
240.226
282.096
323.951
365.76
407.454
448.898
489.838
529.829
568.212
604.383
31.3137
73.9435
116.58
159.228
201.888
244.561
287.239
329.902
372.505
414.955
457.061
498.439
538.348
575.449
607.873
31.7003
75.1048
118.52
161.953
205.409
248.888
292.386
335.886
379.348
422.686
465.717
508.05
548.803
585.92
614.752
32.0839
76.2569
120.446
164.66
208.908
253.195
297.524
341.889
386.269
430.62
474.848
518.745
561.771
602.13
632.079
32.4633
77.3968
122.351
167.339
212.375
257.469
302.632
347.873
393.201
438.629
484.198
530.033
576.579
625.554
684.694
32.8373
78.5207
124.23
169.983
215.796
261.688
307.678
353.789
400.053
446.532
493.351
540.814
589.685
641.906
702.086
33.2049
79.6251
126.077
172.58
219.158
265.834
312.633
359.589
406.749
454.188
502.045
550.606
600.452
652.717
709.132
33.5648
80.7064
127.884
175.123
222.448
269.887
317.472
365.241
413.242
461.542
510.241
559.492
609.525
660.629
713.004
33.9159
81.761
129.647
177.601
225.653
273.833
322.177
370.723
419.517
468.608
518.04
567.824
617.839
667.644
716.272
34.2571
82.786
131.359
180.008
228.763
277.66
326.734
376.025
425.577
475.426
525.585
575.981
626.284
675.462
720.875
34.5875
83.7784
133.017
182.337
231.771
281.357
331.132
381.138
431.42
482.017
532.953
584.191
635.495
685.88
730.971
34.9064
84.736
134.616
184.582
234.669
284.915
335.362
386.052
437.035
488.362
540.099
592.342
645.331
699.957
760.361
35.2131
85.6568
136.153
186.739
237.451
288.329
339.414
390.754
442.4
494.413
546.88
599.96
654.016
710.006
770.327
35.5071
86.5393
137.626
188.804
240.113
291.591
343.283
395.235
447.499
500.136
553.225
606.887
661.343
717.029
774.655
35.7879
87.3822
139.032
190.775
242.651
294.699
346.964
399.491
452.33
505.535
559.159
613.247
667.802
722.69
777.483
36.0555
88.185
140.371
192.65
245.063
297.65
350.454
403.521
456.897
510.631
564.758
619.27
674.014
728.4
780.771
36.3095
88.9472
141.641
194.429
247.35
300.444
353.755
407.326
461.206
515.443
570.077
625.119
680.458
735.492
787.406
36.5501
89.6687
142.843
196.111
249.51
303.081
356.866
410.908
465.257
519.966
575.099
630.748
687.098
744.736
806.281
36.7772
90.3499
143.977
197.697
251.546
305.564
359.79
414.269
469.048
524.183
579.75
635.876
692.828
751.25
812.672
36.9911
90.9913
145.045
199.189
253.459
307.894
362.531
417.412
472.581
528.088
583.999
640.416
697.521
755.663
815.369
37.192
91.5936
146.047
200.589
255.253
310.076
365.095
420.346
475.868
531.701
587.885
644.463
701.48
758.973
816.925
37.3803
92.1578
146.986
201.899
256.931
312.116
367.489
423.082
478.929
535.058
591.483
648.191
705.092
761.946
818.287
37.5562
92.685
147.863
203.123
258.497
314.019
369.721
425.633
481.784
538.197
594.873
651.77
708.721
765.258
820.225
37.7201
93.1762
148.68
204.263
259.956
315.791
371.798
428.008
484.448
541.141
598.096
655.295
712.623
769.643
824.478
37.8725
93.6327
149.439
205.321
261.31
317.435
373.727
430.213
486.925
543.889
601.138
658.715
716.722
775.529
836.861
38.0136
94.0556
150.142
206.302
262.564
318.958
375.511
432.253
489.215
546.428
603.938
661.822
720.25
779.643
841.011
38.1439
94.446
150.791
207.206
263.721
320.362
377.156
434.132
491.319
548.749
606.465
664.537
723.092
782.368
842.72
38.2637
94.805
151.387
208.038
264.784
321.652
378.667
435.855
493.243
550.859
608.732
666.901
725.416
784.329
843.655
38.3734
95.1335
151.934
208.8
265.757
322.832
380.048
437.43
494.999
552.777
610.779
669.011
727.446
785.984
844.402
38.4732
95.4326
152.431
209.493
266.644
323.908
381.307
438.864
496.599
554.526
612.653
670.965
729.389
787.706
845.369
38.5635
95.7031
152.88
210.12
267.446
324.881
382.448
440.166
498.054
556.125
614.385
672.826
731.388
789.864
847.372
38.6444
95.9456
153.284
210.683
268.166
325.757
383.475
441.34
499.37
557.579
615.98
674.586
733.433
792.676
853.088
38.7161
96.1606
153.641
211.182
268.807
326.536
384.391
442.39
500.551
558.889
617.417
676.163
735.186
794.659
855.026
38.7788
96.3485
153.954
211.62
269.368
327.221
385.198
443.318
501.599
560.052
618.691
677.532
736.61
796.002
855.847
38.8325
96.5095
154.223
211.996
269.851
327.812
385.897
444.126
502.514
561.074
619.811
678.723
737.798
797.014
856.329
38.8771
96.6435
154.446
212.309
270.256
328.308
386.488
444.813
503.301
561.961
620.795
679.784
738.873
797.94
856.772
38.9127
96.7505
154.625
212.561
270.581
328.71
386.968
445.377
503.955
562.715
621.657
680.76
739.948
799.01
857.457
38.9391
96.83
154.758
212.749
270.826
329.014
387.336
445.815
504.473
563.329
622.393
681.663
741.092
800.49
859.07
38.9563
96.8816
154.845
212.872
270.987
329.217
387.585
446.118
504.843
563.785
622.973
682.441
742.241
802.52
863.941
38.964
96.9048
154.885
212.929
271.064
329.316
387.712
446.279
505.05
564.058
623.345
682.973
743.041
803.739
865.451
38.9621
96.8993
154.876
212.918
271.053
329.308
387.71
446.29
505.081
564.123
623.466
683.185
743.387
804.236
865.896
38.9504
96.8645
154.819
212.839
270.954
329.19
387.576
446.143
504.927
563.966
623.314
683.044
743.268
804.15
865.862
38.9289
96.8001
154.712
212.69
270.764
328.96
387.307
445.837
504.583
563.582
622.882
682.545
742.676
803.472
865.334
38.8974
96.7057
154.555
212.471
270.483
328.617
386.903
445.371
504.052
562.978
622.183
681.707
741.606
802.034
863.686
38.856
96.5814
154.347
212.181
270.11
328.161
386.364
444.747
503.339
562.166
621.249
680.592
740.152
799.729
858.482
38.8045
96.427
154.09
211.82
269.645
327.593
385.691
443.968
502.451
561.163
620.119
679.311
738.669
797.978
856.711
38.7431
96.2426
153.782
211.389
269.09
326.913
384.885
443.035
501.391
559.978
618.813
677.899
737.202
796.61
855.897
38.6717
96.0283
153.425
210.887
268.443
326.12
383.946
441.95
500.16
558.607
617.317
676.321
735.644
795.308
855.295
38.5905
95.7845
153.018
210.316
267.707
325.217
382.875
440.71
498.754
557.039
615.604
674.504
733.834
793.765
854.554
38.4996
95.5115
152.562
209.676
266.881
324.203
381.671
439.316
497.168
555.263
613.642
672.374
731.588
791.606
853.204
38.3992
95.2099
152.058
208.968
265.966
323.08
380.336
437.766
495.401
553.275
611.423
669.891
728.765
788.333
849.929
38.2895
94.8805
151.507
208.194
264.966
321.849
378.871
436.063
493.457
551.082
608.966
667.11
725.444
783.631
840.18
38.171
94.5242
150.911
207.356
263.881
320.513
377.279
434.21
491.338
548.697
606.312
664.181
722.207
780.048
836.786
38.044
94.1424
150.272
206.456
262.715
319.075
375.563
432.208
489.047
546.12
603.467
661.124
719.081
777.21
835.164
37.9089
93.7364
149.593
205.498
261.473
317.541
373.727
430.061
486.582
543.337
600.392
657.842
715.816
774.473
833.903
37.7665
93.3081
148.876
204.487
260.16
315.916
371.778
427.774
483.941
540.331
597.027
654.178
712.059
771.18
832.28
37.6174
92.8597
148.124
203.427
258.782
314.209
369.725
425.356
481.131
537.097
593.331
649.988
707.422
766.491
829.198
37.4625
92.3937
147.343
202.324
257.349
312.43
367.584
422.826
478.177
533.662
589.324
645.242
701.632
759.253
821.495
37.3025
91.9124
146.537
201.186
255.868
310.593
365.371
420.209
475.115
530.09
585.122
640.15
694.966
748.786
798.146
37.1384
91.4188
145.71
200.018
254.35
308.711
363.104
417.532
471.991
526.465
580.905
635.186
688.972
741.396
790.383
36.9711
90.9155
144.867
198.829
252.805
306.797
360.804
414.822
468.843
522.846
576.782
630.547
683.904
736.371
787.166
36.8013
90.4051
144.012
197.625
251.242
304.863
358.484
412.098
465.695
519.258
572.762
626.172
679.434
732.486
785.282
36.6299
89.89
143.15
196.411
249.669
302.92
356.157
409.373
462.555
515.695
568.79
621.879
675.089
728.757
783.506
36.4575
89.372
142.285
195.193
248.092
300.976
353.835
406.658
459.431
512.145
564.806
617.482
670.405
724.254
780.726
36.2847
88.853
141.418
193.975
246.518
299.04
351.527
403.965
456.334
508.615
560.794
612.893
665.057
717.907
774.277
36.1118
88.3341
140.552
192.76
244.952
297.118
349.242
401.306
453.283
505.138
556.818
608.24
659.209
709.094
755.129
35.9391
87.8159
139.688
191.551
243.396
295.214
346.988
398.694
450.303
501.765
553.004
603.879
654.091
702.93
748.752
35.7665
87.2984
138.827
190.347
241.852
293.331
344.767
396.137
447.408
498.529
549.422
599.959
649.904
698.837
746.143
35.5937
86.7808
137.966
189.147
240.317
291.467
342.58
393.636
444.602
495.433
546.069
596.427
646.396
695.848
744.706
35.4204
86.2618
137.105
187.948
238.788
289.617
340.422
391.183
441.872
492.455
542.889
593.143
643.223
693.247
743.524
35.2457
85.7391
136.238
186.745
237.258
287.774
338.281
388.764
439.201
489.561
539.815
589.958
640.064
690.443
741.94
35.0687
85.2098
135.362
185.53
235.718
285.925
336.144
386.364
436.566
486.721
536.797
586.774
636.692
686.836
738.601
34.8881
84.6702
134.469
184.296
234.156
284.056
333.994
383.963
433.946
483.916
533.826
583.609
633.137
682.075
729.057
34.7026
84.1159
133.553
183.03
232.559
282.15
331.809
381.536
431.319
481.132
530.923
580.596
629.966
678.643
725.792
34.5105
83.5421
132.606
181.721
230.909
280.185
329.564
379.054
428.654
478.345
528.08
577.77
627.249
676.243
724.387
34.3101
82.9435
131.617
180.356
229.188
278.138
327.229
376.482
425.908
475.506
525.247
575.065
624.842
674.403
723.581
34.0995
82.3144
130.577
178.92
227.376
275.98
324.768
373.773
423.026
472.547
522.337
572.364
622.557
672.799
722.971
33.8771
81.6495
129.477
177.397
225.452
273.684
322.142
370.877
419.94
469.382
519.239
569.524
620.21
671.214
722.4
33.6411
80.9435
128.307
175.775
223.395
271.22
319.311
367.736
416.574
465.908
515.821
566.38
617.614
669.471
721.78
33.3902
80.1922
127.06
174.04
221.187
268.56
316.234
364.294
412.846
462.012
511.931
562.743
614.558
667.385
721.028
33.1234
79.3925
125.729
172.183
218.811
265.681
312.874
360.494
408.672
457.573
507.398
558.384
610.77
664.703
720.027
32.8404
78.543
124.313
170.199
216.259
262.565
309.204
356.291
403.98
452.472
502.036
553.028
605.882
661.024
718.553
32.5412
77.6441
122.81
168.086
213.528
259.206
305.209
351.656
398.712
446.605
495.66
546.354
599.376
655.658
716.092
32.2269
76.6987
121.226
165.851
210.624
255.61
300.891
346.583
392.846
439.911
488.125
538.039
590.578
647.379
711.244
31.8991
75.7119
119.569
163.506
207.564
251.797
296.275
341.098
386.405
432.399
479.386
527.876
578.795
634.163
699.659
834.778
754.255
686.42
624.228
565.171
508.097
452.372
397.606
343.539
289.989
236.821
183.935
131.249
78.6978
26.2242
849.147
770.608
700.94
636.681
575.81
517.181
460.107
404.151
349.014
294.488
240.415
186.678
133.182
79.847
26.6055
855.132
780.783
711.687
646.767
584.88
525.174
467.057
410.117
354.058
298.665
243.772
189.251
135
80.9298
26.9651
858.135
787.291
719.519
654.733
592.421
532.051
473.179
415.462
358.633
302.487
246.863
191.633
136.688
81.9378
27.3003
859.892
791.649
725.262
660.965
598.6
537.875
478.49
420.18
362.724
305.94
249.677
193.812
138.239
82.8659
27.6092
861.038
794.7
729.536
665.842
603.627
542.757
483.043
424.297
366.341
309.023
252.209
195.784
139.648
83.7113
27.8909
861.839
796.918
732.773
669.676
607.707
546.822
486.915
427.854
369.507
311.749
254.465
197.551
140.916
84.474
28.1455
862.427
798.58
735.265
672.711
611.02
550.196
490.187
430.906
372.257
314.139
256.457
199.121
142.047
85.156
28.3734
862.872
799.854
737.212
675.133
613.716
552.993
492.942
433.511
374.629
316.22
258.204
200.505
143.048
85.761
28.5758
863.217
800.849
738.753
677.078
615.917
555.31
495.256
435.723
376.664
318.019
259.725
201.716
143.927
86.2938
28.7542
863.488
801.636
739.984
678.651
617.72
557.232
497.196
437.598
378.404
319.569
261.042
202.769
144.694
86.76
28.9106
863.704
802.266
740.976
679.931
619.201
558.826
498.822
439.182
379.885
320.897
262.177
203.681
145.361
87.1657
29.0468
863.878
802.774
741.781
680.977
620.421
560.151
500.183
440.518
381.143
322.031
263.152
204.467
145.936
87.5169
29.1648
864.019
803.188
742.439
681.836
621.429
561.252
501.322
441.644
382.208
322.997
263.985
205.141
146.432
87.8196
29.2666
864.134
803.525
742.978
682.543
622.263
562.169
502.276
442.591
383.11
323.818
264.696
205.718
146.856
88.0795
29.3541
864.229
803.803
743.421
683.127
622.955
562.933
503.074
443.388
383.871
324.513
265.3
206.21
147.219
88.3017
29.4289
864.306
804.031
743.787
683.61
623.53
563.569
503.743
444.057
384.512
325.101
265.812
206.627
147.528
88.4912
29.4928
864.37
804.22
744.09
684.011
624.007
564.1
504.301
444.618
385.052
325.598
266.245
206.982
147.79
88.6523
29.5471
864.423
804.376
744.34
684.343
624.404
564.542
504.768
445.089
385.506
326.016
266.611
207.281
148.012
88.7887
29.5931
864.467
804.505
744.548
684.618
624.735
564.911
505.158
445.483
385.886
326.367
266.919
207.534
148.2
88.904
29.632
864.503
804.611
744.72
684.847
625.009
565.218
505.483
445.811
386.205
326.661
267.177
207.746
148.357
89.0011
29.6648
864.533
804.7
744.862
685.036
625.236
565.472
505.753
446.085
386.47
326.907
267.394
207.923
148.489
89.0824
29.6922
864.558
804.772
744.979
685.192
625.424
565.683
505.977
446.312
386.691
327.112
267.573
208.071
148.599
89.1503
29.7151
864.578
804.832
745.075
685.321
625.578
565.856
506.162
446.5
386.873
327.281
267.722
208.194
148.691
89.2065
29.7341
864.594
804.88
745.154
685.425
625.704
565.997
506.312
446.652
387.021
327.419
267.844
208.294
148.765
89.2526
29.7497
864.608
804.919
745.217
685.509
625.805
566.111
506.433
446.776
387.141
327.531
267.943
208.375
148.826
89.29
29.7623
864.618
804.95
745.266
685.575
625.884
566.201
506.529
446.873
387.236
327.619
268.021
208.44
148.874
89.3196
29.7724
864.626
804.973
745.304
685.625
625.945
566.269
506.602
446.948
387.309
327.687
268.081
208.489
148.911
89.3424
29.7801
864.632
804.99
745.331
685.661
625.989
566.318
506.655
447.002
387.362
327.736
268.124
208.525
148.938
89.359
29.7857
864.635
805.001
745.348
685.685
626.017
566.35
506.689
447.037
387.396
327.768
268.153
208.549
148.955
89.3698
29.7894
864.637
805.005
745.356
685.695
626.03
566.365
506.705
447.054
387.413
327.784
268.167
208.561
148.964
89.3754
29.7912
864.637
805.005
745.355
685.694
626.029
566.364
506.704
447.053
387.413
327.784
268.167
208.561
148.965
89.3757
29.7914
864.634
804.998
745.344
685.68
626.013
566.346
506.686
447.035
387.396
327.769
268.154
208.551
148.957
89.371
29.7898
864.63
804.986
745.324
685.654
625.981
566.312
506.65
446.999
387.361
327.737
268.127
208.528
148.941
89.361
29.7864
864.624
804.967
745.294
685.614
625.934
566.259
506.595
446.944
387.309
327.689
268.085
208.495
148.916
89.3457
29.7812
864.615
804.94
745.252
685.558
625.868
566.187
506.519
446.868
387.237
327.623
268.028
208.448
148.881
89.3246
29.7741
864.603
804.905
745.196
685.485
625.781
566.091