/*--------------------------------*- C++ -*----------------------------------*\
| =========                 |                                                 |
| \\      /  F ield         | OpenFOAM: The Open Source CFD Toolbox           |
|  \\    /   O peration     | Version:  5.x                                   |
|   \\  /    A nd           | Web:      www.OpenFOAM.org                      |
|    \\/     M anipulation  |                                                 |
\*---------------------------------------------------------------------------*/
FoamFile
{
    version     2.0;
    format      ascii;
    class       volScalarField;
    location    "3";
    object      gradTx;
}
// * * * * * * * * * * * * * * * * * * * * * * * * * * * * * * * * * * * * * //

dimensions      [0 -1 0 1 0 0 0];

internalField   nonuniform List<scalar> 
6300
(
4368.93
4356.56
4331.77
4294.46
4244.5
4181.74
4106.09
4017.48
3915.98
3801.86
3675.6
3537.98
3390.15
3233.6
3070.2
4381.08
4368.76
4344.07
4306.89
4257.07
4194.44
4118.83
4030.15
3928.42
3813.81
3686.76
3548.02
3398.69
3240.3
3074.76
4405.32
4393.12
4368.64
4331.75
4282.24
4219.88
4144.43
4055.68
3953.52
3838.01
3709.44
3568.45
3416.12
3253.98
3084.05
4441.53
4429.52
4405.4
4369
4320.05
4258.21
4183.12
4094.42
3991.79
3875.07
3744.34
3600.06
3443.18
3275.27
3098.53
4489.53
4477.8
4454.23
4418.58
4370.51
4309.57
4235.22
4146.87
4043.94
3925.94
3792.6
3644.08
3481.11
3305.23
3118.89
4549.02
4537.7
4514.91
4480.36
4433.63
4374.12
4301.1
4213.69
4110.96
3991.94
3855.86
3702.36
3531.76
3345.49
3146.27
4619.61
4608.83
4587.11
4554.11
4509.3
4451.96
4381.14
4295.64
4194.04
4074.8
3936.36
3777.53
3597.91
3398.53
3182.38
4700.75
4690.68
4670.36
4639.42
4597.27
4543.07
4475.64
4393.45
4294.57
4176.63
4037.04
3873.29
3683.64
3468.16
3229.93
4791.72
4782.54
4763.99
4735.71
4697.07
4647.17
4584.67
4507.75
4413.92
4299.9
4161.68
3994.76
3795
3560.37
3293.31
4891.63
4883.51
4867.12
4842.11
4807.91
4763.61
4707.89
4638.73
4553.21
4447.16
4314.81
4148.84
3941.04
3684.83
3379.92
4999.41
4992.52
4978.63
4957.46
4928.58
4891.26
4844.3
4785.83
4712.81
4620.47
4501.36
4344.53
4135.31
3857.8
3503.17
5113.84
5108.29
5097.15
5080.28
5057.46
5028.28
4991.98
4947.22
4891.5
4820.3
4725.4
4592.38
4397.66
4107.69
3689.56
5233.55
5229.41
5221.13
5208.79
5192.45
5172.15
5147.87
5119.29
5085.43
5043.6
4987.3
4901.72
4755.04
4485.51
3997.96
5357.16
5354.38
5348.93
5341.05
5331.12
5319.74
5307.78
5296.4
5287.07
5281.1
5278.25
5271.91
5235.01
5081.12
4579.46
5483.28
5481.76
5478.9
5475.08
5470.97
5467.65
5466.82
5471.2
5485.06
5515.24
5572.42
5672.38
5831.68
6024.25
5893.6
2916.38
2774.51
2632.27
2491.03
2352.14
2216.79
2086.07
1960.89
1841.98
1729.89
1625.04
1527.67
1437.9
1355.75
1281.13
1213.9
1153.82
1100.64
1054.04
1013.67
979.129
950.001
925.819
906.08
890.247
877.752
868
860.383
854.299
849.163
844.437
839.639
834.364
828.284
821.149
812.775
803.023
791.789
778.984
764.526
748.343
730.374
710.578
688.948
665.509
640.321
613.47
585.051
555.155
523.847
491.158
457.073
421.534
384.442
345.669
305.067
262.481
217.756
170.739
121.275
69.2022
14.3392
-43.5229
-104.63
-169.27
-237.773
-310.511
-387.884
-470.317
-558.242
-652.088
-752.27
-859.177
-973.169
-1094.56
-1223.63
-1360.58
-1505.56
-1658.63
-1819.72
-1988.65
-2165.08
-2348.47
-2538.08
-2732.97
-2931.96
-3133.64
-3336.46
-3538.69
-3738.57
2918.8
2774.92
2630.68
2487.55
2346.9
2210.02
2078
1951.77
1832.05
1719.4
1614.19
1516.65
1426.87
1344.83
1270.44
1203.52
1143.84
1091.12
1045.03
1005.22
971.298
942.841
919.382
900.418
885.407
873.769
864.892
858.147
852.903
848.547
844.512
840.301
835.497
829.779
822.913
814.736
805.138
794.033
781.345
766.995
750.9
732.989
713.208
691.541
668.017
642.708
615.72
587.174
557.183
525.834
493.166
459.168
423.773
386.868
348.308
307.931
265.571
221.069
174.276
125.048
73.2371
18.6773
-38.8283
-99.5182
-163.679
-231.647
-303.802
-380.563
-462.371
-549.675
-642.92
-742.536
-848.924
-962.452
-1083.45
-1212.21
-1348.95
-1493.85
-1646.98
-1808.34
-1977.76
-2154.95
-2339.39
-2530.38
-2726.96
-2927.93
-3131.88
-3337.15
-3541.95
-3744.4
2923.71
2775.7
2627.37
2480.34
2336.14
2196.14
2061.49
1933.16
1811.86
1698.1
1592.21
1494.37
1404.6
1322.84
1248.94
1182.67
1123.79
1071.98
1026.92
988.242
955.557
928.442
906.434
889.029
875.676
865.775
858.683
853.72
850.197
847.438
844.816
841.788
837.921
832.903
826.539
818.723
809.401
798.538
786.082
771.956
756.059
738.282
718.54
696.798
673.086
647.505
620.207
591.37
561.164
529.716
497.09
463.276
428.188
391.681
353.571
313.659
271.754
227.692
181.332
132.556
81.2484
27.2774
-29.5261
-89.3837
-152.579
-219.459
-290.429
-365.94
-446.47
-532.508
-624.532
-723
-828.333
-940.92
-1061.11
-1189.21
-1325.5
-1470.19
-1623.42
-1785.25
-1955.61
-2134.27
-2320.79
-2514.51
-2714.49
-2919.51
-3128.06
-3338.36
-3548.44
-3756.18
2931.32
2776.82
2622.06
2468.94
2319.22
2174.42
2035.8
1904.33
1780.71
1665.38
1558.58
1460.39
1370.74
1289.47
1216.37
1151.14
1093.49
1043.09
999.575
962.594
931.757
906.649
886.82
871.77
860.94
853.706
849.374
847.189
846.362
846.104
845.678
844.458
841.977
837.942
832.235
824.855
815.864
805.315
793.206
779.453
763.909
746.39
726.74
704.878
680.836
654.764
626.902
597.534
566.929
535.292
502.725
469.218
434.648
398.807
361.434
322.262
281.055
237.634
191.88
143.724
93.1121
39.9754
-15.8045
-74.4191
-136.146
-201.353
-270.486
-344.054
-422.6
-506.679
-596.823
-693.529
-797.247
-908.383
-1027.31
-1154.37
-1289.88
-1434.14
-1587.39
-1749.79
-1921.41
-2102.16
-2291.71
-2489.5
-2694.64
-2905.88
-3121.59
-3339.77
-3558.15
-3774.24
2941.92
2778.15
2614.24
2452.53
2295.09
2143.69
1999.71
1864.11
1737.53
1620.29
1512.49
1414.04
1324.73
1244.29
1172.39
1108.65
1052.71
1004.21
962.781
928.056
899.665
877.217
860.288
848.398
840.994
837.427
836.941
838.674
841.68
844.982
847.654
848.92
848.242
845.367
840.314
833.285
824.549
814.32
802.676
789.515
774.584
757.553
738.112
716.087
691.5
664.591
635.759
605.473
574.177
542.202
509.713
476.691
442.943
408.142
371.893
333.803
293.555
250.946
205.902
158.443
108.629
56.4987
2.02038
-54.9484
-114.677
-177.565
-244.126
-314.963
-390.728
-472.074
-559.62
-653.912
-755.425
-864.573
-981.737
-1107.29
-1241.61
-1385.08
-1538.09
-1700.98
-1874
-2057.26
-2250.66
-2453.8
-2665.89
-2885.69
-3111.41
-3340.76
-3570.99
-3799.04
2955.98
2779.52
2603.14
2429.82
2262.14
2102.19
1951.43
1810.81
1680.81
1561.53
1452.85
1354.44
1265.9
1186.78
1116.58
1054.86
1001.18
955.11
916.289
884.358
858.977
839.802
826.463
818.532
815.489
816.679
821.284
828.297
836.542
844.738
851.629
856.156
857.644
855.905
851.215
844.15
835.36
825.345
814.311
802.106
788.27
772.169
753.195
730.971
705.499
677.18
646.7
614.861
582.399
549.849
517.468
485.211
452.755
419.567
385.008
348.461
309.461
267.775
223.414
176.568
127.496
76.4222
23.4521
-31.4804
-88.6337
-148.459
-211.578
-278.744
-350.78
-428.505
-512.658
-603.85
-702.557
-809.166
-924.028
-1047.52
-1180.08
-1322.22
-1474.49
-1637.49
-1811.73
-1997.66
-2195.48
-2405.1
-2625.94
-2856.83
-3095.86
-3340.34
-3586.82
-3831.34
2974.24
2780.64
2587.51
2398.84
2217.96
2047.32
1888.45
1742.13
1608.54
1487.44
1378.33
1280.57
1193.46
1116.33
1048.53
989.465
938.616
895.534
859.833
831.188
809.314
793.948
784.817
781.597
783.855
790.985
802.128
816.115
831.445
846.348
858.979
867.742
871.666
870.667
865.511
857.478
847.913
837.819
827.612
817.026
805.199
790.909
772.943
750.519
723.59
692.87
659.59
625.14
590.743
557.25
525.044
494.017
463.622
432.969
400.989
366.66
329.245
288.467
244.518
197.911
149.261
99.0945
47.7294
-4.79195
-58.7185
-114.583
-173.173
-235.479
-302.606
-375.642
-455.52
-542.919
-638.265
-741.822
-853.834
-974.631
-1104.7
-1244.68
-1395.39
-1557.7
-1732.56
-1920.83
-2123.23
-2340.13
-2571.4
-2816.12
-3072.35
-3336.89
-3605.31
-3872.23
2997.79
2780.95
2565.32
2356.53
2158.94
1975.38
1807.3
1655.04
1518.21
1396.01
1287.39
1191.27
1106.6
1032.41
967.847
912.189
864.831
825.287
793.18
768.232
750.245
739.082
734.627
736.741
745.178
759.482
778.848
801.972
826.934
851.2
871.871
886.268
892.752
891.392
883.924
872.99
861.203
850.438
841.439
833.716
825.66
814.925
799.095
776.542
747.128
712.235
674.159
635.336
597.779
562.797
530.919
501.914
474.862
448.284
420.359
389.309
353.879
313.734
269.462
222.21
173.222
123.51
73.6908
23.9409
-25.9896
-76.7551
-129.387
-185.243
-245.889
-312.888
-387.511
-470.504
-562.1
-662.253
-770.934
-888.336
-1014.97
-1151.65
-1299.48
-1459.78
-1633.99
-1823.58
-2029.98
-2254.35
-2497.36
-2758.73
-3036.74
-3327.7
-3625.79
-3923.35
3028.36
2779.39
2533.14
2297.97
2079.6
1881.08
1703.28
1545.63
1406.76
1284.94
1178.39
1085.44
1004.59
934.563
874.295
822.917
779.753
744.292
716.183
695.218
681.32
674.524
674.95
682.751
698.023
720.661
750.128
785.156
823.398
861.199
893.772
916.162
925.105
920.886
907.303
889.706
873.002
860.491
853.411
850.867
849.962
846.265
834.912
812.434
778.543
736.176
689.797
643.703
601.102
563.873
532.657
506.996
485.424
465.541
444.235
418.269
385.311
344.951
298.709
249.022
198.241
148.097
99.5693
52.9535
7.96371
-36.2155
-80.9325
-128.078
-179.992
-239.123
-307.41
-385.662
-473.569
-570.357
-675.427
-788.699
-910.697
-1042.49
-1185.56
-1341.77
-1513.18
-1702.05
-1910.75
-2141.64
-2396.76
-2677.26
-2982.33
-3308.11
-3646.89
-3987.23
3068.76
2773.76
2484.91
2215.08
1971.57
1756.85
1570.17
1409.12
1270.69
1151.82
1049.76
962.122
886.943
822.624
767.897
721.782
683.545
652.677
628.867
611.999
602.138
599.538
604.626
617.975
640.237
671.978
713.374
763.684
820.468
878.698
930.306
965.392
976.382
963.838
936.438
905.111
878.741
862.701
858.833
865.641
878.267
888.614
886.734
864.746
822.155
765.883
705.016
647.034
596.683
556.287
526.394
506.19
493.554
484.851
474.827
457.304
427.407
384.649
332.928
277.419
222.356
170.372
122.711
79.6431
40.7703
5.12145
-28.9554
-64.0206
-103.67
-152.139
-212.925
-286.876
-372.21
-466.493
-568.059
-676.445
-792.277
-917.008
-1052.68
-1201.78
-1367.13
-1551.87
-1759.48
-1993.91
-2259.52
-2560.29
-2897.97
-3269.68
-3665.56
-4067.85
3123.75
2759.13
2409.16
2094.17
1821.99
1592.12
1400.03
1239.96
1106.36
994.438
900.29
820.818
753.616
696.832
649.063
609.266
576.696
550.868
531.529
518.66
512.476
513.458
522.38
540.342
568.777
609.367
663.759
732.861
815.43
905.703
990.604
1049.29
1061.52
1028.15
971.201
913.353
869.581
847.362
848.861
872.017
909.837
948.554
967.497
946.711
885.457
802.195
716.072
639.372
577.922
533.573
506.177
494.487
496.022
506.065
516.222
514.165
488.028
437.263
372.609
305.186
242.049
186.435
139.253
100.309
68.9534
44.2158
24.4685
6.66434
-14.6214
-47.3858
-99.4514
-171.663
-257.927
-352.101
-450.827
-553.42
-660.992
-775.715
-900.406
-1038.33
-1193.1
-1368.69
-1569.52
-1801.17
-2071.54
-2390.07
-2764.48
-3196.28
-3674.86
-4171.89
3202.09
2723.25
2282.91
1911.49
1611.4
1372.95
1183.74
1032.64
910.766
811.419
729.642
661.805
605.248
558.025
518.719
486.314
460.113
439.687
424.853
415.671
412.475
415.924
427.094
447.606
479.792
526.861
592.937
682.623
799.27
940.415
1088.62
1200.05
1212.28
1126.4
1007.23
901.298
829.363
797.853
807.684
857.262
940.098
1036.95
1105.46
1086.93
980.435
842.616
713.551
609.742
534.53
486.445
463.345
463.737
486.242
527.117
575.21
605.706
584.122
509.884
416.287
326.791
250.917
190.366
143.948
110.062
87.6233
76.1432
75.1155
82.387
90.9837
85.1905
43.0642
-36.1796
-132.218
-231.121
-327.988
-423.187
-519.365
-620.02
-729.024
-850.547
-989.045
-1149.07
-1335.08
-1552.59
-1814.1
-2139.28
-2548.21
-3055.4
-3657.43
-4311.53
3321.39
2631.77
2057.32
1625.99
1311.98
1082.76
912.501
783.165
682.69
603.056
538.886
486.515
443.408
407.79
378.411
354.405
335.192
320.437
310.018
304.045
302.886
307.254
318.339
338.043
369.359
416.965
488.096
593.538
747.807
964.928
1239.55
1493.64
1504.26
1272.58
1024.14
840.268
730.908
688.792
709.251
794.6
950.156
1166.16
1368.71
1353.83
1120.5
870.423
674.65
538.927
452.071
403.334
386.681
401.145
450.012
537.778
659.539
772.251
756.041
610.39
454.066
328.79
237.731
173.956
130.607
103.342
90.5273
93.0357
113.831
156.224
217.336
270.115
239.059
123.519
-2.35515
-113.04
-207.517
-291.508
-371.255
-452.264
-539.566
-638.273
-753.924
-891.969
-1055.23
-1240.56
-1464.86
-1767.81
-2190.35
-2777.83
-3564.82
-4511.13
3520.55
2374.34
1625.53
1171.46
890.382
707.632
582.29
492.095
424.566
372.396
331.111
297.86
270.763
248.55
230.351
215.575
203.839
194.925
188.77
185.473
185.328
188.899
197.159
211.747
235.454
273.18
333.83
434.121
605.811
906.606
1420.01
2137.8
2145.09
1442.84
948.06
671.916
535.6
489.609
517.36
630.823
873.152
1314.72
1945.03
1935.29
1284.65
820.023
549.268
397.74
314.714
274.022
265.208
289.012
357.769
499.491
756.903
1124.45
1114.36
726.273
447.143
281.521
185.261
128.141
94.1152
75.8228
71.3774
83.6087
121.461
203.126
355.714
575.794
556.742
298.126
105.662
-18.2729
-102.123
-165.913
-221.299
-275.416
-333.65
-401.557
-486.508
-598.493
-743.529
-872.315
-1002.29
-1224.05
-1594.89
-2212.82
-3242.69
-4824.39
3888.62
1544.51
769.256
467.739
327.152
249.798
201.437
168.363
144.305
126.041
111.75
100.328
91.0723
83.5173
77.35
72.3598
68.4117
65.431
63.3984
62.3536
62.4096
63.7839
66.8598
72.3091
81.3543
96.3757
122.469
171.876
277.882
542.102
1306.1
3804.99
3807.6
1314.3
557.112
302.189
210.211
184.226
202.035
281.469
509.221
1191.49
3443.01
3439.6
1180.94
490.431
252.19
157.908
116.391
98.8038
96.7644
112.145
160.459
294.613
695.678
2020.45
2017.02
685.26
276.772
134.377
76.4337
49.0755
34.972
28.3703
28.2202
37.2963
66.0141
147.917
396.927
1225.86
1219.43
377.503
115.019
18.7896
-25.6005
-52.4018
-73.1524
-92.6198
-113.779
-140.27
-180.124
-257.37
-455.158
-502.284
-407.489
-465.564
-643.51
-1054.53
-2125.78
-5373.8
-3953.31
-4179.49
-4394.29
-4595.47
-4781.24
-4950.39
-5102.13
-5236.13
-5352.33
-5450.94
-5532.28
-5596.74
-5644.7
-5676.47
-5692.3
-3961.84
-4190.7
-4407.75
-4610.67
-4797.68
-4967.59
-5119.68
-5253.7
-5369.71
-5467.99
-5548.95
-5613.02
-5660.65
-5692.19
-5707.89
-3979.19
-4213.52
-4435.15
-4641.59
-4831.04
-5002.39
-5155.09
-5289.08
-5404.61
-5502.15
-5582.26
-5645.53
-5692.47
-5723.51
-5738.95
-4005.99
-4248.88
-4477.56
-4689.3
-4882.32
-5055.64
-5209.01
-5342.7
-5457.28
-5553.51
-5632.21
-5694.13
-5739.95
-5770.19
-5785.22
-4043.29
-4298.28
-4536.71
-4755.56
-4953.08
-5128.62
-5282.4
-5415.2
-5528.07
-5622.19
-5698.69
-5758.61
-5802.78
-5831.86
-5846.3
-4092.72
-4364.04
-4615.25
-4842.96
-5045.61
-5223.15
-5376.57
-5507.4
-5617.39
-5708.25
-5781.55
-5838.6
-5880.47
-5907.95
-5921.57
-4156.78
-4449.71
-4717.12
-4955.22
-5163.03
-5341.59
-5493.1
-5620.21
-5725.59
-5811.64
-5880.4
-5933.54
-5972.32
-5997.68
-6010.22
-4239.35
-4560.74
-4848.1
-5097.55
-5309.49
-5486.88
-5633.82
-5754.54
-5852.88
-5932.06
-5994.64
-6042.58
-6077.36
-6100
-6111.17
-4346.67
-4705.6
-5016.79
-5277.21
-5490.28
-5662.39
-5800.53
-5911.03
-5999.11
-6068.85
-6123.25
-6164.54
-6194.29
-6213.57
-6223.05
-4489.23
-4898.02
-5236.04
-5504.03
-5711.81
-5871.64
-5994.65
-6089.71
-6163.48
-6220.72
-6264.73
-6297.78
-6321.43
-6336.69
-6344.18
-4685.91
-5160.99
-5525.1
-5790.81
-5981.08
-6117.46
-6216.43
-6289.43
-6344.15
-6385.57
-6416.89
-6440.17
-6456.71
-6467.34
-6472.55
-4973.97
-5534.74
-5912.33
-6152.8
-6304.01
-6400.48
-6463.91
-6507.2
-6537.87
-6560.26
-6576.84
-6589.02
-6597.64
-6603.17
-6605.88
-5435.83
-6091.44
-6436.48
-6603.81
-6681.44
-6716.27
-6731.27
-6737.34
-6739.65
-6740.51
-6740.9
-6741.16
-6741.39
-6741.57
-6741.67
-6282.62
-6958.46
-7138.04
-7144.24
-7101.46
-7051.62
-7007.24
-6971
-6942.62
-6920.97
-6904.8
-6893.06
-6884.91
-6879.79
-6877.32
-8154.42
-8321.52
-8012.73
-7733.34
-7528.29
-7381.25
-7274.74
-7196.53
-7138.62
-7095.67
-7064
-7041.06
-7025.14
-7015.1
-7010.24
5600.04
5599.52
5598.67
5597.96
5598.19
5600.68
5607.59
5622.47
5651.36
5704.85
5802.6
5984.8
6347.86
7184.8
9646.94
5706.37
5706.6
5707.26
5708.82
5712.08
5718.35
5729.81
5750.06
5785.27
5846.29
5953.01
6142.98
6487.81
7110.98
8082.64
5812.35
5813.18
5815.03
5818.3
5823.66
5832.22
5845.73
5867.08
5901.04
5955.78
6045.38
6193.4
6434.24
6794.89
7196.04
5917.56
5918.87
5921.63
5926.12
5932.82
5942.43
5956.01
5975.14
6002.19
6040.85
6096.95
6179.14
6297.25
6450.41
6590.98
6021.66
6023.35
6026.81
6032.2
6039.74
6049.67
6062.24
6077.5
6095.06
6113.58
6130.16
6139.74
6135.69
6114.43
6086.51
6124.39
6126.41
6130.46
6136.58
6144.77
6154.87
6166.39
6178.06
6187.04
6187.43
6168.02
6109.58
5985.85
5782.84
5565.65
6225.53
6227.85
6232.46
6239.31
6248.25
6258.86
6270.22
6280.29
6284.77
6274.81
6232.77
6124.53
5890.85
5460.88
4896.96
6324.87
6327.49
6332.68
6340.37
6350.34
6362.12
6374.75
6386.2
6392.29
6384.24
6343.25
6226.37
5931.95
5231.72
3839.68
6422.19
6425.13
6430.97
6439.63
6450.94
6464.58
6479.88
6495.63
6509.38
6516.35
6506.22
6451.27
6254.66
5482.78
1818.74
6517.28
6520.55
6527.07
6536.81
6549.71
6565.65
6584.52
6606.22
6630.93
6660.11
6700.1
6774.29
6976.65
7742.05
11393.9
6609.89
6613.5
6620.72
6631.57
6646.12
6664.47
6686.99
6714.51
6749.11
6796.16
6869.99
7008.07
7307.42
7996.57
9370.75
6699.8
6703.73
6711.62
6723.54
6739.63
6760.18
6785.8
6817.69
6858.38
6913.38
6995.05
7129.61
7367.27
7775.11
8305.06
6786.78
6791
6799.5
6812.37
6829.81
6852.16
6880.04
6914.53
6957.44
7011.86
7083.16
7179.29
7308.7
7468.6
7610.6
6870.62
6875.1
6884.12
6897.79
6916.32
6940.05
6969.49
7005.33
7048.25
7098.39
7153.8
7205.61
7228.72
7174.27
7017.97
6951.15
6955.84
6965.28
6979.59
6998.98
7023.75
7054.3
7091
7133.79
7181.04
7226.7
7251.61
7202.38
6950.42
6320.02
7028.21
7033.06
7042.83
7057.63
7077.66
7103.21
7134.62
7172.22
7215.95
7264.58
7313.79
7348.83
7316.61
6989.11
5187.53
7101.7
7106.66
7116.65
7131.79
7152.27
7178.36
7210.45
7248.98
7294.43
7347.51
7410.49
7492.5
7635.67
8051.23
9898.47
7171.53
7176.56
7186.67
7202
7222.72
7249.11
7281.59
7320.72
7367.36
7423.32
7493.74
7593.46
7765.34
8118.89
8804.14
7237.66
7242.71
7252.85
7268.21
7288.97
7315.41
7347.91
7387.03
7433.54
7488.87
7556.42
7644.04
7768.64
7955.95
8188.93
7300.08
7305.09
7315.17
7330.43
7351.04
7377.26
7409.43
7447.98
7493.33
7545.71
7604.95
7668.68
7728.17
7761.04
7738.76
7358.81
7363.75
7373.67
7388.69
7408.97
7434.73
7466.31
7504.02
7547.97
7597.57
7650.12
7696.02
7705.97
7604.2
7276.34
7413.9
7418.72
7428.4
7443.05
7462.82
7487.94
7518.72
7555.49
7598.43
7647.15
7699.7
7748.06
7761.14
7604.11
6589.5
7465.44
7470.09
7479.45
7493.61
7512.71
7536.99
7566.77
7602.48
7644.6
7693.86
7751.97
7824.35
7934.23
8199.31
9278.04
7513.53
7517.98
7526.94
7540.48
7558.75
7581.98
7610.5
7644.79
7685.56
7734.18
7794.11
7874.35
7999.32
8229.25
8642.16
7558.31
7562.53
7571
7583.82
7601.1
7623.07
7650.01
7682.38
7720.81
7766.44
7821.93
7893.06
7991.31
8131.89
8296.23
7599.95
7603.89
7611.82
7623.8
7639.95
7660.45
7685.55
7715.56
7750.8
7791.62
7838.68
7892.69
7953.68
8017.82
8067.63
7638.64
7642.28
7649.59
7660.64
7675.53
7694.41
7717.47
7744.89
7776.64
7812.26
7850.4
7887.22
7913.66
7913.46
7876.81
7674.58
7677.88
7684.52
7694.56
7708.08
7725.24
7746.17
7771
7799.54
7830.93
7862.82
7888.72
7891.93
7834.19
7663.73
7708.01
7710.95
7716.86
7725.8
7737.86
7753.2
7771.96
7794.32
7820.21
7849.03
7879.2
7905.75
7912.33
7832.95
7335.46
7739.18
7741.73
7746.85
7754.61
7765.12
7778.53
7795.06
7814.99
7838.57
7865.98
7897.88
7936.42
7992.22
8121.86
8644.9
7768.37
7770.49
7774.77
7781.27
7790.11
7801.45
7815.59
7832.93
7854
7879.62
7911.74
7954.88
8020.66
8137.37
8340.66
7795.85
7797.53
7800.9
7806.05
7813.09
7822.2
7833.7
7848.08
7866
7888.53
7917.77
7957.39
8013.54
8092.58
8180.7
7821.95
7823.14
7825.56
7829.27
7834.37
7841.04
7849.6
7860.55
7874.55
7892.59
7916.37
7948.22
7990.35
8041.29
8085.06
7846.98
7847.67
7849.09
7851.26
7854.29
7858.32
7863.65
7870.69
7880.04
7892.45
7909.19
7931.7
7960.86
7994.81
8022.91
7871.29
7871.47
7871.83
7872.4
7873.24
7874.46
7876.28
7879.04
7883.13
7889.1
7897.82
7910.34
7927.89
7952.23
7983.39
7895.25
7894.89
7894.16
7893.08
7891.66
7889.94
7888.07
7886.23
7884.67
7883.63
7883.62
7885.27
7890.04
7904.73
7968.65
7919.21
7918.31
7916.49
7913.74
7910
7905.28
7899.6
7893.02
7885.59
7877.25
7868.09
7857.84
7845.14
7822.89
7750.86
7943.55
7942.11
7939.21
7934.79
7928.76
7921.03
7911.53
7900.2
7886.86
7871.25
7853.1
7831.93
7806.7
7775.45
7736.85
7968.62
7966.67
7962.72
7956.67
7948.4
7937.74
7924.52
7908.54
7889.46
7866.79
7840.04
7808.62
7772.29
7732.96
7699.27
7994.79
7992.35
7987.4
7979.81
7969.41
7955.96
7939.2
7918.8
7894.28
7864.94
7830.03
7788.53
7739.81
7686.42
7641.56
8022.39
8019.49
8013.62
8004.62
7992.24
7976.21
7956.16
7931.68
7902.16
7866.76
7824.4
7773.27
7710.45
7633.84
7556.02
8051.73
8048.42
8041.72
8031.45
8017.31
7998.95
7975.95
7947.8
7913.84
7873.17
7824.67
7765.92
7690.53
7582.02
7419.81
8083.06
8079.42
8072.01
8060.64
8044.98
8024.62
7999.05
7967.71
7929.89
7884.8
7831.84
7769.92
7693.49
7567.44
7174.44
8116.64
8112.71
8104.74
8092.49
8075.59
8053.58
8025.89
7991.85
7950.67
7901.64
7844.99
7783.75
7730.75
7738.15
8051.45
8152.64
8148.51
8140.12
8127.22
8109.41
8086.17
8056.85
8020.66
7976.57
7923.49
7861.07
7791.6
7725.85
7696.12
7758.61
8191.19
8186.94
8178.3
8165.01
8146.64
8122.64
8092.29
8054.65
8008.37
7951.54
7881.78
7796.56
7695.68
7589.72
7513.58
8232.37
8228.08
8219.37
8205.95
8187.41
8163.16
8132.47
8094.32
8047.13
7988.23
7912.94
7812.08
7668.78
7462.34
7220.24
8276.18
8271.95
8263.34
8250.08
8231.75
8207.79
8177.5
8139.94
8093.64
8035.97
7961.54
7856.75
7685.46
7359.52
6763.48
8322.6
8318.5
8310.17
8297.34
8279.59
8256.43
8227.22
8191.27
8147.64
8094.98
8030.87
7947.23
7809.26
7444.09
5897.72
8371.5
8367.62
8359.74
8347.6
8330.79
8308.85
8281.27
8247.56
8207.46
8161.55
8113.36
8075.01
8090.48
8348.71
9824.4
8422.73
8419.16
8411.89
8400.67
8385.12
8364.79
8339.18
8307.89
8270.86
8229.28
8188.57
8164.93
8202.61
8407.21
8921.03
8476.06
8472.87
8466.37
8456.31
8442.33
8423.95
8400.64
8371.81
8336.91
8295.97
8251.45
8211.72
8198.26
8250.21
8381.06
8531.22
8528.49
8522.9
8514.24
8502.14
8486.11
8465.53
8439.5
8406.63
8364.66
8310.49
8239.71
8147.88
8037.7
7938.71
8587.89
8585.68
8581.15
8574.1
8564.19
8550.97
8533.77
8511.53
8482.13
8441.32
8380.57
8281.72
8109.66
7816.75
7434.47
8645.7
8644.07
8640.71
8635.47
8628.06
8618.12
8605.11
8588.08
8565
8531.32
8476.57
8373.98
8154.78
7657.24
6671.7
8704.25
8703.24
8701.15
8697.87
8693.2
8686.93
8678.8
8668.37
8654.66
8635.43
8605.25
8546.61
8392.61
7836
5231.54
8763.09
8762.73
8761.97
8760.74
8758.95
8756.56
8753.65
8750.47
8747.58
8746.63
8753.15
8784.86
8909.44
9436.25
12013.2
8821.78
8822.08
8822.66
8823.5
8824.61
8826.08
8828.25
8831.88
8838.56
8852.13
8883
8957.96
9146.34
9612.08
10568.4
8879.85
8880.81
8882.71
8885.59
8889.5
8894.63
8901.41
8910.72
8924.14
8945.07
8981.69
9051.65
9190.02
9446.5
9795.02
8936.86
8938.44
8941.63
8946.47
8953.04
8961.54
8972.39
8986.23
9003.89
9026.6
9056.67
9097.18
9151.06
9216.28
9271.04
8992.35
8994.54
8998.96
9005.64
9014.71
9026.34
9040.86
9058.61
9079.54
9102.49
9123.84
9132.78
9103.59
8992.59
8792.47
9045.91
9048.68
9054.24
9062.67
9074.07
9088.65
9106.67
9128.34
9153.19
9178.97
9199.1
9194.23
9112.31
8830.06
8182.24
9097.15
9100.45
9107.09
9117.14
9130.73
9148.08
9169.53
9195.4
9225.6
9258.86
9291.19
9308.56
9259.54
8920.64
7129.36
9145.7
9149.49
9157.12
9168.66
9184.26
9204.19
9228.9
9259.02
9295.31
9338.91
9393.16
9468.41
9607.52
10019.1
11845
9191.21
9195.46
9203.99
9216.88
9234.29
9256.52
9284.11
9317.93
9359.37
9411.11
9480.06
9583.38
9765.82
10135
10829.6
9233.39
9238.04
9247.38
9261.48
9280.49
9304.68
9334.6
9371.14
9415.7
9470.9
9542.65
9642.88
9793.99
10024.6
10302.8
9271.95
9276.97
9287.04
9302.22
9322.6
9348.41
9380.1
9418.36
9464.12
9518.77
9585.03
9666.54
9766.54
9880.72
9975.41
9306.64
9312
9322.74
9338.87
9360.45
9387.62
9420.66
9459.97
9505.83
9558.18
9616.4
9676.88
9728.83
9749.92
9719.79
9337.23
9342.91
9354.27
9371.29
9393.96
9422.33
9456.52
9496.64
9542.51
9593.09
9645.8
9692.65
9712.15
9654.22
9449.2
9363.51
9369.5
9381.46
9399.33
9423.06
9452.58
9487.9
9528.96
9575.41
9626.14
9678.89
9726.96
9748.84
9660.15
9042.1
9385.27
9391.57
9404.14
9422.88
9447.68
9478.4
9514.94
9557.18
9604.84
9657.4
9714.87
9779.01
9861.91
10033.2
10692.3
9402.3
9408.93
9422.14
9441.8
9467.75
9499.77
9537.68
9581.3
9630.4
9684.87
9745.87
9817.62
9913.26
10067.3
10324.6
9414.37
9421.36
9435.27
9455.95
9483.17
9516.65
9556.12
9601.28
9651.79
9707.44
9769.07
9839.27
9923.74
10029.5
10140.6
9421.24
9428.63
9443.33
9465.15
9493.82
9529
9570.27
9617.2
9669.18
9725.51
9785.99
9850.64
9919.13
9987.69
10038.8
9422.64
9430.48
9446.07
9469.2
9499.56
9536.72
9580.19
9629.3
9683.12
9740.36
9799.69
9858.97
9914.19
9957.69
9977.4
9418.27
9426.62
9443.21
9467.84
9500.16
9539.71
9585.87
9637.8
9694.26
9753.44
9813.12
9869.76
9917.08
9943.87
9934.57
9407.78
9416.69
9434.42
9460.76
9495.37
9537.75
9587.24
9642.85
9703.11
9765.84
9828.36
9886.65
9933.94
9954.73
9890.11
9390.78
9400.31
9419.29
9447.56
9484.79
9530.52
9584.05
9644.36
9709.83
9778.07
9846.24
9910.83
9968.89
10024.6
10124.7
9366.85
9377.05
9397.39
9427.76
9467.93
9517.51
9575.87
9642
9714.24
9790.05
9866.31
9939.23
10005.2
10063.3
10114.1
9335.54
9346.42
9368.19
9400.81
9444.18
9498.06
9561.99
9635.11
9715.8
9801.41
9888.42
9972.11
10046.8
10106.7
10143.3
9296.36
9307.93
9331.13
9366.04
9412.76
9471.29
9541.46
9622.68
9713.56
9811.49
9912.56
10010.9
10098.5
10166
10202.1
9248.85
9261.06
9285.6
9322.73
9372.79
9436.11
9512.96
9603.25
9706.06
9819.11
9938.32
10056.7
10164
10246.8
10290.4
9192.58
9205.32
9231.01
9270.12
9323.25
9391.22
9474.86
9574.83
9691.09
9822.15
9964.33
10110
10246.3
10354.5
10413.3
9127.18
9140.28
9166.81
9207.41
9263.08
9335.12
9425.14
9534.83
9665.48
9817.17
9987.62
10169.6
10347.7
10496.2
10581.2
9052.4
9065.63
9092.52
9133.92
9191.2
9266.23
9361.49
9479.99
9624.91
9798.87
10002.6
10231.5
10469.4
10681.7
10812.4
8968.15
8981.21
9007.84
9049.09
9106.65
9182.97
9281.44
9406.54
9563.82
9759.58
9999.94
10286.8
10608.6
10923.5
11138.7
8874.57
8887.09
8912.71
8952.62
9008.75
9084.02
9182.63
9310.47
9475.65
9689.03
9964.67
10317.4
10752.4
11234.3
11618.5
8772.02
8783.6
8807.36
8844.56
8897.24
8968.58
9063.26
9188.22
9353.67
9574.94
9875.62
10290.5
10863.3
11612.6
12369.4
8661.16
8671.38
8692.41
8725.43
8772.47
8836.62
8922.61
9037.58
9192.58
9405.42
9707
10153.5
10851.2
11985.5
13649.9
8542.94
8551.4
8568.83
8596.28
8635.5
8689.22
8761.58
8858.9
8990.97
9173.99
9437.46
9841.7
10535.8
11989.7
16090.5
-13443.3
-10006.9
-8787.3
-8204.9
-7866.16
-7646
-7493.69
-7384.4
-7304.36
-7245.23
-7201.64
-7170.03
-7148.03
-7134.13
-7127.39
-11394.5
-9999.43
-9048.71
-8464.16
-8090.77
-7839.34
-7662.65
-7534.68
-7440.33
-7370.22
-7318.25
-7280.38
-7253.93
-7237.17
-7229.03
-10317.4
-9683.11
-9055.58
-8576.54
-8230.48
-7980.57
-7797.52
-7661.44
-7559.29
-7482.4
-7424.84
-7382.59
-7352.91
-7334.03
-7324.84
-9683.66
-9361.89
-8959.1
-8596.34
-8303.23
-8075.16
-7899.54
-7764.43
-7660.54
-7580.94
-7520.58
-7475.84
-7444.2
-7423.97
-7414.09
-9276.41
-9096.69
-8834.57
-8567.54
-8330.61
-8133.1
-7973.18
-7845.56
-7744.74
-7665.93
-7605.26
-7559.78
-7527.36
-7506.51
-7496.31
-8996.97
-8888.47
-8713.2
-8517.61
-8330.41
-8164.71
-8024.14
-7907.87
-7813.46
-7738.1
-7679.16
-7634.44
-7602.27
-7581.46
-7571.25
-8795.9
-8726.4
-8605.73
-8461.6
-8315.09
-8178.64
-8057.98
-7954.79
-7868.77
-7798.67
-7742.95
-7700.15
-7669.09
-7648.87
-7638.9
-8646.12
-8599.63
-8514.31
-8407
-8292.57
-8181.38
-8079.44
-7989.6
-7912.84
-7849.04
-7797.53
-7757.49
-7728.16
-7708.95
-7699.45
-8531.64
-8499.6
-8437.92
-8357.13
-8267.6
-8177.48
-8092.26
-8015.11
-7947.72
-7890.67
-7843.92
-7807.16
-7780
-7762.1
-7753.21
-8442.44
-8419.94
-8374.57
-8313.11
-8242.82
-8169.97
-8099.22
-8033.65
-7975.22
-7924.93
-7883.15
-7849.93
-7825.18
-7808.78
-7800.61
-8371.88
-8355.95
-8322.15
-8275
-8219.61
-8160.78
-8102.33
-8047.04
-7996.88
-7953.06
-7916.19
-7886.59
-7864.36
-7849.55
-7842.15
-8315.42
-8304.16
-8278.78
-8242.37
-8198.6
-8151.11
-8102.99
-8056.65
-8013.95
-7976.14
-7943.97
-7917.89
-7898.17
-7884.97
-7878.35
-8269.8
-8261.97
-8242.85
-8214.63
-8179.97
-8141.66
-8102.16
-8063.53
-8027.43
-7995.08
-7967.28
-7944.55
-7927.25
-7915.61
-7909.76
-8232.67
-8227.39
-8213.02
-8191.12
-8163.67
-8132.81
-8100.49
-8068.44
-8038.12
-8010.65
-7986.83
-7967.21
-7952.18
-7942.02
-7936.9
-8202.23
-8198.9
-8188.2
-8171.25
-8149.54
-8124.74
-8098.4
-8071.93
-8046.62
-8023.48
-8003.24
-7986.44
-7973.51
-7964.74
-7960.3
-8177.14
-8175.33
-8167.48
-8154.46
-8137.37
-8117.52
-8096.15
-8074.42
-8053.43
-8034.07
-8017.01
-8002.76
-7991.74
-7984.23
-7980.42
-8156.35
-8155.73
-8150.15
-8140.26
-8126.91
-8111.13
-8093.91
-8076.19
-8058.91
-8042.84
-8028.59
-8016.61
-8007.3
-8000.93
-7997.7
-8139.03
-8139.35
-8135.6
-8128.24
-8117.94
-8105.52
-8091.77
-8077.44
-8063.35
-8050.14
-8038.35
-8028.39
-8020.6
-8015.26
-8012.54
-8124.51
-8125.61
-8123.32
-8118.03
-8110.24
-8100.62
-8089.78
-8078.34
-8066.97
-8056.25
-8046.61
-8038.41
-8031.98
-8027.55
-8025.3
-8112.27
-8114
-8112.92
-8109.33
-8103.63
-8096.34
-8087.96
-8078.97
-8069.95
-8061.38
-8053.62
-8046.98
-8041.75
-8038.13
-8036.28
-8101.88
-8104.12
-8104.05
-8101.88
-8097.92
-8092.6
-8086.31
-8079.43
-8072.43
-8065.73
-8059.61
-8054.34
-8050.17
-8047.27
-8045.79
-8092.96
-8095.64
-8096.41
-8095.44
-8092.96
-8089.32
-8084.82
-8079.75
-8074.52
-8069.44
-8064.77
-8060.72
-8057.48
-8055.22
-8054.06
-8085.23
-8088.28
-8089.77
-8089.82
-8088.61
-8086.42
-8083.47
-8079.99
-8076.3
-8072.66
-8069.27
-8066.29
-8063.88
-8062.2
-8061.33
-8078.42
-8081.79
-8083.9
-8084.85
-8084.75
-8083.83
-8082.25
-8080.17
-8077.84
-8075.49
-8073.24
-8071.22
-8069.57
-8068.4
-8067.79
-8072.32
-8075.97
-8078.64
-8080.37
-8081.27
-8081.49
-8081.13
-8080.3
-8079.21
-8078.02
-8076.8
-8075.67
-8074.7
-8074
-8073.63
-8066.71
-8070.63
-8073.8
-8076.26
-8078.06
-8079.32
-8080.09
-8080.42
-8080.46
-8080.34
-8080.08
-8079.75
-8079.42
-8079.16
-8079.01
-8061.43
-8065.59
-8069.24
-8072.39
-8075.04
-8077.28
-8079.11
-8080.52
-8081.64
-8082.52
-8083.17
-8083.61
-8083.87
-8084.02
-8084.08
-8056.31
-8060.71
-8064.82
-8068.63
-8072.12
-8075.31
-8078.16
-8080.63
-8082.79
-8084.64
-8086.16
-8087.34
-8088.18
-8088.73
-8088.99
-8051.18