/*--------------------------------*- C++ -*----------------------------------*\
| =========                 |                                                 |
| \\      /  F ield         | OpenFOAM: The Open Source CFD Toolbox           |
|  \\    /   O peration     | Version:  5.x                                   |
|   \\  /    A nd           | Web:      www.OpenFOAM.org                      |
|    \\/     M anipulation  |                                                 |
\*---------------------------------------------------------------------------*/
FoamFile
{
    version     2.0;
    format      ascii;
    class       volScalarField;
    location    "3";
    object      gradTy;
}
// * * * * * * * * * * * * * * * * * * * * * * * * * * * * * * * * * * * * * //

dimensions      [0 -1 0 1 0 0 0];

internalField   nonuniform List<scalar> 
6300
(
3189.04
7560.97
11914.4
16236.8
20515.7
24738.4
28891.9
32963.3
36939.5
40807.7
44555.2
48170.1
51641.2
54958.9
58115.1
9.08517
27.2988
45.6373
64.1671
82.9263
101.912
121.066
140.258
159.273
177.798
195.42
211.639
225.893
237.609
246.266
15.0932
45.358
75.8486
106.688
137.956
169.663
201.73
233.957
265.995
297.327
327.252
354.905
379.297
399.402
414.272
21.0224
63.1885
105.707
148.777
192.54
237.048
282.227
327.835
373.414
418.249
461.342
501.415
536.969
566.407
588.228
26.8299
80.6638
135.009
190.167
246.371
303.751
362.282
421.726
481.558
540.894
598.43
652.419
700.726
740.997
770.945
32.4615
97.624
163.494
230.502
299.016
369.289
441.409
515.211
590.177
665.315
739.036
809.071
872.486
925.874
965.782
37.8523
113.873
190.831
269.323
349.887
432.966
518.834
607.508
698.596
791.118
883.288
972.298
1054.22
1124.18
1176.9
42.9264
129.179
216.629
306.06
398.231
493.832
593.432
697.362
805.545
917.235
1030.65
1142.56
1247.88
1339.65
1409.72
47.5986
143.283
240.434
340.046
443.125
550.679
663.672
782.928
908.947
1041.58
1179.47
1319.35
1455.02
1576.75
1671.68
51.7815
155.914
261.77
370.549
483.524
602.061
727.615
861.691
1005.69
1160.59
1326.26
1500.26
1676.03
1840.57
1973.45
55.3929
166.815
280.171
396.84
518.341
646.396
783.003
930.486
1091.49
1268.78
1464.63
1679.36
1908.18
2135.97
2331.04
58.366
175.775
295.248
418.284
546.58
682.149
827.474
985.715
1160.94
1358.33
1584.07
1844.28
2141.27
2464.01
2768.98
60.6603
182.663
306.751
434.451
567.522
708.112
858.99
1023.91
1208.18
1419.47
1668.98
1972.33
2348.5
2809.68
3321.94
62.2704
187.46
314.63
445.228
580.92
723.754
876.42
1042.71
1228.32
1442.34
1699.96
2027.46
2470.62
3104.1
4009.35
63.2296
190.268
319.069
450.892
587.152
729.53
880.185
1042.14
1220
1421.55
1660.99
1966.83
2402.28
3126.6
4611.46
60854.8
63226.8
65479.3
67612.6
69628.1
71528.5
73317.1
74998.5
76577.7
78060.2
79452.1
80759.6
81989
83146.9
84239.5
85273.2
86254
87187.9
88080.5
88937.1
89762.9
90562.5
91340.3
92100.2
92845.7
93579.9
94305.3
95023.9
95737.4
96446.6
97152.1
97854.1
98552.1
99245.6
99933.8
100616
101290
101956
102612
103256
103888
104505
105107
105692
106258
106803
107327
107828
108304
108754
109179
109575
109942
110279
110585
110857
111096
111298
111461
111585
111667
111704
111694
111635
111524
111358
111133
110846
110492
110068
109569
108989
108323
107566
106710
105751
104681
103493
102181
100738
99157.7
97432.9
95557.7
93526.4
91334
88976.4
86450.7
83755.2
80889.4
77854.6
251.029
252.814
252.025
248.736
243.117
235.408
225.904
214.925
202.795
189.825
176.299
162.468
148.548
134.717
121.124
107.887
95.1048
82.8592
71.2219
60.259
50.0351
40.6159
32.0688
24.4618
17.86
12.3194
7.87964
4.55513
2.32683
1.13701
0.888963
1.45314
2.68003
4.41763
6.52952
8.90909
11.486
14.2238
17.1094
20.1388
23.3012
26.5685
29.8912
33.2031
36.4324
39.5169
42.4183
45.1308
47.6842
50.1386
52.5751
55.0824
57.744
60.6271
63.7762
67.2119
70.9359
74.9396
79.2154
83.7669
88.6159
93.8053
99.3977
105.469
112.103
119.378
127.364
136.113
145.651
155.986
167.097
178.949
191.489
204.652
218.363
232.529
247.042
261.764
276.522
291.103
305.245
318.637
330.921
341.704
350.57
357.108
360.94
361.758
359.351
353.637
422.433
425.449
424.013
418.263
408.509
395.193
378.843
360.027
339.315
317.244
294.3
270.906
247.419
224.133
201.286
179.068
157.633
137.109
117.608
99.2328
82.0883
66.2821
51.9287
39.1471
28.0548
18.7579
11.3361
5.82612
2.20461
0.375883
0.168786
1.34701
3.63372
6.74687
10.4367
14.5152
18.869
23.4535
28.2706
33.3372
38.6531
44.1774
49.8206
55.4541
60.9346
66.1365
70.9809
75.4546
79.6144
83.5764
87.496
91.5421
95.871
100.605
105.82
111.543
117.763
124.447
131.567
139.117
147.13
155.68
164.879
174.866
185.795
197.81
211.039
225.574
241.464
258.715
277.294
297.13
318.133
340.194
363.19
386.979
411.387
436.198
461.138
485.859
509.926
532.817
553.92
572.553
587.986
599.483
606.363
608.058
604.178
594.563
600.163
604.483
602.198
593.542
579.018
559.332
535.316
507.845
477.777
445.907
412.938
379.468
345.994
312.912
280.539
249.12
218.85
189.889
162.375
136.44
112.22
89.8627
69.5325
51.4075
35.673
22.5053
12.0491
4.38766
-0.488954
-2.70996
-2.5357
-0.344768
3.40787
8.25612
13.7947
19.7351
25.9298
32.358
39.0822
46.1862
53.714
61.6241
69.7732
77.9346
85.8475
93.2802
100.086
106.24
111.839
117.084
122.244
127.603
133.423
139.899
147.141
155.168
163.928
173.335
183.307
193.81
204.879
216.627
229.23
242.915
257.926
274.5
292.838
313.086
335.319
359.538
385.68
413.632
443.254
474.389
506.876
540.533
575.146
610.442
646.065
681.547
716.292
749.559
780.465
807.998
831.052
848.493
859.239
862.371
857.243
843.581
787.25
792.979
789.508
777.218
756.905
729.654
696.708
659.343
618.774
576.092
532.236
487.98
443.946
400.618
358.366
317.467
278.134
240.537
204.822
171.132
139.625
110.482
83.9188
60.1845
39.5541
22.3081
8.69817
-1.10044
-7.04585
-9.28421
-8.18353
-4.32488
1.56458
8.73129
16.5334
24.5482
32.6131
40.7951
49.305
58.3827
68.1818
78.6838
89.6646
100.729
111.408
121.282
130.088
137.78
144.527
150.672
156.659
162.958
169.986
178.046
187.286
197.691
209.119
221.363
234.236
247.641
261.606
276.294
291.978
309.008
327.761
348.602
371.839
397.692
426.264
457.542
491.409
527.679
566.141
606.587
648.822
692.655
737.864
784.159
831.135
878.238
924.725
969.64
1011.8
1049.83
1082.14
1107.08
1123.01
1128.51
1122.54
1104.62
987.391
994.679
989.471
972.402
944.734
908.13
864.419
815.412
762.768
707.922
652.06
596.124
540.835
486.732
434.201
383.52
334.884
288.441
244.319
202.651
163.596
127.358
94.2045
64.4661
38.5371
16.8509
-0.164554
-12.1601
-18.9636
-20.6893
-17.8255
-11.2522
-2.14092
8.26812
18.9425
29.2654
39.1035
48.7355
58.6859
69.5155
81.6121
95.028
109.409
124.053
138.102
150.794
161.667
170.654
178.056
184.458
190.597
197.234
205.035
214.466
225.724
238.713
253.104
268.455
284.371
300.635
317.262
334.495
352.758
372.586
394.555
419.218
447.04
478.346
513.277
551.781
593.638
638.531
686.131
736.164
788.424
842.75
898.973
956.843
1015.97
1075.76
1135.37
1193.62
1249.05
1299.82
1343.78
1378.57
1401.75
1411.11
1404.97
1382.51
1205.26
1214.31
1206.45
1182.79
1145.38
1096.79
1039.71
976.676
909.894
841.179
771.956
703.299
635.983
570.546
507.343
446.598
388.447
332.978
280.261
230.387
183.49
139.778
99.5565
63.248
31.3971
4.65569
-16.2674
-30.7074
-38.2042
-38.7138
-32.8199
-21.8451
-7.72659
7.41128
21.8456
34.6686
45.8785
56.2048
66.7886
78.8116
93.1304
109.97
128.76
148.22
166.737
182.91
195.95
205.793
213.012
218.61
223.802
229.819
237.721
248.242
261.653
277.702
295.692
314.716
333.99
353.09
372.026
391.195
411.266
433.061
457.45
485.264
517.204
553.757
595.121
641.166
691.469
745.456
802.59
862.503
925.017
990.081
1057.67
1127.68
1199.81
1273.52
1347.9
1421.64
1492.96
1559.56
1618.59
1666.71
1700.33
1715.98
1710.86
1683.5
1447.18
1458.23
1446.13
1412.92
1362.07
1297.62
1223.54
1143.32
1059.79
975.164
891.041
808.55
728.435
651.155
576.959
505.958
438.169
373.571
312.135
253.863
198.826
147.201
99.3065
55.6453
16.935
-15.8813
-41.6685
-59.2147
-67.4682
-65.9208
-55.0924
-36.9269
-14.7423
7.6051
27.1065
42.432
53.9628
63.34
72.8559
84.8396
101.057
122.142
147.187
173.782
198.782
219.577
234.871
244.749
250.34
253.382
255.859
259.726
266.675
277.894
293.819
313.933
336.826
360.655
383.897
405.814
426.489
446.631
467.325
489.831
515.446
545.399
580.752
622.266
670.253
724.445
784.019
847.87
915.067
985.116
1057.95
1133.79
1212.9
1295.45
1381.39
1470.31
1561.34
1653.13
1743.66
1830.19
1909.07
1975.72
2024.79
2050.74
2048.77
2016.09
1722.15
1735.42
1716.16
1668.41
1598.28
1512.27
1416.17
1314.66
1211.24
1108.39
1007.75
910.362
816.794
727.315
641.974
560.69
483.302
409.619
339.46
272.692
209.266
149.269
92.9795
40.9343
-5.992
-46.5163
-78.9118
-101.078
-110.819
-106.466
-87.904
-57.7705
-21.9672
11.9218
38.4048
55.6837
65.1723
70.2984
75.3921
84.7936
101.997
128.633
163.404
201.666
236.907
264.189
281.613
289.903
291.362
288.989
285.936
285.218
289.5
300.795
319.973
346.185
376.636
407.458
435.732
460.346
481.74
501.291
520.791
542.141
567.209
597.774
635.44
681.467
736.458
799.983
870.416
945.47
1023.44
1103.71
1186.57
1272.77
1363.15
1458.35
1558.68
1664.02
1773.69
1886.4
2000.11
2111.81
2217.15
2310.01
2382.51
2425.65
2430.87
2392.51
2044.02
2059.36
2027.14
1956.04
1857.3
1741.37
1616.5
1488.66
1361.78
1238.32
1119.69
1006.57
899.175
797.426
701.066
609.733
523.022
440.519
361.836
286.641
214.703
145.938
80.482
18.7961
-38.1923
-88.9092
-130.937
-160.883
-174.516
-167.523
-137.428
-86.8292
-26.4878
26.8497
62.9024
80.0984
82.6081
77.2474
71.6676
73.4552
89.2928
123.351
174.534
233.839
286.432
322.934
341.448
344.83
337.838
325.513
312.588
303.447
302.164
312.279
335.934
372.268
415.847
457.866
492.774
519.449
539.577
555.955
571.525
589.025
610.988
639.85
678.014
727.684
790.299
865.493
950.08
1038.79
1128.41
1218.49
1310.29
1405.66
1506.36
1613.75
1728.67
1851.38
1981.53
2118.11
2259.33
2402.47
2543.06
2673.49
2782.38
2855.03
2875.58
2831.73
2436.07
2451.69
2393.97
2283.36
2140.98
1983.22
1821.06
1661.19
1507.32
1361.26
1223.66
1094.5
973.392
859.751
752.893
652.102
556.67
465.909
379.178
295.897
215.572
137.844
62.5601
-10.099
-79.4141
-143.803
-200.345
-244.167
-267.895
-261.832
-216.465
-129.904
-20.9123
66.676
114.559
125.666
111.382
84.5175
57.3417
41.8927
50.3593
93.4185
173.975
275.686
359.132
407.586
423.077
414.698
392
362.905
333.798
310.363
298.421
304.27
333.642
387.922
457.311
518.517
561.673
587.983
602.817
611.785
619.479
629.482
644.827
668.526
704.012
755.252
826.019
917.464
1023.79
1130.79
1232.71
1330.78
1428.85
1530.84
1639.9
1758.27
1887.39
2027.98
2180.08
2343.06
2515.75
2696.72
2883.52
3067.91
3234.36
3359.37
3412.92
3366.15
2942.98
2949.5
2836.84
2656.3
2446.7
2231.29
2022.23
1825.02
1641.57
1471.96
1315.41
1170.79
1036.83
912.283
795.96
686.74
583.576
485.487
391.55
300.895
212.704
126.236
40.8676
-43.7977
-127.715
-209.979
-288.05
-356.365
-404.153
-412.718
-354.798
-205.261
15.4969
163.688
219.184
207.805
158.28
92.2443
26.1383
-24.0975
-38.3765
9.50141
142.962
343.844
482.23
539.713
539.087
505.194
455.383
400.318
346.851
300.738
269.066
262.396
295.494
381.827
510.565
605.171
654.838
673.052
674.507
669.453
664.109
662.248
666.636
680.227
707.319
754.695
831.953
947.993
1096.54
1230.09
1342.52
1443.06
1541.74
1645.82
1760
1887.27
2029.54
2187.97
2362.92
2553.95
2760.19
2982.52
3227.37
3488.09
3745.91
3966.53
4094.63
4058.22
3668.1
3618.79
3377.34
3070.97
2760.65
2470.13
2206.22
1968.92
1755.77
1563.75
1389.92
1231.64
1086.63
952.905
828.736
712.599
603.12
499.037
399.152
302.301
207.32
113.012
18.1322
-78.6008
-178.417
-282.216
-389.818
-498.138
-596.903
-659.354
-625.077
-383.198
156.375
394.147
420.072
344.842
228.92
100.04
-27.9494
-141.896
-216.649
-197.685
14.8281
501.964
721.791
755.479
702.962
618.577
526.294
435.396
349.275
270.282
203.671
163.221
180.649
314.633
612.935
756.501
793.259
782.214
755.534
727.5
703.68
685.973
675.148
672.435
681.369
711.056
781.985
931.665
1190.82
1359.73
1469.41
1557.96
1646.78
1746.18
1861.18
1994.57
2148.35
2324.05
2522.51
2742.83
2981.32
3235.79
3548.22
3912.3
4310.91
4706.74
5013.06
5052.35
4917.21
4564.58
4011.16
3491.19
3045.95
2670.5
2351.82
2077.95
1839.48
1629.29
1441.97
1273.35
1120.15
979.734
849.921
728.849
614.883
506.532
402.379
301.015
200.969
100.618
-1.92263
-108.948
-223.368
-348.952
-490.526
-653.641
-841.91
-1045.24
-1194.27
-989.788
731.857
929.665
766.624
540.472
318.224
106.559
-102.248
-316.121
-529.857
-683.567
-508.749
1045.02
1229.39
1095.39
912.734
743.336
595.218
463.603
341.442
222.006
100.609
-19.2881
-102.028
10.8278
938.136
1061.64
1000.53
913.899
838.517
779.485
734.45
699.789
671.973
647.866
625.524
608.019
618.601
757.678
1415.05
1574.66
1626.71
1672.47
1736.56
1824.07
1935.82
2072.48
2235.52
2427.31
2650.53
2905.47
3179.36
3405.53
3794.58
4286.68
4879.79
5575.71
6315.87
6774.92
7862.32
5799.25
4596.61
3803.6
3230.62
2788.99
2432.76
2135.88
1882.38
1661.82
1467.01
1292.77
1135.19
991.24
858.468
734.823
618.522
507.947
401.559
297.807
195.037
91.3593
-15.5322
-128.656
-252.245
-392.663
-560.209
-772.912
-1065.21
-1509.32
-2272.46
-3781.08
3501.63
1984.76
1204.02
730.451
392.262
108.942
-169.267
-490.555
-929.51
-1642.53
-3018.02
3559.97
2195.44
1505.31
1103.39
837.428
640.354
478.175
329.666
176.531
-4.63135
-255.326
-666.385
-1465.81
2420.8
1632.63
1244.52
1029.37
897.936
811.291
750.256
703.718
663.428
620.72
562.674
464.491
270.138
-162.709
2356.05
1944.43
1793.03
1760.53
1792.6
1866.97
1974.53
2112.34
2281.22
2485.2
2732.74
3040.73
3445.96
3340.63
3892.46
4515.45
5300.47
6380.78
8023.27
10854.5
74333.5
70259.6
65963.3
61457.5
56757.2
51878.6
46839.2
41656.8
36349.4
30934.8
25430.4
19853.5
14220.7
8548.17
2852.01
343.776
328.651
309.743
287.796
263.619
237.996
211.617
185.038
158.665
132.76
107.458
82.7827
58.6754
35.0151
11.6391
577.788
551.938
519.602
482.128
440.965
397.497
352.916
308.166
263.922
220.601
178.402
137.342
97.2967
58.0435
19.2907
819.325
781.686
734.573
680.126
620.6
558.093
494.37
430.782
368.251
307.319
248.209
190.887
135.127
80.5718
26.7714
1071.99
1020.86
956.837
883.166
803.181
719.875
635.666
552.318
470.965
392.209
316.226
242.868
171.755
102.346
33.9952
1340.13
1272.88
1188.7
1092.48
989.044
882.525
776.069
671.827
571.056
474.309
381.608
292.602
206.679
123.06
40.8602
1629.25
1541.8
1432.55
1308.96
1177.96
1045.08
914.231
787.831
667.091
552.335
443.278
339.243
239.297
142.356
47.2466
1946.61
1832.51
1690.73
1532.84
1368.73
1205.59
1047.93
898.157
757.115
624.631
499.906
381.781
268.904
159.817
53.0174
2302.25
2150.83
1964.97
1762.89
1558.49
1360.57
1173.73
999.742
838.564
689.145
549.91
419.058
294.71
174.986
58.0227
2710.7
2503.49
2255.31
1995.18
1741.71
1504.38
1286.64
1088.49
908.232
743.452
591.512
449.813
315.884
187.39
62.1088
3194.22
2897.05
2557.5
2220.75
1908.73
1628.56
1379.89
1159.29
962.393
784.892
622.85
472.782
331.611
196.574
65.1301
3787.29
3332.93
2856.85
2421.54
2043.84
1721.18
1445.04
1206.34
997.128
810.844
642.188
486.838
341.194
202.159
66.9662
4539.01
3790.36
3115.28
2564.65
2123.84
1767.2
1472.7
1223.88
1008.9
819.137
648.194
491.171
344.158
203.897
67.5399
5479.2
4174.13
3249.11
2597.87
2119.59
1751.02
1454.61
1207.55
995.422
808.577
640.257
485.476
340.358
201.727
66.8347
6310.76
4177.72
3109.07
2458.04
2005.54
1662.63
1387.1
1156.27
956.622
779.458
618.758
470.103
330.061
195.812
64.9061
63.6176
191.348
320.571
452.312
587.651
727.76
873.983
1027.99
1192.12
1370.1
1568.7
1801.69
2099.33
2532.73
3276.81
63.5884
191.176
319.988
450.814
584.395
721.377
862.237
1007.15
1155.77
1306.77
1456.89
1598.1
1707.21
1701.76
1239.32
63.2732
190.15
317.998
447.39
578.759
712.278
847.649
983.716
1117.74
1244.02
1351.21
1416.74
1394.61
1188.07
601.925
62.7273
188.446
314.93
442.582
571.612
701.869
832.553
961.674
1085.05
1194.49
1274.41
1296.23
1210.02
937.966
393.47
61.9967
186.208
311.043
436.806
563.595
691.144
818.52
943.594
1062.03
1165.42
1237.93
1250.71
1154.45
877.03
353.367
61.1139
183.535
306.507
430.305
555.037
680.519
806.066
930.101
1049.42
1157.76
1242.89
1280.88
1224.64
987.074
440.386
60.0966
180.475
301.391
423.145
545.941
669.832
794.645
919.865
1044.41
1166.16
1280.59
1376.44
1420.74
1311.76
759.399
58.9504
177.04
295.688
415.251
536.069
658.487
782.927
910.081
1041.33
1179.62
1331.18
1507.76
1723.26
1944.33
1749.53
57.673
173.214
289.345
406.477
525.072
645.718
769.309
897.445
1033.33
1183.81
1364.37
1612.02
2021.88
2865.66
5034.26
56.2598
168.978
282.303
396.68
512.637
630.885
752.515
879.416
1015.18
1167.09
1350.95
1603.62
2019.11
2866.93
5035.67
54.7081
164.32
274.529
385.779
498.601
613.689
732.041
855.219
985.799
1128.16
1289.72
1482.1
1716.1
1950.84
1755.78
53.0205
159.244
266.028
373.782
482.983
594.211
708.2
825.866
948.225
1075.87
1207.07
1331.67
1412.53
1333.2
778.971
51.2052
153.779
256.85
360.776
465.95
572.806
681.791
793.24
906.965
1021.09
1128.98
1211.59
1220.18
1045.33
499.174
49.2757
147.966
247.076
346.899
447.743
549.913
653.659
759.021
865.414
970.632
1068.44
1142.88
1155.21
1015.3
533.392
47.2491
141.858
236.802
332.309
428.609
525.917
624.397
724.073
824.666
925.307
1024.1
1117.3
1195.96
1222.76
973.768
45.1448
135.516
226.135
317.165
408.769
501.101
594.296
688.481
783.876
881.257
983.628
1101.8
1272.7
1621.75
2593.68
42.9827
129.001
215.178
301.617
388.419
475.68
563.502
652.041
741.697
833.733
932.181
1049.67
1225.73
1588.15
2581.47
40.7834
122.374
204.036
285.813
367.744
449.864
532.204
614.819
697.86
781.749
867.5
956.872
1049.34
1116.44
935.003
38.5669
115.696
192.811
269.898
346.935
423.889
500.708
577.296
653.429
728.466
800.3
861.914
890.569
817.31
461.154
36.353
109.027
181.604
254.014
326.178
398.004
469.369
540.082
609.756
677.402
740.194
789.842
802.568
714.638
380.466
34.1609
102.424
170.511
238.297
305.653
372.434
438.478
503.587
567.487
629.704
689.215
743.409
784.468
782.969
596.143
32.0088
95.9426
159.623
222.877
285.523
347.373
408.232
467.927
526.384
583.884
641.926
706.1
795.926
980.006
1510.06
29.9144
89.6353
149.03
207.877
265.944
322.995
378.79
433.125
485.942
537.684
590.379
650.978
741.934
936.792
1492.11
27.8946
83.5527
138.816
193.414
247.067
299.485
350.358
399.373
446.244
490.822
533.344
574.778
615.794
643.272
534.896
25.9653
77.7429
129.06
179.603
229.046
277.043
323.212
367.106
408.137
445.387
477.063
498.872
499.061
444.103
245.34
24.1414
72.251
119.839
166.552
212.024
255.865
297.642
336.823
372.652
403.82
427.637
437.98
420.63
344.804
158.507
22.437
67.1189
111.223
154.359
196.129
236.115
273.868
308.863
340.4
367.356
387.566
396.322
382.81
322.226
162.453
20.8651
62.3854
103.275
143.111
181.466
217.91
252.003
283.298
311.325
335.573
355.448
370.131
377.687
368.537
281.08
19.438
58.0869
96.0538
132.884
168.124
201.328
232.073
259.994
284.866
306.822
326.934
348.891
384.171
469.242
729.379
18.1676
54.2585
89.6167
123.754
156.186
186.444
214.095
238.797
260.424
279.345
297.133
318.402
356.086
448.394
721.389
17.0654
50.935
84.0208
115.799
145.749
173.359
198.151
219.724
237.848
252.646
264.908
276.51
290.075
302.089
254.94
16.1428
48.151
79.3251
109.105
136.924
162.217
184.426
203.029
217.567
227.693
233.13
233.249
225.14
196.878
109.845
15.4111
45.9406
75.589
103.759
129.838
153.198
173.188
189.135
200.33
205.977
205.029
195.69
174.193
132.478
56.875
14.8805
44.3357
72.8692
99.8504
124.624
146.5
164.736
178.518
186.919
188.817
182.733
166.553
137.272
91.6017
30.3933
14.5596
43.3636
71.2153
97.4584
121.402
142.304
159.348
171.607
177.993
177.17
167.417
146.487
111.709
61.4981
3.61036
14.4549
43.0443
70.6648
96.6443
120.269
140.76
157.25
168.739
174.037
171.684
159.822
136.002
96.83
36.6976
-58.3763
14.5694
43.3883
71.2384
97.4441
121.283
141.962
158.588
170.126
175.348
172.756
160.481
136.13
96.463
36.1208
-58.6755
14.9027
44.3944
72.9362
99.8631
124.461
145.942
163.414
175.849
182.029
180.493
169.468
146.838
110.4
59.4211
2.48675
15.4497
46.0484
75.7358
103.872
129.768
152.661
171.688
185.857
194.005
194.752
186.441
167.066
134.371
86.8047
27.5368
16.2011
48.3224
79.5908
109.407
137.121
162.016
183.279
199.98
211.045
215.222
211.011
196.457
168.588
122.251
49.646
17.1431
51.1743
84.4308
116.367
146.389
173.839
197.972
217.941
232.782
241.422
242.66
234.988
215.524
175.852
90.2469
18.2573
54.5488
90.1625
124.619
157.394
187.905
215.485
239.376
258.728
272.652
280.377
281.571
276.355
261.221
196.668
19.5211
58.3778
96.6705
133.998
169.921
203.94
235.48
263.87
288.335
308.06
322.489
332.443
343.885
380.706
531.231
20.9081
62.5814
103.82
144.312
183.712
221.624
257.576
290.986
321.115
347.006
367.546
382.092
393.561
420.925
547.975
22.3885
67.0694
111.457
155.339
198.478
240.595
281.345
320.273
356.706
389.517
416.587
433.673
431.957
391.588
253.848
23.9297
71.7428
119.413
166.837
213.892
260.434
306.281
351.175
394.677
435.851
472.37
498.096
496.955
429.614
216.429
25.4971
76.4965
127.51
178.543
229.597
280.674
331.778
382.925
434.124
485.248
535.447
580.956
607.674
568.692
331.433
27.055
81.2221
135.56
190.186
245.223
300.811
357.141
414.513
473.477
535.115
601.572
676.624
763.744
845.192
741.839
28.5674
85.8105
143.379
201.498
260.4
320.35
381.678
444.872
510.822
581.454
661.516
763.634
923.43
1249.65
2110.46
29.999
90.155
150.786
212.218
274.786
338.851
404.819
473.198
544.765
621.061
705.929
810.302
967.172
1282.33
2122.91
31.3158
94.1528
157.608
222.103
288.07
355.952
426.191
499.198
575.285
654.532
736.588
820.24
900.643
949.575
782.433
32.4853
97.7062
163.681
230.924
299.966
371.34
445.55
522.956
603.485
685.884
765.938
832.194
855.674
766.522
412.269
33.477
100.723
168.848
238.458
310.187
384.688
462.605
544.452
630.274
718.719
804.698
873.664
888.695
767.352
368.553
34.2628
103.116
172.961
244.489
318.436
395.601
476.853
563.101
655.141
753.143
855.132
952.435
1016.25
960.707
559.699
34.8179
104.811
175.888
248.811
324.409
403.622
487.567
577.653
675.775
784.693
908.708
1054.31
1226.58
1393.85
1249.67
35.1224
105.746
177.518
251.251
327.839
408.316
493.969
586.565
688.835
805.664
947.21
1137.56
1440.26
2043.16
3575.08
35.1623
105.877
177.774
251.69
328.54
409.38
495.516
588.723
691.733
809.397
951.765
1142.7
1445.38
2047.18
3576.68
34.9305
105.183
176.622
250.077
326.449
406.74
492.125
584.053
684.426
795.923
922.556
1070.17
1242.71
1406.87
1255
34.4266
103.664
174.065
246.434
321.623
400.545
484.174
573.506
669.384
771.911
878.755
980.309
1045.82
985.967
570.86
33.6561
101.339
170.141
240.83
314.202
391.074
472.254
558.414
649.729
744.9
838.63
915.482
935.989
811.763
391.3
32.6288
98.2391
164.912
233.37
304.354
378.616
456.883
539.755
627.418
718.911
810.258
889.823
926.712
843.323
463.246
31.358
94.4051
158.449
224.166
292.245
363.394
438.334
517.793
602.482
693.066
790.126
893.875
1001.06
1081.02
914.717
29.8588
89.884
150.835
213.335
278.023
345.563
416.679
492.24
573.501
662.784
765.436
895.654
1094.46
1489.91
2521.33
28.148
84.7269
142.155
201.003
261.845
325.282
391.979
462.781
539.014
623.295
721.71
849.944
1051.49
1457.48
2508.76
26.2432
78.9877
132.505
187.305
243.894
302.775
364.477
429.61
499.012
574.082
657.398
753.475
866.756
977.233
873.349
24.1621
72.721
121.98
172.391
224.383
278.352
334.647
393.539
455.156
519.242
584.354
645.208
684.151
646.073
378.976
21.9213
65.9783
110.672
156.404
203.535
252.361
303.069
355.645
409.668
463.791
514.395
552.292
555.196
474.104
225.566
19.535
58.8042
98.663
139.474
181.548
225.113
270.255
316.819
364.2
410.885
453.381
483.812
484.716
418.549
212.91
17.0139
51.2321
86.0127
121.696
158.568
196.823
236.518
277.502
319.309
360.997
400.865
435.988
460.96
459.991
353.238
14.3641
43.2812
72.756
103.125
134.669
167.585
201.948
237.688
274.597
312.487
351.762
395.368
455.389
575.077
910.201
11.5865
34.9546
58.899
83.7695
109.863
137.396
166.485
197.133
229.295
263.131
299.769
343.506
408.571
540.814
897.174
8.67683
26.2392
44.4194
63.5967
84.1002
106.184
130.004
155.598
182.917
211.942
242.966
276.981
315.283
351.174
310.814
5.62566
17.1063
29.2673
42.5337
57.2838
73.8241
92.3566
112.938
135.438
159.471
184.207
207.613
223.826
214.662
128.268
2.41871
7.51201
13.3673
20.4699
29.2659
40.1354
53.3517
69.019
86.9745
106.61
126.482
143.359
150.122
131.901
63.9442
-0.962404
-2.60018
-3.37959
-2.74138
-0.152396
4.86875
12.7076
23.5818
37.423
53.6783
70.9377
86.2351
93.8779
83.7748
41.2862
-4.53928
-13.2972
-21.0918
-27.2794
-31.2218
-32.3063
-29.9854
-23.8476
-13.7262
0.137311
16.8488
34.5365
50.0604
58.2321
46.5132
-8.33525
-24.6522
-39.901
-53.3489
-64.2393
-71.8006
-75.2756
-73.9809
-67.399
-55.2949
-37.8341
-15.5522
11.4567
46.6135
108.294
-12.3733
-36.738
-59.9423
-81.1672
-99.5325
-114.088
-123.828
-127.73
-124.839
-114.365
-95.7863
-68.823
-32.6913
16.7225
97.5354
-16.6734
-49.6194
-81.3403
-110.945
-137.436
-159.677
-176.385
-186.146
-187.485
-178.986
-159.485
-128.37
-85.9579
-34.8285
12.5782
-21.2485
-63.3416
-104.191
-142.861
-178.256
-209.066
-233.717
-250.359
-256.907
-251.177
-231.177
-195.681
-145.19
-83.6976
-21.9041
-26.101
-77.9182
-128.539
-177.026
-222.23
-262.693
-296.564
-321.531
-334.803
-333.215
-313.564
-273.339
-211.991
-132.715
-43.8607
-31.2179
-93.3164
-154.353
-213.451
-269.466
-320.859
-365.552
-400.778
-422.967
-427.742
-410.179
-365.61
-291.19
-188.338
-65.0112
-36.566
-109.443
-181.498
-251.994
-319.884
-383.645
-441.073
-489.032
-523.176
-537.726
-525.497
-478.557
-390.088
-258.149
-90.7984
-42.0884
-126.131
-209.712
-292.328
-373.142
-450.795
-523.133
-586.837
-636.941
-666.254
-664.875
-620.293
-519.136
-352.524
-126.469
-47.7014
-143.13
-238.583
-333.891
-428.569
-521.605
-611.152
-694.047
-765.099
-816.046
-834.21
-801.273
-693.604
-488.155
-180.799
-53.2938
-160.104
-267.54
-375.872
-485.109
-594.806
-703.752
-809.439
-907.174
-988.552
-1038.99
-1034.11
-935.937
-694.529
-272.789
-58.7291
-176.635
-295.862
-417.205
-541.302
-668.495
-798.575
-930.313
-1060.56
-1182.49
-1282.13
-1331.67
-1277.7
-1026.1
-450.768
-63.8509
-192.242
-322.7
-456.606
-595.321
-740.147
-892.206
-1052.17
-1219.68
-1391.87
-1560.01
-1701.08
-1756.66
-1582.45
-855.268
-68.4918
-206.405
-347.132
-492.648
-645.071
-806.743
-980.302
-1168.75
-1375.49
-1603.99
-1856.63
-2129.78
-2395.12
-2522.74
-1942.64
-72.485
-218.605
-368.229
-523.876
-688.375
-865.051
-1058.01
-1272.59
-1516.12
-1799.31
-2138.93
-2563.83
-3129.17
-3954.4
-5325.19
4463.26
3321.15
2633.63
2162.48
1808.09
1524.37
1287.26
1082.76
901.968
738.793
588.832
448.71
315.716
187.561
62.2131
1629.94
2121.23
2018.52
1799.3
1572.55
1362.1
1171.06
997.511
838.607
691.589
554.012
423.753
298.941
177.893
59.0546
719.224
1333.76
1484.27
1441.29
1325.65
1186.33
1042.67
902.063
766.973
637.809
514.099
395.005
279.545
166.687
55.389
380.658
868.474
1084.37
1133.69
1095.17
1013.54
912.144
802.758
691.205
580.227
470.969
363.725
258.336
154.394
51.3613
232.014
592.005
800.112
887.075
894.596
854.459
787.138
704.94
615.019
521.437
426.429
331.15
236.116
141.465
47.1175
155.613
420.995
599.961
695.604
727.096
714.233
672.445
612.467
541.36
463.624
382.066
298.397
213.626
128.323
42.7945
111.043
309.986
457.659
548.665
590.38
594.075
570.368
527.708
472.29
408.453
339.161
266.403
191.5
115.335
38.5127
82.5431
234.573
354.698
435.943
480.053
492.931
481.437
451.796
409.054
357.061
298.656
235.892
170.247
102.801
34.371
63.1078
181.309
278.73
348.997
391.402
408.7
405.097
384.97
352.232
310.114
261.171
207.375
150.241
90.9476
30.4454
49.2368
142.471
221.613
281.391
320.177
338.972
340.221
326.893
301.915
267.899
227.049
181.171
131.731
79.9316
26.7891
39.0027
113.417
177.937
228.356
262.826
281.42
285.46
276.897
257.866
230.424
196.414
157.437
114.857
69.8464
23.4346
31.2616
91.2308
144.047
186.392
216.493
233.967
239.443
234.163
219.654
197.503
169.224
136.2
99.6678
60.7324
20.3973
25.2932
74.0093
117.426
152.925
178.924
194.84
200.888
197.831
186.743
168.832
145.324
117.396
86.145
52.5889
17.6785
20.6228
60.4658
96.3002
126.051
148.351
162.559
168.652
167.072
158.564
144.043
124.49
100.896
74.2208
45.3845
15.2693
16.9257
49.7043
79.3963
104.346
123.395
135.909
141.74
141.119
134.558
122.744
106.46
86.5331
63.7951
39.067
13.1535
13.9731
41.0848
65.7829
86.7375
102.971
113.898
119.303
119.287
114.196
104.544
90.9564
74.1196
54.7496
33.5715
11.3107
11.5996
34.1399
54.7672
72.4043
86.2302
95.717
100.626
100.977
96.9972
89.0743
77.7062
63.463
46.9577
28.8268
9.71776
9.68311
28.5223
45.8262
60.7152
72.4994
80.7118
85.1121
85.6697
82.5333
75.9939
66.4499
54.3748
40.293
24.7604
8.35119
8.13226
23.9699
38.5605
51.1797
61.2464
68.3508
72.263
72.9246
70.4292
64.9972
56.9485
46.678
34.6343
21.3018
7.18785
6.8775
20.2824
32.6622
43.4147
52.0478
58.2035
61.668
62.3685
60.3614
55.8145
48.9873
40.2105
29.8688
18.3848
6.20597
5.86556
17.3056
27.8922
37.1192
44.5668
49.9221
52.9892
53.6893
52.054
48.2125
42.3772
34.8276
25.8951
15.9493
5.38562
5.05535
14.9205
24.0647
32.057
38.5359
43.2266
45.9507
46.6286
45.2752
41.9919
36.9549
30.4027
22.6233
13.9418
4.70907
4.41526
13.035
21.0352
28.0433
33.7438
37.8934
40.3296
40.9746
39.833
36.9857
32.5818
26.8276
19.9761
12.316
4.16088
3.92108
11.5785
18.6925
24.9348
30.0255
33.7462
35.9485
36.5574
35.5713
33.0569
29.1431
24.0118
17.8885
11.0327
3.728
3.55469
10.4981
16.9528
22.6229
27.2549
30.6494
32.6692
33.2433
32.3663
30.0959
26.5464
21.8818
16.3073
10.0599
3.39969
3.303
9.75538
15.7553
21.0285
25.3394
28.5024
30.389
30.9317
30.1241
28.0184
24.7199
20.3805
15.1909
9.37224
3.16747
3.15738
9.32501
15.0594
20.0982
24.2163
27.2364
29.0362
29.5518
28.7777
26.7639
23.6115
19.4656
14.5084
8.95094
3.02505
3.11319
9.19332
14.8431
19.8027
23.85
26.8114
28.5686
29.0608
28.2854
26.294
23.1876
19.1097
14.2394
8.78343
2.96818
3.16967
9.35794
15.102
20.1351
24.2312
27.2155
28.9714
29.4422
28.6299
26.5913
23.4319
19.2987
14.3732
8.86302
2.99458
3.33006
9.828
15.8499
21.1119
25.3767
28.4641
30.2576
30.7054
29.8171
27.6586
24.345
20.032
14.9085
9.18857
3.1038
3.60185
10.6251
17.1197
22.7738
27.3308
30.6012
32.4679
32.8857
31.8758
29.5185
25.9434
21.3209
15.8526
9.76416
3.29716
3.99753
11.7851
18.9664
25.1887
30.1678
33.7012
35.672
36.045
34.8584
32.2128
28.2594
23.1888
17.2213
10.5987
3.57754
4.53558
13.3611
21.4711
28.4564
33.9963
37.8727
39.9712
40.2729
38.8404
35.8027
31.34
25.6701
19.0376
11.7055
3.94928
5.24217
15.4278
24.7471
32.7151
38.9651
43.2625
45.5013