/*--------------------------------*- C++ -*----------------------------------*\
| =========                 |                                                 |
| \\      /  F ield         | OpenFOAM: The Open Source CFD Toolbox           |
|  \\    /   O peration     | Version:  5.x                                   |
|   \\  /    A nd           | Web:      www.OpenFOAM.org                      |
|    \\/     M anipulation  |                                                 |
\*---------------------------------------------------------------------------*/
FoamFile
{
    version     2.0;
    format      ascii;
    class       volScalarField;
    location    "3";
    object      T;
}
// * * * * * * * * * * * * * * * * * * * * * * * * * * * * * * * * * * * * * //

dimensions      [0 0 0 1 0 0 0];

internalField   nonuniform List<scalar> 
6300
(
31.8601
75.5185
118.991
162.154
204.881
247.044
288.515
329.166
368.865
407.485
444.902
480.997
515.662
548.8
580.334
31.9208
75.7008
119.296
162.582
205.434
247.724
289.323
330.1
369.926
408.669
446.202
482.404
517.162
550.378
581.968
32.0418
76.0645
119.904
163.437
206.539
249.082
290.937
331.971
372.05
411.041
448.811
485.23
520.18
553.552
585.259
32.2226
76.608
120.813
164.716
208.193
251.117
293.357
334.779
375.246
414.615
452.747
489.502
524.748
558.366
590.254
32.4623
77.3283
122.018
166.413
210.39
253.823
296.581
338.528
379.519
419.406
458.037
495.258
530.919
564.881
597.024
32.7592
78.2212
123.513
168.519
213.12
257.192
300.603
343.214
384.877
425.433
464.716
502.55
538.763
573.186
605.673
33.1115
79.2808
125.288
171.023
216.37
261.209
305.41
348.832
391.322
432.713
472.818
511.44
548.369
583.398
616.339
33.5163
80.4987
127.33
173.906
220.118
265.851
310.98
355.364
398.849
441.255
482.381
521.996
559.847
595.669
629.21
33.97
81.8644
129.621
177.144
224.335
271.086
317.278
362.779
407.433
451.057
493.431
534.291
573.326
610.191
644.534
34.4683
83.3644
132.139
180.707
228.981
276.865
324.253
371.023
417.028
462.087
505.971
548.383
588.948
627.204
662.644
35.0056
84.9826
134.856
184.555
234.005
283.127
331.83
380.013
427.547
474.269
519.956
564.296
606.847
647.002
684.003
35.5761
86.7007
137.742
188.644
239.348
289.793
339.913
389.632
438.857
487.462
535.263
581.97
627.111
669.924
709.265
36.173
88.4981
140.761
192.921
244.937
296.77
348.38
399.727
450.766
501.436
551.638
601.182
649.672
696.283
739.383
36.7893
90.3539
143.877
197.333
250.698
303.955
357.093
410.111
463.021
515.852
568.643
621.417
674.081
726.117
775.704
37.4184
92.2473
147.054
201.825
256.555
311.245
365.908
420.581
475.332
530.283
585.637
641.731
699.085
758.365
819.57
607.715
631.429
653.957
675.3
695.474
714.503
732.421
749.271
765.102
779.97
793.934
807.054
819.395
831.019
841.991
852.371
862.222
871.602
880.566
889.169
897.461
905.488
913.294
920.918
928.395
935.756
943.025
950.222
957.364
964.461
971.517
978.535
985.511
992.441
999.316
1006.13
1012.86
1019.51
1026.06
1032.49
1038.8
1044.97
1050.97
1056.81
1062.46
1067.9
1073.13
1078.12
1082.88
1087.38
1091.61
1095.56
1099.23
1102.59
1105.63
1108.35
1110.72
1112.72
1114.35
1115.57
1116.37
1116.72
1116.61
1116
1114.87
1113.18
1110.9
1108
1104.44
1100.16
1095.13
1089.3
1082.6
1074.98
1066.38
1056.73
1045.98
1034.06
1020.89
1006.41
990.561
973.269
954.476
934.128
912.175
888.578
863.309
836.351
807.701
777.373
609.381
633.107
655.629
676.952
697.089
716.067
733.922
750.7
766.452
781.234
795.108
808.137
820.386
831.918
842.8
853.092
862.858
872.156
881.044
889.574
897.797
905.762
913.511
921.085
928.518
935.842
943.081
950.256
957.383
964.472
971.526
978.547
985.531
992.472
999.36
1006.19
1012.94
1019.61
1026.17
1032.63
1038.96
1045.14
1051.17
1057.03
1062.7
1068.16
1073.41
1078.43
1083.2
1087.71
1091.96
1095.93
1099.61
1102.99
1106.06
1108.8
1111.19
1113.23
1114.88
1116.13
1116.96
1117.35
1117.27
1116.7
1115.61
1113.98
1111.75
1108.91
1105.41
1101.21
1096.25
1090.49
1083.87
1076.34
1067.83
1058.28
1047.63
1035.8
1022.73
1008.35
992.594
975.39
956.678
936.4
914.505
890.951
865.706
838.753
810.087
779.72
612.736
636.486
658.997
680.275
700.336
719.211
736.939
753.569
769.158
783.767
797.46
810.304
822.366
833.714
844.413
854.529
864.124
873.259
881.991
890.374
898.461
906.3
913.935
921.407
928.753
936.002
943.182
950.313
957.411
964.483
971.535
978.564
985.565
992.529
999.446
1006.3
1013.09
1019.79
1026.4
1032.9
1039.27
1045.5
1051.57
1057.47
1063.18
1068.69
1073.98
1079.03
1083.83
1088.38
1092.66
1096.67
1100.38
1103.8
1106.91
1109.69
1112.14
1114.22
1115.93
1117.25
1118.14
1118.6
1118.6
1118.11
1117.11
1115.56
1113.45
1110.72
1107.35
1103.28
1098.48
1092.87
1086.43
1079.07
1070.74
1061.38
1050.92
1039.29
1026.42
1012.24
996.666
979.642
961.095
940.962
919.186
895.72
870.528
843.586
814.888
784.445
617.829
641.616
664.11
685.317
705.259
723.97
741.499
757.901
773.238
787.579
800.994
813.555
825.334
836.401
846.825
856.674
866.011
874.899
883.396
891.558
899.439
907.087
914.55
921.868
929.079
936.217
943.308
950.373
957.427
964.479
971.529
978.574
985.604
992.607
999.569
1006.48
1013.32
1020.07
1026.74
1033.3
1039.73
1046.03
1052.17
1058.14
1063.92
1069.49
1074.83
1079.93
1084.79
1089.38
1093.71
1097.76
1101.53
1105.01
1108.18
1111.03
1113.55
1115.71
1117.51
1118.91
1119.9
1120.46
1120.57
1120.2
1119.33
1117.93
1115.97
1113.42
1110.24
1106.38
1101.8
1096.43
1090.24
1083.15
1075.1
1066.02
1055.86
1044.53
1031.96
1018.07
1002.79
986.046
967.756
947.851
926.265
902.94
877.833
850.914
822.17
791.611
624.739
648.575
671.041
692.146
711.917
730.397
747.645
763.726
778.714
792.685
805.718
817.893
829.286
839.972
850.024
859.512
868.501
877.057
885.238
893.103
900.706
908.098
915.326
922.436
929.466
936.452
943.423
950.401
957.401
964.429
971.484
978.557
985.633
992.694
999.722
1006.7
1013.61
1020.44
1027.18
1033.82
1040.34
1046.73
1052.97
1059.03
1064.9
1070.56
1075.98
1081.15
1086.07
1090.72
1095.11
1099.22
1103.05
1106.6
1109.85
1112.8
1115.42
1117.69
1119.6
1121.12
1122.24
1122.93
1123.18
1122.97
1122.27
1121.05
1119.31
1116.99
1114.06
1110.47
1106.19
1101.15
1095.29
1088.56
1080.88
1072.19
1062.43
1051.5
1039.34
1025.87
1010.99
994.633
976.704
957.122
935.807
912.69
887.713
860.833
832.033
801.317
633.574
657.475
679.9
700.861
720.397
738.564
755.433
771.087
785.613
799.101
811.639
823.315
834.213
844.413
853.993
863.023
871.574
879.709
887.492
894.981
902.231
909.297
916.228
923.071
929.87
936.663
943.482
950.351
957.287
964.293
971.366
978.487
985.635
992.781
999.9
1006.97
1013.97
1020.89
1027.72
1034.46
1041.09
1047.6
1053.96
1060.15
1066.15
1071.91
1077.43
1082.69
1087.68
1092.4
1096.84
1101.02
1104.93
1108.57
1111.92
1114.98
1117.73
1120.14
1122.19
1123.87
1125.14
1125.99
1126.41
1126.38
1125.89
1124.9
1123.41
1121.38
1118.77
1115.53
1111.62
1106.99
1101.56
1095.28
1088.07
1079.88
1070.62
1060.21
1048.58
1035.63
1021.29
1005.44
987.992
968.847
947.907
925.082
900.293
873.484
844.621
813.704
644.487
668.469
690.831
711.594
730.811
748.56
764.933
780.034
793.969
806.843
818.76
829.815
840.102
849.706
858.708
867.182
875.199
882.826
890.125
897.156
903.978
910.645
917.21
923.725
930.237
936.789
943.42
950.158
957.022
964.015
971.128
978.332
985.59
992.86
1000.1
1007.28
1014.39
1021.42
1028.36
1035.21
1041.97
1048.63
1055.15
1061.51
1067.66
1073.57
1079.21
1084.57
1089.63
1094.41
1098.92
1103.16
1107.15
1110.89
1114.37
1117.57
1120.48
1123.06
1125.29
1127.13
1128.58
1129.62
1130.24
1130.42
1130.16
1129.44
1128.25
1126.55
1124.32
1121.51
1118.06
1113.92
1109.01
1103.28
1096.65
1089.05
1080.41
1070.64
1059.66
1047.38
1033.7
1018.51
1001.69
983.118
962.683
940.262
915.748
889.056
860.133
828.967
657.68
681.762
704.029
724.517
743.304
760.499
776.227
790.621
803.811
815.924
827.078
837.381
846.933
855.824
864.139
871.955
879.343
886.369
893.097
899.589
905.901
912.093
918.219
924.336
930.498
936.756
943.156
949.737
956.522
963.519
970.709
978.05
985.48
992.929
1000.34
1007.66
1014.89
1022.01
1029.06
1036.04
1042.96
1049.8
1056.54
1063.12
1069.48
1075.57
1081.35
1086.81
1091.94
1096.77
1101.32
1105.62
1109.69
1113.53
1117.16
1120.54
1123.64
1126.44
1128.87
1130.93
1132.58
1133.81
1134.64
1135.04
1135.03
1134.61
1133.76
1132.45
1130.67
1128.35
1125.45
1121.9
1117.61
1112.53
1106.57
1099.68
1091.77
1082.76
1072.57
1061.1
1048.24
1033.87
1017.85
1000.04
980.279
958.416
934.3
907.804
878.838
847.374
673.43
697.633
719.753
739.852
758.053
774.512
789.404
802.901
815.165
826.347
836.58
845.986
854.671
862.73
870.247
877.301
883.962
890.297
896.367
902.233
907.954
913.589
919.196
924.838
930.575
936.472
942.587
948.974
955.672
962.697
970.026
977.593
985.295
993.012
1000.64
1008.13
1015.47
1022.68
1029.81
1036.91
1043.99
1051.07
1058.1
1064.99
1071.64
1077.96
1083.91
1089.46
1094.64
1099.48
1104.04
1108.36
1112.49
1116.45
1120.24
1123.85
1127.22
1130.27
1132.96
1135.25
1137.11
1138.56
1139.58
1140.21
1140.47
1140.35
1139.86
1139
1137.73
1136
1133.74
1130.88
1127.31
1122.98
1117.81
1111.73
1104.66
1096.55
1087.29
1076.79
1064.93
1051.57
1036.56
1019.72
1000.86
979.776
956.243
930.07
901.108
869.289
692.123
716.47
738.352
757.885
775.27
790.745
804.551
816.914
828.036
838.092
847.233
855.588
863.269
870.371
876.979
883.169
889.009
894.561
899.887
905.042
910.087
915.078
920.079
925.155
930.378
935.826
941.578
947.715
954.306
961.39
968.951
976.895
985.041
993.168
1001.1
1008.78
1016.19
1023.42
1030.57
1037.73
1045
1052.37
1059.81
1067.15
1074.22
1080.85
1086.98
1092.6
1097.77
1102.55
1107.04
1111.32
1115.48
1119.55
1123.56
1127.46
1131.18
1134.59
1137.59
1140.13
1142.21
1143.84
1145.05
1145.89
1146.38
1146.56
1146.46
1146.08
1145.4
1144.35
1142.86
1140.81
1138.08
1134.6
1130.31
1125.13
1119.03
1111.93
1103.75
1094.39
1083.72
1071.6
1057.85
1042.27
1024.62
1004.62
981.95
956.317
927.456
895.224
714.311
738.821
760.296
778.973
795.199
809.34
821.734
832.674
842.4
851.113
858.974
866.118
872.655
878.678
884.268
889.496
894.423
899.107
903.604
907.966
912.248
916.507
920.806
925.214
929.812
934.693
939.968
945.756
952.182
959.347
967.277
975.857
984.765
993.549
1001.9
1009.74
1017.12
1024.23
1031.25
1038.38
1045.78
1053.54
1061.59
1069.66
1077.37
1084.42
1090.74
1096.36
1101.39
1105.99
1110.29
1114.43
1118.53
1122.69
1126.96
1131.3
1135.53
1139.43
1142.82
1145.64
1147.91
1149.67
1151.01
1152
1152.69
1153.14
1153.42
1153.55
1153.53
1153.31
1152.74
1151.65
1149.88
1147.35
1144.01
1139.84
1134.79
1128.82
1121.86
1113.82
1104.56
1093.93
1081.75
1067.77
1051.73
1033.25
1011.89
987.171
958.62
925.924
740.844
765.504
786.231
803.552
818.09
830.409
840.972
850.138
858.183
865.317
871.706
877.478
882.736
887.566
892.037
896.211
900.142
903.879
907.47
910.96
914.398
917.835
921.33
924.953
928.79
932.95
937.571
942.832
948.948
956.153
964.622
974.297
984.623
994.501
1003.4
1011.29
1018.42
1025.11
1031.72
1038.57
1046
1054.24
1063.29
1072.67
1081.4
1089.01
1095.44
1100.9
1105.61
1109.81
1113.71
1117.53
1121.44
1125.63
1130.23
1135.22
1140.32
1144.96
1148.82
1151.89
1154.27
1156.08
1157.44
1158.47
1159.28
1159.94
1160.54
1161.19
1161.92
1162.7
1163.34
1163.42
1162.73
1161.22
1158.88
1155.75
1151.83
1147.1
1141.5
1134.94
1127.32
1118.46
1108.17
1096.21
1082.29
1065.97
1046.64
1023.5
995.714
962.547
773.17
797.811
817.033
832.099
844.133
853.966
862.179
869.174
875.232
880.552
885.283
889.534
893.391
896.924
900.188
903.231
906.094
908.817
911.435
913.984
916.502
919.032
921.623
924.338
927.257
930.494
934.207
938.629
944.099
951.092
960.181
971.751
985.075
996.822
1006.28
1013.89
1020.29
1026.07
1031.77
1037.89
1045.01
1053.73
1064.45
1076.54
1087.01
1095.22
1101.52
1106.46
1110.5
1114
1117.22
1120.44
1123.91
1127.94
1132.87
1138.93
1145.74
1151.53
1155.92
1159.1
1161.4
1163.06
1164.3
1165.24
1166.02
1166.75
1167.57
1168.65
1170.17
1172.27
1174.67
1176.25
1176.73
1176.21
1174.85
1172.75
1169.99
1166.57
1162.45
1157.57
1151.81
1145.01
1136.95
1127.42
1116.27
1103.01
1086.81
1066.5
1040.51
1007.09
814.206
837.88
853.778
864.972
873.303
879.812
885.096
889.516
893.298
896.592
899.505
902.111
904.469
906.624
908.611
910.463
912.204
913.86
915.453
917.006
918.544
920.095
921.693
923.381
925.222
927.305
929.775
932.869
937.01
942.966
952.12
966.633
987.75
1002.38
1011.8
1018.19
1023
1027.11
1031.16
1035.73
1041.67
1050.29
1063.58
1082.7
1095.84
1104.12
1109.5
1113.27
1116.13
1118.52
1120.7
1122.94
1125.52
1128.9
1133.84
1141.51
1152.58
1160.09
1164.69
1167.54
1169.38
1170.63
1171.51
1172.19
1172.78
1173.38
1174.17
1175.41
1177.56
1181.34
1187.15
1190.62
1192.12
1192.38
1191.82
1190.67
1189.05
1186.99
1184.46
1181.43
1177.77
1173.32
1167.8
1160.93
1153.26
1144.22
1132.86
1117.64
1095.98
1063.59
871.514
889.102
897.256
901.923
905.052
907.376
909.215
910.733
912.021
913.138
914.122
915.001
915.794
916.518
917.186
917.808
918.392
918.948
919.483
920.004
920.522
921.045
921.585
922.159
922.79
923.515
924.396
925.556
927.261
930.187
936.296
951.956
999.712
1015.42
1021.62
1024.7
1026.65
1028.2
1029.72
1031.57
1034.42
1040.06
1054.27
1097.44
1111.6
1117.12
1119.77
1121.33
1122.41
1123.27
1124.05
1124.88
1125.92
1127.55
1130.83
1139.15
1164.51
1172.77
1175.93
1177.38
1178.17
1178.65
1178.98
1179.24
1179.46
1179.71
1180.08
1180.81
1182.54
1187.42
1202.98
1207.75
1209.27
1209.66
1209.58
1209.24
1208.71
1208.02
1207.16
1206.12
1204.83
1203.12
1200.54
1195.53
1192.16
1188.74
1184.41
1178.02
1166.83
1142.59
742.194
701.504
658.604
613.619
566.695
517.994
467.687
415.951
362.964
308.904
253.946
198.259
142.011
85.3647
28.4812
744.476
703.687
660.662
615.532
568.449
519.579
469.097
417.185
364.023
309.791
254.663
198.812
142.403
85.5988
28.559
749.069
708.077
664.799
619.374
571.967
522.754
471.919
419.652
366.138
311.56
256.095
199.914
143.184
86.065
28.714
756.032
714.726
671.054
625.175
577.268
527.528
476.155
423.348
369.302
314.203
258.231
201.559
144.349
86.7596
28.9449
765.456
723.711
679.49
632.977
584.379
533.915
481.807
428.267
373.503
317.706
261.059
203.732
145.887
87.6765
29.2494
777.472
735.143
690.191
642.838
593.332
541.926
488.869
434.395
378.721
322.047
264.556
206.416
147.784
88.8066
29.6248
792.258
749.169
703.264
654.827
604.16
551.566
497.328
441.704
384.924
327.192
268.691
209.584
150.02
90.1377
30.0667
810.057
765.979
718.842
669.017
616.891
562.828
507.153
450.151
392.063
333.094
273.421
213.201
152.57
91.6537
30.5697
831.191
785.819
737.079
685.483
631.534
575.678
518.287
459.667
400.066
339.685
278.689
217.22
155.398
93.334
31.127
856.102
808.996
758.141
704.275
648.061
590.039
530.628
470.146
408.834
346.877
284.42
221.582
158.464
95.1534
31.7301
885.405
835.889
782.185
725.387
666.369
605.765
544.019
481.437
418.231
354.554
290.519
226.216
161.716
97.0818
32.3692
919.986
866.937
809.291
748.69
686.235
622.61
558.226
493.332
428.082
362.574
296.877
231.038
165.096
99.0849
33.0327
961.151
902.547
839.322
773.818
707.246
640.189
572.92
505.564
438.173
370.771
303.363
235.953
168.54
101.125
33.7085
1010.77
942.744
871.597
799.983
728.712
657.954
587.68
517.809
448.26
378.957
309.84
240.861
171.979
103.163
34.3835
1070.73
986.03
904.304
825.775
749.637
675.209
602.012
529.715
458.082
386.942
316.168
245.662
175.347
105.16
35.0452
38.0009
94
149.991
205.973
261.951
317.937
373.964
430.089
486.414
543.116
600.511
659.168
720.207
786.126
863.903
38.5316
95.5958
152.664
209.741
266.84
323.983
381.207
438.579
496.208
554.284
613.134
673.344
735.994
803.101
878.213
39.0608
97.1862
155.324
213.487
271.69
329.96
388.335
446.875
505.676
564.896
624.792
685.803
748.66
814.488
884.558
39.5862
98.7649
157.964
217.198
276.486
335.854
395.335
454.974
514.837
575.018
635.654
696.957
759.237
822.902
888.245
40.1062
100.327
160.573
220.863
281.217
341.658
402.211
462.903
523.761
584.804
646.032
707.407
768.827
830.121
891.116
40.6195
101.868
163.148
224.478
285.879
347.373
408.977
470.701
532.538
594.441
656.286
717.802
778.478
837.519
894.135
41.1248
103.386
165.682
228.035
290.468
353
415.645
478.404
541.251
604.1
666.747
728.755
789.238
846.572
898.455
41.6211
104.876
168.171
231.53
294.978
358.537
422.221
486.032
549.945
613.878
677.63
740.743
802.157
859.382
906.792
42.1073
106.337
170.61
234.956
299.402
363.975
428.694
493.572
558.606
623.76
688.933
753.884
817.959
878.978
927.614
42.5823
107.763
172.993
238.305
303.729
369.299
435.042
500.989
567.167
633.608
700.369
767.61
835.855
907.143
990.696
43.0449
109.153
175.315
241.567
307.946
374.49
441.236
508.229
575.526
643.212
711.449
780.611
851.611
926.76
1011.54
43.4941
110.502
177.569
244.734
312.039
379.527
447.243
515.243
583.597
652.41
721.864
792.311
864.457
939.657
1019.96
43.9286
111.807
179.749
247.797
315.996
384.393
453.039
521.994
591.33
661.143
731.567
802.806
875.153
948.98
1024.52
44.3475
113.065
181.85
250.747
319.805
389.074
458.606
528.464
598.713
669.429
740.681
812.504
884.793
957.079
1028.28
44.7499
114.273
183.867
253.579
323.458
393.558
463.934
534.644
605.753
677.32
749.374
821.854
894.406
965.902
1033.41
45.135
115.429
185.796
256.286
326.949
397.839
469.013
540.531
612.457
684.85
757.749
831.126
904.726
977.458
1044.51
45.5023
116.532
187.636
258.865
330.271
401.91
473.838
546.119
618.818
692.008
765.768
840.217
915.618
992.931
1076.64
45.8514
117.579
189.383
261.313
333.422
405.767
478.405
551.399
624.819
698.746
773.285
848.621
925.155
1003.93
1087.53
46.182
118.571
191.036
263.628
336.4
409.408
482.709
556.366
630.449
705.037
780.226
856.165
933.107
1011.54
1092.23
46.4942
119.507
192.596
265.811
339.205
412.832
486.75
561.02
635.71
710.887
786.624
862.986
939.997
1017.55
1095.22
46.7879
120.388
194.063
267.862
341.837
416.041
490.531
565.367
640.612
716.327
792.563
869.329
946.483
1023.45
1098.57
47.0635
121.215
195.438
269.783
344.299
419.039
494.058
569.413
645.168
721.382
798.111
875.376
953.072
1030.6
1105.15
47.3214
121.987
196.723
271.576
346.595
421.831
497.335
573.166
649.385
726.058
803.262
881.097
959.749
1039.78
1123.74
47.5621
122.708
197.922
273.247
348.731
424.422
500.371
576.632
653.267
730.343
807.95
886.226
965.437
1046.21
1130.02
47.7863
123.38
199.037
274.8
350.713
426.822
503.174
579.822
656.822
734.238
812.151
890.677
970.012
1050.5
1132.65
47.9948
124.004
200.073
276.241
352.549
429.04
505.758
582.751
660.069
737.767
815.901
894.54
973.755
1053.61
1134.11
48.1886
124.584
201.034
277.576
354.247
431.086
508.135
585.436
663.033
740.969
819.278
897.977
977.023
1056.25
1135.29
48.3688
125.123
201.926
278.813
355.818
432.975
510.322
587.898
665.742
743.889
822.361
901.146
980.135
1058.98
1136.82
48.5364
125.624
202.755
279.961
357.271
434.718
512.335
590.158
668.222
746.562
825.202
904.146
983.317
1062.39
1139.98
48.6927
126.091
203.527
281.028
358.62
436.33
514.19
592.232
670.49
749.003
827.81
906.96
986.538
1066.8
1148.98
48.8392
126.528
204.249
282.024
359.874
437.826
515.903
594.138
672.562
751.217
830.154
909.452
989.252
1069.87
1152
48.9772
126.94
204.928
282.958
361.049
439.22
517.493
595.894
674.454
753.214
832.225
911.569
991.373
1071.84
1153.22
49.1082
127.331
205.571
283.842
362.157
440.529
518.977
597.521
676.188
755.012
834.04
913.34
993.004
1073.15
1153.83
49.234
127.706
206.188
284.687
363.213
441.773
520.379
599.046
677.793
756.647
835.642
914.83
994.276
1074.05
1154.17
49.3562
128.07
206.786
285.506
364.234
442.971
521.723
600.497
679.304
758.159
837.086
916.116
995.292
1074.67
1154.34
49.4767
128.428
207.374
286.312
365.236
444.145
523.035
601.906
680.76
759.599
838.432
917.272
996.138
1075.07
1154.23
49.5972
128.787
207.963
287.117
366.238
445.317
524.344
603.309
682.204
761.021
839.749
918.382
996.906
1075.29
1153.36
49.7195
129.151
208.562
287.936
367.257
446.511
525.678
604.741
683.682
762.479
841.107
919.541
997.745
1075.67
1153.25
49.8455
129.527
209.179
288.781
368.312
447.749
527.067
606.24
685.238
764.029
842.574
920.83
998.746
1076.28
1153.41
49.977
129.919
209.824
289.667
369.42
449.055
528.54
607.839
686.915
765.725
844.214
922.325
999.985
1077.12
1153.71
50.1156
130.332
210.505
290.605
370.598
450.45
530.122
609.573
688.755
767.616
846.091
924.104
1001.56
1078.31
1154.23
50.2627
130.772
211.231
291.606
371.86
451.952
531.839
611.471
690.795
769.748
848.259
926.242
1003.58
1080.05
1155.22
50.4198
131.241
212.008
292.682
373.221
453.581
533.713
613.562
693.068
772.16
850.764
928.797
1006.16
1082.67
1157.51
50.5881
131.745
212.842
293.84
374.692
455.351
535.764
615.869
695.601
774.883
853.633
931.782
1009.31
1086.4
1164.07
50.7683
132.284
213.738
295.087
376.283
457.275
538.006
618.412
698.419
777.944
856.889
935.165
1012.72
1089.68
1166.64
50.9612
132.863
214.7
296.429
378
459.361
540.453
621.207
701.546
781.375
860.577
939.01
1016.51
1092.92
1168.3
51.1671
133.48
215.729
297.867
379.848
461.616
543.111
624.265
704.997
785.208
864.762
943.467
1021
1096.84
1170.25
51.3862
134.138
216.825
299.404
381.827
464.039
545.982
627.589
708.781
789.462
869.501
948.693
1026.64
1102.4
1173.83
51.6181
134.834
217.988
301.037
383.935
466.629
549.063
631.174
712.889
794.126
874.788
954.744
1033.73
1110.93
1182.61
51.8623
135.568
219.215
302.763
386.167
469.378
552.344
635.004
717.295
799.153
880.526
961.42
1042.03
1123.23
1209
52.118
136.336
220.501
304.574
388.515
472.277
555.81
639.06
721.968
804.477
886.554
968.249
1049.85
1132.3
1218
52.3842
137.137
221.842
306.464
390.968
475.311
559.447
643.324
726.883
810.062
892.802
975.091
1057.04
1139.06
1222.04
52.6595
137.965
223.229
308.423
393.514
478.466
563.236
647.776
732.026
815.909
899.319
982.119
1064.11
1145.08
1224.87
52.9422
138.816
224.656
310.439
396.138
481.722
567.157
652.398
737.388
822.04
906.214
989.652
1071.85
1151.85
1228.18
53.2305
139.684
226.112
312.498
398.821
485.059
571.184
657.161
742.945
828.461
913.572
997.993
1081.05
1161.09
1234.2
53.5225
140.562
227.587
314.585
401.544
488.449
575.283
662.025
748.651
835.119
921.359
1007.22
1092.29
1175.08
1249.01
53.8159
141.446
229.07
316.685
404.285
491.864
579.416
666.937
754.426
841.889
929.358
1016.95
1105.06
1195.14
1293.78
54.1085
142.327
230.55
318.78
407.02
495.272
583.542
671.838
760.179
848.609
937.222
1026.27
1116.38
1209.2
1308.62
54.3981
143.199
232.014
320.853
409.726
498.643
587.619
676.671
765.833
855.154
944.734
1034.79
1125.77
1218.59
1314.7
54.6823
144.055
233.451
322.887
412.381
501.948
591.611
681.396
771.336
861.474
951.868
1042.61
1133.81
1225.63
1318.14
54.959
144.888
234.85
324.867
414.963
505.161
595.489
685.978
776.662
867.569
958.712
1050.05
1141.37
1232.12
1321.22
55.2261
145.692
236.2
326.777
417.453
508.258
599.226
690.392
781.793
873.456
965.372
1057.44
1149.26
1239.68
1325.86
55.4816
146.461
237.491
328.603
419.833
511.218
602.795
694.608
786.703
879.12
971.88
1064.94
1158.05
1250.13
1336.46
55.7237
147.19
238.714
330.333
422.087
514.018
606.171
698.596
791.351
884.502
978.129
1072.37
1167.5
1264.52
1367.88
55.9508
147.874
239.86
331.953
424.198
516.639
609.328
702.321
795.687
889.509
983.909
1079.11
1175.58
1274.43
1378.28
56.1611
148.507
240.922
333.454
426.152
519.064
612.245
705.756
799.668
894.07
989.086
1084.92
1181.94
1280.8
1382.44
56.3535
149.086
241.893
334.826
427.937
521.278
614.905
708.88
803.273
898.163
993.648
1089.86
1186.98
1285.19
1384.59
56.5265
149.606
242.767
336.061
429.544
523.27
617.296
711.683
806.496
901.8
997.659
1094.13
1191.2
1288.7
1386.2
56.679
150.066
243.537
337.151
430.963
525.03
619.41
714.161
809.343
905.011
1001.2
1097.93
1195.06
1292.17
1388.14
56.81
150.46
244.2
338.089
432.187
526.551
621.238
716.308
811.818
907.817
1004.34
1101.39
1198.88
1296.37
1392.08
56.9184
150.787
244.75
338.87
433.208
527.823
622.776
718.122
813.919
910.219
1007.07
1104.52
1202.65
1301.75
1403.31
57.0032
151.043
245.182
339.485
434.018
528.84
624.013
719.594
815.639
912.202
1009.34
1107.12
1205.69
1305.38
1407.04
57.0631
151.224
245.49
339.93
434.609
529.593
624.942
720.715
816.968
913.751
1011.12
1109.13
1207.9
1307.61
1408.49
57.0969
151.328
245.67
340.194
434.973
530.071
625.552
721.476
817.897
914.86
1012.41
1110.58
1209.42
1308.96
1409.17
57.1034
151.349
245.713
340.271
435.097
530.262
625.831
721.866
818.417
915.528
1013.22
1111.52
1210.4
1309.81
1409.56
57.0809
151.285
245.613
340.149
434.97
530.152
625.764
721.869
818.52
915.755
1013.59
1112.02
1210.98
1310.36
1409.86
57.0277
151.128
245.362
339.816
434.577
529.724
625.332
721.468
818.189
915.53
1013.51
1112.1
1211.24
1310.78
1410.33
56.942
150.874
244.948
339.26
433.899
528.955
624.51
720.636
817.397
914.833
1012.96
1111.76
1211.18
1311.14
1411.67
56.8215
150.516
244.362
338.463
432.918
527.822
623.268
719.339
816.108
913.624
1011.91
1110.95
1210.69
1311.05
1411.96
56.6641
150.047
243.593
337.41
431.609
526.294
621.57
717.534
814.272
911.85
1010.3
1109.62
1209.74
1310.56
1411.88
56.4674
149.46
242.626
336.082
429.947
524.338
619.373
715.167
811.826
909.438
1008.06
1107.69
1208.27
1309.66
1411.59
56.229
148.748
241.45
334.46
427.905
521.916
616.627
712.175
808.692
906.296
1005.07
1105.06
1206.21
1308.34
1411.14
55.9471
147.905
240.053
332.525
425.456
518.99
613.28
708.487
804.777
902.309
1001.22
1101.6
1203.42
1306.52
1410.51
55.6196
146.924
238.425
330.26
422.574
515.522
609.276
704.025
799.973
897.334
996.316
1097.09
1199.71
1304.04
1409.63
55.2456
145.802
236.558
327.653
419.237
511.477
604.561
698.706
794.161
891.205
990.138
1091.26
1194.77
1300.65
1408.4
54.8246
144.538
234.449
324.695
415.431
506.828
599.09
692.457
787.221
883.733
982.412
1083.73
1188.15
1295.9
1406.62
54.3573
143.134
232.099
321.388
411.152
501.563
592.832
685.216
779.041
874.729
972.822
1074.02
1179.17
1289.07
1403.86
53.8458
141.595
229.518
317.742
406.409
495.687
585.78
676.952
769.545
864.025
961.044
1061.54
1166.85
1278.8
1399.11
53.2932
139.93
226.721
313.778
401.23
489.227
577.962
667.68
758.714
851.531
946.822
1045.67
1149.89
1262.7
1389.6
52.7042
138.154
223.732
309.531
395.658
482.241
569.442
657.473
746.62
837.292
930.1
1026.04
1126.93
1236.76
1366.73
1131.46
1022.94
931.322
847.197
767.224
689.874
614.304
540
466.616
393.913
321.712
249.88
178.311
106.919
35.6286
1150.64
1044.74
950.654
863.764
781.371
701.949
624.584
548.696
473.89
399.889
326.486
253.524
180.878
108.445
36.1351
1158.63
1058.3
964.964
877.185
793.433
712.575
633.822
556.625
480.593
405.439
330.945
256.942
183.293
109.884
36.6129
1162.63
1066.97
975.392
887.786
803.465
721.721
641.962
563.73
486.673
410.519
335.054
260.108
185.538
111.224
37.0583
1164.97
1072.77
983.037
896.08
811.686
729.468
649.024
570.004
492.113
415.11
338.795
263.004
187.599
112.457
37.4689
1166.5
1076.83
988.727
902.57
818.375
735.962
655.081
575.479
496.924
419.21
342.162
265.627
189.473
113.581
37.8436
1167.56
1079.79
993.036
907.673
823.805
741.372
660.232
580.212
501.136
422.837
345.162
267.978
191.16
114.596
38.1821
1168.35
1082
996.355
911.715
828.215
745.863
664.587
584.274
504.795
426.017
347.814
270.067
192.665
115.504
38.4854
1168.94
1083.7
998.948
914.939
831.805
749.587
668.256
587.742
507.953
428.788
350.14
271.909
193.997
116.309
38.755
1169.4
1085.02
1001
917.531
834.738
752.675
671.339
590.69
510.666
431.186
352.167
273.523
195.169
117.019
38.9929
1169.76
1086.07
1002.64
919.629
837.142
755.237
673.926
593.19
512.985
433.253
353.924
274.929
196.192
117.641
39.2015
1170.05
1086.91
1003.97
921.337
839.119
757.365
676.096
595.305
514.963
435.026
355.441
276.147
197.083
118.184
39.3834
1170.28
1087.59
1005.04
922.735
840.75
759.136
677.917
597.093
516.646
436.544
356.745
277.199
197.854
118.654
39.5414
1170.47
1088.15
1005.92
923.886
842.101
760.612
679.445
598.603
518.076
437.84
357.863
278.104
198.519
119.06
39.6781
1170.63
1088.6
1006.65
924.836
843.222
761.845
680.728
599.877
519.289
438.945
358.819
278.88
199.091
119.41
39.7959
1170.75
1088.97
1007.25
925.625
844.157
762.878
681.807
600.955
520.318
439.886
359.637
279.546
199.582
119.711
39.8973
1170.86
1089.28
1007.74
926.282
844.939
763.744
682.716
601.866
521.192
440.687
360.335
280.116
200.003
119.97
39.9844
1170.95
1089.54
1008.16
926.832
845.594
764.473
683.484
602.637
521.935
441.371
360.932
280.604
200.364
120.192
40.0593
1171.02
1089.76
1008.51
927.294
846.147
765.089
684.135
603.293
522.568
441.954
361.443
281.022
200.675
120.382
40.1236
1171.08
1089.94
1008.8
927.685
846.615
765.612
684.688
603.853
523.109
442.454
361.881
281.382
200.942
120.547
40.1791
1171.13
1090.1
1009.05
928.017
847.014
766.059
685.162
604.333
523.574
442.884
362.259
281.692
201.172
120.689
40.227
1171.18
1090.23
1009.27
928.303
847.358
766.444
685.571
604.748
523.976
443.257
362.588
281.962
201.373
120.812
40.2688
1171.22
1090.35
1009.45
928.552
847.657
766.779
685.928
605.11
524.328
443.584
362.875
282.199
201.55
120.921
40.3055
1171.25
1090.45
1009.62
928.771
847.92
767.076
686.244
605.431
524.64
443.874
363.131
282.409
201.706
121.018
40.3382
1171.28
1090.54
1009.76
928.967
848.157
767.342
686.527
605.719
524.921
444.135
363.361
282.599
201.848
121.105
40.3677
1171.31
1090.62
1009.9
929.148
848.375
767.586
686.788
605.985
525.18
444.375
363.573
282.774
201.978
121.185
40.3948
1171.34
1090.7
1010.03
929.318
848.579
767.817
687.034
606.235
525.423
444.602
363.773
282.939
202.101
121.261
40.4205
1171.36
1090.78
1010.15
929.483
848.778
768.04
687.272
606.477
525.659
444.821
363.967
283.098
202.22
121.335
40.4453
1171.39
1090.86
1010.27
929.648
848.977
768.264
687.51
606.719
525.895
445.04
364.159
283.257
202.338
121.408
40.4699
1171.42
1090.94
1010.4
929.818
849.182
768.494
687.755
606.968
526.137
445.265
364.357
283.42
202.459
121.482
40.4952
1171.45
1091.02
1010.54
930
849.4
768.738
688.014
607.231
526.392
445.501
364.565
283.591
202.587
121.561
40.5217
1171.48
1091.11
1010.69
930.198
849.638
769.004
688.296
607.516
526.668
445.757
364.79
283.775
202.724
121.645
40.5501
1171.51
1091.22
1010.85
930.42
849.903
769.3
688.609
607.832
526.973
446.038
365.036
283.977
202.874
121.737
40.5813
1171.55
1091.33
1011.05
930.672
850.204
769.635
688.962
608.187
527.315
446.353
365.312
284.203
203.041
121.84
40.6159
1171.6
1091.47
1011.27
930.965
850.552
770.021
689.367
608.593
527.705
446.711
365.624
284.458
203.229
121.956
40.6549
1171.66
1091.64
1011.53
931.308
850.959
770.47
689.836
609.061
528.152
447.12
365.979
284.747
203.443
122.087
40.6991
1171.72
1091.83
1011.84
931.715
851.438
770.996
690.384
609.605