/*--------------------------------*- C++ -*----------------------------------*\
| =========                 |                                                 |
| \\      /  F ield         | OpenFOAM: The Open Source CFD Toolbox           |
|  \\    /   O peration     | Version:  5.x                                   |
|   \\  /    A nd           | Web:      www.OpenFOAM.org                      |
|    \\/     M anipulation  |                                                 |
\*---------------------------------------------------------------------------*/
FoamFile
{
    version     2.0;
    format      ascii;
    class       volScalarField;
    location    "6.5";
    object      gradTx;
}
// * * * * * * * * * * * * * * * * * * * * * * * * * * * * * * * * * * * * * //

dimensions      [0 -1 0 1 0 0 0];

internalField   nonuniform List<scalar> 
6300
(
735.66
733.533
729.272
722.869
714.312
703.589
690.696
675.642
658.457
639.199
617.968
594.911
570.231
544.192
517.11
737.752
735.631
731.38
724.99
716.443
705.725
692.824
677.742
660.498
641.142
619.764
596.505
571.565
545.208
517.764
741.931
739.822
735.594
729.232
720.712
710.01
697.101
681.971
664.62
645.078
623.413
599.752
574.286
547.287
519.099
748.185
746.096
741.908
735.596
727.129
716.467
703.568
688.389
670.903
651.104
629.029
604.774
578.516
550.528
521.185
756.491
754.436
750.309
744.081
735.707
725.129
712.279
697.082
679.465
659.376
636.795
611.771
584.448
555.097
524.132
766.818
764.81
760.775
754.676
746.453
736.029
723.304
708.16
690.47
670.107
646.974
621.038
592.38
561.252
528.116
779.116
777.175
773.271
767.358
759.367
749.196
736.713
721.752
704.114
683.577
659.926
632.996
602.753
569.389
533.408
793.318
791.466
787.738
782.084
774.423
764.638
752.565
737.987
720.622
700.129
676.124
648.237
616.22
580.113
540.436
809.336
807.597
804.095
798.78
791.568
782.332
770.888
756.973
740.225
720.159
696.171
667.576
633.747
594.381
549.896
827.054
825.452
822.227
817.335
810.698
802.197
791.645
778.757
763.108
744.077
720.791
692.118
656.779
613.739
562.971
846.335
844.891
841.988
837.595
831.656
824.076
814.699
803.263
789.337
772.213
750.764
723.291
687.482
640.798
581.813
867.021
865.749
863.199
859.362
854.215
847.714
839.773
830.222
818.726
804.637
786.725
762.766
729.029
680.127
610.703
888.94
887.844
885.659
882.399
878.087
872.75
866.415
859.084
850.67
840.845
828.696
811.983
785.707
739.945
659.187
911.913
910.986
909.152
906.447
902.942
898.742
894.012
888.989
883.984
879.339
875.193
870.725
861.83
834.72
751.859
935.77
934.996
933.472
931.255
928.447
925.221
921.86
918.832
916.897
917.291
921.971
933.85
956.127
985.206
963.694
491.702
468.351
445.016
421.929
399.312
377.369
356.279
336.194
317.24
299.512
283.08
267.989
254.263
241.908
230.916
221.265
212.922
205.847
199.988
195.289
191.684
189.097
187.448
186.643
186.583
187.157
188.25
189.741
191.508
193.429
195.393
197.296
199.048
200.575
201.814
202.713
203.228
203.32
202.949
202.081
200.679
198.716
196.172
193.038
189.323
185.044
180.231
174.921
169.148
162.942
156.324
149.303
141.874
134.024
125.729
116.965
107.705
97.9255
87.6036
76.7193
65.2517
53.1752
40.4569
27.0537
12.9104
-2.04031
-17.8768
-34.6862
-52.5606
-71.5937
-91.8772
-113.498
-136.534
-161.057
-187.128
-214.796
-244.102
-275.07
-307.709
-342.006
-377.923
-415.387
-454.29
-494.479
-535.753
-577.864
-620.522
-663.392
-706.117
-748.319
491.996
468.307
444.638
421.233
398.324
376.123
354.814
334.551
315.46
297.633
281.136
266.01
252.276
239.935
228.975
219.371
211.088
204.085
198.31
193.706
190.207
187.741
186.223
185.564
185.661
186.403
187.67
189.338
191.276
193.361
195.473
197.505
199.366
200.983
202.296
203.258
203.831
203.978
203.661
202.841
201.481
199.547
197.013
193.871
190.128
185.806
180.943
175.582
169.766
163.531
156.901
149.886
142.478
134.659
126.402
117.677
108.452
98.7041
88.4118
77.5585
66.1278
54.0992
41.4436
28.1204
14.0746
-0.762636
-16.4733
-33.1492
-50.8879
-69.7884
-89.9466
-111.452
-134.386
-158.821
-184.818
-212.429
-241.697
-272.651
-305.307
-339.659
-375.677
-413.298
-452.42
-492.895
-534.524
-577.055
-620.188
-663.577
-706.842
-749.585
492.594
468.212
443.858
419.802
396.299
373.574
351.824
331.207
311.844
293.823
277.203
262.016
248.271
235.962
225.07
215.563
207.403
200.545
194.938
190.523
187.237
185.008
183.756
183.388
183.803
184.885
186.507
188.535
190.828
193.247
195.66
197.953
200.03
201.82
203.275
204.357
205.041
205.296
205.088
204.374
203.104
201.233
198.725
195.564
191.759
187.342
182.366
176.892
170.981
164.683
158.029
151.029
143.67
135.923
127.748
119.103
109.951
100.264
90.0262
79.2282
67.8645
55.9259
43.3923
30.2284
16.3802
1.77491
-13.6771
-30.0784
-47.5383
-66.1671
-86.07
-107.343
-130.071
-154.326
-180.173
-207.665
-236.851
-267.77
-300.448
-334.897
-371.106
-409.03
-448.583
-489.629
-531.972
-575.356
-619.461
-663.911
-708.287
-752.145
493.524
468.055
442.628
417.557
393.132
369.606
347.188
326.04
306.28
287.984
271.196
255.932
242.186
229.939
219.159
209.805
201.834
195.195
189.838
185.706
182.737
180.863
180.006
180.079
180.976
182.58
184.753
187.344
190.191
193.133
196.014
198.703
201.099
203.136
204.781
206.024
206.86
207.275
207.239
206.699
205.586
203.83
201.37
198.179
194.265
189.679
184.501
178.827
172.75
166.344
159.652
152.685
145.417
137.799
129.767
121.257
112.217
102.617
92.4454
81.7111
70.4286
58.6091
46.249
33.3225
19.7773
5.53379
-9.51152
-25.4799
-42.5016
-60.7065
-80.2152
-101.133
-123.548
-147.532
-173.149
-200.453
-229.5
-260.341
-293.024
-327.588
-364.05
-402.398
-442.577
-484.473
-527.9
-572.595
-618.211
-664.326
-710.453
-756.067
494.833
467.816
440.865
414.362
388.651
364.024
340.706
318.86
298.593
279.96
262.982
247.649
233.934
221.794
211.183
202.047
194.335
187.993
182.967
179.206
176.651
175.244
174.912
175.573
177.126
179.448
182.389
185.775
189.413
193.098
196.638
199.869
202.676
205.007
206.86
208.27
209.276
209.896
210.108
209.841
208.989
207.432
205.064
201.827
197.734
192.862
187.344
181.337
174.987
168.41
161.668
154.769
147.664
140.268
132.471
124.171
115.289
105.789
95.6738
84.9821
73.7654
62.0705
49.9215
37.3084
24.1812
10.4491
-4.01422
-19.3614
-35.7573
-53.3641
-72.3262
-92.7609
-114.757
-138.38
-163.685
-190.723
-219.554
-250.248
-282.88
-317.529
-354.26
-393.113
-434.081
-477.09
-521.979
-568.482
-616.219
-664.697
-713.327
-761.461
496.59
467.46
438.436
410.004
382.592
356.538
332.086
309.393
288.537
269.541
252.386
237.026
223.4
211.439
201.072
192.231
184.855
178.885
174.269
170.959
168.908
168.067
168.38
169.776
172.163
175.417
179.377
183.838
188.557
193.266
197.699
201.635
204.934
207.558
209.571
211.091
212.241
213.099
213.658
213.818
213.402
212.195
210
206.705
202.316
196.968
190.887
184.333
177.547
170.708
163.908
157.144
150.329
143.308
135.897
127.919
119.25
109.843
99.7312
89.0076
77.79
66.1852
54.2621
42.0353
29.4573
16.4192
2.75792
-11.7297
-27.266
-44.066
-62.3117
-82.135
-103.617
-126.8
-151.716
-178.401
-206.917
-237.351
-269.819
-304.457
-341.399
-380.765
-422.627
-466.981
-513.713
-562.57
-613.135
-664.82
-716.887
-768.492
498.905
466.93
435.13
404.158
374.557
346.727
320.919
297.263
275.788
256.457
239.193
223.896
210.459
198.777
188.753
180.299
173.342
167.819
163.682
160.892
159.415
159.223
160.282
162.546
165.943
170.363
175.635
181.522
187.709
193.823
199.47
204.313
208.153
210.984
212.983
214.435
215.621
216.725
217.774
218.617
218.948
218.372
216.516
213.149
208.273
202.126
195.105
187.658
180.179
172.945
166.089
159.589
153.285
146.908
140.135
132.661
124.272
114.91
104.667
93.7432
82.3712
70.7575
59.0401
47.2682
35.3966
23.2879
10.722
-2.58546
-16.9517
-32.6821
-50.0209
-69.1159
-90.0189
-112.719
-137.191
-163.436
-191.506
-221.512
-253.623
-288.052
-325.034
-364.807
-407.566
-453.426
-502.366
-554.176
-608.412
-664.367
-721.081
-777.409
501.946
466.127
430.612
396.318
363.956
333.986
306.641
281.979
259.937
240.384
223.155
208.076
194.981
183.721
174.164
166.204
159.754
154.751
151.15
148.925
148.065
148.569
150.441
153.677
158.246
164.073
171.002
178.766
186.961
195.043
202.39
208.429
212.818
215.598
217.177
218.156
219.11
220.422
222.179
224.147
225.791
226.385
225.199
221.76
216.053
208.534
199.933
191.024
182.45
174.634
167.753
161.748
156.34
151.073
145.381
138.714
130.694
121.242
110.583
99.122
87.2993
75.4787
63.8962
52.6449
41.678
30.8161
19.7554
8.08555
-4.67008
-18.9787
-35.1968
-53.4887
-73.8276
-96.0796
-120.105
-145.834
-173.296
-202.632
-234.079
-267.955
-304.638
-344.531
-388.022
-435.417
-486.864
-542.265
-601.188
-662.793
-725.804
-788.59
505.98
464.866
424.313
385.678
349.894
317.45
288.486
262.908
240.491
220.955
204.011
189.389
176.853
166.201
157.268
149.926
144.077
139.657
136.63
134.987
134.744
135.94
138.632
142.88
148.732
156.19
165.16
175.385
186.366
197.314
207.188
214.912
219.792
221.934
222.227
221.904
222.078
223.469
226.275
230.135
234.14
236.952
237.12
233.629
226.439
216.492
205.196
193.903
183.626
174.97
168.151
163.041
159.19
155.846
152.028
146.713
139.174
129.31
117.65
105.021
92.223
79.8562
68.275
57.612
47.8087
38.6314
29.6674
20.3219
9.85015
-2.52276
-17.3831
-34.9094
-54.8766
-76.8801
-100.561
-125.727
-152.38
-180.702
-211.025
-243.805
-279.604
-319.06
-362.839
-411.554
-465.647
-525.259
-590.079
-659.166
-730.819
-802.614
511.444
462.775
415.235
370.916
331.002
295.886
265.443
239.275
216.887
197.782
181.512
167.691
156.005
146.198
138.076
131.489
126.336
122.551
120.111
119.026
119.344
121.153
124.576
129.767
136.899
146.123
157.505
170.907
185.811
201.124
215.073
225.482
230.703
230.923
228.157
224.927
223.287
224.47
228.845
235.907
244.201
251.319
254.301
250.817
240.787
226.387
210.45
195.311
182.464
172.656
166.085
162.519
161.305
161.298
160.826
157.91
150.998
139.963
126.11
111.159
96.5248
83.1011
71.331
61.3409
53.0384
46.1399
40.13
34.1812
27.11
17.5175
4.27289
-12.8119
-32.9886
-55.2598
-78.8731
-103.472
-129.053
-155.882
-184.421
-215.297
-249.293
-287.349
-330.531
-379.927
-436.464
-500.734
-572.798
-651.817
-735.6
-820.403
519.093
459.033
401.499
349.794
305.185
267.578
236.226
210.183
188.542
170.518
155.476
142.913
132.44
123.764
116.664
110.984
106.617
103.505
101.636
101.038
101.794
104.037
107.967
113.856
122.047
132.942
146.935
164.258
184.662
206.89
228.049
243.514
248.806
244.203
234.746
225.653
220.423
220.865
227.54
239.897
255.946
271.634
280.786
277.424
261.418
238.488
214.55
193.415
176.918
165.675
159.686
158.603
161.676
167.417
173.138
174.86
168.753
154.672
136.148
116.84
99.0813
83.9634
71.8228
62.6391
56.246
52.3689
50.5052
49.6579
48.0018
42.8184
31.461
13.7411
-8.0812
-31.7024
-55.7613
-79.7946
-103.922
-128.592
-154.444
-182.285
-213.122
-248.243
-289.261
-338.002
-396.124
-464.964
-545.479
-637.58
-738.886
-843.496
530.331
451.628
379.349
318.437
269.272
230.255
199.355
174.748
154.979
138.954
125.863
115.116
106.284
99.0539
93.2045
88.5811
85.0852
82.6671
81.3232
81.0991
82.0965
84.4874
88.535
94.6234
103.296
115.294
131.565
153.166
180.88
214.187
249.217
276.185
281.15
264.462
240.802
220.808
209.382
208.278
218.043
238.564
268.202
301.353
325.283
322.227
292.013
252.034
214.605
184.833
163.801
151.124
146.219
148.7
158.2
173.562
191.204
203.08
197.988
175.772
147.314
120.289
97.8329
80.537
68.0558
59.9182
55.8304
55.6987
59.417
66.2996
73.9735
77.0107
67.8125
46.2033
19.4193
-7.51122
-32.682
-55.9765
-78.0054
-99.5904
-121.597
-144.95
-170.772
-200.631
-236.858
-282.553
-340.332
-412.363
-501.454
-610.062
-737.384
-874.649
548.017
434.949
340.813
270.151
218.73
181.228
153.413
132.334
116.019
103.157
92.8684
84.5575
77.8136
72.3518
67.9749
64.5509
61.998
60.2782
59.3949
59.3972
60.389
62.5487
66.1601
71.6659
79.7533
91.4886
108.513
133.268
169.036
218.995
281.983
340.532
344.664
294.749
241.572
203.618
183.471
180.033
193.048
224.096
275.391
344.34
408.627
406.131
336.658
261.901
203.629
163.661
138.646
125.378
122.112
128.687
146.277
176.42
217.567
255.731
251.875
205.858
156.411
117.155
89.1521
70.1759
58.033
51.3649
49.7176
53.4842
63.7722
81.8015
106.622
128.822
122.036
86.1181
47.1326
14.1483
-12.3015
-33.9771
-52.7228
-69.9767
-86.8036
-104.053
-122.599
-143.84
-170.809
-209.688
-264.001
-335.177
-429.302
-555.573
-721.533
-919.228
578.524
390.991
268.458
194.14
148.139
118.243
97.7622
83.0559
72.0827
63.6481
57.0216
51.7386
47.494
44.0837
41.3703
39.2633
37.7085
36.6819
36.1889
36.2676
36.9975
38.5168
41.0544
44.9881
50.9545
60.0633
74.325
97.5055
136.75
205.033
321.128
483.226
485.993
329.723
220.412
160.777
133.49
128.091
142.08
180.466
257.15
394.028
588.125
586.47
388.901
248.021
166.288
120.951
96.5707
85.2254
83.8316
92.8077
116.276
163.426
248.222
368.881
366.468
240.88
150.828
97.8146
67.471
49.9733
40.1258
35.5809
35.8082
41.8786
56.9793
87.5234
143.042
222.373
218.208
130.45
66.2049
26.3997
1.2064
-16.194
-29.5848
-40.9738
-51.3972
-61.2808
-70.5388
-78.7931
-87.6009
-114.586
-163.375
-224.93
-310.842
-443.912
-659.957
-988.767
636.58
253.413
126.659
77.3457
54.3469
41.6947
33.792
28.3978
24.4871
21.5328
19.2376
17.4217
15.9709
14.8103
13.8904
13.1788
12.6566
12.3156
12.1582
12.1988
12.4675
13.0169
13.9368
15.3814
17.6284
21.2157
27.291
38.6073
62.6424
122.215
294.017
855.339
856.317
297.063
127.71
71.3508
51.9865
48.2244
55.9767
81.6791
152.221
361.31
1049.49
1048.91
359.497
148.964
76.5317
48.0609
35.722
30.7403
30.6159
36.0576
52.1689
96.2175
227.228
659.248
658.425
224.722
91.9083
45.8268
27.2903
18.7534
14.582
12.9245
13.4841
17.2688
27.9475
57.281
145.169
436.157
434.752
140.921
50.0835
17.6107
3.49355
-4.18286
-9.32739
-13.3585
-16.7652
-19.406
-19.9188
-12.9423
21.791
11.9243
-44.3586
-79.597
-124.459
-212.744
-435.971
-1109.15
-793.633
-841.333
-886.607
-928.984
-968.098
-1003.69
-1035.61
-1063.79
-1088.22
-1108.94
-1126.03
-1139.57
-1149.65
-1156.32
-1159.64
-795.466
-843.725
-889.469
-932.209
-971.579
-1007.33
-1039.32
-1067.5
-1091.88
-1112.53
-1129.54
-1143
-1153
-1159.62
-1162.92
-799.194
-848.601
-895.298
-938.769
-978.642
-1014.69
-1046.79
-1074.96
-1099.23
-1119.72
-1136.55
-1149.83
-1159.69
-1166.21
-1169.45
-804.954
-856.151
-904.318
-948.89
-989.494
-1025.94
-1058.17
-1086.26
-1110.33
-1130.53
-1147.06
-1160.05
-1169.67
-1176.02
-1179.17
-812.971
-866.698
-916.898
-962.94
-1004.47
-1041.36
-1073.66
-1101.54
-1125.24
-1144.99
-1161.04
-1173.61
-1182.88
-1188.98
-1192.01
-823.597
-880.739
-933.596
-981.467
-1024.04
-1061.32
-1093.52
-1120.97
-1144.04
-1163.1
-1178.46
-1190.43
-1199.2
-1204.97
-1207.82
-837.374
-899.028
-955.244
-1005.25
-1048.87
-1086.32
-1118.09
-1144.73
-1166.81
-1184.84
-1199.25
-1210.38
-1218.5
-1223.81
-1226.44
-855.141
-922.721
-983.062
-1035.39
-1079.81
-1116.97
-1147.74
-1173.01
-1193.59
-1210.16
-1223.26
-1233.29
-1240.56
-1245.3
-1247.64
-878.243
-953.615
-1018.86
-1073.39
-1117.97
-1153.96
-1182.84
-1205.93
-1224.34
-1238.91
-1250.28
-1258.9
-1265.12
-1269.15
-1271.13
-908.93
-994.603
-1065.32
-1121.31
-1164.68
-1198.03
-1223.68
-1243.5
-1258.88
-1270.81
-1279.99
-1286.88
-1291.81
-1294.99
-1296.55
-951.221
-1050.51
-1126.45
-1181.79
-1221.38
-1249.73
-1270.29
-1285.46
-1296.82
-1305.42
-1311.93
-1316.76
-1320.2
-1322.41
-1323.49
-1012.98
-1129.72
-1208.15
-1257.99
-1289.26
-1309.18
-1322.26
-1331.17
-1337.48
-1342.08
-1345.48
-1347.99
-1349.76
-1350.9
-1351.46
-1111.44
-1247.22
-1318.38
-1352.69
-1368.46
-1375.42
-1378.33
-1379.43
-1379.79
-1379.88
-1379.89
-1379.89
-1379.9
-1379.92
-1379.93
-1290.49
-1429.28
-1465.41
-1465.88
-1456.42
-1445.66
-1436.14
-1428.39
-1422.32
-1417.7
-1414.24
-1411.73
-1409.99
-1408.9
-1408.37
-1682.86
-1713.97
-1648.03
-1588.94
-1545.64
-1514.6
-1492.12
-1475.6
-1463.37
-1454.29
-1447.6
-1442.74
-1439.38
-1437.25
-1436.22
958.311
957.652
956.36
954.497
952.171
949.576
947.042
945.145
944.895
948.111
958.21
982.138
1036.29
1169.49
1571.26
979.229
978.657
977.535
975.915
973.893
971.641
969.461
967.891
967.91
971.319
981.518
1005.01
1054.23
1150.47
1306.45
1000.52
1000.01
999.024
997.58
995.743
993.624
991.423
989.504
988.538
989.781
995.556
1010
1039.49
1089.92
1150.43
1022.12
1021.68
1020.8
1019.49
1017.76
1015.63
1013.16
1010.42
1007.6
1005.06
1003.54
1004.49
1010.17
1022.34
1036.89
1044
1043.61
1042.84
1041.65
1040.01
1037.85
1035.04
1031.37
1026.44
1019.59
1009.78
995.681
976.29
953.083
933.923
1066.11
1065.79
1065.13
1064.09
1062.59
1060.47
1057.49
1053.16
1046.58
1036.13
1018.97
990.509
945.031
880.978
818.119
1088.41
1088.17
1087.65
1086.82
1085.55
1083.67
1080.85
1076.47
1069.37
1057.31
1035.96
997.122
926.639
808.011
659.138
1110.86
1110.7
1110.37
1109.8
1108.9
1107.49
1105.26
1101.64
1095.56
1084.89
1065.08
1025.68
941.648
756.018
397.25
1133.37
1133.32
1133.21
1132.99
1132.57
1131.84
1130.59
1128.48
1124.91
1118.8
1107.75
1085.19
1027.18
824.23
-113.297
1155.88
1155.96
1156.1
1156.27
1156.43
1156.52
1156.49
1156.29
1156
1156.09
1158.39
1169.26
1213.35
1402.53
2330.45
1178.31
1178.52
1178.92
1179.51
1180.29
1181.25
1182.47
1184.13
1186.77
1191.82
1203.03
1230.24
1298.72
1467.77
1814.25
1200.57
1200.9
1201.57
1202.59
1203.97
1205.77
1208.1
1211.25
1215.83
1223.22
1236.53
1262.5
1314.22
1409.76
1539.19
1222.55
1223.02
1223.95
1225.38
1227.33
1229.87
1233.14
1237.35
1242.9
1250.47
1261.21
1276.84
1299.24
1328.17
1354.57
1244.18
1244.77
1245.95
1247.76
1250.23
1253.44
1257.48
1262.48
1268.53
1275.48
1282.45
1286.44
1279.7
1248.29
1188.82
1265.37
1266.07
1267.48
1269.63
1272.58
1276.38
1281.12
1286.85
1293.48
1300.43
1305.73
1303.44
1277.24
1187.86
982.319
1286.03
1286.83
1288.45
1290.92
1294.29
1298.64
1304.04
1310.56
1318.17
1326.49
1334.23
1337.01
1318.63
1208.06
633.638
1306.1
1306.99
1308.79
1311.54
1315.29
1320.12
1326.14
1333.48
1342.31
1352.91
1366.15
1385.21
1424
1550.34
2132.6
1325.52
1326.48
1328.44
1331.42
1335.49
1340.73
1347.28
1355.33
1365.17
1377.47
1393.99
1419.66
1468.53
1575.96
1790.51
1344.22
1345.25
1347.33
1350.5
1354.83
1360.4
1367.36
1375.88
1386.27
1399.06
1415.41
1437.97
1472.35
1527.13
1598
1362.18
1363.25
1365.43
1368.74
1373.26
1379.07
1386.3
1395.11
1405.67
1418.13
1432.49
1448.03
1461.95
1467.1
1455.29
1379.34
1380.45
1382.69
1386.1
1390.74
1396.7
1404.1
1413.07
1423.7
1435.85
1448.7
1459.17
1457.6
1418.79
1304.96
1395.7
1396.83
1399.1
1402.56
1407.26
1413.3
1420.78
1429.85
1440.61
1453.02
1466.54
1478.63
1479.06
1422.54
1076.19
1411.24
1412.37
1414.65
1418.11
1422.82
1428.85
1436.33
1445.42
1456.33
1469.4
1485.32
1506.12
1540.04
1627.52
1992.95
1425.95
1427.07
1429.33
1432.75
1437.4
1443.35
1450.71
1459.67
1470.51
1483.75
1500.66
1524.48
1563.76
1639.44
1778.62
1439.85
1440.95
1443.16
1446.5
1451.03
1456.82
1463.95
1472.59
1482.96
1495.51
1511.18
1532.03
1562.18
1607.2
1661.55
1452.95
1454.01
1456.15
1459.38
1463.75
1469.3
1476.11
1484.26
1493.86
1505.05
1518.04
1533.08
1550.23
1568.45
1582.82
1465.27
1466.29
1468.34
1471.44
1475.6
1480.87
1487.29
1494.87
1503.61
1513.31
1523.45
1532.62
1537.5
1532.33
1514.68
1476.84
1477.81
1479.76
1482.7
1486.64
1491.61
1497.62
1504.66
1512.63
1521.21
1529.49
1535.08
1531.7
1504.83
1434.89
1487.69
1488.61
1490.45
1493.22
1496.92
1501.57
1507.19
1513.75
1521.19
1529.26
1537.37
1543.71
1542.19
1507.18
1307.15
1497.87
1498.73
1500.45
1503.04
1506.49
1510.83
1516.06
1522.2
1529.26
1537.26
1546.43
1557.76
1575.87
1624.09
1830.99
1507.41
1508.21
1509.81
1512.21
1515.41
1519.42
1524.26
1529.97
1536.61
1544.4
1553.95
1567.06
1588.62
1630.75
1709.24
1516.36
1517.1
1518.57
1520.77
1523.71
1527.39
1531.82
1537.04
1543.13
1550.27
1558.97
1570.42
1587.04
1612.12
1642.62
1524.76
1525.43
1526.77
1528.78
1531.46
1534.79
1538.79
1543.47
1548.86
1555.01
1562.04
1570.16
1579.53
1589.69
1597.79
1532.65
1533.26
1534.47
1536.29
1538.69
1541.68
1545.25
1549.37
1554.02
1559.08
1564.31
1568.98
1571.44
1568.65
1559.19
1540.07
1540.62
1541.71
1543.34
1545.48
1548.13
1551.27
1554.87
1558.84
1563.01
1566.91
1569.31
1566.95
1552.18
1514.64
1547.08
1547.56
1548.53
1549.97
1551.87
1554.2
1556.94
1560.06
1563.49
1567.08
1570.51
1572.88
1571.03
1551.5
1444.63
1553.7
1554.13
1554.99
1556.25
1557.91
1559.93
1562.3
1564.99
1567.97
1571.21
1574.82
1579.35
1587.35
1611.41
1720.04
1559.99
1560.36
1561.11
1562.21
1563.64
1565.38
1567.4
1569.68
1572.21
1575.03
1578.44
1583.36
1592.49
1612.55
1652.5
1565.97
1566.29
1566.94
1567.89
1569.11
1570.59
1572.28
1574.17
1576.21
1578.42
1580.97
1584.39
1589.99
1599.84
1613.31
1571.68
1571.96
1572.52
1573.32
1574.36
1575.6
1576.99
1578.49
1580.04
1581.52
1582.84
1583.88
1584.49
1584.57
1584.08
1577.16
1577.4
1577.87
1578.56
1579.43
1580.45
1581.58
1582.75
1583.86
1584.69
1584.87
1583.61
1579.32
1569.65
1555.14
1582.43
1582.63
1583.03
1583.61
1584.34
1585.18
1586.1
1587.02
1587.83
1588.27
1587.87
1585.4
1577.83
1558.05
1516.75
1587.51
1587.69
1588.02
1588.51
1589.12
1589.82
1590.57
1591.32
1591.99
1592.4
1592.25
1590.7
1584.79
1561.37
1450.29
1592.44
1592.58
1592.87
1593.28
1593.79
1594.37
1595
1595.65
1596.28
1596.87
1597.56
1598.97
1603.88
1625.5
1734.37
1597.21
1597.34
1597.58
1597.92
1598.35
1598.84
1599.38
1599.94
1600.54
1601.23
1602.33
1604.77
1611.32
1629
1667.63
1601.86
1601.97
1602.17
1602.47
1602.83
1603.24
1603.69
1604.17
1604.69
1605.28
1606.12
1607.67
1610.99
1617.91
1628.36
1606.4
1606.49
1606.66
1606.91
1607.21
1607.56
1607.93
1608.33
1608.73
1609.1
1609.37
1609.29
1608.12
1604.31
1596.99
1610.82
1610.9
1611.05
1611.26
1611.52
1611.81
1612.12
1612.44
1612.75
1612.95
1612.82
1611.62
1607.03
1593.12
1561.18
1615.15
1615.22
1615.35
1615.53
1615.75
1616
1616.26
1616.53
1616.79
1616.98
1616.98
1616.24
1612.39
1594.4
1503.83
1619.39
1619.45
1619.56
1619.73
1619.92
1620.13
1620.35
1620.57
1620.81
1621.1
1621.61
1622.97
1627.52
1646.05
1736.33
1623.54
1623.59
1623.7
1623.85
1624.02
1624.2
1624.39
1624.57
1624.75
1625
1625.62
1627.45
1632.89
1647.82
1680.1
1627.6
1627.66
1627.76
1627.9
1628.06
1628.23
1628.39
1628.51
1628.59
1628.62
1628.73
1629.36
1631.63
1637.48
1646.98
1631.58
1631.64
1631.74
1631.88
1632.05
1632.21
1632.36
1632.45
1632.41
1632.12
1631.43
1630.09
1627.82
1624.56
1621.15
1635.48
1635.54
1635.65
1635.8
1635.98
1636.16
1636.33
1636.42
1636.34
1635.86
1634.53
1631.42
1624.66
1611.69
1593.63
1639.29
1639.35
1639.47
1639.64
1639.85
1640.07
1640.29
1640.47
1640.5
1640.13
1638.83
1635.22
1625.76
1602.32
1554.27
1643.01
1643.08
1643.22
1643.41
1643.65
1643.93
1644.25
1644.58
1644.87
1645.01
1644.7
1643.01
1636.54
1609.98
1482.24
1646.64
1646.72
1646.87
1647.09
1647.37
1647.72
1648.14
1648.66
1649.3
1650.15
1651.47
1654.08
1661.21
1687.86
1814.71
1650.16
1650.25
1650.42
1650.67
1651
1651.41
1651.92
1652.6
1653.52
1654.91
1657.28
1661.96
1672.29
1696.1
1743.49
1653.58
1653.67
1653.86
1654.14
1654.5
1654.96
1655.55
1656.32
1657.37
1658.93
1661.45
1665.87
1673.94
1687.92
1705.92
1656.88
1656.98
1657.19
1657.49
1657.88
1658.38
1659
1659.79
1660.82
1662.22
1664.24
1667.19
1671.44
1676.89
1681.6
1660.06
1660.17
1660.4
1660.72
1661.14
1661.66
1662.28
1663.03
1663.95
1665.05
1666.32
1667.56
1668.06
1666.3
1661.3
1663.11
1663.24
1663.48
1663.83
1664.27
1664.8
1665.42
1666.12
1666.9
1667.69
1668.37
1668.38
1666.18
1657.93
1638.27
1666.03
1666.16
1666.43
1666.81
1667.29
1667.84
1668.44
1669.1
1669.76
1670.38
1670.82
1670.69
1668.47
1657.42
1602.34
1668.8
1668.95
1669.25
1669.67
1670.19
1670.77
1671.39
1672.02
1672.61
1673.12
1673.62
1674.4
1676.83
1687.44
1741.21
1671.41
1671.59
1671.92
1672.4
1672.98
1673.63
1674.28
1674.91
1675.44
1675.82
1676.16
1676.9
1679.44
1687.44
1705.92
1673.85
1674.05
1674.45
1675
1675.68
1676.41
1677.15
1677.81
1678.3
1678.5
1678.38
1678.09
1678.22
1680.09
1684.27
1676.1
1676.34
1676.8
1677.46
1678.26
1679.14
1680.02
1680.79
1681.3
1681.35
1680.67
1678.92
1675.72
1671.08
1666.31
1678.12
1678.41
1678.97
1679.76
1680.73
1681.81
1682.9
1683.88
1684.56
1684.64
1683.65
1680.68
1674.18
1662.11
1645.84
1679.89
1680.24
1680.91
1681.88
1683.07
1684.41
1685.81
1687.13
1688.18
1688.63
1687.93
1684.85
1676.45
1656
1614.87
1681.37
1681.79
1682.6
1683.77
1685.24
1686.92
1688.71
1690.51
1692.14
1693.36
1693.81
1692.66
1687.02
1664.19
1556.16
1682.5
1683
1683.98
1685.4
1687.2
1689.28
1691.57
1693.95
1696.31
1698.55
1700.76
1703.5
1709.49
1731.49
1837.69
1683.23
1683.83
1685
1686.71
1688.88
1691.44
1694.3
1697.35
1700.5
1703.72
1707.26
1712.03
1720.78
1740.26
1779.38
1683.49
1684.2
1685.59
1687.63
1690.24
1693.34
1696.84
1700.62
1704.58
1708.61
1712.84
1717.74
1724.56
1735.3
1749.1
1683.21
1684.04
1685.68
1688.08
1691.19
1694.9
1699.13
1703.72
1708.52
1713.31
1717.89
1722.05
1725.55
1728.15
1729.28
1682.29
1683.25
1685.17
1687.99
1691.64
1696.05
1701.1
1706.63
1712.41
1718.09
1723.17
1726.73
1727.12
1721.95
1711.11
1680.64
1681.76
1683.97
1687.24
1691.51
1696.7
1702.68
1709.29
1716.28
1723.23
1729.45
1733.56
1732.49
1719.61
1686.28
1678.17
1679.44
1681.98
1685.74
1690.68
1696.72
1703.76
1711.64
1720.12
1728.81
1737.12
1743.9
1746.01
1731.41
1639.19
1674.75
1676.2
1679.07
1683.35
1689.01
1695.99
1704.2
1713.52
1723.74
1734.58
1745.8
1757.42
1771.08
1797.03
1894.24
1670.28
1671.9
1675.12
1679.95
1686.37
1694.34
1703.82
1714.71
1726.85
1740.03
1754.14
1769.45
1787.54
1813.1
1852.4
1664.64
1666.42
1670
1675.37
1682.57
1691.58
1702.4
1714.97
1729.16
1744.76
1761.57
1779.5
1798.73
1819.55
1838.75
1657.69
1659.64
1663.56
1669.47
1677.44
1687.51
1699.71
1714.05
1730.43
1748.59
1768.17
1788.55
1808.77
1827.05
1839.33
1649.34
1651.44
1655.67
1662.09
1670.79
1681.88
1695.48
1711.66
1730.37
1751.38
1774.15
1797.65
1820.08
1838.66
1849.35
1639.48
1641.7
1646.19
1653.05
1662.41
1674.46
1689.41
1707.44
1728.65
1752.87
1779.56
1807.41
1834.01
1855.66
1867.69
1628.02
1630.33
1635.01
1642.2
1652.09
1664.96
1681.13
1700.97
1724.76
1752.59
1784.09
1817.96
1851.32
1879.28
1895.28
1614.91
1617.26
1622.03
1629.41
1639.64
1653.1
1670.25
1691.68
1718
1749.69
1786.92
1828.79
1872.32
1911.11
1934.89
1600.11
1602.44
1607.19
1614.57
1624.88
1638.6
1656.35
1678.95
1707.42
1742.89
1786.45
1838.38
1896.55
1953.3
1991.92
1583.63
1585.88
1590.46
1597.62
1607.7
1621.25
1639.02
1662.08
1691.9
1730.41
1780.1
1843.57
1921.68
2008.02
2076.66
1565.55
1567.63
1571.9
1578.58
1588.05
1600.89
1617.95
1640.47
1670.28
1710.1
1764.13
1838.52
1941.04
2074.94
2209.96
1545.97
1547.81
1551.59
1557.53
1566
1577.55
1593.04
1613.74
1641.63
1679.86
1733.94
1813.86
1938.54
2140.99
2437.93
1525.06
1526.59
1529.73
1534.67
1541.74
1551.42
1564.46
1581.97
1605.71
1638.56
1685.75
1758.03
1881.96
2141.36
2872.97
-2779.47
-2063.82
-1809.12
-1687.19
-1616.14
-1569.91
-1537.89
-1514.9
-1498.06
-1485.61
-1476.42
-1469.76
-1465.12
-1462.19
-1460.77
-2352.36
-2061.71
-1863.31
-1741.13
-1662.96
-1610.27
-1573.2
-1546.33
-1526.5
-1511.76
-1500.83
-1492.87
-1487.3
-1483.77
-1482.06
-2127.69
-1995.49
-1864.53
-1764.44
-1692.06
-1639.73
-1601.36
-1572.82
-1551.39
-1535.24
-1523.14
-1514.26
-1508.03
-1504.06
-1502.12
-1995.45
-1928.34
-1844.26
-1768.47
-1707.18
-1659.45
-1622.66
-1594.35
-1572.56
-1555.85
-1543.18
-1533.78
-1527.14
-1522.88
-1520.81
-1910.43
-1872.92
-1818.19
-1762.39
-1712.85
-1671.52
-1638.03
-1611.29
-1590.16
-1573.63
-1560.89
-1551.35
-1544.54
-1540.16
-1538.02
-1852.07
-1829.41
-1792.8
-1751.92
-1712.77
-1678.1
-1648.66
-1624.31
-1604.52
-1588.72
-1576.35
-1566.97
-1560.21
-1555.85
-1553.7
-1810.07
-1795.54
-1770.32
-1740.19
-1709.54
-1680.99
-1655.72
-1634.11
-1616.08
-1601.38
-1589.69
-1580.71
-1574.19
-1569.95
-1567.86
-1778.78
-1769.06
-1751.21
-1728.77
-1704.82
-1681.55
-1660.2
-1641.38
-1625.29
-1611.91
-1601.11
-1592.7
-1586.55
-1582.52
-1580.52
-1754.87
-1748.16
-1735.24
-1718.34
-1699.6
-1680.73
-1662.87
-1646.71
-1632.58
-1620.61
-1610.8
-1603.09
-1597.39
-1593.63
-1591.76
-1736.24
-1731.51
-1722.01
-1709.14
-1694.41
-1679.15
-1664.32
-1650.58
-1638.32
-1627.77
-1619
-1612.03
-1606.83
-1603.39
-1601.67
-1721.5
-1718.15
-1711.06
-1701.17
-1689.56
-1677.23
-1664.97
-1653.37
-1642.85
-1633.65
-1625.9
-1619.68
-1615.01
-1611.9
-1610.35
-1709.71
-1707.34
-1702.01
-1694.36
-1685.18
-1675.21
-1665.11
-1655.38
-1646.41
-1638.46
-1631.7
-1626.22
-1622.07
-1619.3
-1617.9
-1700.2
-1698.53
-1694.51
-1688.58
-1681.29
-1673.24
-1664.94
-1656.81
-1649.22
-1642.42
-1636.56
-1631.78
-1628.14
-1625.69
-1624.45
-1692.46
-1691.33
-1688.29
-1683.68
-1677.9
-1671.4
-1664.59
-1657.84
-1651.45
-1645.66
-1640.64
-1636.5
-1633.33
-1631.19
-1630.11
-1686.12
-1685.4
-1683.13
-1679.54
-1674.96
-1669.72
-1664.16
-1658.57
-1653.22
-1648.33
-1644.05
-1640.5
-1637.77
-1635.91
-1634.97
-1680.91
-1680.5
-1678.83
-1676.06
-1672.43
-1668.22
-1663.69
-1659.09
-1654.64
-1650.53
-1646.91
-1643.89
-1641.55
-1639.95
-1639.15
-1676.61
-1676.45
-1675.24
-1673.12
-1670.27
-1666.9
-1663.23
-1659.46
-1655.78
-1652.35
-1649.31
-1646.75
-1644.77
-1643.41
-1642.72
-1673.03
-1673.07
-1672.24
-1670.64
-1668.42
-1665.75
-1662.8
-1659.72
-1656.69
-1653.86
-1651.32
-1649.18
-1647.51
-1646.36
-1645.77
-1670.06
-1670.25
-1669.72
-1668.55
-1666.85
-1664.75
-1662.39
-1659.91
-1657.44
-1655.11
-1653.01
-1651.23
-1649.83
-1648.87
-1648.38
-1667.57
-1667.89
-1667.61
-1666.79
-1665.51
-1663.88
-1662.02
-1660.04
-1658.05
-1656.15
-1654.44
-1652.97
-1651.81
-1651.02
-1650.61
-1665.48
-1665.91
-1665.83
-1665.29
-1664.36
-1663.14
-1661.7
-1660.13
-1658.55
-1657.03
-1655.64
-1654.45
-1653.5
-1652.85
-1652.51
-1663.72
-1664.23
-1664.32
-1664.02
-1663.38
-1662.49
-1661.41
-1660.2
-1658.96
-1657.76
-1656.66
-1655.71
-1654.95
-1654.42
-1654.15
-1662.22
-1662.81
-1663.03
-1662.93
-1662.54
-1661.93
-1661.15
-1660.25
-1659.31
-1658.38
-1657.53
-1656.78
-1656.18
-1655.76
-1655.55
-1660.94
-1661.59
-1661.93
-1662
-1661.82
-1661.45
-1660.92
-1660.28
-1659.6
-1658.92
-1658.27
-1657.71
-1657.25
-1656.93
-1656.76
-1659.83
-1660.53
-1660.98
-1661.19
-1661.19
-1661.02
-1660.72
-1660.31
-1659.85
-1659.38
-1658.92
-1658.51
-1658.18
-1657.94
-1657.81
-1658.87
-1659.61
-1660.14
-1660.48
-1660.64
-1660.65
-1660.54
-1660.33
-1660.06
-1659.78
-1659.49
-1659.22
-1658.99
-1658.83
-1658.74
-1658
-1658.79
-1659.4
-1659.85
-1660.14
-1660.32
-1660.38
-1660.35
-1660.26
-1660.13
-1659.99
-1659.85
-1659.72
-1659.62
-1659.57
-1657.22
-1658.04
-1658.72
-1659.27
-1659.7
-1660.01
-1660.23
-1660.36
-1660.43
-1660.46
-1660.45
-1660.42
-1660.38
-1660.34
-1660.32
-1656.49
-1657.34
-1658.09
-1658.74
-1659.28