/*--------------------------------*- C++ -*----------------------------------*\
| =========                 |                                                 |
| \\      /  F ield         | OpenFOAM: The Open Source CFD Toolbox           |
|  \\    /   O peration     | Version:  5.x                                   |
|   \\  /    A nd           | Web:      www.OpenFOAM.org                      |
|    \\/     M anipulation  |                                                 |
\*---------------------------------------------------------------------------*/
FoamFile
{
    version     2.0;
    format      ascii;
    class       volScalarField;
    location    "0.5";
    object      gradTy;
}
// * * * * * * * * * * * * * * * * * * * * * * * * * * * * * * * * * * * * * //

dimensions      [0 -1 0 1 0 0 0];

internalField   nonuniform List<scalar> 
2048
(
-21.673
-21.6789
-21.6902
-21.7054
-21.7227
-21.7394
-21.7521
-21.7571
-21.75
-21.726
-21.6803
-21.6081
-21.5046
-21.3658
-21.1879
-20.9683
-20.7052
-20.3983
-20.049
-19.6605
-19.238
-18.7888
-18.3215
-17.8461
-17.3728
-16.9113
-16.4701
-16.0564
-15.6749
-15.3286
-15.0188
-14.745
-14.5056
-14.2984
-14.1204
-13.9687
-13.84
-13.7315
-13.6404
-13.5642
-13.5007
-13.4478
-13.4038
-13.3674
-13.3373
-13.3124
-13.2918
-13.2749
-13.2609
-13.2494
-13.2399
-13.2321
-13.2257
-13.2205
-13.2162
-13.2127
-13.2098
-13.2075
-13.2057
-13.2042
-13.2032
-13.2024
-13.2019
-13.2016
-21.6663
-21.6727
-21.685
-21.7018
-21.7212
-21.7405
-21.7564
-21.765
-21.7616
-21.7416
-21.6998
-21.6313
-21.5312
-21.3953
-21.2197
-21.0014
-20.7385
-20.4305
-20.0785
-19.6857
-19.2574
-18.8011
-18.3258
-17.8421
-17.3609
-16.8924
-16.4456
-16.0278
-15.6439
-15.2967
-14.9871
-14.7146
-14.4771
-14.2721
-14.0966
-13.9474
-13.8211
-13.7149
-13.6258
-13.5514
-13.4894
-13.4379
-13.3951
-13.3597
-13.3304
-13.3063
-13.2863
-13.2698
-13.2563
-13.2451
-13.2359
-13.2283
-13.2221
-13.217
-13.2129
-13.2095
-13.2067
-13.2045
-13.2027
-13.2013
-13.2003
-13.1995
-13.199
-13.1988
-21.6531
-21.6605
-21.6748
-21.6946
-21.718
-21.7424
-21.7643
-21.7796
-21.7836
-21.771
-21.7368
-21.6754
-21.5819
-21.4516
-21.2804
-21.0648
-20.8025
-20.4925
-20.1356
-19.7347
-19.2952
-18.825
-18.3342
-17.8344
-17.3377
-16.8556
-16.3981
-15.9726
-15.5842
-15.2354
-14.9266
-14.6565
-14.4228
-14.2223
-14.0516
-13.9071
-13.7855
-13.6835
-13.5983
-13.5273
-13.4682
-13.4193
-13.3788
-13.3452
-13.3176
-13.2947
-13.2759
-13.2603
-13.2475
-13.237
-13.2284
-13.2213
-13.2154
-13.2106
-13.2067
-13.2035
-13.2009
-13.1988
-13.1971
-13.1958
-13.1948
-13.1941
-13.1936
-13.1934
-21.6337
-21.6425
-21.6595
-21.6835
-21.7126
-21.7442
-21.7747
-21.7997
-21.8142
-21.8126
-21.7891
-21.7381
-21.6541
-21.5321
-21.3673
-21.1559
-20.8949
-20.5825
-20.2187
-19.8063
-19.3506
-18.8601
-18.3464
-17.8228
-17.3034
-16.8015
-16.3284
-15.892
-15.4976
-15.1469
-14.8397
-14.5737
-14.3457
-14.1519
-13.9882
-13.8506
-13.7355
-13.6396
-13.5598
-13.4936
-13.4388
-13.3935
-13.356
-13.3251
-13.2996
-13.2786
-13.2613
-13.2471
-13.2354
-13.2258
-13.2178
-13.2113
-13.206
-13.2016
-13.198
-13.1951
-13.1927
-13.1908
-13.1893
-13.1881
-13.1872
-13.1865
-13.1861
-13.1859
-21.6081
-21.6185
-21.6389
-21.6681
-21.7044
-21.7452
-21.7866
-21.8241
-21.8522
-21.8646
-21.855
-21.8174
-21.7457
-21.6344
-21.4783
-21.2728
-21.014
-20.6992
-20.3273
-19.9004
-19.4237
-18.9067
-18.3625
-17.8072
-17.2577
-16.7298
-16.2365
-15.7867
-15.3851
-15.0329
-14.7285
-14.4685
-14.2484
-14.0635
-13.9089
-13.7803
-13.6736
-13.5853
-13.5124
-13.4522
-13.4026
-13.3617
-13.3281
-13.3004
-13.2776
-13.2589
-13.2434
-13.2308
-13.2204
-13.2118
-13.2048
-13.199
-13.1943
-13.1904
-13.1872
-13.1846
-13.1825
-13.1808
-13.1795
-13.1784
-13.1776
-13.177
-13.1766
-13.1765
-21.5762
-21.5884
-21.6127
-21.6479
-21.6926
-21.7442
-21.7989
-21.8516
-21.8961
-21.9255
-21.9329
-21.9114
-21.8547
-21.7566
-21.6115
-21.414
-21.1589
-20.8422
-20.4615
-20.0175
-19.5154
-18.9653
-18.3827
-17.7873
-17.1998
-16.6397
-16.1219
-15.6564
-15.2473
-14.8945
-14.5947
-14.3429
-14.1332
-13.9595
-13.8163
-13.6985
-13.6019
-13.5227
-13.4578
-13.4046
-13.361
-13.3252
-13.296
-13.272
-13.2523
-13.2361
-13.2229
-13.212
-13.203
-13.1957
-13.1897
-13.1848
-13.1807
-13.1774
-13.1747
-13.1725
-13.1707
-13.1692
-13.1681
-13.1671
-13.1665
-13.166
-13.1656
-13.1655
-21.5379
-21.5521
-21.5805
-21.6224
-21.6765
-21.7405
-21.8104
-21.8808
-21.9447
-21.9942
-22.0214
-22.0187
-21.9794
-21.897
-21.7653
-21.578
-21.3286
-21.0113
-20.6217
-20.1588
-19.6268
-19.0369
-18.4074
-17.7625
-17.1285
-16.5295
-15.9832
-15.5003
-15.0841
-14.7325
-14.4398
-14.199
-14.0022
-13.8422
-13.7125
-13.6074
-13.5224
-13.4535
-13.3976
-13.3522
-13.3153
-13.2852
-13.2608
-13.2408
-13.2244
-13.2111
-13.2002
-13.1912
-13.1839
-13.1779
-13.173
-13.1689
-13.1656
-13.1629
-13.1607
-13.1589
-13.1574
-13.1562
-13.1553
-13.1545
-13.154
-13.1535
-13.1533
-13.1532
-21.4932
-21.5095
-21.5421
-21.5909
-21.6551
-21.7328
-21.8201
-21.9108
-21.997
-22.0695
-22.1192
-22.1378
-22.1183
-22.0539
-21.9381
-21.7636
-21.5225
-21.2066
-20.809
-20.3259
-19.76
-19.1231
-18.437
-17.7322
-17.0422
-16.3972
-15.8186
-15.3175
-14.8954
-14.5475
-14.2651
-14.0384
-13.8576
-13.7138
-13.5997
-13.5091
-13.4369
-13.3794
-13.3333
-13.2964
-13.2667
-13.2427
-13.2233
-13.2076
-13.1948
-13.1844
-13.1759
-13.169
-13.1633
-13.1587
-13.1549
-13.1518
-13.1493
-13.1472
-13.1455
-13.1441
-13.143
-13.1421
-13.1414
-13.1408
-13.1403
-13.14
-13.1398
-13.1397
-21.4423
-21.4604
-21.4971
-21.5529
-21.6277
-21.7203
-21.8267
-21.9405
-22.052
-22.1505
-22.2253
-22.2676
-22.2698
-22.2256
-22.1281
-21.9694
-21.7398
-21.4284
-21.0246
-20.521
-19.9175
-19.226
-18.4724
-17.6954
-16.9385
-16.2401
-15.6257
-15.1064
-14.6808
-14.3402
-14.0721
-13.8632
-13.7014
-13.5765
-13.4801
-13.4053
-13.3473
-13.302
-13.2664
-13.2384
-13.2162
-13.1985
-13.1844
-13.1731
-13.1639
-13.1566
-13.1506
-13.1457
-13.1418
-13.1386
-13.136
-13.1338
-13.1321
-13.1306
-13.1295
-13.1285
-13.1277
-13.1271
-13.1266
-13.1261
-13.1258
-13.1256
-13.1255
-13.1254
-21.3853
-21.405
-21.4454
-21.5079
-21.5934
-21.7017
-21.8292
-21.9688
-22.109
-22.2365
-22.3391
-22.4068
-22.4325
-22.4103
-22.3336
-22.1939
-21.9796
-21.6767
-21.27
-20.7467
-20.1026
-19.3482
-18.5145
-17.6509
-16.8146
-16.0548
-15.4018
-14.8654
-14.4401
-14.1115
-13.8622
-13.6752
-13.5359
-13.4324
-13.3555
-13.2981
-13.2551
-13.2227
-13.1981
-13.1793
-13.1648
-13.1536
-13.1448
-13.1379
-13.1324
-13.1281
-13.1246
-13.1218
-13.1196
-13.1178
-13.1163
-13.1151
-13.1141
-13.1133
-13.1127
-13.1121
-13.1117
-13.1113
-13.111
-13.1108
-13.1106
-13.1105
-13.1104
-13.1104
-21.3226
-21.3436
-21.387
-21.4555
-21.5514
-21.6759
-21.8264
-21.9947
-22.1672
-22.3272
-22.4598
-22.5545
-22.6049
-22.6062
-22.5526
-22.4352
-22.2408
-21.9516
-21.5466
-21.0062
-20.3191
-19.4933
-18.5648
-17.5973
-16.6669
-15.8372
-15.1435
-14.5929
-14.1731
-13.8624
-13.6373
-13.4766
-13.3632
-13.2836
-13.2279
-13.189
-13.1618
-13.1428
-13.1294
-13.1199
-13.1132
-13.1084
-13.105
-13.1025
-13.1006
-13.0993
-13.0983
-13.0975
-13.097
-13.0965
-13.0962
-13.0959
-13.0957
-13.0955
-13.0954
-13.0953
-13.0951
-13.0951
-13.095
-13.0949
-13.0949
-13.0949
-13.0949
-13.0949
-21.2547
-21.2764
-21.3219
-21.3953
-21.5007
-21.6417
-21.8168
-22.0174
-22.2263
-22.4223
-22.5872
-22.71
-22.7856
-22.8113
-22.7827
-22.6911
-22.5218
-22.2527
-21.8561
-21.3028
-20.572
-19.6657
-18.625
-17.5326
-16.4908
-15.5822
-14.8473
-14.2872
-13.8799
-13.5941
-13.3993
-13.2697
-13.1855
-13.1321
-13.0991
-13.0796
-13.0687
-13.0633
-13.0613
-13.0612
-13.0622
-13.0637
-13.0655
-13.0673
-13.069
-13.0706
-13.072
-13.0732
-13.0742
-13.0751
-13.0758
-13.0765
-13.077
-13.0774
-13.0778
-13.078
-13.0783
-13.0784
-13.0786
-13.0787
-13.0788
-13.0788
-13.0789
-13.079
-21.1823
-21.2041
-21.2504
-21.3271
-21.4407
-21.5978
-21.7992
-22.0357
-22.2861
-22.5221
-22.7213
-22.8726
-22.9732
-23.0235
-23.0215
-22.9593
-22.8206
-22.5793
-22.1996
-21.6405
-20.867
-19.8712
-18.6977
-17.4542
-16.2806
-15.2841
-14.5091
-13.9468
-13.561
-13.3085
-13.1506
-13.0568
-13.005
-12.9798
-12.9708
-12.9713
-12.9771
-12.9853
-12.9945
-13.0036
-13.0122
-13.0199
-13.0268
-13.0328
-13.0379
-13.0422
-13.0459
-13.049
-13.0515
-13.0537
-13.0555
-13.0569
-13.0582
-13.0592
-13.06
-13.0606
-13.0611
-13.0616
-13.0619
-13.0622
-13.0624
-13.0626
-13.0627
-13.0628
-21.1064
-21.1274
-21.1729
-21.2507
-21.3705
-21.5427
-21.7717
-22.0488
-22.3466
-22.6272
-22.8625
-23.0416
-23.1661
-23.2406
-23.2662
-23.2367
-23.1347
-22.93
-22.5781
-22.0232
-21.211
-20.1169
-18.7861
-17.359
-16.0288
-14.9359
-14.125
-13.5707
-13.2175
-13.0077
-12.8937
-12.8405
-12.8241
-12.8287
-12.8446
-12.8655
-12.8878
-12.9096
-12.9298
-12.9479
-12.9638
-12.9775
-12.9892
-12.9991
-13.0074
-13.0144
-13.0202
-13.0251
-13.0291
-13.0324
-13.0352
-13.0375
-13.0393
-13.0409
-13.0421
-13.0431
-13.044
-13.0446
-13.0451
-13.0456
-13.0459
-13.0462
-13.0463
-13.0465
-21.0277
-21.047
-21.0899
-21.1662
-21.2893
-21.4748
-21.7326
-22.0555
-22.4084
-22.7389
-23.0113
-23.2169
-23.363
-23.4602
-23.5141
-23.5202
-23.4611
-23.3029
-22.9918
-22.4548
-21.612
-20.4121
-18.8948
-17.2422
-15.7264
-14.5295
-13.6908
-13.1583
-12.8512
-12.6945
-12.6315
-12.6232
-12.6447
-12.6805
-12.7217
-12.763
-12.8018
-12.8368
-12.8677
-12.8944
-12.9172
-12.9366
-12.9528
-12.9665
-12.9778
-12.9873
-12.9952
-13.0017
-13.0071
-13.0115
-13.0152
-13.0182
-13.0207
-13.0227
-13.0243
-13.0257
-13.0268
-13.0277
-13.0284
-13.0289
-13.0294
-13.0297
-13.03
-13.0301
-20.9473
-20.9639
-21.0021
-21.0738
-21.1964
-21.3923
-21.6794
-22.0542
-22.4723
-22.8588
-23.1689
-23.398
-23.5623
-23.6801
-23.7619
-23.8062
-23.7962
-23.6952
-23.4403
-22.9391
-22.079
-20.7685
-19.0299
-17.0978
-15.3616
-14.0559
-13.2026
-12.7101
-12.4646
-12.3721
-12.3671
-12.4077
-12.4691
-12.5368
-12.6034
-12.6649
-12.7197
-12.7675
-12.8085
-12.8434
-12.8728
-12.8974
-12.918
-12.9351
-12.9493
-12.9611
-12.9708
-12.9788
-12.9855
-12.9909
-12.9954
-12.9991
-13.0022
-13.0047
-13.0067
-13.0084
-13.0097
-13.0108
-13.0116
-13.0123
-13.0129
-13.0133
-13.0136
-13.0137
-20.8664
-20.8793
-20.9104
-20.974
-21.0913
-21.2932
-21.6091
-22.0433
-22.5396
-22.9895
-23.3366
-23.5847
-23.7625
-23.8977
-24.0065
-24.091
-24.136
-24.1031
-23.9218
-23.4793
-22.6219
-21.2009
-19.2
-16.917
-14.9195
-13.5049
-12.6574
-12.2274
-12.0611
-12.0442
-12.1036
-12.1964
-12.299
-12.399
-12.4907
-12.5718
-12.6421
-12.702
-12.7527
-12.7952
-12.8307
-12.8603
-12.8848
-12.9051
-12.9219
-12.9358
-12.9472
-12.9567
-12.9644
-12.9708
-12.9761
-12.9804
-12.984
-12.9869
-12.9893
-12.9912
-12.9928
-12.994
-12.9951
-12.9959
-12.9965
-12.997
-12.9973
-12.9974
-20.7861
-20.7941
-20.816
-20.8673
-20.9737
-21.1755
-21.5182
-22.0202
-22.6126
-23.1341
-23.5159
-23.7767
-23.962
-24.1105
-24.2449
-24.3709
-24.4759
-24.5221
-24.4336
-24.0771
-23.2518
-21.7278
-19.4176
-16.6876
-14.3815
-12.8658
-12.0529
-11.7131
-11.645
-11.7148
-11.8443
-11.9918
-12.1362
-12.2682
-12.3843
-12.4843
-12.5692
-12.6406
-12.7002
-12.7498
-12.791
-12.8251
-12.8532
-12.8765
-12.8957
-12.9114
-12.9245
-12.9352
-12.944
-12.9512
-12.9572
-12.9621
-12.9661
-12.9694
-12.972
-12.9742
-12.976
-12.9775
-12.9786
-12.9795
-12.9803
-12.9807
-12.9811
-12.9812
-20.7074
-20.7097
-20.72
-20.7548
-20.8436
-21.0372
-21.4022
-21.9815
-22.6947
-23.2972
-23.7088
-23.9735
-24.159
-24.3163
-24.474
-24.642
-24.8112
-24.9469
-24.971
-24.7331
-23.9795
-22.3726
-19.7004
-16.3916
-13.7244
-12.1274
-11.3888
-11.1714
-11.2215
-11.3883
-11.5925
-11.7959
-11.9821
-12.1453
-12.285
-12.4028
-12.5013
-12.5833
-12.6512
-12.7074
-12.7537
-12.7919
-12.8234
-12.8493
-12.8706
-12.8881
-12.9025
-12.9143
-12.9241
-12.9321
-12.9387
-12.9441
-12.9485
-12.9521
-12.9551
-12.9575
-12.9595
-12.9611
-12.9624
-12.9633
-12.9642
-12.9647
-12.9651
-12.9652
-20.6315
-20.6271
-20.6238
-20.6379
-20.7015
-20.8762
-21.2555
-21.9222
-22.7909
-23.484
-23.9171
-24.1743
-24.3517
-24.5126
-24.691
-24.9007
-25.1371
-25.3712
-25.5279
-25.4452
-24.8156
-23.1639
-20.0748
-16.0029
-12.9195
-11.2792
-10.6671
-10.6086
-10.7965
-11.0692
-11.3511
-11.6109
-11.8379
-12.0311
-12.1929
-12.3274
-12.4386
-12.5303
-12.6058
-12.6678
-12.7188
-12.7607
-12.7951
-12.8234
-12.8466
-12.8657
-12.8814
-12.8942
-12.9048
-12.9135
-12.9206
-12.9264
-12.9312
-12.9352
-12.9384
-12.941
-12.9431
-12.9449
-12.9463
-12.9473
-12.9483
-12.9487
-12.9492
-12.9493
-20.5592
-20.5474
-20.5288
-20.5181
-20.5484
-20.691
-21.0717
-21.8347
-22.9089
-23.7014
-24.1424
-24.3781
-24.5381
-24.6973
-24.8936
-25.1437
-25.4489
-25.7885
-26.0964
-26.2085
-25.7688
-24.1363
-20.5798
-15.4825
-11.9322
-10.3125
-9.89271
-10.0324
-10.3766
-10.762
-11.123
-11.4383
-11.7046
-11.926
-12.1085
-12.2583
-12.3811
-12.4816
-12.5638
-12.6312
-12.6863
-12.7315
-12.7685
-12.7989
-12.8238
-12.8443
-12.861
-12.8748
-12.8861
-12.8954
-12.903
-12.9092
-12.9144
-12.9186
-12.922
-12.9248
-12.9271
-12.9289
-12.9304
-12.9315
-12.9325
-12.933
-12.9334
-12.9336
-20.4914
-20.4718
-20.4366
-20.3974
-20.3862
-20.4806
-20.8431
-21.708
-23.0599
-23.9572
-24.3858
-24.5831
-24.7161
-24.8686
-25.0795
-25.3682
-25.742
-26.1917
-26.667
-27.0145
-26.8446
-25.3304
-21.2733
-14.7723
-10.7222
-9.22207
-9.07417
-9.45243
-9.96861
-10.4709
-10.9107
-11.2794
-11.5828
-11.8304
-12.0318
-12.1955
-12.3286
-12.4369
-12.5252
-12.5973
-12.6561
-12.7042
-12.7435
-12.7758
-12.8022
-12.8238
-12.8415
-12.8561
-12.868
-12.8778
-12.8858
-12.8924
-12.8978
-12.9023
-12.9059
-12.9089
-12.9113
-12.9132
-12.9148
-12.916
-12.917
-12.9175
-12.9179
-12.9181
-20.4287
-20.4011
-20.3486
-20.2781
-20.2173
-20.2453
-20.5608
-21.5256
-23.2609
-24.2605
-24.6474
-24.787
-24.8837
-25.0247
-25.2473
-25.5719
-26.0126
-26.574
-27.2287
-27.8506
-28.0429
-26.7918
-22.2424
-13.7859
-9.2438
-8.00808
-8.2242
-8.87969
-9.57962
-10.2
-10.7161
-11.1353
-11.473
-11.7444
-11.9628
-12.1388
-12.2811
-12.3964
-12.49
-12.5661
-12.6281
-12.6788
-12.7201
-12.7539
-12.7816
-12.8043
-12.8228
-12.8381
-12.8506
-12.8608
-12.8692
-12.8761
-12.8817
-12.8864
-12.8902
-12.8933
-12.8958
-12.8978
-12.8995
-12.9007
-12.9018
-12.9023
-12.9027
-12.903
-20.3716
-20.3362
-20.2661
-20.1627
-20.0453
-19.9868
-20.216
-21.2625
-23.5372
-24.6207
-24.926
-24.9868
-25.0386
-25.1643
-25.3957
-25.7531
-26.2572
-26.9287
-27.7698
-28.6999
-29.3554
-28.5688
-23.6163
-12.3938
-7.44915
-6.6789
-7.35985
-8.3262
-9.21629
-9.95244
-10.5408
-11.0065
-11.3752
-11.6679
-11.9013
-12.0882
-12.2385
-12.3598
-12.4579
-12.5376
-12.6024
-12.6552
-12.6982
-12.7334
-12.7622
-12.7857
-12.805
-12.8208
-12.8338
-12.8444
-12.8531
-12.8603
-12.8661
-12.8709
-12.8748
-12.8781
-12.8807
-12.8828
-12.8845
-12.8858
-12.8868
-12.8875
-12.8878
-12.8882
-20.3205
-20.2776
-20.1905
-20.0535
-19.8743
-19.7089
-19.7999
-20.8822
-23.9258
-25.047
-25.2181
-25.1787
-25.1788
-25.2865
-25.5242
-25.9107
-26.4734
-27.2499
-28.2779
-29.5415
-30.7632
-30.7067
-25.5867
-10.4048
-5.29304
-5.25377
-6.50233
-7.80436
-8.88466
-9.73098
-10.3858
-10.8934
-11.2894
-11.6007
-11.8471
-12.0433
-12.2005
-12.3269
-12.429
-12.5116
-12.5787
-12.6333
-12.6779
-12.7142
-12.7439
-12.7682
-12.7881
-12.8044
-12.8177
-12.8286
-12.8376
-12.845
-12.851
-12.856
-12.86
-12.8633
-12.866
-12.8682
-12.87
-12.8713
-12.8723
-12.873
-12.8733
-12.8738
-20.2755
-20.2258
-20.1227
-19.9531
-19.7091
-19.4181
-19.3063
-20.3304
-24.4815
-25.5461
-25.5177
-25.3584
-25.3024
-25.3907
-25.6325
-26.0443
-26.6594
-27.5328
-28.7412
-30.3508
-32.2335
-33.239
-28.4345
-7.5379
-2.74196
-3.76546
-5.67629
-7.3262
-8.58975
-9.5374
-10.2515
-10.7957
-11.2153
-11.5425
-11.7999
-12.004
-12.1669
-12.2976
-12.4029
-12.4881
-12.5571
-12.6132
-12.6589
-12.6962
-12.7267
-12.7516
-12.772
-12.7887
-12.8024
-12.8136
-12.8227
-12.8303
-12.8365
-12.8415
-12.8457
-12.8491
-12.8518
-12.8541
-12.8559
-12.8572
-12.8582
-12.8591
-12.8594
-12.8598
-20.2365
-20.181
-20.0633
-19.8634
-19.555
-19.1238
-18.7338
-19.5287
-25.283
-26.1196
-25.8158
-25.521
-25.4078
-25.4766
-25.721
-26.154
-26.8143
-27.7738
-29.149
-31.1011
-33.7181
-36.1736
-32.5672
-3.3858
0.211638
-2.26234
-4.90848
-6.90254
-8.33529
-9.37264
-10.1378
-10.713
-11.1524
-11.4928
-11.7593
-11.9698
-12.1374
-12.2716
-12.3796
-12.4667
-12.5374
-12.5947
-12.6414
-12.6795
-12.7105
-12.7359
-12.7567
-12.7737
-12.7877
-12.7991
-12.8085
-12.8161
-12.8224
-12.8276
-12.8318
-12.8353
-12.8381
-12.8404
-12.8422
-12.8436
-12.8446
-12.8455
-12.8458
-12.8462
-20.2034
-20.1432
-20.013
-19.7862
-19.4172
-18.8386
-18.0903
-18.3645
-26.4432
-26.7603
-26.1003
-25.6618
-25.4936
-25.5444
-25.7902
-26.2403
-26.9381
-27.9705
-29.4924
-31.7655
-35.1524
-39.4704
-38.568
2.63466
3.52792
-0.809048
-4.22595
-6.5422
-8.12353
-9.23676
-10.0442
-10.6446
-11.1
-11.4509
-11.7247
-11.9404
-12.1117
-12.2486
-12.3587
-12.4474
-12.5193
-12.5776
-12.625
-12.6637
-12.6953
-12.7211
-12.7422
-12.7594
-12.7736
-12.7852
-12.7947
-12.8024
-12.8088
-12.8141
-12.8184
-12.8219
-12.8248
-12.8271
-12.8289
-12.8303
-12.8313
-12.8323
-12.8327
-12.8328
-20.1759
-20.1121
-19.9716
-19.7226
-19.3004
-18.5778
-17.3984
-16.6792
-28.1211
-27.4454
-26.3562
-25.7764
-25.5594
-25.5946
-25.841
-26.3044
-27.0316
-28.1223
-29.7652
-32.3189
-36.457
-43.0119
-47.2591
11.3459
7.08925
0.515146
-3.65354
-6.25134
-7.95519
-9.12903
-9.96963
-10.5896
-11.0573
-11.4162
-11.6955
-11.9151
-12.0893
-12.2283
-12.3399
-12.4298
-12.5026
-12.5617
-12.6097
-12.6488
-12.6808
-12.7068
-12.7282
-12.7456
-12.7599
-12.7717
-12.7813
-12.7891
-12.7956
-12.8009
-12.8052
-12.8088
-12.8117
-12.814
-12.8158
-12.8174
-12.8182
-12.8193
-12.8197
-12.8196
-20.1537
-20.0874
-19.9392
-19.6733
-19.2087
-18.3586
-16.7042
-14.2522
-30.5374
-28.1296
-26.5666
-25.8613
-25.6049
-25.628
-25.8746
-26.3475
-27.0961
-28.2299
-29.9645
-32.7414
-37.5433
-46.5609
-59.7823
23.8895
10.6585
1.62158
-3.21138
-6.03308
-7.82962
-9.04816
-9.91285
-10.5469
-11.0234
-11.3881
-11.6713
-11.8937
-12.0698
-12.2103
-12.323
-12.4139
-12.4873
-12.5469
-12.5953
-12.6347
-12.6669
-12.6932
-12.7147
-12.7323
-12.7467
-12.7585
-12.7682
-12.7761
-12.7826
-12.788
-12.7923
-12.7959
-12.7989
-12.8012
-12.803
-12.8046
-12.8054
-12.8064
-12.807
-12.8068
-20.1363
-20.0686
-19.9155
-19.6384
-19.1446
-18.1981
-16.0874
-10.7827
-33.9939
-28.7338
-26.7151
-25.9147
-25.6312
-25.6462
-25.8928
-26.3717
-27.134
-28.2957
-30.0906
-33.0207
-38.3239
-49.7066
-77.6976
41.8252
13.8245
2.42225
-2.91233
-5.88753
-7.74515
-8.9926
-9.87272
-10.5158
-10.9978
-11.3662
-11.6518
-11.876
-12.0534
-12.1948
-12.3082
-12.3996
-12.4734
-12.5333
-12.582
-12.6216
-12.654
-12.6804
-12.702
-12.7197
-12.7342
-12.746
-12.7557
-12.7637
-12.7702
-12.7756
-12.78
-12.7836
-12.7866
-12.7889
-12.7907
-12.7924
-12.7932
-12.7941
-12.7948
-12.7945
-20.1234
-20.0552
-19.8998
-19.6172
-19.1089
-18.1101
-15.6743
-5.86599
-38.8957
-29.1321
-26.7886
-25.9365
-25.6394
-25.6504
-25.897
-26.3787
-27.1477
-28.3227
-30.1471
-33.1538
-38.7287
-51.7953
-103.101
67.2488
15.9333
2.84695
-2.7594
-5.81139
-7.69878
-8.96016
-9.84766
-10.495
-10.9797
-11.3498
-11.6366
-11.8616
-12.0396
-12.1815
-12.2952
-12.3868
-12.4609
-12.5209
-12.5697
-12.6095
-12.6419
-12.6684
-12.69
-12.7077
-12.7222
-12.7341
-12.7439
-12.7518
-12.7584
-12.7638
-12.7682
-12.7718
-12.7748
-12.7771
-12.7788
-12.7806
-12.7814
-12.7821
-12.7831
-12.7829
)
;

boundaryField
{
    left
    {
        type            calculated;
        value           nonuniform List<scalar> 
32
(
-21.673
-21.6663
-21.6531
-21.6337
-21.6081
-21.5762
-21.5379
-21.4932
-21.4423
-21.3853
-21.3226
-21.2547
-21.1823
-21.1064
-21.0277
-20.9473
-20.8664
-20.7861
-20.7074
-20.6315
-20.5592
-20.4914
-20.4287
-20.3716
-20.3205
-20.2755
-20.2365
-20.2034
-20.1759
-20.1537
-20.1363
-20.1234
)
;
    }
    right
    {
        type            calculated;
        value           nonuniform List<scalar> 
32
(
-13.2016
-13.1988
-13.1934
-13.1859
-13.1765
-13.1655
-13.1532
-13.1397
-13.1254
-13.1104
-13.0949
-13.079
-13.0628
-13.0465
-13.0301
-13.0137
-12.9974
-12.9812
-12.9652
-12.9493
-12.9336
-12.9181
-12.903
-12.8882
-12.8738
-12.8598
-12.8462
-12.8328
-12.8196
-12.8068
-12.7945
-12.7829
)
;
    }
    interface
    {
        type            calculated;
        value           nonuniform List<scalar> 
64
(
-20.1181
-20.0497
-19.8939
-19.6099
-19.0979
-18.0855
-15.5378
-2.98792
-41.7657
-29.2605
-26.8053
-25.9396
-25.6392
-25.6491
-25.8957
-26.3782
-27.1487
-28.327
-30.1585
-33.184
-38.83
-52.476
-117.974
82.1321
16.6241
2.95832
-2.71913
-5.79002
-7.68462
-8.94937
-9.83865
-10.487
-10.9723
-11.3428
-11.63
-11.8551
-12.0333
-12.1753
-12.2891
-12.3807
-12.4548
-12.5149
-12.5637
-12.6035
-12.636
-12.6625
-12.6841
-12.7018
-12.7164
-12.7283
-12.738
-12.746
-12.7525
-12.7579
-12.7623
-12.7659
-12.7689
-12.7712
-12.773
-12.7748
-12.7756
-12.7762
-12.7773
-12.7771
)
;
    }
    bottom
    {
        type            calculated;
        value           nonuniform List<scalar> 
64
(
-21.6748
-21.6806
-21.6915
-21.7063
-21.723
-21.739
-21.751
-21.7551
-21.7469
-21.7219
-21.6752
-21.602
-21.4977
-21.3581
-21.1797
-20.9597
-20.6966
-20.39
-20.0414
-19.6539
-19.233
-18.7856
-18.3204
-17.8471
-17.3759
-16.9161
-16.4765
-16.0637
-15.6829
-15.3369
-15.027
-14.7529
-14.513
-14.3052
-14.1266
-13.9742
-13.845
-13.7359
-13.6443
-13.5676
-13.5036
-13.4503
-13.4061
-13.3694
-13.3391
-13.314
-13.2933
-13.2762
-13.2621
-13.2505
-13.2409
-13.2331
-13.2266
-13.2213
-13.217
-13.2135
-13.2106
-13.2083
-13.2064
-13.205
-13.2039
-13.2031
-13.2026
-13.2024
)
;
    }
    defaultFaces
    {
        type            empty;
    }
}


// ************************************************************************* //
