/*--------------------------------*- C++ -*----------------------------------*\
| =========                 |                                                 |
| \\      /  F ield         | OpenFOAM: The Open Source CFD Toolbox           |
|  \\    /   O peration     | Version:  5.x                                   |
|   \\  /    A nd           | Web:      www.OpenFOAM.org                      |
|    \\/     M anipulation  |                                                 |
\*---------------------------------------------------------------------------*/
FoamFile
{
    version     2.0;
    format      ascii;
    class       volScalarField;
    location    "0.5";
    object      gradTx;
}
// * * * * * * * * * * * * * * * * * * * * * * * * * * * * * * * * * * * * * //

dimensions      [0 -1 0 1 0 0 0];

internalField   nonuniform List<scalar> 
2048
(
-0.00133144
-0.00385571
-0.00592647
-0.0072443
-0.0075158
-0.00642312
-0.0036887
0.000928107
0.00761511
0.0164861
0.0275714
0.0408148
0.0560721
0.0731082
0.0915891
0.11107
0.130982
0.150632
0.169211
0.185839
0.199633
0.209801
0.215744
0.217149
0.214038
0.206765
0.195961
0.182443
0.167096
0.150784
0.134266
0.118158
0.102915
0.0888384
0.0760963
0.0647514
0.0547878
0.046136
0.0386937
0.0323419
0.0269556
0.0224128
0.0185983
0.0154072
0.0127456
0.0105313
0.00869283
0.00716891
0.00590736
0.00486399
0.00400162
0.00328899
0.00269996
0.00221263
0.00180871
0.00147288
0.00119237
0.00095649
0.000756298
0.000584237
0.000433757
0.000299034
0.000175035
5.75734e-05
-0.00405459
-0.0117622
-0.0181423
-0.0222917
-0.0233384
-0.0203423
-0.0124614
0.00103379
0.0207099
0.0469107
0.0797289
0.118999
0.164299
0.21494
0.269943
0.328004
0.387447
0.446205
0.50186
0.551749
0.593184
0.623736
0.641565
0.645701
0.63621
0.614185
0.581574
0.540873
0.494791
0.445937
0.396596
0.3486
0.303287
0.261532
0.223811
0.190284
0.160886
0.135393
0.11349
0.0948146
0.0789923
0.0656573
0.0544672
0.0451107
0.0373104
0.0308232
0.0254387
0.0209767
0.0172837
0.0142299
0.0117063
0.00962112
0.00789782
0.00647221
0.00529067
0.00430838
0.00348789
0.00279795
0.00221245
0.00170931
0.00126934
0.000875112
0.0005112
0.000167533
-0.00698353
-0.0203095
-0.0314953
-0.0390443
-0.0415126
-0.037339
-0.0250934
-0.00353263
0.028308
0.0710122
0.124739
0.18922
0.263772
0.347289
0.438208
0.534433
0.633241
0.731233
0.824356
0.908089
0.977794
1.02923
1.05916
1.06586
1.04944
1.01184
0.956479
0.887734
0.810283
0.728579
0.646462
0.566956
0.492225
0.423639
0.361906
0.307217
0.2594
0.21804
0.18258
0.152403
0.126877
0.105392
0.0873841
0.072341
0.05981
0.0493955
0.0407563
0.0336003
0.02768
0.0227862
0.018743
0.0154032
0.0126436
0.010361
0.00846958
0.00689721
0.00558388
0.00447954
0.0035424
0.00273729
0.00203371
0.00140324
0.000817048
0.000265671
-0.0102714
-0.0299532
-0.046749
-0.0585955
-0.0634704
-0.0591637
-0.0436092
-0.0149972
0.0280765
0.0864545
0.160363
0.249428
0.352719
0.46876
0.59548
0.730085
0.868896
1.00721
1.1393
1.2586
1.35828
1.43194
1.47463
1.4837
1.45931
1.40443
1.3243
1.2255
1.11497
0.999187
0.883632
0.772493
0.668677
0.573942
0.48911
0.414302
0.349156
0.293002
0.245007
0.204266
0.169879
0.140991
0.116816
0.0966471
0.0798652
0.0659307
0.0543803
0.0448193
0.0369134
0.0303812
0.0249865
0.0205319
0.0168522
0.0138094
0.0112885
0.00919307
0.00744299
0.00597141
0.00472259
0.00364966
0.00271274
0.00187506
0.00108913
0.000350908
-0.0140146
-0.040993
-0.0644274
-0.0817194
-0.0902575
-0.0871336
-0.069565
-0.0350909
0.0181961
0.0914217
0.184868
0.298035
0.429745
0.578202
0.740929
0.91457
1.09461
1.27512
1.44861
1.60628
1.73865
1.8367
1.89327
1.90451
1.87061
1.79591
1.68793
1.55597
1.4097
1.25787
1.10768
0.96445
0.831706
0.711439
0.604436
0.510614
0.429316
0.359543
0.300127
0.249852
0.207533
0.172061
0.142432
0.117753
0.0972466
0.0802383
0.0661532
0.0545031
0.0448761
0.0369261
0.0303638
0.0249471
0.0204743
0.0167769
0.0137143
0.0111692
0.00904364
0.00725645
0.00573967
0.00443599
0.0032977
0.00228397
0.00132457
0.000422873
-0.0182632
-0.0535927
-0.0848412
-0.108914
-0.122599
-0.122217
-0.104153
-0.0651676
-0.00276044
0.0845027
0.196924
0.333822
0.493753
0.674648
0.873753
1.08734
1.31025
1.53544
1.75362
1.95347
2.12233
2.24783
2.31993
2.3331
2.28763
2.18961
2.04959
1.88036
1.69483
1.50436
1.31796
1.14199
0.980428
0.835286
0.707124
0.595495
0.499326
0.417201
0.347565
0.288856
0.239589
0.1984
0.164071
0.13553
0.111849
0.0922335
0.0760063
0.0625961
0.0515228
0.0423842
0.0348446
0.0286243
0.0234899
0.0192472
0.015734
0.0128148
0.0103772
0.00832778
0.00658838
0.0050924
0.00378555
0.00262703
0.00152155
0.00048128
-0.0230258
-0.0677938
-0.108108
-0.140434
-0.160945
-0.165099
-0.14828
-0.106295
-0.0359207
0.0646084
0.195539
0.355899
0.543915
0.757292
0.993163
1.24768
1.51533
1.78815
2.05508
2.30195
2.51227
2.66932
2.75921
2.77408
2.71429
2.5884
2.41097
2.19926
1.97016
1.738
1.51359
1.3042
1.114
0.944774
0.796609
0.668515
0.558869
0.465751
0.387165
0.321173
0.265981
0.219968
0.18171
0.149964
0.123669
0.101916
0.0839419
0.069102
0.0568579
0.0467597
0.0384333
0.0315672
0.0259024
0.0212233
0.0173499
0.014132
0.0114452
0.00918659
0.00726959
0.00561955
0.00417676
0.00290393
0.00167946
0.000526014
-0.0282722
-0.0835234
-0.134167
-0.17631
-0.205505
-0.216226
-0.202636
-0.159332
-0.0821873
0.0309098
0.180013
0.36367
0.579659
0.82549
1.09839
1.39472
1.70902
2.03273
2.35315
2.65296
2.91102
3.10498
3.21566
3.23198
3.15438
2.9948
2.77322
2.51273
2.23502
1.95773
1.69346
1.45009
1.23164
1.03932
0.872506
0.729445
0.607836
0.505169
0.418957
0.346868
0.286789
0.236853
0.195434
0.161138
0.132778
0.109352
0.0900179
0.0740709
0.0609241
0.0500891
0.0411603
0.0338014
0.027733
0.0227227
0.0185765
0.0151326
0.0122573
0.0098403
0.00778898
0.00602159
0.00447427
0.0031161
0.00179857
0.000557138
-0.0339354
-0.100601
-0.162789
-0.216362
-0.256265
-0.275845
-0.267742
-0.224991
-0.142303
-0.0172101
0.149917
0.356837
0.600683
0.878785
1.1887
1.52746
1.89015
2.26816
2.6474
3.0072
3.32079
3.55854
3.69401
3.71153
3.6116
3.41094
3.13695
2.82019
2.48819
2.16216
1.85629
1.57864
1.33262
1.1185
0.934608
0.778252
0.646308
0.535604
0.443128
0.366139
0.302213
0.249241
0.205416
0.169204
0.139313
0.114658
0.0943336
0.077587
0.0637925
0.0524316
0.0430753
0.0353681
0.0290157
0.0237734
0.0194368
0.0158354
0.0128284
0.0103008
0.00815571
0.00630523
0.0046828
0.0032661
0.00187971
0.000574872
-0.0399142
-0.118745
-0.193582
-0.260212
-0.313004
-0.344024
-0.344
-0.303904
-0.21691
-0.0801963
0.105076
0.335406
0.606976
0.91693
1.26346
1.64477
2.05723
2.49288
2.93675
3.36473
3.74343
4.03374
4.19927
4.21772
4.08969
3.83865
3.50217
3.12047
2.72797
2.34957
2.00064
1.68882
1.41633
1.18203
0.982891
0.815076
0.674529
0.557354
0.459993
0.379298
0.312542
0.257396
0.211889
0.174367
0.143449
0.117984
0.0970169
0.0797581
0.0655535
0.0538631
0.044241
0.0363193
0.0297935
0.0244107
0.0199597
0.0162638
0.0131775
0.0105832
0.00838136
0.00647899
0.00480834
0.0033573
0.0019242
0.000579635
-0.0460764
-0.137578
-0.226003
-0.307281
-0.375296
-0.420672
-0.431732
-0.396683
-0.306613
-0.158358
0.0455635
0.299695
0.598838
0.93993
1.32214
1.7455
2.20851
2.70482
3.21941
3.72497
4.18039
4.53444
4.73696
4.75608
4.5925
4.27938
3.86825
3.4117
2.95212
2.51797
2.12502
1.77969
1.4823
1.2298
1.01751
0.840232
0.692894
0.570843
0.469972
0.386739
0.318136
0.261638
0.215133
0.176868
0.145392
0.119504
0.0982147
0.0807074
0.0663099
0.0544688
0.0447284
0.0367137
0.0301146
0.0246743
0.0201774
0.016444
0.0133258
0.0107042
0.00847892
0.0065525
0.00485778
0.00339367
0.00193386
0.000572162
-0.0522627
-0.156639
-0.259361
-0.356796
-0.442503
-0.50554
-0.531209
-0.503984
-0.412041
-0.251899
-0.0282973
0.250356
0.576909
0.948065
1.36438
1.82847
2.34197
2.90139
3.49287
4.08651
4.63265
5.06462
5.31328
5.33283
5.124
4.7341
4.23379
3.69132
3.15796
2.66513
2.22792
1.85041
1.53025
1.26193
1.0388
0.854186
0.701923
0.576595
0.473562
0.388917
0.319402
0.262322
0.215454
0.176969
0.145364
0.119406
0.0980839
0.0805658
0.0661707
0.0543393
0.0446125
0.0366129
0.0300299
0.0246056
0.020124
0.0164037
0.0132955
0.0106814
0.00846208
0.00653596
0.00483865
0.00337979
0.00191124
0.000553698
-0.0582928
-0.175399
-0.292835
-0.407789
-0.513772
-0.598216
-0.642687
-0.626578
-0.533919
-0.360949
-0.115925
0.188393
0.542182
0.941921
1.39006
1.8926
2.45548
3.07954
3.75379
4.44704
5.10056
5.62844
5.93539
5.95511
5.6884
5.2032
4.59649
3.95598
3.34235
2.78873
2.30792
1.90036
1.56011
1.27871
1.04728
0.857546
0.702246
0.575217
0.471322
0.386331
0.316775
0.259825
0.213174
0.174942
0.143595
0.117883
0.0967849
0.0794669
0.0652467
0.0535663
0.0439688
0.0360796
0.0295906
0.0242467
0.0198337
0.0161706
0.0131087
0.0105325
0.0083447
0.00643977
0.00475892
0.00332088
0.0018599
0.000526179
-0.0639717
-0.193272
-0.32549
-0.459106
-0.588011
-0.698106
-0.766417
-0.765429
-0.67315
-0.48558
-0.216462
0.115178
0.496014
0.9224
1.39927
1.93693
2.54679
3.23578
3.99802
4.80315
5.58367
6.2302
6.61166
6.63132
6.29003
5.68627
4.95298
4.20157
3.50177
2.88639
2.36377
1.92914
1.57207
1.28066
1.04362
0.851042
0.694577
0.56737
0.463846
0.379502
0.310705
0.254531
0.208619
0.171061
0.140313
0.115124
0.0944762
0.0775419
0.0636466
0.0522396
0.0428715
0.0351745
0.0288468
0.0236386
0.0193397
0.0157716
0.0127873
0.0102747
0.00814038
0.00627427
0.00462692
0.00322293
0.00178455
0.00049231
-0.0690986
-0.209644
-0.356302
-0.509409
-0.663871
-0.804391
-0.902658
-0.921789
-0.830906
-0.625827
-0.328745
0.0324705
0.440117
0.890713
1.39241
1.96069
2.6137
3.36632
4.22056
5.15016
6.08041
6.87433
7.35205
7.37143
6.93336
6.18183
5.29868
4.42315
3.63247
2.95585
2.39447
1.93665
1.56655
1.26849
1.02865
0.835502
0.679693
0.553754
0.451747
0.368959
0.301644
0.246821
0.202107
0.165592
0.13574
0.111314
0.0913103
0.0749171
0.0614745
0.0504451
0.0413914
0.0339559
0.0278462
0.0228203
0.0186739
0.0152325
0.0123518
0.00992459
0.00786223
0.00604956
0.00445125
0.0030927
0.00169099
0.000455438
-0.073476
-0.223899
-0.384193
-0.557203
-0.73972
-0.915975
-1.05166
-1.0973
-1.00874
-0.781674
-0.451261
-0.0575755
0.376536
0.848361
1.37015
1.96343
2.65419
3.4672
4.41565
5.48193
6.5878
7.56519
8.1686
8.18749
7.6228
6.68695
5.62756
4.61506
3.73056
2.99508
2.39939
1.92312
1.54427
1.24311
1.00332
0.811827
0.65841
0.535086
0.435642
0.355225
0.290031
0.237062
0.193945
0.15879
0.130088
0.106627
0.0874309
0.0717109
0.058828
0.0482632
0.0395945
0.0324782
0.0266334
0.0218281
0.017866
0.0145774
0.0118215
0.00949752
0.00752273
0.00577535
0.00424056
0.00293766
0.00158573
0.000419124
-0.0769198
-0.235446
-0.408072
-0.600855
-0.813628
-1.0314
-1.21363
-1.29413
-1.20872
-0.953034
-0.582081
-0.152403
0.307607
0.797089
1.33344
1.94501
2.66653
3.53444
4.5768
5.79074
7.10089
8.30684
9.07597
9.09421
8.36249
7.19682
5.93201
4.77098
3.7922
3.00242
2.37831
1.88915
1.50619
1.2056
0.96866
0.780969
0.631562
0.512081
0.416135
0.338808
0.276288
0.225605
0.184421
0.150893
0.123551
0.101225
0.0829711
0.0680329
0.0557973
0.0457678
0.0375416
0.0307911
0.0252492
0.0206954
0.0169429
0.0138281
0.0112142
0.00900775
0.0071336
0.00546089
0.00400333
0.00276572
0.00147516
0.000386437
-0.0792695
-0.243754
-0.426884
-0.638643
-0.883344
-1.14876
-1.38865
-1.51513
-1.43359
-1.13967
-0.718772
-0.249062
0.235887
0.738817
1.2835
1.90569
2.64943
3.56431
4.69705
6.06712
7.61226
9.10257
10.0923
10.1097
9.15577
7.70411
6.20273
4.88412
3.81384
2.97671
2.33151
1.8357
1.45351
1.15716
0.925797
0.743905
0.599981
0.485436
0.393806
0.320185
0.26081
0.212773
0.173804
0.14212
0.116311
0.0952547
0.0780522
0.0639825
0.0524639
0.043026
0.0352877
0.0289398
0.0237305
0.0194525
0.0159294
0.0130047
0.0105459
0.00846821
0.00670575
0.00511493
0.00374745
0.00258471
0.00136455
0.000359078
-0.0803975
-0.248383
-0.439665
-0.668812
-0.946301
-1.26554
-1.57654
-1.76406
-1.68701
-1.3411
-0.858294
-0.34423
0.164074
0.675569
1.22176
1.84615
2.60218
3.55354
4.7692
6.29984
8.11129
9.95414
11.2401
11.2566
10.0045
8.19832
6.42864
4.94747
3.79243
2.91747
2.25978
1.76407
1.38764
1.09912
0.875876
0.701607
0.564478
0.45582
0.369204
0.299806
0.243964
0.198866
0.162336
0.132671
0.108531
0.0888506
0.0727832
0.0596489
0.0489009
0.0400976
0.0328819
0.0269645
0.0221104
0.0181263
0.0148474
0.012125
0.00983099
0.00789053
0.00624916
0.00474561
0.00347982
0.00240175
0.00125705
0.000336585
-0.0802171
-0.249011
-0.4456
-0.68965
-0.999643
-1.37852
-1.77667
-2.04583
-1.97377
-1.55633
-0.996866
-0.434268
0.0948909
0.609372
1.14982
1.76747
2.52474
3.49959
4.78618
6.47604
8.58341
10.8607
12.5478
12.5633
10.9078
8.665
6.59705
4.95419
3.72569
2.82492
2.16443
1.67588
1.31013
1.03283
0.820053
0.655028
0.525829
0.423861
0.342836
0.278081
0.22608
0.184154
0.150237
0.122724
0.100354
0.0821303
0.0672607
0.0551112
0.045173
0.0370356
0.0303675
0.0249007
0.0204178
0.0167405
0.0137161
0.0112047
0.00908234
0.00728503
0.00577285
0.00436052
0.0032059
0.00222248
0.00115298
0.000315956
-0.0786887
-0.245458
-0.444079
-0.699583
-1.04028
-1.48358
-1.98757
-2.36686
-2.3002
-1.78361
-1.12984
-0.515299
0.0309689
0.542162
1.06937
1.67115
2.41783
3.40091
4.7415
6.58149
9.00929
11.817
14.0513
14.0656
11.8606
9.08494
6.6939
4.89801
3.61237
2.70012
2.04728
1.573
1.22265
0.959693
0.759463
0.605077
0.484758
0.390139
0.315165
0.255381
0.207459
0.168876
0.137701
0.112436
0.0919094
0.075198
0.0615692
0.0504384
0.0413365
0.033886
0.0277823
0.0227793
0.0186781
0.0153157
0.0125523
0.0102575
0.00831119
0.00666077
0.00528471
0.00396664
0.00292943
0.00205038
0.00104997
0.000292003
-0.0758233
-0.237698
-0.434741
-0.697274
-1.065
-1.57558
-2.20651
-2.7355
-2.67454
-2.01991
-1.25156
-0.583332
-0.0252943
0.475695
0.982145
1.55904
2.28293
3.25715
4.62977
6.60112
9.36412
12.8108
15.7961
15.8092
12.8508
9.43342
6.7043
4.77379
3.45243
2.54494
1.91059
1.45749
1.12693
0.881096
0.695193
0.552607
0.441937
0.355181
0.286608
0.232037
0.188362
0.153244
0.124898
0.101944
0.0833076
0.0681434
0.055782
0.0456899
0.0374399
0.0306884
0.0251585
0.0206267
0.016913
0.0138698
0.0113707
0.00929525
0.00752735
0.00602564
0.00479142
0.00357032
0.00265236
0.00188632
0.000943898
0.000258611
-0.0716828
-0.225866
-0.417515
-0.681741
-1.07061
-1.64828
-2.4288
-3.16259
-3.10756
-2.26023
-1.35528
-0.634448
-0.0718722
0.411458
0.889845
1.43327
2.12231
3.06934
4.44727
6.51987
9.61707
13.8197
17.8406
17.8524
13.8558
9.67975
6.61334
4.57803
3.2472
2.36203
1.75697
1.33157
1.0247
0.798368
0.628264
0.498403
0.397969
0.319455
0.257533
0.208339
0.169021
0.137442
0.111974
0.091366
0.0746439
0.0610438
0.0499616
0.0409168
0.0335248
0.0274767
0.0225238
0.0184656
0.0151409
0.0124178
0.0101834
0.008328
0.00673933
0.00538652
0.00429834
0.00317719
0.0023751
0.00172856
0.000830816
0.000210797
-0.0663777
-0.210248
-0.392635
-0.652459
-1.05419
-1.69428
-2.64679
-3.66221
-3.61323
-2.4967
-1.43317
-0.66502
-0.107241
0.350614
0.794077
1.29617
1.93891
2.83995
4.19247
6.32377
9.73123
14.8056
20.2594
20.2699
14.8378
9.78708
6.4072
4.30941
2.99945
2.15475
1.58931
1.19746
0.917642
0.712764
0.559616
0.443172
0.353393
0.283377
0.22826
0.184537
0.149633
0.121625
0.0990547
0.0808022
0.0659988
0.0539641
0.0441607
0.0361617
0.0296258
0.0242793
0.0199014
0.0163149
0.0133773
0.0109726
0.00900082
0.00736418
0.00595436
0.00474939
0.00380943
0.00279202
0.00209716
0.00157321
0.000709205
0.000147086
-0.0600607
-0.191264
-0.360636
-0.609449
-1.01331
-1.70517
-2.84861
-4.2525
-4.20964
-2.71721
-1.47642
-0.672005
-0.130489
0.293963
0.696309
1.15022
1.73623
2.57289
3.86651
6.00137
9.66423
15.7085
23.1481
23.1573
15.7366
9.71316
6.07457
3.96927
2.71338
1.92702
1.41065
1.05737
0.807348
0.625441
0.490094
0.387542
0.308681
0.247304
0.199065
0.160845
0.130365
0.105926
0.0862447
0.0703364
0.0574397
0.0469586
0.0384231
0.0314602
0.025772
0.0211195
0.0173105
0.0141902
0.0116351
0.00954448
0.00783163
0.00641074
0.00517854
0.00411951
0.00332732
0.00241851
0.00181796
0.00141527
0.000581929
7.14261e-05
-0.0529171
-0.169438
-0.322329
-0.55334
-0.946408
-1.67187
-3.01643
-4.95685
-4.9201
-2.90373
-1.47557
-0.653261
-0.141396
0.241935
0.59784
0.997882
1.5182
2.27334
3.47351
5.54539
9.36998
16.437
26.6291
26.637
16.4612
9.41196
5.60829
3.56191
2.39446
1.68316
1.22404
0.913443
0.695299
0.537441
0.420447
0.332057
0.264236
0.211541
0.170179
0.137443
0.111357
0.0904553
0.0736308
0.0600378
0.0490219
0.0400718
0.0327847
0.0268414
0.0219868
0.0180166
0.0147665
0.0121044
0.00992477
0.00814221
0.00668285
0.00547336
0.00441683
0.00350151
0.0028535
0.00205912
0.00153783
0.00124994
0.00045683
-6.30272e-06
-0.0451525
-0.14537
-0.278751
-0.485385
-0.853062
-1.58525
-3.12423
-5.8052
-5.77451
-3.03009
-1.42119
-0.607883
-0.140457
0.194614
0.499784
0.841586
1.28895
1.94757
3.02064
4.95444
8.80199
16.8575
30.8584
30.865
16.8777
8.83707
5.00706
3.09468
2.04917
1.42768
1.03247
0.76764
0.582826
0.449682
0.351319
0.277182
0.220399
0.176341
0.141796
0.114477
0.0927228
0.0753008
0.0612835
0.0499623
0.0407899
0.0333394
0.0272744
0.0223285
0.0182891
0.014986
0.0122821
0.0100675
0.00825462
0.00677263
0.00556017
0.00455656
0.00367322
0.00289949
0.00238857
0.00171477
0.00125885
0.00107398
0.000345165
-7.19711e-05
-0.0369788
-0.119689
-0.231102
-0.407418
-0.734346
-1.43715
-3.13499
-6.83568
-6.81094
-3.0591
-1.30486
-0.536523
-0.128855
0.151784
0.403059
0.683597
1.05266
1.60255
2.51801
4.23464
7.91869
16.779
36.0344
36.0398
16.7953
7.94697
4.2771
2.57781
1.68473
1.16509
0.838738
0.62175
0.471099
0.362951
0.283259
0.223306
0.177453
0.141913
0.11407
0.0920666
0.0745538
0.0605345
0.0492585
0.0401539
0.0327791
0.0267897
0.0219148
0.0179398
0.0146937
0.0120395
0.00986701
0.00808762
0.0066312
0.00544113
0.00446809
0.00366389
0.00295073
0.00231703
0.00193262
0.00138487
0.000985289
0.000886712
0.000257579
-0.000111308
-0.0286
-0.0930254
-0.180665
-0.321763
-0.593048
-1.22195
-2.99721
-8.0965
-8.07758
-2.93916
-1.12072
-0.441615
-0.108365
0.113002
0.308405
0.525977
0.813348
1.2456
1.97814
3.40089
6.69138
15.9356
42.4075
42.4116
15.948
6.71301
3.4334
2.02395
1.30863
0.899695
0.645401
0.47734
0.361118
0.277912
0.216717
0.170746
0.135623
0.108423
0.0871264
0.0703047
0.0569216
0.0462114
0.0375993
0.030647
0.0250164
0.0204441
0.0167231
0.0136893
0.011212
0.00918645
0.0075286
0.00617075
0.00505946
0.00415179
0.00341004
0.00279809
0.00225152
0.00175713
0.00148569
0.0010673
0.000723483
0.000690304
0.00019834
-0.000115729
-0.0201998
-0.0659781
-0.128738
-0.231078
-0.433766
-0.938633
-2.64073
-9.6482
-9.63492
-2.6
-0.867608
-0.327474
-0.0812054
0.0776749
0.216395
0.370535
0.574709
0.883972
1.41522
2.47735
5.11527
13.9644
50.2915
50.2944
13.9731
5.13045
2.50017
1.4474
0.928269
0.63546
0.454692
0.335744
0.253717
0.195105
0.152058
0.119752
0.0950878
0.0759982
0.0610589
0.0492626
0.0398801
0.0323733
0.026338
0.0214666
0.0175218
0.0143187
0.0117122
0.00958714
0.00785199
0.00643336
0.00527227
0.00432127
0.00354301
0.0029076
0.00238858
0.00196122
0.00157705
0.00122214
0.00104813
0.000758802
0.000480922
0.000489229
0.000159822
-8.79967e-05
-0.0119342
-0.0390979
-0.0765615
-0.138164
-0.262778
-0.593685
-1.97184
-11.5661
-11.5582
-1.94785
-0.551851
-0.200157
-0.0498296
0.0451402
0.127458
0.2188
0.340012
0.52444
0.844111
1.4968
3.22413
10.3806
60.0766
60.0783
10.3858
3.23308
1.51024
0.863073
0.55056
0.375856
0.268504
0.19806
0.149567
0.114959
0.0895632
0.070516
0.0559813
0.0447357
0.0359374
0.0289917
0.0234682
0.0190495
0.0154974
0.0126305
0.0103091
0.00842437
0.00689067
0.00564034
0.00461945
0.00378481
0.0031017
0.00254217
0.00208429
0.00171061
0.00140548
0.00115477
0.00092815
0.000713641
0.000620836
0.000455475
0.000264704
0.000289105
0.000120684
-4.45606e-05
-0.00393119
-0.0128876
-0.0252795
-0.0457455
-0.0876107
-0.204617
-0.867722
-13.9429
-13.9403
-0.859835
-0.190864
-0.067022
-0.0166958
0.0147447
0.0419003
0.0720135
0.112008
0.17299
0.279152
0.498386
1.10879
4.54875
72.2435
72.244
4.55044
1.11174
0.502803
0.285387
0.181581
0.123801
0.0883741
0.0651572
0.0491884
0.0377982
0.0294432
0.0231787
0.0183994
0.0147022
0.0118101
0.00952707
0.0077117
0.00625953
0.00509222
0.00415013
0.00338732
0.002768
0.00226405
0.00185322
0.00151778
0.00124354
0.00101909
0.000835239
0.000684787
0.000562053
0.000461864
0.000379771
0.000305192
0.000232389
0.000205424
0.000153563
7.95108e-05
9.56024e-05
5.23632e-05
-1.0455e-05
)
;

boundaryField
{
    left
    {
        type            calculated;
        value           uniform 0;
    }
    right
    {
        type            calculated;
        value           uniform 0;
    }
    interface
    {
        type            calculated;
        value           nonuniform List<scalar> 
64
(
-0.00393119
-0.0128876
-0.0252795
-0.0457455
-0.0876107
-0.204617
-0.867722
-13.9429
-13.9403
-0.859835
-0.190864
-0.067022
-0.0166958
0.0147447
0.0419003
0.0720135
0.112008
0.17299
0.279152
0.498386
1.10879
4.54875
72.2435
72.244
4.55044
1.11174
0.502803
0.285387
0.181581
0.123801
0.0883741
0.0651572
0.0491884
0.0377982
0.0294432
0.0231787
0.0183994
0.0147022
0.0118101
0.00952707
0.0077117
0.00625953
0.00509222
0.00415013
0.00338732
0.002768
0.00226405
0.00185322
0.00151778
0.00124354
0.00101909
0.000835239
0.000684787
0.000562053
0.000461864
0.000379771
0.000305192
0.000232389
0.000205424
0.000153563
7.95108e-05
9.56024e-05
5.23632e-05
-1.0455e-05
)
;
    }
    bottom
    {
        type            calculated;
        value           nonuniform List<scalar> 
64
(
-0.00133144
-0.00385571
-0.00592647
-0.0072443
-0.0075158
-0.00642312
-0.0036887
0.000928107
0.00761511
0.0164861
0.0275714
0.0408148
0.0560721
0.0731082
0.0915891
0.11107
0.130982
0.150632
0.169211
0.185839
0.199633
0.209801
0.215744
0.217149
0.214038
0.206765
0.195961
0.182443
0.167096
0.150784
0.134266
0.118158
0.102915
0.0888384
0.0760963
0.0647514
0.0547878
0.046136
0.0386937
0.0323419
0.0269556
0.0224128
0.0185983
0.0154072
0.0127456
0.0105313
0.00869283
0.00716891
0.00590736
0.00486399
0.00400162
0.00328899
0.00269996
0.00221263
0.00180871
0.00147288
0.00119237
0.00095649
0.000756298
0.000584237
0.000433757
0.000299034
0.000175035
5.75734e-05
)
;
    }
    defaultFaces
    {
        type            empty;
    }
}


// ************************************************************************* //
