/*--------------------------------*- C++ -*----------------------------------*\
| =========                 |                                                 |
| \\      /  F ield         | OpenFOAM: The Open Source CFD Toolbox           |
|  \\    /   O peration     | Version:  5.x                                   |
|   \\  /    A nd           | Web:      www.OpenFOAM.org                      |
|    \\/     M anipulation  |                                                 |
\*---------------------------------------------------------------------------*/
FoamFile
{
    version     2.0;
    format      ascii;
    class       volScalarField;
    location    "0.5";
    object      T;
}
// * * * * * * * * * * * * * * * * * * * * * * * * * * * * * * * * * * * * * //

dimensions      [0 0 0 1 0 0 0];

internalField   nonuniform List<scalar> 
2048
(
9.84428
9.84424
9.84416
9.84406
9.84394
9.84382
9.84374
9.84371
9.84376
9.84394
9.84428
9.84481
9.84555
9.84656
9.84784
9.84942
9.85131
9.85351
9.85602
9.8588
9.86183
9.86504
9.86838
9.87178
9.87517
9.87847
9.88163
9.88459
9.88733
9.88982
9.89204
9.89401
9.89573
9.89723
9.89851
9.89961
9.90053
9.90132
9.90198
9.90253
9.90299
9.90337
9.90369
9.90395
9.90417
9.90435
9.9045
9.90462
9.90472
9.9048
9.90487
9.90493
9.90498
9.90501
9.90505
9.90507
9.90509
9.90511
9.90512
9.90513
9.90514
9.90515
9.90515
9.90515
9.53971
9.53958
9.53934
9.53901
9.53864
9.53828
9.53801
9.53789
9.53804
9.53854
9.53951
9.54103
9.54322
9.54617
9.54994
9.5546
9.56019
9.56671
9.57413
9.58239
9.59138
9.60093
9.61087
9.62098
9.63105
9.64086
9.65024
9.65904
9.66714
9.6745
9.68108
9.68689
9.69197
9.69637
9.70014
9.70336
9.70609
9.70839
9.71032
9.71194
9.71329
9.71441
9.71534
9.71611
9.71675
9.71727
9.71771
9.71807
9.71837
9.71861
9.71881
9.71898
9.71911
9.71922
9.71931
9.71939
9.71945
9.7195
9.71954
9.71957
9.71959
9.71961
9.71962
9.71962
9.24859
9.24837
9.24795
9.24738
9.24673
9.24609
9.24556
9.2453
9.24545
9.24619
9.24767
9.25009
9.25359
9.25833
9.26444
9.27202
9.28114
9.29181
9.30399
9.31757
9.33237
9.34813
9.36453
9.38123
9.39784
9.41402
9.42946
9.44391
9.4572
9.46923
9.47997
9.48944
9.49769
9.50482
9.51093
9.51613
9.52053
9.52423
9.52734
9.52994
9.5321
9.5339
9.5354
9.53663
9.53766
9.5385
9.5392
9.53978
9.54025
9.54064
9.54096
9.54123
9.54144
9.54162
9.54177
9.54189
9.54198
9.54206
9.54212
9.54217
9.54221
9.54224
9.54225
9.54226
8.97041
8.97009
8.96947
8.96863
8.96764
8.96664
8.96579
8.96528
8.96532
8.96616
8.96802
8.97117
8.97582
8.98219
8.99047
9.0008
9.01328
9.02795
9.04476
9.06356
9.08409
9.106
9.12884
9.15208
9.1752
9.19769
9.21909
9.23907
9.25739
9.27391
9.28861
9.30153
9.31275
9.32242
9.33069
9.33771
9.34364
9.34862
9.35279
9.35628
9.35918
9.36158
9.36358
9.36524
9.3666
9.36773
9.36866
9.36943
9.37006
9.37058
9.37101
9.37136
9.37165
9.37189
9.37209
9.37224
9.37237
9.37248
9.37256
9.37262
9.37267
9.37271
9.37273
9.37274
8.70467
8.70423
8.70339
8.70222
8.70084
8.6994
8.69811
8.69722
8.69702
8.69779
8.69987
8.70357
8.70919
8.717
8.72726
8.74015
8.75584
8.77436
8.79568
8.81963
8.84588
8.87396
8.90328
8.93313
8.96279
8.99158
9.01891
9.04433
9.06754
9.08838
9.10685
9.123
9.13699
9.14899
9.15922
9.16788
9.17518
9.1813
9.18641
9.19067
9.19422
9.19716
9.1996
9.20161
9.20328
9.20465
9.20578
9.20672
9.20749
9.20812
9.20864
9.20907
9.20942
9.20971
9.20994
9.21014
9.21029
9.21042
9.21052
9.2106
9.21066
9.2107
9.21073
9.21074
8.45089
8.45032
8.44922
8.44767
8.44581
8.44384
8.442
8.44059
8.43996
8.4405
8.4426
8.44665
8.45303
8.46208
8.47411
8.48939
8.50809
8.53033
8.55608
8.58513
8.61712
8.65146
8.68737
8.72395
8.76028
8.79544
8.8287
8.85949
8.88746
8.91246
8.93447
8.95364
8.97016
8.98428
8.99626
9.00638
9.01487
9.02198
9.02791
9.03284
9.03694
9.04033
9.04314
9.04546
9.04737
9.04895
9.05026
9.05133
9.05221
9.05294
9.05354
9.05403
9.05443
9.05476
9.05503
9.05525
9.05543
9.05558
9.05569
9.05578
9.05585
9.0559
9.05593
9.05595
8.20861
8.20789
8.20649
8.20451
8.2021
8.19948
8.19694
8.19485
8.19362
8.19373
8.19564
8.19984
8.20676
8.21683
8.23043
8.24787
8.26942
8.29522
8.3253
8.35945
8.39723
8.43795
8.48065
8.52418
8.56734
8.609
8.64823
8.68434
8.71695
8.74591
8.77127
8.79321
8.81202
8.82802
8.84155
8.85292
8.86244
8.87038
8.87699
8.88248
8.88703
8.89079
8.8939
8.89647
8.89859
8.90034
8.90177
8.90296
8.90393
8.90474
8.90539
8.90594
8.90638
8.90675
8.90704
8.90729
8.90749
8.90765
8.90777
8.90787
8.90795
8.908
8.90804
8.90806
7.97737
7.97648
7.97476
7.97229
7.96925
7.96587
7.96249
7.95954
7.95751
7.95697
7.95848
7.96259
7.96984
7.98071
7.99564
8.01503
8.03922
8.06844
8.10275
8.14198
8.18565
8.23294
8.28268
8.33343
8.38368
8.43201
8.47727
8.51867
8.55579
8.58852
8.61697
8.64144
8.66229
8.67993
8.69476
8.70719
8.71756
8.72619
8.73335
8.73928
8.74419
8.74824
8.75159
8.75435
8.75662
8.7585
8.76004
8.76131
8.76235
8.76321
8.76392
8.7645
8.76498
8.76537
8.76569
8.76595
8.76616
8.76633
8.76647
8.76657
8.76666
8.76671
8.76675
8.76677
7.75673
7.75567
7.75359
7.75058
7.74682
7.74257
7.7382
7.73421
7.73117
7.72976
7.73064
7.73444
7.74179
7.75322
7.76925
7.79036
7.81698
7.84943
7.88786
7.93216
7.98184
8.03594
8.09304
8.15137
8.20903
8.26424
8.31562
8.36227
8.40375
8.44002
8.47132
8.49803
8.52065
8.53968
8.5556
8.56888
8.57992
8.58908
8.59666
8.60293
8.6081
8.61237
8.61589
8.61879
8.62118
8.62314
8.62476
8.62609
8.62719
8.62808
8.62882
8.62943
8.62993
8.63034
8.63067
8.63094
8.63117
8.63135
8.63149
8.6316
8.63169
8.63175
8.63179
8.63181
7.54627
7.54502
7.54256
7.53898
7.53443
7.52919
7.52368
7.51844
7.51418
7.51167
7.51168
7.51495
7.52216
7.53392
7.55081
7.5734
7.60221
7.63769
7.68011
7.72946
7.78526
7.84644
7.91132
7.97767
8.04312
8.10547
8.16308
8.21492
8.26059
8.30017
8.33402
8.36269
8.38679
8.40695
8.42373
8.43766
8.4492
8.45874
8.46662
8.47312
8.47847
8.48288
8.48651
8.4895
8.49196
8.49399
8.49565
8.49702
8.49814
8.49907
8.49983
8.50045
8.50096
8.50138
8.50172
8.502
8.50223
8.50242
8.50256
8.50268
8.50277
8.50283
8.50287
8.50289
7.34558
7.34414
7.34128
7.33708
7.33168
7.32535
7.31854
7.31186
7.30614
7.30228
7.30119
7.3037
7.31056
7.32242
7.33993
7.36373
7.39448
7.43275
7.479
7.53336
7.59541
7.66399
7.73711
7.81202
7.88573
7.95554
8.01947
8.07642
8.12608
8.16868
8.20477
8.23508
8.26038
8.2814
8.29881
8.3132
8.32507
8.33485
8.34291
8.34954
8.355
8.35948
8.36317
8.36621
8.3687
8.37075
8.37243
8.37382
8.37496
8.37589
8.37666
8.37729
8.37781
8.37823
8.37858
8.37886
8.37909
8.37928
8.37942
8.37954
8.37963
8.37969
8.37974
8.37975
7.15426
7.15263
7.14936
7.14452
7.13821
7.13069
7.12242
7.11409
7.10667
7.10122
7.09879
7.10033
7.10662
7.11836
7.13625
7.161
7.19338
7.23418
7.28405
7.34334
7.41176
7.48811
7.57003
7.65415
7.73668
7.81427
7.88462
7.94658
7.99997
8.04526
8.08326
8.11489
8.14108
8.16271
8.18052
8.19517
8.20721
8.2171
8.22523
8.2319
8.23738
8.24188
8.24558
8.24862
8.25111
8.25316
8.25484
8.25622
8.25736
8.25829
8.25906
8.25969
8.2602
8.26063
8.26097
8.26125
8.26148
8.26167
8.26182
8.26193
8.26202
8.26209
8.26213
8.26215
6.97191
6.97008
6.96642
6.96093
6.95368
6.94488
6.93499
6.92479
6.91541
6.90811
6.90413
6.90449
6.91001
6.92143
6.93945
6.96487
6.99859
7.0416
7.09483
7.15891
7.2338
7.3183
7.40969
7.50378
7.59578
7.68154
7.75838
7.82518
7.88201
7.92963
7.96916
8.00176
8.02854
8.05051
8.0685
8.08324
8.0953
8.10518
8.11328
8.11991
8.12535
8.12981
8.13347
8.13647
8.13894
8.14096
8.14262
8.14398
8.1451
8.14602
8.14678
8.1474
8.1479
8.14832
8.14866
8.14894
8.14917
8.14935
8.1495
8.14961
8.1497
8.14976
8.1498
8.14982
6.79814
6.79614
6.7921
6.78597
6.77775
6.76759
6.75594
6.74364
6.73202
6.72261
6.71684
6.71584
6.72044
6.73134
6.74927
6.77507
6.8098
6.85466
6.91091
6.9796
7.06101
7.15409
7.25571
7.3607
7.46294
7.55726
7.64063
7.71204
7.77193
7.82147
7.86213
7.89534
7.92242
7.94447
7.96244
7.97708
7.98903
7.99879
8.00676
8.01328
8.01862
8.02299
8.02657
8.02951
8.03192
8.0339
8.03552
8.03685
8.03794
8.03884
8.03957
8.04018
8.04067
8.04108
8.04141
8.04168
8.0419
8.04208
8.04223
8.04234
8.04242
8.04248
8.04252
8.04254
6.63258
6.63042
6.62603
6.61929
6.61011
6.59854
6.58497
6.57033
6.55617
6.54437
6.53661
6.5341
6.53763
6.54785
6.56546
6.59136
6.62673
6.67304
6.73193
6.80493
6.89287
6.99495
7.1077
7.2247
7.33805
7.44136
7.53123
7.60695
7.66946
7.72046
7.76183
7.79529
7.82235
7.84425
7.86199
7.87639
7.8881
7.89763
7.9054
7.91175
7.91693
7.92117
7.92465
7.92749
7.92982
7.93173
7.9333
7.93459
7.93564
7.93651
7.93722
7.9378
7.93828
7.93867
7.93899
7.93925
7.93947
7.93964
7.93978
7.93989
7.93997
7.94002
7.94006
7.94008
6.47487
6.47257
6.46787
6.46056
6.45046
6.43745
6.42183
6.40458
6.38754
6.37306
6.36311
6.35896
6.36131
6.37072
6.38783
6.41354
6.44918
6.49648
6.55753
6.63447
6.72884
6.84034
6.96526
7.09561
7.22111
7.33382
7.43008
7.50968
7.5743
7.62627
7.6679
7.70125
7.728
7.7495
7.76684
7.78086
7.79221
7.80143
7.80893
7.81505
7.82004
7.82411
7.82744
7.83017
7.83241
7.83424
7.83574
7.83697
7.83798
7.83881
7.83949
7.84004
7.8405
7.84088
7.84118
7.84144
7.84164
7.8418
7.84194
7.84204
7.84212
7.84217
7.84221
7.84222
6.32463
6.32222
6.31727
6.30947
6.29849
6.28405
6.26626
6.24612
6.22582
6.20835
6.19604
6.19016
6.19127
6.19977
6.21618
6.24144
6.27697
6.32477
6.38742
6.46779
6.56838
6.6897
6.82797
6.97332
7.11216
7.23465
7.33706
7.42002
7.48615
7.53853
7.57998
7.61285
7.63902
7.65992
7.67669
7.69019
7.7011
7.70993
7.7171
7.72293
7.72769
7.73157
7.73474
7.73733
7.73945
7.74119
7.74261
7.74378
7.74474
7.74553
7.74617
7.7467
7.74713
7.74749
7.74778
7.74802
7.74821
7.74837
7.74849
7.74859
7.74866
7.74872
7.74875
7.74876
6.18152
6.17904
6.1739
6.1657
6.15394
6.13809
6.11804
6.0947
6.07069
6.0499
6.03508
6.02744
6.0273
6.03481
6.05038
6.07492
6.10994
6.15771
6.22132
6.3045
6.41092
6.54238
6.69537
6.85776
7.0113
7.14388
7.25206
7.33772
7.40468
7.4569
7.49771
7.52976
7.55507
7.57518
7.59123
7.60411
7.61448
7.62286
7.62965
7.63517
7.63966
7.64332
7.64631
7.64875
7.65075
7.65238
7.65372
7.65482
7.65572
7.65646
7.65707
7.65756
7.65797
7.65831
7.65858
7.6588
7.65899
7.65913
7.65925
7.65934
7.65941
7.65946
7.65949
7.6595
6.04519
6.04267
6.03742
6.02893
6.01652
5.99936
5.97698
5.9501
5.92185
5.89738
5.87994
5.87055
5.86918
5.87568
5.89029
5.91386
5.94799
5.99518
6.05903
6.14422
6.2559
6.3977
6.56697
6.74895
6.91874
7.06159
7.17494
7.26248
7.32955
7.381
7.42072
7.45162
7.47584
7.49498
7.51019
7.52235
7.53212
7.53999
7.54636
7.55153
7.55573
7.55915
7.56194
7.56423
7.56609
7.56762
7.56887
7.56989
7.57073
7.57142
7.57198
7.57245
7.57283
7.57314
7.57339
7.5736
7.57377
7.57391
7.57402
7.5741
7.57417
7.57421
7.57424
7.57425
5.91531
5.9128
5.90753
5.89888
5.88597
5.86764
5.8429
5.81212
5.77896
5.75044
5.73033
5.71928
5.71676
5.72225
5.7358
5.75818
5.79103
5.83708
5.9004
5.98665
6.10277
6.25488
6.44217
6.647
6.83477
6.98787
7.10555
7.19403
7.26037
7.31045
7.34865
7.37809
7.40102
7.41903
7.4333
7.44466
7.45377
7.46109
7.46701
7.47181
7.4757
7.47887
7.48146
7.48357
7.48529
7.4867
7.48786
7.4888
7.48958
7.49022
7.49074
7.49116
7.49152
7.4918
7.49204
7.49223
7.49239
7.49251
7.49262
7.4927
7.49275
7.4928
7.49282
7.49283
5.79155
5.7891
5.78388
5.77522
5.76202
5.74271
5.71566
5.6806
5.6417
5.60872
5.58596
5.57341
5.56986
5.57438
5.5868
5.60779
5.63902
5.68335
5.7453
5.83152
5.95097
6.11306
6.32025
6.55217
6.7598
6.92281
7.0437
7.132
7.19677
7.24488
7.28115
7.30886
7.3303
7.34707
7.36029
7.3708
7.3792
7.38595
7.39139
7.3958
7.39937
7.40228
7.40465
7.40658
7.40816
7.40946
7.41051
7.41138
7.41209
7.41267
7.41315
7.41354
7.41386
7.41412
7.41434
7.41452
7.41466
7.41478
7.41487
7.41494
7.41499
7.41503
7.41506
7.41507
5.67362
5.67125
5.66619
5.65766
5.6444
5.62438
5.59516
5.55543
5.50968
5.47185
5.44656
5.43274
5.42833
5.43195
5.44319
5.46264
5.49191
5.53398
5.5937
5.67866
5.79998
5.97129
6.20032
6.46492
6.69436
6.86651
6.98915
7.07602
7.13834
7.1839
7.21786
7.24361
7.26341
7.27883
7.29095
7.30055
7.30821
7.31436
7.31931
7.32332
7.32657
7.3292
7.33135
7.33311
7.33454
7.33571
7.33667
7.33745
7.3381
7.33862
7.33906
7.33941
7.3397
7.33994
7.34013
7.34029
7.34042
7.34053
7.34061
7.34068
7.34072
7.34076
7.34078
7.34079
5.5612
5.55896
5.55414
5.54591
5.53284
5.51245
5.48133
5.43655
5.3825
5.33944
5.31186
5.29709
5.29204
5.29485
5.3049
5.32265
5.34969
5.38898
5.4456
5.52795
5.64935
5.82849
6.08121
6.386
6.6391
6.819
6.94159
7.02567
7.08466
7.12714
7.15847
7.18205
7.20008
7.21407
7.22503
7.2337
7.24061
7.24614
7.25059
7.25419
7.2571
7.25947
7.2614
7.26297
7.26425
7.2653
7.26616
7.26686
7.26744
7.26791
7.2683
7.26861
7.26887
7.26909
7.26926
7.2694
7.26952
7.26961
7.26969
7.26975
7.26979
7.26982
7.26984
7.26985
5.45401
5.45194
5.44744
5.43967
5.42705
5.40672
5.37411
5.32401
5.25966
5.2111
5.18164
5.16631
5.16086
5.16296
5.17181
5.18778
5.21232
5.24837
5.30107
5.37938
5.49869
5.68348
5.96136
6.31659
6.5948
6.78027
6.90064
6.98049
7.03531
7.07423
7.10265
7.12389
7.14007
7.15257
7.16234
7.17006
7.17619
7.1811
7.18505
7.18823
7.19081
7.19291
7.19462
7.19601
7.19714
7.19807
7.19883
7.19945
7.19996
7.20037
7.20072
7.201
7.20123
7.20141
7.20157
7.2017
7.2018
7.20188
7.20195
7.202
7.20203
7.20207
7.20208
7.20209
5.35178
5.34991
5.34581
5.33864
5.32676
5.30697
5.27348
5.21795
5.14058
5.0864
5.05567
5.04026
5.03467
5.03619
5.04386
5.05794
5.0798
5.1122
5.1602
5.23303
5.34775
5.53504
5.83864
6.25842
6.5623
6.75018
6.86584
6.94002
6.98988
7.02481
7.0501
7.06889
7.08314
7.09412
7.10269
7.10944
7.1148
7.11908
7.12253
7.1253
7.12755
7.12938
7.13086
7.13207
7.13306
7.13387
7.13453
7.13507
7.13551
7.13587
7.13617
7.13641
7.13661
7.13678
7.13691
7.13702
7.13711
7.13718
7.13724
7.13729
7.13732
7.13735
7.13736
7.13736
5.25426
5.2526
5.24896
5.24253
5.23167
5.21296
5.17943
5.11869
5.02452
4.96494
4.93378
4.91883
4.91337
4.91441
4.92093
4.93309
4.95211
4.98054
5.02315
5.08908
5.19645
5.38189
5.7101
6.21405
6.54251
6.72846
6.83663
6.90372
6.94794
6.97855
7.00054
7.0168
7.02909
7.03853
7.04588
7.05167
7.05626
7.05993
7.06287
7.06524
7.06716
7.06872
7.06999
7.07102
7.07187
7.07256
7.07312
7.07358
7.07396
7.07427
7.07452
7.07473
7.0749
7.07504
7.07515
7.07525
7.07533
7.07539
7.07543
7.07548
7.0755
7.07552
7.07554
7.07554
5.16119
5.15978
5.15665
5.15107
5.14148
5.12441
5.09194
5.02678
4.91053
4.84632
4.81584
4.80191
4.79684
4.79752
4.80292
4.81314
4.82922
4.85342
4.89008
4.94782
5.04491
5.22288
5.57171
6.1872
6.53624
6.71463
6.8124
6.8711
6.90911
6.93514
6.95372
6.9674
6.97771
6.98562
6.99176
6.99659
7.00043
7.00348
7.00594
7.00791
7.00951
7.01081
7.01187
7.01273
7.01343
7.014
7.01447
7.01485
7.01517
7.01542
7.01564
7.01581
7.01595
7.01607
7.01616
7.01624
7.0163
7.01636
7.01639
7.01643
7.01645
7.01647
7.01648
7.01648
5.07235
5.0712
5.06861
5.06397
5.05588
5.04102
5.01097
4.94306
4.79735
4.73021
4.70176
4.68944
4.68499
4.68541
4.68973
4.69801
4.7111
4.7309
4.76117
4.80959
4.89351
5.05705
5.41785
6.18312
6.5441
6.70798
6.79244
6.84164
6.87299
6.89429
6.9094
6.9205
6.92883
6.93522
6.94018
6.94407
6.94715
6.94961
6.95159
6.95318
6.95447
6.95551
6.95636
6.95705
6.95761
6.95807
6.95845
6.95876
6.95901
6.95922
6.95939
6.95953
6.95964
6.95973
6.95981
6.95987
6.95992
6.95996
6.96
6.96002
6.96004
6.96006
6.96007
6.96006
4.98752
4.98663
4.98462
4.98098
4.97456
4.96245
4.93638
4.86879
4.68336
4.61636
4.59151
4.58134
4.57771
4.57795
4.58124
4.58759
4.59768
4.61301
4.6366
4.67483
4.74288
4.88393
5.24087
6.20917
6.56623
6.70754
6.77601
6.81483
6.83926
6.85573
6.86738
6.8759
6.88229
6.88718
6.89098
6.89396
6.89631
6.89819
6.8997
6.90092
6.9019
6.9027
6.90334
6.90387
6.9043
6.90465
6.90494
6.90517
6.90537
6.90553
6.90565
6.90576
6.90585
6.90592
6.90598
6.90602
6.90606
6.9061
6.90612
6.90614
6.90615
6.90616
6.90617
6.90617
4.90651
4.90587
4.90444
4.90185
4.89722
4.8883
4.86789
4.80577
4.56638
4.50468
4.48513
4.47757
4.4749
4.47503
4.47733
4.48179
4.48891
4.49975
4.51653
4.54398
4.59395
4.70383
5.03033
6.27544
6.60203
6.7121
6.76236
6.79023
6.80759
6.81924
6.82745
6.83345
6.83794
6.84138
6.84404
6.84613
6.84778
6.8491
6.85016
6.85101
6.85169
6.85225
6.85271
6.85308
6.85338
6.85362
6.85382
6.85399
6.85412
6.85423
6.85433
6.8544
6.85446
6.85451
6.85455
6.85458
6.85461
6.85463
6.85465
6.85467
6.85467
6.85468
6.85469
6.85469
4.82911
4.82873
4.82788
4.82634
4.82357
4.81813
4.80501
4.75651
4.44357
4.39531
4.3827
4.37807
4.37645
4.37651
4.37786
4.38049
4.3847
4.39112
4.40109
4.4175
4.44786
4.51825
4.77226
6.39565
6.6497
6.7202
6.75074
6.7674
6.77771
6.7846
6.78945
6.79299
6.79564
6.79767
6.79924
6.80047
6.80144
6.80221
6.80284
6.80334
6.80374
6.80407
6.80434
6.80456
6.80473
6.80488
6.805
6.80509
6.80517
6.80524
6.80529
6.80533
6.80537
6.8054
6.80542
6.80544
6.80546
6.80547
6.80548
6.80549
6.8055
6.8055
6.80551
6.8055
4.75515
4.75503
4.75475
4.75424
4.75332
4.7515
4.74692
4.72438
4.31121
4.28875
4.28434
4.28278
4.28224
4.28226
4.2827
4.28357
4.28495
4.28707
4.29036
4.29579
4.30593
4.33044
4.44808
6.58805
6.70571
6.73025
6.74045
6.74597
6.74937
6.75164
6.75324
6.7544
6.75527
6.75594
6.75645
6.75686
6.75718
6.75743
6.75764
6.7578
6.75794
6.75804
6.75813
6.7582
6.75826
6.75831
6.75835
6.75838
6.75841
6.75843
6.75844
6.75846
6.75847
6.75848
6.75849
6.75849
6.7585
6.7585
6.75851
6.75851
6.75851
6.75851
6.75852
6.75851
)
;

boundaryField
{
    left
    {
        type            zeroGradient;
    }
    right
    {
        type            zeroGradient;
    }
    interface
    {
        type            fixedValue;
        value           nonuniform List<scalar> 
64
(
4.71901
4.71901
4.71901
4.71901
4.71901
4.71901
4.71901
4.71901
4.23619
4.23619
4.23619
4.23619
4.23619
4.23619
4.23619
4.23619
4.23619
4.23619
4.23619
4.23619
4.23619
4.23619
4.23619
6.73557
6.73557
6.73557
6.73557
6.73557
6.73557
6.73557
6.73557
6.73557
6.73557
6.73557
6.73557
6.73557
6.73557
6.73557
6.73557
6.73557
6.73557
6.73557
6.73557
6.73557
6.73557
6.73557
6.73557
6.73557
6.73557
6.73557
6.73557
6.73557
6.73557
6.73557
6.73557
6.73557
6.73557
6.73557
6.73557
6.73557
6.73557
6.73557
6.73557
6.73557
)
;
    }
    bottom
    {
        type            fixedValue;
        value           uniform 10;
    }
    defaultFaces
    {
        type            empty;
    }
}


// ************************************************************************* //
