/*--------------------------------*- C++ -*----------------------------------*\
| =========                 |                                                 |
| \\      /  F ield         | OpenFOAM: The Open Source CFD Toolbox           |
|  \\    /   O peration     | Version:  5.x                                   |
|   \\  /    A nd           | Web:      www.OpenFOAM.org                      |
|    \\/     M anipulation  |                                                 |
\*---------------------------------------------------------------------------*/
FoamFile
{
    version     2.0;
    format      ascii;
    class       volScalarField;
    location    "4.6";
    object      gradTx;
}
// * * * * * * * * * * * * * * * * * * * * * * * * * * * * * * * * * * * * * //

dimensions      [0 -1 0 1 0 0 0];

internalField   nonuniform List<scalar> 
6300
(
2250.29
2243.84
2230.92
2211.49
2185.5
2152.9
2113.66
2067.78
2015.33
1956.47
1891.47
1820.78
1745
1664.91
1581.48
2256.62
2250.19
2237.31
2217.93
2191.99
2159.42
2120.18
2074.24
2021.63
1962.49
1897.07
1825.77
1749.2
1668.15
1583.62
2269.25
2262.87
2250.08
2230.81
2204.99
2172.51
2133.29
2087.25
2034.36
1974.69
1908.44
1835.95
1757.8
1674.8
1588
2288.14
2281.84
2269.2
2250.13
2224.52
2192.23
2153.1
2106.98
2053.76
1993.38
1925.93
1851.68
1771.14
1685.14
1594.82
2313.21
2307.03
2294.61
2275.86
2250.61
2218.66
2179.79
2133.72
2080.2
2019.03
1950.12
1873.59
1789.85
1699.71
1604.45
2344.34
2338.33
2326.25
2307.96
2283.27
2251.91
2213.55
2167.78
2114.18
2052.31
1981.83
1902.61
1814.86
1719.32
1617.42
2381.35
2375.58
2363.96
2346.34
2322.48
2292.04
2254.59
2209.56
2156.31
2094.09
2022.19
1940.05
1847.54
1745.21
1634.6
2424.01
2418.54
2407.54
2390.83
2368.13
2339.07
2303.08
2259.46
2207.28
2145.43
2072.66
1987.77
1889.95
1779.28
1657.35
2471.99
2466.92
2456.71
2441.17
2420.04
2392.88
2359.08
2317.78
2267.8
2207.57
2135.13
2048.31
1945.1
1824.51
1687.82
2524.91
2520.31
2511.06
2496.98
2477.83
2453.2
2422.46
2384.67
2338.45
2281.78
2211.88
2125.14
2017.52
1885.75
1729.73
2582.28
2578.23
2570.09
2557.74
2540.98
2519.49
2492.74
2459.86
2419.41
2369.11
2305.35
2222.73
2113.98
1971.14
1789.79
2643.56
2640.11
2633.19
2622.75
2608.72
2590.91
2569.03
2542.47
2510.1
2469.78
2417.55
2346.33
2244.4
2094.93
1881.33
2708.15
2705.31
2699.66
2691.23
2680.08
2666.27
2649.85
2630.74
2608.59
2582.23
2548.6
2500.52
2422.23
2282.75
2034
2775.43
2773.19
2768.77
2762.29
2753.95
2744.1
2733.2
2721.93
2711.17
2701.79
2693.97
2684.8
2661.1
2579.7
2324.11
2844.8
2843.1
2839.78
2835.04
2829.2
2822.81
2816.76
2812.47
2812.21
2819.64
2840.54
2883.44
2957.53
3050.72
2983.96
1503.1
1430.95
1358.73
1287.18
1216.95
1148.69
1082.93
1020.15
960.728
904.95
853.028
805.098
761.228
721.433
685.68
653.896
625.978
601.795
581.192
563.992
549.996
538.982
530.708
524.906
521.285
519.535
519.325
520.316
522.165
524.537
527.118
529.623
531.803
533.452
534.398
534.504
533.652
531.739
528.665
524.338
518.672
511.593
503.053
493.033
481.55
468.653
454.419
438.939
422.306
404.598
385.87
366.146
345.419
323.652
300.79
276.762
251.494
224.912
196.946
167.526
136.577
104.008
69.7129
33.5541
-4.63471
-45.0512
-87.9207
-133.491
-182.021
-233.777
-289.017
-347.987
-410.917
-478.011
-549.45
-625.386
-705.941
-791.198
-881.191
-975.895
-1075.21
-1178.94
-1286.78
-1398.31
-1512.97
-1630.07
-1748.78
-1868.17
-1987.23
-2104.9
1504.14
1430.95
1357.72
1285.19
1214.07
1145.01
1078.59
1015.27
955.425
899.348
847.236
799.208
755.321
715.576
679.927
648.295
620.567
596.609
576.262
559.349
545.672
535.01
527.121
521.737
518.566
517.29
517.571
519.056
521.386
524.212
527.203
530.064
532.544
534.437
535.584
535.859
535.157
533.384
530.446
526.243
520.681
513.674
505.161
495.119
483.564
470.557
456.192
440.581
423.835
406.049
387.286
367.574
346.9
325.217
302.456
278.535
253.374
226.895
199.032
169.723
138.901
106.492
72.3938
36.4766
-1.42573
-41.5155
-84.0271
-129.22
-177.367
-228.747
-283.629
-342.269
-404.899
-471.73
-542.945
-618.703
-699.136
-784.338
-874.363
-969.207
-1068.79
-1172.96
-1281.41
-1393.74
-1509.39
-1627.66
-1747.7
-1868.55
-1989.12
-2108.32
1506.26
1430.95
1355.62
1281.09
1208.15
1137.49
1069.72
1005.31
944.65
887.992
835.516
787.313
743.41
703.78
668.356
637.035
609.695
586.19
566.357
550.019
536.978
527.018
519.901
515.357
513.093
512.779
514.058
516.553
519.87
523.623
527.45
531.03
534.103
536.473
538.001
538.594
538.18
536.685
534.022
530.083
524.748
517.901
509.451
499.359
487.647
474.396
459.74
443.837
426.843
408.887
390.054
370.373
349.818
328.319
305.778
282.085
257.14
230.863
203.193
174.088
143.508
111.402
77.6916
42.2572
4.93416
-34.4895
-76.2678
-120.687
-168.05
-218.662
-272.817
-330.786
-392.813
-459.111
-529.87
-605.26
-685.426
-770.492
-860.55
-955.642
-1055.74
-1160.73
-1270.38
-1384.31
-1501.96
-1622.62
-1745.39
-1869.22
-1992.92
-2115.24
1509.55
1430.91
1352.28
1274.64
1198.87
1125.76
1055.94
989.921
928.052
870.568
817.598
769.185
725.307
685.893
650.838
620.012
593.269
570.452
551.392
535.911
523.819
514.908
508.946
505.671
504.785
505.946
508.772
512.839
517.7
522.903
528.026
532.701
536.652
539.695
541.74
542.756
542.733
541.642
539.41
535.91
530.97
524.41
516.082
505.912
493.922
480.238
465.065
448.645
431.216
412.971
394.026
374.414
354.081
332.909
310.744
287.425
262.815
236.825
209.412
180.57
150.307
118.62
85.4687
50.756
14.3196
-24.0701
-64.7016
-107.908
-154.043
-203.463
-256.498
-313.445
-374.554
-440.043
-510.102
-584.906
-664.625
-749.421
-839.445
-934.815
-1035.59
-1141.75
-1253.14
-1369.43
-1490.12
-1614.46
-1741.47
-1869.97
-1998.59
-2125.86
1514.16
1430.77
1347.46
1265.42
1185.71
1109.21
1036.64
968.493
905.087
846.595
793.072
744.484
700.736
661.692
627.196
597.076
571.16
549.273
531.243
516.896
506.054
498.525
494.096
492.52
493.503
496.693
501.673
507.958
515.011
522.276
529.219
535.392
540.48
544.33
546.937
548.389
548.797
548.217
546.602
543.784
539.499
533.441
525.344
515.061
502.615
488.205
472.163
454.884
436.746
418.042
398.943
379.475
359.535
338.916
317.359
294.609
270.467
244.828
217.68
189.089
159.15
127.942
95.4907
61.7354
26.5176
-10.4205
-49.4245
-90.904
-135.3
-183.047
-234.535
-290.091
-349.97
-414.374
-483.475
-557.446
-636.478
-720.785
-810.6
-906.154
-1007.64
-1115.18
-1228.76
-1348.17
-1472.95
-1602.36
-1735.33
-1870.46
-2006.12
-2140.46
1520.31
1430.43
1340.75
1252.78
1167.84
1086.96
1010.92
940.183
874.994
815.421
761.397
712.774
669.352
630.909
597.217
568.056
543.218
522.512
505.763
492.808
483.491
477.652
475.113
475.658
479.018
484.839
492.67
501.944
511.995
522.087
531.497
539.619
546.065
550.729
553.769
555.501
556.259
556.258
555.5
553.747
550.557
545.383
537.73
527.302
514.113
498.498
481.021
462.342
443.071
423.666
404.372
385.2
365.95
346.257
325.677
303.784
280.265
254.991
228.018
199.541
169.812
139.05
107.387
74.8185
41.1922
6.20485
-30.5795
-69.6956
-111.725
-157.233
-206.703
-260.498
-318.853
-381.918
-449.81
-522.672
-600.703
-684.18
-773.45
-868.902
-970.929
-1079.87
-1195.93
-1319.09
-1449.04
-1585.06
-1725.97
-1870.11
-2015.42
-2159.51
1528.35
1429.73
1331.5
1235.71
1144.03
1057.7
977.506
903.83
836.77
776.21
721.903
673.533
630.761
593.249
560.683
532.781
509.298
490.026
474.792
463.456
455.897
452.005
451.663
454.721
460.964
470.068
481.563
494.79
508.893
522.853
535.606
546.235
554.19
559.442
562.459
563.99
564.788
565.361
565.806
565.756
564.445
560.873
554.087
543.493
529.083
511.449
491.591
470.631
449.568
429.112
409.606
391.021
372.985
354.86
335.874
315.286
292.579
267.588
240.511
211.791
181.952
151.451
120.581
89.4224
57.8256
25.4182
-8.37512
-44.2879
-83.1355
-125.705
-172.634
-224.323
-280.937
-342.491
-408.969
-480.427
-557.055
-639.201
-727.359
-822.138
-924.213
-1034.25
-1152.8
-1280.18
-1416.32
-1560.64
-1711.86
-1868
-2026.36
-2183.72
1538.83
1428.36
1318.69
1212.66
1112.47
1019.56
934.644
857.903
789.144
727.956
673.821
626.198
584.561
548.434
517.402
491.115
469.287
451.698
438.186
428.641
422.997
421.222
423.295
429.177
438.765
451.831
467.938
486.352
505.972
525.332
542.75
556.675
566.179
571.35
573.262
573.506
573.617
574.624
576.796
579.557
581.563
580.965
575.902
565.155
548.671
527.581
503.724
479.049
455.173
433.168
413.497
396.037
380.131
364.689
348.361
329.826
308.168
283.178
255.359
225.642
195.038
164.378
134.188
104.653
75.6243
46.6267
16.8822
-14.6514
-49.1815
-87.8939
-131.702
-181.046
-235.894
-295.956
-360.935
-430.712
-505.435
-585.534
-671.697
-764.827
-865.988
-976.315
-1096.89
-1228.58
-1371.77
-1526.18
-1690.58
-1862.59
-2038.64
-2214.14
1552.59
1425.78
1300.56
1181.12
1070.37
969.839
879.958
800.435
730.574
669.504
616.329
570.208
530.395
496.254
467.262
443
423.148
407.477
395.845
388.185
384.505
384.878
389.422
398.274
411.537
429.192
450.968
476.154
503.402
530.582
554.898
573.455
584.38
587.925
586.44
583.189
581.129
582.182
586.91
594.42
602.406
607.459
605.875
595.055
574.867
547.673
517.014
486.293
458.064
433.844
414.187
398.795
386.592
375.779
364.011
348.847
328.542
302.83
272.928
240.763
208.196
176.619
146.843
119.153
93.3747
68.909
44.7156
19.3009
-9.20215
-42.7398
-82.7926
-129.832
-183.332
-242.327
-305.974
-373.854
-446.05
-523.107
-605.968
-695.916
-794.521
-903.573
-1024.94
-1160.34
-1311
-1477.27
-1658.25
-1851.29
-2051.6
-2252.38
1571.01
1420.84
1274.02
1137.01
1013.5
904.729
810.305
729.007
659.3
599.645
548.644
505.102
468.031
436.634
410.286
388.511
370.965
357.421
347.762
341.977
340.159
342.508
349.326
360.999
377.963
400.6
429.065
462.966
500.903
539.934
575.311
601.201
613.181
611.714
602.134
591.128
584.134
584.422
592.992
608.57
627.447
643.481
649.123
638.419
611.127
572.729
530.369
489.93
455.161
427.929
408.716
396.946
391.033
388.228
384.536
375.256
356.687
328.503
293.746
256.449
219.922
186.259
156.489
130.893
109.231
90.7959
74.3057
57.6997
38.0275
11.7982
-23.8175
-69.3103
-122.848
-181.987
-244.902
-310.763
-379.642
-452.296
-530.005
-614.503
-707.973
-813.05
-932.736
-1070.09
-1227.67
-1407.1
-1608.48
-1829.42
-2063.77
-2301.03
1596.45
1411.03
1233.26
1073.39
935.364
818.908
721.712
640.854
573.522
517.292
470.189
430.653
397.471
369.719
346.703
327.913
313.001
301.752
294.083
290.038
289.795
293.687
302.219
316.09
336.2
363.597
399.312
443.943
496.805
554.523
609.358
648.948
661.316
647.155
619.856
593.26
576.626
574.708
588.957
617.943
656.552
694.441
715.878
705.642
663.352
603.464
540.935
485.378
441.385
410.45
392.509
386.644
390.983
401.936
413.093
415.024
398.66
363.625
318.211
271.013
227.515
190.285
160.116
136.963
120.436
109.878
104.059
100.511
94.6973
79.852
49.3814
2.7998
-54.2939
-116.201
-179.574
-243.313
-307.782
-374.184
-444.242
-520.143
-604.674
-701.451
-815.049
-950.636
-1112.83
-1305.25
-1530.47
-1788.16
-2071.64
-2364.4
1633.31
1390.12
1166.65
978.255
826.118
705.308
609.546
533.184
471.723
421.769
380.815
347.028
319.07
295.966
277.013
261.715
249.743
240.913
235.172
232.608
233.462
238.169
247.407
262.183
283.927
314.597
356.702
413.046
485.692
573.235
665.331
735.863
747.622
701.488
636.534
581.022
547.9
541.688
563.672
613.429
686.666
769.058
828.213
818.992
740.887
637.977
541.438
464.154
408.784
374.239
358.897
361.629
381.392
415.333
454.915
481.118
467.505
413.675
345.23
280.236
226.072
184.137
153.633
133.483
123.04
122.132
130.538
146.58
164.367
170.402
145.777
90.0469
21.1938
-48.2972
-113.713
-174.8
-233.123
-290.79
-350.043
-413.332
-483.715
-565.598
-665.658
-792.829
-954.402
-1156.12
-1405.62
-1709.67
-2066.02
-2450.19
1690.45
1340.73
1049.49
830.85
671.713
555.599
469.415
404.029
353.331
313.261
281.098
254.991
233.662
216.221
202.046
190.713
181.949
175.612
171.675
170.243
171.57
176.112
184.61
198.229
218.787
249.114
293.572
358.656
453.102
585.365
752.322
907.38
917.257
782.888
639.586
536.517
480.398
468.041
498.37
575.078
703.564
877.102
1038.97
1031.5
854.111
663.286
514.189
411.356
346.177
310.36
299.244
312.073
351.369
420.589
515.982
604.527
594.241
484.754
367.266
273.851
207.011
161.517
132.234
116.021
111.906
120.967
146.017
190.127
250.953
305.092
286.958
196.186
97.598
13.7395
-54.0798
-110.257
-159.399
-205.099
-250.017
-296.287
-346.177
-403.547
-477.2
-585.447
-738.12
-938.135
-1202.13
-1555.78
-2020.26
-2573.43
1787.56
1207.03
827.744
597.715
455.322
362.758
299.309
253.701
219.614
193.351
172.647
156.06
142.644
131.76
122.975
116
110.653
106.843
104.563
103.896
105.04
108.351
114.43
124.273
139.569
163.27
200.726
261.968
366.035
547.506
856.413
1287.91
1294.57
877.114
584.672
424.378
349.858
332.905
366.26
462.141
655.556
1001.91
1493.56
1488.62
986.649
628.48
420.297
304.317
241.271
210.901
205.096
224.391
278.238
388.137
586.886
870.228
863.799
567.332
354.618
229.187
157.203
115.545
92.009
81.133
81.796
96.7696
134.041
209.594
347.154
543.838
532.724
313.568
152.787
52.6785
-11.209
-55.8415
-90.6252
-120.525
-148.036
-174.017
-197.854
-218.033
-238.912
-314.071
-453.633
-627.979
-869.465
-1242.22
-1846.66
-2766.25
1969.96
783.484
391.021
238.349
167.149
127.975
103.494
86.7672
74.6216
65.4247
58.2555
52.5562
47.9719
44.2688
41.2909
38.9352
37.1379
35.8675
35.123
34.9366
35.3835
36.6002
38.8222
42.4573
48.2432
57.611
73.6178
103.6
167.489
326.116
783.928
2280.17
2282.52
791.288
339.435
188.706
136.403
125.311
144.097
208.733
387.291
917.445
2663.15
2661.42
912.069
377.666
193.613
121.041
89.3017
76.0558
74.7985
86.9411
124.382
227.725
535.95
1553.16
1550.97
529.283
216.269
107.547
63.7199
43.4718
33.5492
29.6246
31.0746
40.4593
66.9319
139.76
358.197
1081.79
1078.04
346.875
120.597
39.4569
3.93479
-15.606
-28.8803
-39.3867
-48.2498
-54.8299
-54.7928
-31.5094
77.5366
50.0494
-119.041
-221.113
-347.735
-594.994
-1219.15
-3100.74
-2231.32
-2364.47
-2490.9
-2609.29
-2718.6
-2818.12
-2907.39
-2986.21
-3054.55
-3112.55
-3160.39
-3198.29
-3226.49
-3245.17
-3254.48
-2236.34
-2371.05
-2498.81
-2618.23
-2728.27
-2828.22
-2917.69
-2996.52
-3064.75
-3122.55
-3170.16
-3207.84
-3235.84
-3254.38
-3263.61
-2246.55
-2384.49
-2514.93
-2636.41
-2747.87
-2848.67
-2938.48
-3017.28
-3085.22
-3142.58
-3189.69
-3226.89
-3254.49
-3272.74
-3281.82
-2262.32
-2405.31
-2539.89
-2664.47
-2778.01
-2879.94
-2970.14
-3048.74
-3116.12
-3172.7
-3218.97
-3255.38
-3282.32
-3300.1
-3308.93
-2284.3
-2434.4
-2574.71
-2703.44
-2819.6
-2922.81
-3013.22
-3091.28
-3157.63
-3212.96
-3257.94
-3293.17
-3319.14
-3336.23
-3344.71
-2313.46
-2473.17
-2620.96
-2754.86
-2873.99
-2978.34
-3068.5
-3145.38
-3210.01
-3263.41
-3306.5
-3340.04
-3364.66
-3380.81
-3388.81
-2351.32
-2523.72
-2680.97
-2820.91
-2943
-3047.9
-3136.89
-3211.56
-3273.45
-3324.01
-3364.42
-3395.66
-3418.46
-3433.37
-3440.74
-2400.24
-2589.29
-2758.16
-2904.66
-3029.07
-3133.2
-3219.46
-3290.34
-3348.08
-3394.58
-3431.34
-3459.53
-3479.98
-3493.3
-3499.86
-2463.96
-2674.9
-2857.57
-3010.33
-3135.28
-3236.21
-3317.23
-3382.08
-3433.78
-3474.72
-3506.68
-3530.95
-3548.44
-3559.79
-3565.37
-2548.79
-2788.65
-2986.73
-3143.67
-3265.34
-3358.94
-3431.02
-3486.77
-3530.06
-3563.66
-3589.51
-3608.96
-3622.88
-3631.87
-3636.28
-2665.97
-2944.04
-3156.87
-3312.12
-3423.3
-3503.04
-3560.95
-3603.74
-3635.84
-3660.17
-3678.58
-3692.29
-3702.05
-3708.33
-3711.41
-2837.46
-3164.51
-3384.45
-3524.46
-3612.54
-3668.78
-3705.84
-3731.21
-3749.22
-3762.39
-3772.17
-3779.39
-3784.51
-3787.81
-3789.43
-3111.45
-3491.93
-3691.77
-3788.54
-3833.41
-3853.52
-3862.21
-3865.82
-3867.24
-3867.82
-3868.14
-3868.38
-3868.6
-3868.77
-3868.86
-3610.52
-3999.79
-4101.98
-4104.35
-4078.82
-4049.47
-4023.49
-4002.39
-3985.9
-3973.33
-3963.97
-3957.21
-3952.53
-3949.6
-3948.19
-4705.45
-4794.52
-4611.8
-4447.84
-4327.82
-4241.87
-4179.69
-4134.13
-4100.42
-4075.43
-4057.02
-4043.72
-4034.51
-4028.71
-4025.91
2909.81
2908.52
2906.05
2902.59
2898.54
2894.52
2891.62
2891.62
2897.64
2915.2
2954.58
3036.78
3211.63
3628.93
4873.53
2969.69
2968.72
2966.86
2964.31
2961.44
2958.84
2957.54
2959.29
2967.19
2986.79
3028.42
3111.72
3274.12
3579.94
4066.72
3030.14
3029.41
3028.03
3026.15
3024.03
3022.14
3021.23
3022.59
3028.49
3042.96
3073.19
3131.62
3236.9
3405.13
3599.57
3090.98
3090.45
3089.44
3088.03
3086.35
3084.64
3083.22
3082.63
3083.74
3088.06
3098.27
3118.85
3155.84
3211.98
3269.08
3152.07
3151.71
3151.01
3149.97
3148.59
3146.82
3144.53
3141.37
3136.63
3128.96
3116.04
3094.56
3061.37
3018.05
2979.89
3213.28
3213.1
3212.7
3212.04
3210.98
3209.25
3206.32
3201.08
3191.44
3173.38
3139.64
3078.28
2973.8
2820.42
2665.85
3274.51
3274.51
3274.46
3274.26
3273.71
3272.41
3269.58
3263.74
3251.97
3228.56
3182.31
3091.83
2920.09
2623.49
2246.15
3335.62
3335.83
3336.19
3336.6
3336.84
3336.5
3334.82
3330.39
3320.45
3299.47
3255.59
3161.69
2952.96
2482.52
1566.09
3396.46
3396.91
3397.77
3398.94
3400.25
3401.39
3401.85
3400.74
3396.48
3386.16
3363.47
3311.16
3167.47
2651.18
251.325
3456.86
3457.59
3459.01
3461.06
3463.65
3466.64
3469.85
3473.13
3476.58
3481.33
3491.79
3523.98
3640.6
4127.75
6505.67
3516.63
3517.65
3519.67
3522.68
3526.65
3531.61
3537.68
3545.27
3555.66
3572.39
3604.89
3678.02
3856.28
4291.15
5179.25
3575.57
3576.88
3579.52
3583.49
3588.84
3595.69
3604.31
3615.33
3630.21
3652.38
3689.63
3758.94
3893.6
4139.64
4471.45
3633.46
3635.07
3638.3
3643.2
3649.85
3658.41
3669.15
3682.57
3699.55
3721.77
3751.97
3794.33
3853.44
3928.42
3995.98
3690.1
3691.99
3695.8
3701.57
3709.42
3719.49
3732
3747.18
3765.14
3785.47
3805.72
3817.96
3802.12
3722.19
3569.35
3745.29
3747.45
3751.78
3758.36
3767.3
3778.74
3792.86
3809.7
3828.95
3849.08
3864.88
3860.95
3795.17
3566.45
3038.52
3798.86
3801.25
3806.06
3813.37
3823.3
3836.01
3851.68
3870.4
3892.02
3915.57
3937.61
3946.73
3901.25
3618.36
2143.01
3850.63
3853.23
3858.46
3866.42
3877.24
3891.09
3908.24
3928.95
3953.6
3982.97
4019.16
4070.31
4172.03
4498.23
5994.72
3900.45
3903.23
3908.83
3917.35
3928.92
3943.76
3962.18
3984.59
4011.78
4045.47
4090.17
4158.61
4286.78
4565.25
5117.9
3948.2
3951.13
3957.04
3966
3978.18
3993.81
4013.19
4036.78
4065.29
4100.19
4144.54
4205.28
4297.01
4441.68
4626.93
3993.78
3996.83
4002.96
4012.28
4024.92
4041.11
4061.15
4085.37
4114.23
4148.2
4187.39
4230.28
4270.3
4289.79
4266.68
4037.1
4040.23
4046.53
4056.09
4069.05
4085.61
4106.04
4130.6
4159.48
4192.44
4227.5
4257.11
4257.71
4167.33
3892.46
4078.09
4081.28
4087.68
4097.39
4110.52
4127.28
4147.91
4172.66
4201.75
4235.08
4271.23
4303.95
4308.13
4172.85
3329.46
4116.74
4119.94
4126.39
4136.15
4149.34
4166.13
4186.77
4211.55
4240.92
4275.61
4317.19
4370.45
4455.25
4669.96
5561.36
4153
4156.21
4162.65
4172.38
4185.5
4202.17
4222.6
4247.1
4276.23
4311.2
4354.88
4414.9
4512
4696.97
5035.97
4186.89
4190.07
4196.46
4206.09
4219.05
4235.44
4255.44
4279.27
4307.35
4340.59
4381.05
4433.45
4507.57
4616.85
4748.16
4218.42
4221.56
4227.86
4237.34
4250.06
4266.07
4285.47
4308.33
4334.73
4364.82
4398.77
4436.77
4478.55
4521.29
4553.72
4247.61
4250.71
4256.89
4266.19
4278.62
4294.2
4312.95
4334.76
4359.39
4386.2
4413.52
4437.3
4448.69
4432.72
4383.99
4274.51
4277.54
4283.61
4292.71
4304.84
4320
4338.13
4359.07
4382.39
4407.08
4430.57
4446.28
4437.69
4366.74
4182.61
4299.14
4302.11
4308.05
4316.95
4328.8
4343.57
4361.21
4381.56
4404.27
4428.64
4452.85
4471.97
4469.85
4379.2
3855.57
4321.55
4324.47
4330.28
4338.99
4350.57
4365
4382.25
4402.23
4424.86
4450.15
4478.49
4512.27
4563.32
4692.2
5234.96
4341.79
4344.64
4350.35
4358.87
4370.21
4384.33
4401.23
4420.9
4443.45
4469.37
4500.2
4540.4
4602.56
4717.62
4925.67
4359.88
4362.68
4368.28
4376.64
4387.75
4401.58
4418.13
4437.4
4459.53
4485.04
4515.22
4553.14
4604.91
4678.3
4763.12
4375.86
4378.62
4384.12
4392.34
4403.24
4416.8
4432.97
4451.73
4473.11
4497.29
4524.71
4556.09
4592.07
4630.88
4661.76
4389.77
4392.49
4397.91
4406.01
4416.73
4430.03
4445.85
4464.08
4484.57
4507.14
4531.29
4555.7
4577.11
4588.8
4584.12
4401.62
4404.32
4409.68
4417.68
4428.27
4441.37
4456.9
4474.68
4494.44
4515.73
4537.5
4557.23
4568.72
4557.94
4505.52
4411.44
4414.12
4419.45
4427.39
4437.89
4450.87
4466.21
4483.72
4503.08
4523.83
4544.97
4564.31
4575.64
4555.84
4392.82
4419.25
4421.92
4427.24
4435.16
4445.63
4458.57
4473.86
4491.29
4510.61
4531.48
4553.53
4576.8
4604
4653.05
4829.7
4425.03
4427.7
4433.04
4440.99
4451.5
4464.49
4479.85
4497.39
4516.88
4538.14
4561.09
4586.39
4617.01
4661.49
4731.12
4428.78
4431.48
4436.85
4444.86
4455.47
4468.6
4484.15
4501.95
4521.78
4543.45
4566.83
4592.13
4620.24
4652.28
4683.24
4430.5
4433.22
4438.65
4446.77
4457.52
4470.87
4486.72
4504.91
4525.23
4547.41
4571.08
4595.74
4620.58
4643.64
4659.24
4430.15
4432.91
4438.42
4446.66
4457.61
4471.24
4487.48
4506.22
4527.22
4550.18
4574.48
4599.05
4622
4640.03
4648.45
4427.72
4430.52
4436.11
4444.49
4455.66
4469.62
4486.35
4505.77
4527.7
4551.84
4577.5
4603.32
4626.68
4642.93
4645.88
4423.17
4426.01
4431.68
4440.21
4451.61
4465.92
4483.18
4503.38
4526.47
4552.26
4580.24
4609.13
4636.12
4654.91
4647.77
4416.48
4419.35
4425.1
4433.75
4445.36
4460.01
4477.79
4498.81
4523.18
4551
4582.18
4616.08
4651.1
4684.73
4721
4407.63
4410.52
4416.32
4425.07
4436.84
4451.75
4469.97
4491.73
4517.32
4547.23
4582.03
4622.1
4666.85
4712.53
4748.07
4396.59
4399.49
4405.31
4414.09
4425.95
4441.02
4459.53
4481.78
4508.28
4539.9
4578.03
4624.67
4681.78
4747.17
4802.35
4383.36
4386.25
4392.05
4400.81
4412.65
4427.73
4446.3
4468.69
4495.51
4527.88
4567.92
4619.79
4690.78
4788.72
4897.5
4367.96
4370.81
4376.54
4385.21
4396.93
4411.86
4430.22
4452.34
4478.7
4510.33
4549.42
4601.45
4680.86
4822.56
5070.77
4350.39
4353.19
4358.8
4367.3
4378.79
4393.42
4411.36
4432.83
4458.06
4487.43
4521.74
4563.91
4627.49
4782.25
5418.98
4330.7
4333.42
4338.88
4347.14
4358.3
4372.5
4389.87
4410.51
4434.35
4460.9
4488.4
4511.31
4510.6
4407.05
3797.21
4308.95
4311.57
4316.82
4324.77
4335.52
4349.2
4365.93
4385.78
4408.57
4433.52
4458.06
4474.91
4464.92
4383.24
4169.39
4285.21
4287.69
4292.69
4300.27
4310.52
4323.59
4339.64
4358.8
4381.1
4406.23
4432.86
4456.96
4468.83
4451
4395.76
4259.55
4261.89
4266.59
4273.72
4283.38
4295.74
4311
4329.44
4351.46
4377.72
4409.21
4447.29
4493.14
4544.51
4586.49
4232.09
4234.26
4238.62
4245.22
4254.19
4265.69
4279.96
4297.39
4318.69
4345.39
4380.77
4432.02
4513.43
4644.32
4809.1
4202.95
4204.92
4208.89
4214.9
4223.06
4233.53
4246.54
4262.45
4281.98
4306.83
4341.1
4395.63
4499.12
4720.39
5148.87
4172.26
4174.01
4177.54
4182.89
4190.14
4199.43
4210.9
4224.78
4241.4
4261.52
4287.14
4325.02
4402.82
4652.36
5788.92
4140.16
4141.68
4144.74
4149.37
4155.64
4163.62
4173.42
4185.01
4198.19
4212.21
4224.46
4226.49
4187.05
3968.13
2846.13
4106.83
4108.1
4110.66
4114.52
4119.75
4126.39
4134.48
4143.92
4154.21
4163.91
4168.69
4156.54
4095.7
3910.82
3501.78
4072.43
4073.44
4075.48
4078.55
4082.69
4087.97
4094.43
4102.02
4110.46
4118.84
4124.45
4120.2
4090.27
4008.94
3876.12
4037.15
4037.9
4039.39
4041.63
4044.67
4048.56
4053.4
4059.33
4066.55
4075.51
4086.84
4101.47
4120.33
4142.6
4160.96
4001.18
4001.65
4002.58
4003.98
4005.87
4008.31
4011.44
4015.52
4021.25
4030.32
4046.73
4079.61
4147.8
4278.75
4461.3
3964.7
3964.89
3965.27
3965.8
3966.51
3967.41
3968.61
3970.38
3973.44
3979.86
3994.97
4033.03
4131.46
4378.83
4891.14
3927.92
3927.83
3927.65
3927.33
3926.83
3926.13
3925.22
3924.13
3923.12
3923.15
3927.06
3944.33
4011.45
4294.7
5679.44
3891.01
3890.67
3889.95
3888.79
3887.12
3884.83
3881.75
3877.62
3871.91
3863.57
3849.66
3820.83
3741.15
3445.4
2049.69
3854.18
3853.59
3852.37
3850.43
3847.67
3843.9
3838.85
3832
3822.34
3807.66
3782.44
3732.43
3620.71
3359.77
2835.6
3817.58
3816.77
3815.1
3812.47
3808.74
3803.7
3797.02
3788.15
3776.09
3758.88
3732.23
3686.72
3603.71
3456.77
3260.01
3781.38
3780.38
3778.33
3775.11
3770.56
3764.46
3756.53
3746.32
3733.24
3716.5
3694.92
3666.88
3630.9
3588.2
3550.25
3745.71
3744.56
3742.19
3738.49
3733.28
3726.35
3717.45
3706.29
3692.76
3677.3
3661.9
3652.37
3662.58
3716.13
3816.6
3710.67
3709.41
3706.81
3702.75
3697.04
3689.46
3679.76
3667.73
3653.44
3637.9
3624.63
3623.97
3663.96
3811.28
4155.13
3676.35
3675.02
3672.28
3667.98
3661.93
3653.88
3643.53
3630.57
3614.83
3596.77
3578.42
3567.17
3590.63
3769.74
4734.85
3642.81
3641.45
3638.66
3634.27
3628.06
3619.75
3608.95
3595.15
3577.69
3555.66
3527.11
3486.1
3409.01
3182.18
2185.42
3610.05
3608.72
3605.98
3601.65
3595.51
3587.21
3576.29
3562.09
3543.57
3518.94
3484.27
3429.95
3331.24
3129.17
2747.63
3578.07
3576.82
3574.24
3570.15
3564.3
3556.33
3545.76
3531.86
3513.55
3489.04
3454.93
3404.47
3325.11
3200.67
3046.96
3546.81
3545.7
3543.39
3539.71
3534.41
3527.13
3517.4
3504.54
3487.68
3465.65
3436.79
3398.93
3350.16
3292.37
3241.6
3516.17
3515.26
3513.34
3510.25
3505.75
3499.49
3491.05
3479.85
3465.27
3446.87
3424.75
3400.83
3381.33
3379.05
3403.02
3486.03
3485.36
3483.94
3481.62
3478.16
3473.25
3466.47
3457.34
3445.39
3430.54
3413.82
3399.53
3400.4
3447.35
3583.07
3456.22
3455.85
3455.04
3453.64
3451.45
3448.16
3443.39
3436.64
3427.38
3415.36
3401.06
3387.56
3387.34
3453.86
3859.34
3426.52
3426.5
3426.39
3426.07
3425.36
3423.98
3421.55
3417.52
3411.17
3401.64
3387.6
3366.26
3327.81
3224.81
2794.18
3396.71
3397.07
3397.74
3398.63
3399.6
3400.4
3400.68
3399.86
3397.06
3390.92
3379.07
3356.71
3312.98
3223.21
3056.69
3366.52
3367.29
3368.8
3371.01
3373.82
3377.07
3380.45
3383.44
3385.13
3384.06
3377.72
3361.91
3330
3274.83
3205.29
3335.67
3336.86
3339.25
3342.84
3347.61
3353.51
3360.37
3367.78
3375
3380.73
3382.83
3378.16
3363.08
3336.33
3307.32
3303.86
3305.47
3308.73
3313.71
3320.49
3329.18
3339.78
3352.13
3365.78
3379.8
3392.53
3401.54
3404.15
3399.3
3390.9
3270.81
3272.81
3276.89
3283.19
3291.93
3303.39
3317.84
3335.45
3356.19
3379.65
3404.69
3429.24
3450.3
3464.64
3470.34
3236.25
3238.59
3243.38
3250.85
3261.37
3275.42
3293.58
3316.46
3344.59
3378.27
3417.07
3459.26
3501.01
3535.85
3555.41
3199.95
3202.54
3207.87
3216.27
3228.23
3244.47
3265.92
3293.69
3329.04
3373.23
3426.98
3489.46
3556.4
3617.58
3655.73
3161.73
3164.46
3170.11
3179.08
3192
3209.81
3233.76
3265.52
3307.22
3361.43
3430.72
3516.44
3615.68
3715.17
3784.21
3121.5
3124.24
3129.93
3139.03
3152.28
3170.76
3196.05
3230.33
3276.61
3339.05
3422.92
3533.91
3674.66
3833.79
3962.29
3079.25
3081.85
3087.27
3095.99
3108.79
3126.88
3151.99
3186.67
3234.68
3301.67
3396.15
3530.61
3720.76
3973.56
4231.25
3035.08
3037.38
3042.19
3049.99
3061.53
3078.01
3101.18
3133.65
3179.44
3245.07
3341.51
3488.51
3723.21
4109.79
4680.8
2989.21
2991.06
2994.94
3001.27
3010.74
3024.39
3043.79
3071.24
3110.33
3166.98
3251.62
3385.39
3620.07
4117.8
5528.52
-7769.49
-5771.93
-5061.73
-4722.2
-4524.64
-4396.24
-4307.46
-4243.81
-4197.22
-4162.8
-4137.45
-4119.09
-4106.34
-4098.29
-4094.39
-6576.97
-5766.26
-5213.17
-4872.85
-4655.38
-4508.91
-4405.99
-4331.51
-4276.6
-4235.79
-4205.56
-4183.56
-4168.22
-4158.5
-4153.78
-5949.75
-5581.47
-5216.66
-4938.01
-4736.63
-4591.17
-4484.62
-4405.46
-4346.04
-4301.29
-4267.81
-4243.26
-4226.04
-4215.09
-4209.76
-5580.58
-5394.07
-5160.14
-4949.31
-4778.89
-4646.23
-4544.09
-4465.53
-4405.12
-4358.81
-4323.71
-4297.72
-4279.35
-4267.61
-4261.89
-5343.25
-5239.41
-5087.4
-4932.37
-4794.74
-4679.95
-4587
-4512.84
-4454.24
-4408.41
-4373.14
-4346.72
-4327.9
-4315.81
-4309.89
-5180.38
-5117.99
-5016.57
-4903.17
-4794.56
-4698.33
-4616.69
-4549.17
-4494.33
-4450.52
-4416.26
-4390.29
-4371.62
-4359.55
-4353.62
-5063.18
-5023.49
-4953.88
-4870.48
-4785.58
-4706.43
-4636.41
-4576.53
-4526.58
-4485.85
-4453.47
-4428.62
-4410.6
-4398.87
-4393.09
-4975.88
-4949.6
-4900.58
-4838.64
-4772.44
-4708.02
-4648.92
-4596.83
-4552.28
-4515.22
-4485.3
-4462.05
-4445.04
-4433.9
-4428.39
-4909.18
-4891.32
-4856.06
-4809.58
-4757.89
-4705.75
-4656.39
-4611.7
-4572.61
-4539.48
-4512.33
-4490.99
-4475.23
-4464.85
-4459.7
-4857.24
-4844.94
-4819.18
-4783.95
-4743.47
-4701.39
-4660.46
-4622.51
-4588.63
-4559.43
-4535.16
-4515.88
-4501.53
-4492.02
-4487.28
-4816.2
-4807.72
-4788.7
-4761.79
-4729.99
-4696.07
-4662.28
-4630.31
-4601.24
-4575.79
-4554.38
-4537.19
-4524.29
-4515.7
-4511.4
-4783.41
-4777.64
-4763.52
-4742.86
-4717.81
-4690.47
-4662.69
-4635.91
-4611.17
-4589.2
-4570.5
-4555.35
-4543.9
-4536.23
-4532.39
-4756.97
-4753.19
-4742.71
-4726.8
-4707.04
-4685.03
-4662.25
-4639.92
-4618.99
-4600.18
-4584
-4570.78
-4560.72
-4553.95
-4550.54
-4735.53
-4733.22
-4725.49
-4713.25
-4697.66
-4679.95
-4661.31
-4642.78
-4625.18
-4609.18
-4595.28
-4583.84
-4575.08
-4569.16
-4566.17
-4718.03
-4716.86
-4711.24
-4701.85
-4689.57
-4675.34
-4660.14
-4644.82
-4630.08
-4616.55
-4604.7
-4594.86
-4587.3
-4582.16
-4579.56
-4703.71
-4703.41
-4699.43
-4692.29
-4682.65
-4671.26
-4658.9
-4646.27
-4633.99
-4622.6
-4612.54
-4604.15
-4597.66
-4593.23
-4590.99
-4691.96
-4692.33
-4689.65
-4684.29
-4676.77
-4667.68
-4657.66
-4647.3
-4637.1
-4627.56
-4619.08
-4611.95
-4606.41
-4602.62
-4600.7
-4682.31
-4683.22
-4681.55
-4677.61
-4671.8
-4664.59
-4656.51
-4648.03
-4639.6
-4631.63
-4624.5
-4618.48
-4613.78
-4610.55
-4608.9
-4674.39
-4675.72
-4674.87
-4672.06
-4667.63
-4661.95
-4655.45
-4648.54
-4641.59
-4634.97
-4629
-4623.92
-4619.94
-4617.2
-4615.8
-4667.91
-4669.57
-4669.37
-4667.47
-4664.16
-4659.72
-4654.52
-4648.91
-4643.19
-4637.69
-4632.7
-4628.44
-4625.08
-4622.76
-4621.57
-4662.62
-4664.56
-4664.87
-4663.7
-4661.28
-4657.85
-4653.71
-4649.17
-4644.47
-4639.91
-4635.74
-4632.16
-4629.32
-4627.36
-4626.35
-4658.36
-4660.5
-4661.22
-4660.64
-4658.93
-4656.31
-4653.03
-4649.34
-4645.48
-4641.69
-4638.2
-4635.19
-4632.79
-4631.12
-4630.26
-4654.96
-4657.27
-4658.31
-4658.18
-4657.04
-4655.05
-4652.46
-4649.47
-4646.28
-4643.11
-4640.17
-4637.62
-4635.58
-4634.15
-4633.42
-4652.32
-4654.76
-4656.04
-4656.26
-4655.55
-4654.06
-4652
-4649.55
-4646.88
-4644.21
-4641.7
-4639.52
-4637.76
-4636.53
-4635.9
-4650.35
-4652.88
-4654.34
-4654.82
-4654.43
-4653.31
-4651.64
-4649.6
-4647.33
-4645.03
-4642.86
-4640.95
-4639.41
-4638.33
-4637.78
-4648.98
-4651.57
-4653.16
-4653.81
-4653.64
-4652.78
-4651.39
-4649.62
-4647.64
-4645.59
-4643.66
-4641.95
-4640.57
-4639.6
-4639.1
-4648.16
-4650.8
-4652.45
-4653.21
-4653.16
-4652.45
-4651.22
-4649.62
-4647.81
-4645.93
-4644.14
-4642.56
-4641.28
-4640.38
-4639.91
-4647.89
-4650.53
-4652.2
-4652.99
-4652.98
-4652.31
-4651.13
-4649.6
-4647.85
-4646.03
-4644.31
-4642.78
-4641.55
-4640.68
-4640.22
-4648.14
-4650.76
-4652.4
-4653.14
-4653.08