/*--------------------------------*- C++ -*----------------------------------*\
| =========                 |                                                 |
| \\      /  F ield         | OpenFOAM: The Open Source CFD Toolbox           |
|  \\    /   O peration     | Version:  5.x                                   |
|   \\  /    A nd           | Web:      www.OpenFOAM.org                      |
|    \\/     M anipulation  |                                                 |
\*---------------------------------------------------------------------------*/
FoamFile
{
    version     2.0;
    format      ascii;
    class       volScalarField;
    location    "1.3";
    object      gradTy;
}
// * * * * * * * * * * * * * * * * * * * * * * * * * * * * * * * * * * * * * //

dimensions      [0 -1 0 1 0 0 0];

internalField   nonuniform List<scalar> 
6300
(
7911.91
21716.5
35463.1
49112.9
62626.4
75963.5
89083.7
101946
114508
126729
138569
149988
160952
171427
181388
28.2354
84.8698
141.978
199.817
258.552
318.215
378.653
439.477
500.015
559.273
615.933
668.384
714.814
753.366
782.342
46.8761
140.919
235.811
332.022
429.879
529.487
630.648
732.766
834.76
934.985
1031.2
1120.62
1200.05
1266.18
1315.92
65.2223
196.114
328.31
462.562
599.428
739.172
881.643
1026.13
1171.22
1314.64
1453.19
1582.77
1698.51
1795.27
1868.16
83.1177
249.99
418.733
590.459
766.062
946.085
1130.57
1318.83
1509.26
1699.06
1884.06
2058.61
2215.84
2348.1
2447.98
100.372
301.98
506.146
714.444
928.227
1148.48
1375.63
1609.27
1847.83
2088.18
2325.22
2551.65
2757.96
2933.14
3065.97
116.755
351.395
589.397
832.901
1083.86
1343.91
1614.11
1894.68
2184.49
2480.45
2776.84
3064.61
3331.04
3560.3
3735.36
132
397.424
667.108
943.849
1230.35
1529.08
1842.12
2170.73
2514.83
2872.11
3236.89
3598.69
3941.06
4241.44
4473.45
145.815
439.171
737.722
1044.98
1364.51
1699.86
2054.43
2431.14
2831.82
3256.09
3699.7
4151.96
4592.82
4990.68
5303.94
157.895
475.695
799.581
1133.78
1482.76
1851.3
2244.46
2667.42
3125.01
3620.53
4153.63
4716.38
5287.27
5824.18
6260.96
167.953
506.104
851.076
1207.72
1581.36
1977.99
2404.53
2868.91
3380.05
3947.15
4577.65
5272.33
6015.37
6757.43
7395.87
175.757
529.66
890.844
1264.59
1656.85
2074.65
2526.59
3023.45
3578.91
4210.12
4937.19
5779.59
6744.05
7793.84
8787.69
181.164
545.899
917.998
1302.86
1706.69
2137.04
2603.57
3119.19
3701.81
4376.96
5181.07
6164.39
7386.93
8885.63
10548.4
184.15
554.741
932.334
1322.07
1729.89
2163.12
2631.3
3147.72
3731.97
4414.55
5245.42
6309.54
7753.13
9812.75
12742.9
184.836
556.546
934.469
1323.11
1727.59
2154.09
2610.62
3108.24
3663.56
4303.57
5076.17
6074.78
7502.83
9868.69
14675.9
190029
197505
204598
211308
217639
223598
229196
234447
239364
243966
248270
252296
256062
259588
262893
265997
268917
271672
274277
276750
279105
281357
283518
285601
287616
289572
291479
293343
295169
296963
298726
300462
302172
303855
305512
307142
308743
310315
311854
313360
314830
316261
317650
318996
320294
321542
322737
323876
324956
325974
326929
327816
328633
329376
330042
330627
331126
331534
331846
332055
332157
332143
332007
331741
331336
330783
330072
329191
328128
326870
325400
323705
321766
319566
317086
314306
311205
307763
303958
299767
295170
290145
284671
278730
272304
265381
257949
250002
241538
232559
798.923
805.967
804.884
795.905
779.561
756.623
728.027
694.798
657.973
618.547
577.427
535.415
493.193
451.326
410.27
370.39
331.973
295.243
260.384
227.551
196.88
168.501
142.54
119.12
98.3527
80.3308
65.1106
52.6954
43.0185
35.9329
31.2109
28.557
27.6361
28.1098
29.675
32.0937
35.2063
38.9261
43.2167
48.0603
53.4254
59.2434
65.4008
71.7502
78.1354
84.4249
90.5424
96.4865
102.335
108.235
114.376
120.965
128.192
136.209
145.113
154.946
165.71
177.386
189.967
203.478
218
233.668
250.672
269.238
289.608
312.015
336.656
363.678
393.167
425.138
459.549
496.306
535.281
576.317
619.226
663.782
709.697
756.59
803.956
851.139
897.307
941.447
982.376
1018.78
1049.28
1072.5
1087.21
1092.39
1087.38
1071.92
1344.31
1356.21
1354.05
1338.24
1309.77
1270.05
1220.76
1163.72
1100.76
1033.59
963.778
892.668
821.395
750.886
681.881
614.959
550.569
489.063
430.72
375.78
324.456
276.958
233.498
194.286
159.529
129.405
104.035
83.4516
67.5595
56.1146
48.7156
44.8269
43.831
45.1036
48.0923
52.3793
57.7074
63.9674
71.1491
79.2737
88.3257
98.2027
108.699
119.529
130.379
140.982
151.18
160.963
170.478
180.007
189.915
200.592
212.396
225.602
240.372
256.757
274.723
294.194
315.118
337.51
361.492
387.302
415.28
445.839
479.418
516.443
557.275
602.178
651.295
704.648
762.144
823.61
888.818
957.506
1029.38
1104.11
1181.24
1260.2
1340.19
1420.16
1498.72
1574.17
1644.48
1707.36
1760.36
1801.05
1827.17
1836.88
1828.93
1802.84
1909.56
1926.57
1922.69
1898.64
1856.01
1797.07
1724.45
1640.98
1549.4
1452.25
1351.8
1249.95
1148.3
1048.08
950.299
855.692
764.831
678.147
595.983
518.629
446.355
379.438
318.173
262.877
213.876
171.476
135.913
107.297
85.5429
70.3169
61.0125
56.7781
56.6065
59.4729
64.487
71.0118
78.7126
87.5268
97.5683
108.996
121.881
136.112
151.359
167.118
182.818
197.963
212.254
225.662
238.441
251.072
264.182
278.433
294.418
312.576
333.138
356.125
381.397
408.742
437.982
469.078
502.178
537.638
575.996
617.909
664.085
715.205
771.845
834.417
903.132
977.992
1058.82
1145.32
1237.13
1333.89
1435.23
1540.74
1649.92
1762.09
1876.23
1990.96
2104.37
2214.05
2317.03
2409.9
2488.92
2550.3
2590.49
2606.52
2596.36
2559.17
2504.38
2526.88
2520.24
2485.64
2425.62
2343.63
2243.67
2129.8
2005.93
1875.57
1741.71
1606.87
1473.01
1341.69
1214.05
1090.94
972.995
860.648
754.251
654.099
560.483
473.725
394.203
322.357
258.676
203.66
157.75
121.226
94.0916
75.9591
65.9762
62.8476
64.9764
70.7186
78.6755
87.9203
98.0839
109.288
121.961
136.588
153.469
172.528
193.251
214.76
236.025
256.141
274.564
291.235
306.581
321.413
336.771
353.74
373.274
396.049
422.371
452.163
485.046
520.514
558.131
597.712
639.414
683.752
731.538
783.782
841.573
905.954
977.804
1057.74
1146.04
1242.66
1347.24
1459.29
1578.23
1703.58
1834.94
1971.96
2114.19
2260.99
2411.29
2563.49
2715.24
2863.41
3003.98
3132.2
3242.7
3329.9
3388.43
3413.7
3402.5
3353.45
3140.42
3168.96
3157.83
3109.06
3026.65
2915.92
2782.73
2632.88
2471.69
2303.78
2132.95
1962.25
1793.99
1629.89
1471.18
1318.7
1173.02
1034.52
903.468
780.105
664.688
557.552
459.145
370.048
290.971
222.71
166.049
121.614
89.6615
69.8505
61.0556
61.3325
68.1297
78.7622
90.9968
103.493
115.944
128.923
143.527
160.924
181.906
206.536
234
262.739
290.871
316.743
339.383
358.702
375.444
390.98
407.024
425.337
447.446
474.398
506.59
543.726
584.951
629.166
675.426
723.261
772.823
824.866
880.623
941.628
1009.53
1085.9
1172.07
1268.95
1376.92
1495.78
1624.86
1763.23
1910
2064.52
2226.42
2395.55
2571.77
2754.7
2943.49
3136.51
3331.12
3523.52
3708.56
3879.83
4029.85
4150.59
4234.06
4273.23
4262.96
4200.96
3832.64
3867.93
3849.46
3780.73
3668.29
3520.38
3345.62
3152.14
2947.01
2736.09
2523.95
2314.06
2108.93
1910.3
1719.31
1536.65
1362.7
1197.66
1041.63
894.69
756.998
628.845
510.721
403.357
307.745
225.11
156.803
104.089
67.813
47.9453
43.1398
50.497
65.8296
84.5684
103.012
119.201
133.113
146.288
161.141
180.17
205.162
236.535
272.984
311.667
349.045
382.07
409.057
429.951
446.116
459.885
474.078
491.537
514.713
545.269
583.756
629.466
680.613
734.933
790.511
846.38
902.711
960.682
1022.2
1089.59
1165.32
1251.77
1350.94
1464.22
1592.13
1734.19
1889.09
2055.07
2230.6
2414.79
2607.44
2808.88
3019.61
3239.92
3469.52
3707.12
3950.1
4194.11
4432.84
4657.89
4859.04
5024.79
5143.34
5203.78
5197.78
5121.27
4601.16
4644.06
4613.22
4515.11
4360.8
4163.28
3935.26
3687.94
3430.47
3169.93
2911.5
2658.83
2414.36
2179.58
1955.32
1741.93
1539.45
1347.75
1166.61
995.883
835.504
685.638
546.75
419.696
305.793
206.843
125.07
62.869
22.3113
4.32823
7.68819
28.1564
58.6039
90.7798
118.251
138.167
151.325
161.215
172.722
190.806
219.205
259.201
308.726
362.45
413.463
456.066
487.478
507.987
520.211
528.155
536.399
549.477
571.324
604.687
650.49
707.344
771.667
838.848
905.135
968.789
1030.19
1091.34
1155.26
1225.46
1305.62
1399.24
1509.41
1638.34
1786.85
1954.03
2137.24
2333.02
2538.6
2752.72
2975.64
3208.66
3453.47
3711.58
3983.8
4269.76
4567.33
4872.06
5176.55
5470.11
5738.89
5966.68
6135.97
6229.69
6233.82
6140.73
5474.8
5526.08
5473.56
5330.08
5115.23
4849.8
4552.4
4238.07
3918.09
3600.43
3290.47
2991.54
2705.57
2433.47
2175.45
1931.28
1700.48
1482.41
1276.44
1082
898.708
726.469
565.595
416.963
282.176
163.72
65.034
-9.63106
-55.8088
-70.1314
-52.5071
-8.66197
48.7809
103.656
144.261
166.752
174.13
173.702
174.721
186.477
216.436
268.031
338.307
417.021
489.875
546.06
581.478
597.83
600.351
595.871
591.638
594.666
611.224
646.065
701.182
774.334
858.473
943.914
1023.41
1094.3
1157.88
1217.86
1279.11
1346.85
1426.34
1522.72
1640.7
1784.05
1954.5
2150.58
2367.05
2596.64
2834.07
3077.72
3329.02
3591.16
3867.86
4162.58
4477.96
4815.3
5173.88
5549.97
5935.6
6317.56
6677.33
6992.33
7236.95
7384.15
7409.35
7297.2
6497.87
6557.22
6464.46
6247.43
5942.1
5581.98
5193.6
4796.07
4402.11
4019.68
3653.36
3305.43
2976.69
2666.96
2375.53
2101.31
1843.09
1599.6
1369.61
1152.02
945.976
750.921
566.81
394.299
235.058
92.1471
-29.5638
-123.121
-179.765
-190.557
-150.423
-65.0248
42.6891
137.115
196.384
217.129
208.205
184.137
161.294
155.968
182.55
249.996
355.771
480.065
590.32
665.986
702.96
707.619
690.599
663.262
636.451
620.403
624.828
658.276
725.927
825.526
943.421
1057.55
1154.09
1230.34
1290.73
1342.57
1393.62
1451.3
1522.75
1615.05
1735.45
1890.69
2085.21
2317.69
2577.88
2848.87
3120.48
3391.56
3666.66
3952.55
4256.14
4583.65
4940.29
5330.04
5754.97
6213.85
6699.63
7196.65
7679.89
8118.98
8477.84
8713.87
8782.29
8649.2
7745.13
7806.94
7633.89
7291.5
6847.51
6354.46
5847.65
5348.58
4869.22
4415.46
3989.53
3591.49
3220.21
2873.95
2550.65
2248.17
1964.38
1697.24
1444.82
1205.36
977.348
759.563
551.276
352.495
164.402
-9.96768
-164.711
-289.766
-369.744
-384.314
-313.514
-153.524
55.727
221.191
303.973
310.222
264.079
192.801
122.635
79.5056
89.8161
176.76
346.562
563.314
740.559
841.617
870.962
848.615
795.69
729.884
665.755
616.645
596.629
621.219
704.652
850.353
1033.76
1196.51
1313.94
1389.18
1435.88
1468.36
1498.51
1535.9
1589.05
1666.86
1779.93
1940.7
2161.14
2444.81
2773.02
3100.06
3407.5
3699.44
3988.58
4288.22
4609.73
4962.51
5354.67
5793.8
6286.86
6838.65
7447.11
8095.18
8745.56
9360.71
9895.1
10284.4
10444.9
10294.8
9360.06
9394.34
9046.66
8481.42
7823.11
7146.35
6490.17
5872.33
5299.09
4770.84
4285.22
3838.71
3427.45
3047.61
2695.56
2367.9
2061.52
1773.51
1501.2
1242.09
993.859
754.41
521.95
295.21
73.9009
-140.416
-342.672
-521.376
-653.962
-701.053
-605.091
-313.015
131.751
424.257
521.694
478.683
356.073
199.795
44.9762
-73.9741
-113.334
-15.8598
269.674
703.379
1000.43
1120.43
1113.32
1033.56
919.254
794.012
673.355
570.918
504.124
499.351
593.631
820.794
1153.75
1400.64
1534.42
1589.02
1601.39
1597.38
1592.85
1597.69
1619.69
1667.79
1755.56
1904.65
2145.83
2507.6
2969.66
3379.25
3716.57
4011.1
4295.08
4592.09
4918
5284.29
5701.06
6179.49
6733.77
7381.37
8137.04
8989.82
9861.41
10718.1
11520.6
12183.9
12554.1
12421.4
11674.3
11531.1
10772.1
9804.79
8824.72
7908.13
7077.03
6331.49
5663.84
5064.54
4524.33
4034.95
3589.25
3181.09
2805.17
2456.87
2132.07
1827.09
1538.5
1263.08
997.676
739.158
484.362
230.098
-26.6661
-288.216
-554.523
-819.363
-1061.25
-1223.74
-1179.03
-692.349
427.041
908.222
941.655
761.764
496.547
204.698
-84.3182
-342.042
-513.499
-479.26
-20.5631
1040.23
1515.24
1582.28
1460.29
1268.24
1058.57
851.546
654.729
473.878
322.324
234.864
291.269
638.896
1397.69
1767.6
1868.92
1849.64
1790.45
1727.14
1673.64
1634.76
1612.71
1611.55
1642.83
1735.95
1956.79
2425.86
3241.73
3762.38
4087.07
4337.78
4582.61
4854.1
5167.86
5533.12
5958.36
6455.62
7045.92
7768.06
8686.67
9856.89
10998.1
12153.1
13345.8
14504.9
15386.7
15462.1
15667.9
14554
12796.6
11145.9
9734.33
8546.26
7540.2
6678.02
5929.77
5272.78
4689.9
4167.97
3696.72
3267.91
2874.81
2511.77
2173.91
1856.89
1556.71
1269.52
991.463
718.454
445.929
168.519
-120.394
-429.206
-768.51
-1150.41
-1582.87
-2044.8
-2389.4
-1982.79
1641.29
2036.86
1668.72
1167.64
675.308
205.467
-258.716
-734.369
-1209.89
-1553.91
-1177.86
2220.56
2617.44
2316.26
1908.07
1528.24
1194
894.327
613.061
334.607
48.1862
-236.825
-430.497
-135.13
2201.52
2521.26
2376.96
2167.64
1985.36
1842.68
1733.29
1647.48
1575.53
1508.51
1440.95
1383.19
1410.18
1844.57
3938.73
4427.42
4563.88
4672.62
4831.47
5054.93
5343.24
5695.19
6111.59
6597.35
7167.77
7871.34
8873.45
10765.1
12114.4
13532.9
15218.6
17224.1
19379.6
20698.3
25093.4
18502.7
14666.6
12141.8
10321.4
8921.71
7795.67
6860.04
6063.88
5373.94
4767.36
4227.74
3742.8
3303.06
2900.95
2530.23
2185.58
1862.31
1556.07
1262.7
977.887
696.97
414.465
123.453
-185.501
-526.304
-921.161
-1408.64
-2062.03
-3034.74
-4681.44
-7906.34
7504.49
4265.13
2587.1
1560.83
821.62
198.049
-416.624
-1126.89
-2095.65
-3665.41
-6687.36
7723.02
4724.74
3204.27
2314.91
1722.54
1279.59
910.564
567.308
206.783
-227.997
-840.052
-1856.48
-3848.62
5909.61
3943.03
2978.55
2446.6
2123.15
1910.19
1758.89
1640.17
1531.17
1406.16
1224.87
908.325
276.828
-1126.88
6947.38
5599.4
5080.35
4935.03
4987.01
5162.08
5426.63
5764.13
6164.55
6616.75
7097.42
7544.21
7778.75
12453.6
13130.3
14527.3
16629.7
19726.7
24576
33048.4
222124
210030
197255
183840
169829
155271
140220
124731
108858
92655.7
76178.3
59477.9
42605.8
25611.9
8545.36
1043.62
998.981
942.417
876.278
803.103
725.343
645.15
564.256
483.929
404.982
327.832
252.57
179.025
106.836
35.512
1754.57
1678.11
1581.24
1468.21
1343.54
1211.56
1075.99
939.768
804.987
672.951
544.279
419.038
296.869
177.103
58.8598
2489.13
2377.5
2236.09
2071.62
1891.16
1701.25
1507.38
1313.74
1123.22
937.49
757.251
582.411
412.304
245.848
81.6879
3258.72
3106.51
2913.82
2690.89
2448.1
2194.78
1938.42
1684.5
1436.55
1196.46
964.757
741.009
524.066
312.291
103.733
4077.02
3875.84
3621.66
3329.86
3015.45
2691.23
2366.93
2049.2
1741.96
1446.94
1164.23
892.742
630.622
375.497
124.681
4961.11
4698.01
4366.97
3991.3
3592.48
3187.62
2788.76
2403.32
2035.06
1685.04
1352.39
1035.04
730.135
434.366
144.166
5933.28
5587.8
5156.62
4675.63
4175.33
3677.82
3196.99
2740.14
2309.86
1905.68
1525.18
1164.83
820.458
487.633
161.77
7024.17
6562.85
5995.69
5378.91
4755.08
4151.06
3581
3050.17
2558.42
2102.54
1677.76
1278.55
899.181
533.904
177.037
8278.17
7643.41
6884.05
6088.97
5314.74
4590.15
3925.57
3320.91
2770.93
2268.19
1804.64
1372.35
963.754
571.729
189.497
9761.74
8848.15
7807.81
6777.87
5824.49
4968.99
4209.99
3536.81
2936.05
2394.51
1900.17
1442.36
1011.69
599.722
198.705
11576.7
10179
8720.61
7389.7
6236
5250.99
4408.34
3680.06
3041.79
2473.51
1959.03
1485.15
1040.86
616.724
204.294
13867.1
11570.1
9505.44
7823.84
6478.46
5390.35
4492
3733.09
3077.37
2498.57
1977.19
1498.25
1049.82
621.979
206.029
16713.9
12728
9906.77
7921.3
6463.26
5339.65
4435.96
3682.69
3035.84
2466.07
1952.77
1480.73
1038.14
615.303
203.859
19198.7
12720.4
9471.69
7490.86
6113.24
5068.73
4229.2
3525.66
2917.07
2376.95
1886.97
1433.69
1006.62
597.2
197.956
183.733
552.916
927.306
1310.57
1706.69
2120.23
2556.6
3022.81
3528.53
4088.69
4728.73
5496.85
6493.47
7947.42
10416.2
181.398
545.578
913.909
1289.17
1674.16
2071.62
2484.18
2914.11
3362.82
3829.82
4309.91
4784.07
5185.11
5253.9
3893.6
178.097
535.333
895.656
1260.97
1632.89
2012.45
2399.61
2792.24
3184.24
3561.69
3895.04
4121.89
4107.21
3552.56
1834.01
174.064
522.922
873.897
1228.12
1586.23
1947.91
2311.14
2670.71
3015.62
3324.01
3553.97
3627.28
3404.09
2659.33
1128.13
169.516
509.02
849.843
1192.53
1537.04
1882.24
2225.12
2559.27
2872.24
3140.65
3321.56
3338.41
3063.07
2312.13
925.715
164.635
494.18
824.456
1155.63
1487.3
1818.11
2145.08
2462.45
2759.7
3017.93
3202.96
3252.3
3052.2
2406.14
1046.2
159.557
478.813
798.414
1118.33
1438.1
1756.58
2071.62
2379.49
2674.16
2945.95
3178.45
3339.32
3350.93
2995.81
1675.29
154.376
463.187
772.121
1081.09
1389.73
1697.39
2003.07
2305.61
2604.41
2901.18
3203.54
3529.89
3904.22
4255.81
3714.09
149.147
447.457
745.776
1044.02
1342.01
1639.54
1936.63
2234.23
2535.98
2852.45
3211.85
3687.05
4473.19
6136.04
10535.1
143.905
431.704
719.454
1007.09
1294.56
1581.94
1869.78
2159.91
2457.21
2773.86
3139.62
3628.17
4433.22
6116
10530.1
138.667
415.972
693.185
970.243
1247.12
1523.96
1801.29
2080.53
2364.91
2661.09
2982.03
3349.38
3783.6
4199.06
3702.61
133.446
400.293
667.001
933.481
1199.67
1465.6
1731.43
1997.54
2264.32
2531.07
2792.13
3024.07
3146.91
2915.28
1672.82
128.255
384.703
640.958
896.888
1152.36
1407.24
1661.32
1914.04
2163.68
2404.91
2622.38
2774.44
2756.29
2333.38
1103.53
123.107
369.239
615.123
860.585
1105.43
1349.4
1592.1
1832.62
2068.81
2295.2
2497.98
2642.95
2646.67
2311.8
1212.84
118.012
353.939
589.568
824.688
1059.07
1292.42
1524.33
1754.16
1980.7
2201.81
2413.67
2609.47
2772.12
2820.78
2243.47
112.984
338.838
564.351
789.285
1013.39
1236.38
1457.98
1677.92
1896.31
2114.78
2340.45
2598.94
2976.67
3764.41
5989.05
108.03
323.966
539.522
754.439
968.452
1181.29
1392.73
1602.71
1811.82
2022.69
2244.38
2505.55
2896.43
3710.1
5970.51
103.162
309.348
515.121
720.202
924.304
1127.14
1328.46
1528.07
1726.05
1923.05
2120.82
2322.04
2522.5
2651.05
2186.91
98.3849
295.008
491.188
686.625
881.009
1074.02
1265.33
1454.52
1640.93
1822.83
1994.81
2139
2198.45
2003.53
1118.31
93.7077
280.967
467.758
653.759
838.642
1022.06
1203.64
1382.87
1558.88
1729.45
1888.04
2014.77
2050.99
1835.33
988.145
89.1361
267.245
444.863
621.653
797.27
971.354
1143.53
1313.42
1480.58
1644.36
1803.35
1953.33
2078.39
2105.66
1642.06
84.6754
253.858
422.531
590.346
756.94
921.943
1085
1245.84
1404.58
1562.54
1724.88
1909.15
2173.64
2716.82
4254.62
80.3297
240.817
400.784
559.87
717.696
873.861
1027.96
1179.69
1329.1
1477.63
1631.13
1809.22
2075.29
2637.19
4221.04
76.1014
228.132
379.639
530.255
679.586
827.189
972.557
1115.1
1254.19
1389.25
1520.25
1648.16
1771.43
1847.82
1526.64
71.9913
215.804
359.102
501.521
642.66
782.049
919.087
1052.9
1182.03
1303.64
1411.49
1490.27
1500.08
1334.48
729.504
67.9975
203.829
339.167
473.662
606.932
738.523
867.832
993.923
1115.06
1227.57
1322.86
1380.25
1350.5
1126.23
525.42
64.1154
192.193
319.809
446.644
572.357
696.565
818.793
938.359
1054.06
1163.41
1260.53
1330.69
1335.96
1179.42
633.844
60.3381
180.874
300.987
420.394
538.813
655.964
771.585
885.454
997.455
1107.72
1216.88
1326.16
1433.75
1502.74
1243.71
56.6574
169.844
282.648
394.822
506.138
616.413
725.577
833.827
942.029
1052.76
1173.12
1322.77
1558.28
2053.8
3401.02
53.0647
159.077
264.742
369.839
474.176
577.622
680.188
782.216
884.828
991.085
1108.98
1259.72
1502.22
2013.31
3385.77
49.5523
148.549
247.225
345.377
442.824
539.432
635.163
730.183
825.079
921.309
1022.01
1132.92
1259.57
1374.58
1194.3
46.1141
138.242
230.069
321.4
412.049
501.843
590.624
678.227
764.391
848.409
927.937
995.166
1024.97
940.858
536.354
42.7454
128.142
213.254
297.893
381.864
464.954
546.896
627.262
705.185
778.617
842.389
883.379
869.475
729.609
342.417
39.4421
118.238
196.767
274.848
352.287
428.86
504.26
577.991
649.094
715.528
772.66
809.709
801.446
690.108
355.176
36.2002
108.519
180.59
252.247
323.312
393.579
462.785
530.544
596.248
658.9
716.881
767.51
805.007
805.892
628.655
33.0154
98.971
164.702
230.059
294.891
359.036
422.316
484.529
545.528
605.525
666.219
734.449
834.014
1045.4
1652.22
29.8828
89.5801
149.074
208.237
266.949
325.1
382.592
439.365
495.512
551.68
610.341
679.651
785.402
1010.37
1639.04
26.7982
80.331
133.678
186.731
239.401
291.627
343.375
394.646
445.495
496.122
547.09
599.576
654.038
695.055
585.989
23.758
71.2122
118.489
165.493
212.167
258.493
304.501
350.231
395.647
440.35
482.809
518.161
532.052
484.007
271.115
20.7611
62.2182
103.491
144.49
185.179
225.589
265.829
306.051
346.313
386.162
423.493
451.686
453.115
387.471
184.969
17.8099
53.3541
88.6853
123.706
158.39
192.812
227.183
261.859
297.287
333.749
370.556
403.834
420.798
386.013
215.116
14.9116
44.6397
74.0982
103.161
131.788
160.08
188.337
217.161
247.565
281.124
320.106
367.356
424.467
479.128
425.385
12.0797
36.1138
59.7886
82.9216
105.427
127.379
149.111
171.383
195.675
224.764
263.954
324.08
429.898
647.596
1189.21
9.33508
27.8386
45.8573
63.1218
79.455
94.8385
109.522
124.219
140.478
161.42
193.307
249.128
357.708
591.234
1166.48
6.70632
19.9005
32.451
43.971
54.1464
62.7903
69.9329
75.9859
82.0505
90.5036
106.082
137.592
198.828
297.683
348.949
4.22912
12.409
19.7604
25.7547
29.9036
31.7885
31.1074
27.7572
21.9844
14.6671
7.83269
5.46527
13.8925
37.2613
51.7478
1.94472
5.4915
8.01075
8.81863
7.23256
2.56957
-5.86125
-18.7809
-36.9931
-61.4802
-93.4834
-134.108
-181.358
-216.928
-163.483
-0.10264
-0.714901
-2.55401
-6.45893
-13.3056
-24.0359
-39.7139
-61.6409
-91.603
-132.389
-188.782
-269.034
-384.66
-532.868
-568.616
-1.86873
-6.07316
-11.69
-19.7009
-31.1546
-47.2137
-69.2341
-98.9247
-138.694
-192.447
-267.486
-379.351
-565.271
-926.814
-1788.23
-3.31236
-10.456
-19.172
-30.5629
-45.8187
-66.266
-93.4416
-129.221
-176.082
-237.721
-320.6
-438.204
-623.854
-973.497
-1807.2
-4.39808
-13.7539
-24.8077
-38.7565
-56.8966
-80.6678
-111.697
-151.843
-203.226
-268.257
-349.597
-449.783
-568.496
-683.904
-632.659
-5.09822
-15.8815
-28.4477
-44.0593
-64.0894
-90.0594
-123.656
-166.693
-220.923
-287.495
-365.527
-448.499
-515.411
-509.988
-301.141
-5.39454
-16.7822
-29.9908
-46.3187
-67.1895
-94.1937
-129.105
-173.819
-230.098
-298.824
-378.069
-458.401
-512.577
-477.337
-242.829
-5.27968
-16.4316
-29.3898
-45.454
-66.0694
-92.8855
-127.803
-172.976
-230.695
-302.92
-389.929
-486.535
-571.9
-583.112
-358.945
-4.75855
-14.8425
-26.6579
-41.4651
-60.6904
-86.0097
-119.447
-163.501
-221.304
-296.846
-395.227
-522.582
-682.828
-852.445
-817.986
-3.84981
-12.0689
-21.8787
-34.4504
-51.1349
-73.5646
-103.801
-144.57
-199.702
-275.033
-380.538
-535.935
-787.407
-1263.68
-2389.35
-2.58708
-8.21103
-15.2155
-24.6282
-37.6532
-55.7777
-80.9344
-115.777
-164.199
-232.411
-331.362
-482.755
-736.09
-1224.22
-2373.89
-1.01942
-3.41696
-6.91778
-12.3515
-20.7015
-33.197
-51.4499
-77.679
-115.099
-168.614
-245.956
-358.995
-521.967
-725.665
-766.84
0.789209
2.11882
2.6809
1.89134
-0.949121
-6.7166
-16.5467
-31.9516
-54.988
-88.4622
-135.973
-200.797
-279.821
-340.227
-253.626
2.7619
8.16133
13.1738
17.495
20.752
22.4788
22.0978
18.9197
12.1877
1.22141
-14.2114
-33.0096
-50.8839
-57.1223
-32.653
4.81177
14.4448
24.0997
33.7703
43.4271
53.0257
62.5464
72.0921
82.1047
93.769
109.612
133.82
169.642
204.364
159.818
6.84552
20.6843
34.9658
49.9854
66.0499
83.51
102.833
124.765
150.663
183.156
227.315
292.215
390.514
520.476
543.063
8.76699
26.5872
45.2696
65.4033
87.6096
112.581
141.161
174.502
214.417
264.167
330.267
426.989
588.862
910.493
1695.61
10.4801
31.8622
54.5159
79.3106
107.155
139.029
176.035
219.489
271.117
333.541
411.588
516.049
675.618
977.632
1722
11.8908
36.2256
62.2267
91.03
123.811
161.8
206.291
258.623
320.094
391.792
474.213
566.379
662.808
736.578
630.608
12.9087
39.4047
67.945
99.9204
136.762
179.947
230.971
291.241
361.758
442.34
529.758
613.354
665.211
619.701
340.839
13.447
41.1389
71.2342
105.369
145.227
192.55
249.11
316.592
396.239
487.911
587.687
682.039
734.857
664.486
330.556
13.4239
41.1812
71.6789
106.786
148.434
198.649
259.556
333.363
422.207
527.66
649.168
779.31
889.796
892.068
547.37
12.7627
39.3002
68.8882
103.61
145.629
197.243
260.951
339.58
436.507
556.108
704.485
890.053
1119.71
1360.46
1284.99
11.3928
35.2832
62.503
95.3237
136.107
187.371
251.904
332.992
434.955
564.458
733.836
970.063
1341.78
2048.38
3754.89
9.25076
28.9396
52.2033
81.4736
119.265
168.236
231.297
311.827
414.19
545.042
716.658
955.898
1331.24
2041.89
3752.7
6.28064
20.1017
37.7125
61.6784
94.6268
139.282
198.518
275.442
373.576
497.272
652.453
847.171
1087.81
1340.85
1278.38
2.43343
8.62408
18.7936
35.6238
61.8336
100.18
153.434
224.295
315.17
427.615
560.761
706.536
835.768
858.909
536.219
-2.33383
-5.62093
-4.75948
3.04132
20.5948
50.7104
96.1119
159.236
241.765
343.58
460.296
577.397
657.421
617.155
314.73
-8.05923
-22.7472
-33.1342
-36.3201
-29.3767
-9.38157
26.4822
80.7025
154.969
249.211
359.587
474.042
562.655
557.506
320.377
-14.7764
-42.8574
-66.5062
-82.7138
-88.411
-80.4908
-55.8862
-11.7361
54.3187
143.671
256.092
388.696
533.085
659.043
606.381
-22.5134
-66.04
-105.038
-136.397
-156.891
-163.174
-151.809
-119.359
-62.4758
22.1603
138.649
295.258
516.435
884.783
1698.17
-31.2896
-92.3601
-148.862
-197.609
-235.223
-258.088
-262.345
-243.912
-198.495
-121.407
-6.57202
157.094
397.742
801.723
1667.56
-41.1103
-121.844
-198.056
-266.531
-323.77
-365.895
-388.601
-387.154
-356.449
-291.115
-185.61
-34.4102
165.793
398.188
508.471
-51.9602
-154.457
-252.604
-343.233
-422.781
-487.147
-531.583
-550.658
-538.382
-488.639
-396.286
-259.83
-88.369
79.6254
132.34
-63.7947
-190.08
-312.352
-427.6
-532.298
-622.195
-692.123
-735.87
-746.258
-715.665
-637.492
-509.45
-340.009
-158.77
-23.3091
-76.5304
-228.476
-376.956
-519.261
-652.05
-771.06
-870.783
-944.176
-982.509
-975.642
-913.236
-787.717
-599.746
-365.297
-117.226
-90.0357
-269.262
-445.824
-617.494
-781.325
-933.259
-1067.66
-1176.75
-1250.06
-1274.09
-1232.71
-1109.26
-891.675
-581.22
-201.662
-104.122
-311.883
-518.06
-721.131
-918.808
-1107.57
-1282.03
-1434.08
-1551.74
-1617.86
-1609.07
-1496.07
-1248.01
-845.07
-302.582
-118.539
-355.586
-592.42
-828.47
-1062.42
-1291.74
-1511.89
-1715.2
-1889.1
-2013.55
-2057.69
-1976.57
-1711.81
-1205.76
-447.001
-132.969
-399.416
-667.292
-937.215
-1209.2
-1482.2
-1753.34
-2016.63
-2260.67
-2464.89
-2593.15
-2584.48
-2343.07
-1741.88
-685.307
-147.04
-442.232
-740.707
-1044.48
-1355.2
-1673.86
-2000.15
-2331.3
-2659.78
-2968.82
-3223.56
-3353.86
-3224.05
-2594.12
-1141.65
-160.332
-482.744
-810.406
-1146.85
-1495.61
-1860.12
-2243.47
-2647.69
-3072.23
-3510.31
-3940.21
-4303.7
-4452.15
-4017.46
-2174.87
-172.404
-519.587
-873.967
-1240.61
-1624.99
-2033.2
-2472.16
-2949.82
-3475.11
-4057.31
-4702.77
-5402.62
-6084.96
-6418.35
-4949.04
-182.82
-551.407
-928.971
-1321.98
-1737.73
-2184.8
-2673.85
-3218.72
-3838.31
-4560.14
-5427.3
-6513.46
-7959.73
-10070.8
-13576.3
13557.8
10103.3
8018.66
6587.52
5509.75
4646.18
3924.06
3301.01
2750.02
2252.65
1795.49
1368.28
962.759
571.966
189.72
4953.37
6453.12
6144.93
5480.16
4791.13
4150.91
3569.29
3040.68
2556.51
2108.45
1689.11
1292.01
911.486
542.413
180.065
2186.86
4058.23
4518.55
4389.41
4038.43
3614.79
3177.55
2749.35
2337.82
1944.23
1567.2
1204.19
852.224
508.17
168.863
1157.98
2643.07
3301.31
3452.53
3336.03
3087.95
2779.41
2446.35
2106.56
1768.43
1435.49
1108.65
787.433
470.612
156.557
706.054
1801.99
2436.05
2701.43
2724.85
2602.98
2398.17
2147.92
1874.05
1588.96
1299.49
1009.16
719.559
431.115
143.591
473.656
1281.6
1826.71
2118.24
2214.44
2175.5
2048.39
1865.81
1649.26
1412.47
1164.02
909.12
650.853
390.962
130.382
338.021
943.68
1393.37
1670.62
1797.79
1809.17
1737.06
1607.2
1438.44
1244.03
1032.99
811.383
583.249
351.272
117.297
251.248
714.029
1079.74
1327.13
1461.48
1500.73
1465.77
1375.53
1245.39
1087.08
909.246
718.148
518.291
312.957
104.635
192.046
551.755
848.24
1062.09
1191.15
1243.78
1232.79
1171.51
1071.84
943.641
794.68
630.967
457.115
276.706
92.6283
149.767
433.363
674.085
855.897
973.838
1030.96
1034.7
994.099
918.075
814.581
690.325
550.803
400.474
242.991
81.4368
118.549
344.727
540.813
694.02
798.725
855.159
867.351
841.245
783.345
699.905
596.543
478.121
348.787
212.093
71.1589
94.9116
276.973
437.296
565.798
657.101
710.047
726.563
710.436
666.318
599.036
513.197
413
302.196
184.131
61.8393
76.6603
224.303
355.86
463.385
542.086
590.205
608.414
599.037
565.35
511.029
439.8
355.228
260.636
159.097
53.4805
62.3486
182.796
291.097
380.97
448.285
491.11
509.395
504.496
478.687
434.745
375.652
304.4
223.889
136.89
46.0531
50.9857
149.716
239.12
314.204
371.472
409.035
426.455
424.456
404.597
368.965
319.932
259.989
191.639
117.342
39.5055
41.8719
123.105
197.078
259.795
308.329
340.933
356.982
356.801
341.445
312.475
271.776
221.407
163.511
100.247
33.772
34.4998
101.53
162.843
215.226
256.235
284.312
298.765
299.671
287.733
264.119
230.323
188.045
139.103
85.379
28.7794
28.494
83.9214
134.804
178.545
213.112
237.142
249.943
251.448
242.117
222.823
194.752
159.302
118.011
72.504
24.4516
23.5705
69.4651
111.72
148.226
177.299
197.759
208.956
210.741
203.409
187.614
164.297
134.608
99.8427
61.3937
20.7136
19.5118
57.5334
92.6234
123.064
147.459
164.8
174.496
176.358
170.569
157.62
138.261
113.435
84.2283
51.8303
17.4935
16.148
47.6352
76.7518
102.096
122.512
137.145
145.468
147.283
142.694
132.073
116.016
95.2978
70.8269
43.6113
14.7242
13.3454
39.3816
63.4967
84.5466
101.576
113.865
120.955
122.648
119.001
110.295
97.0047
79.7632
59.3287
36.5514
12.344
10.9967
32.4605
52.3678
69.7859
83.9284
94.193
100.184
101.718
98.8181
91.697
80.7328
66.4428
49.4553
30.4831
10.2971
9.01554
26.6192
42.9657
57.2975
68.9706
77.485
82.5042
83.8626
81.5626
75.7642
66.7677
54.9931
40.9584
25.2565
8.53346
7.33086
21.6501
34.9611
46.6533
56.2039
63.2016
67.3641
68.5448
66.7337
62.0497
54.7293
45.111
33.6177
20.7382
7.00827
5.88377
17.3806
28.0794
37.495
45.2081
50.8852
54.2924
55.3026
53.8977
50.164
44.285
36.5296
27.2387
16.8099
5.68189
4.62453
13.6647
22.0882
29.518
35.625
40.1437
42.8837
43.7361
42.6772
39.7666
35.1424
29.0135
21.649
13.3666
4.5191
3.51032
10.3766
16.7868
22.459
27.144
30.6367
32.7848
33.496
32.7418
30.5584
27.0441
22.3548
16.6963
10.3154
3.48867
2.50324
7.40533
11.9976
16.0852
19.4909
22.0631
23.6834
24.2731
23.7986
22.2739
19.7613
16.3688
12.2452
7.57365
2.56284
1.56871
4.64927
7.55923
10.1853
12.4168
14.1508
15.2978
15.7894
15.5847
14.6757
13.0898
10.8905
8.17459
5.06759
1.7168
0.67376
2.01204
3.31853
4.55989
5.68906
6.64691
7.36822
7.79
7.86065
7.54796
6.84467
5.7713
4.3759
2.73102
0.928335
-0.214571
-0.602545
-0.87605
-0.986393
-0.918428
-0.691305
-0.352012
0.0356964
0.403947
0.692459
0.85732
0.87636
0.750934
0.504342
0.177476
-1.1312
-3.29576
-5.18258
-6.65477
-7.63444
-8.10531
-8.10377
-7.70313
-6.99563
-6.07571
-5.02764