/*--------------------------------*- C++ -*----------------------------------*\
| =========                 |                                                 |
| \\      /  F ield         | OpenFOAM: The Open Source CFD Toolbox           |
|  \\    /   O peration     | Version:  5.x                                   |
|   \\  /    A nd           | Web:      www.OpenFOAM.org                      |
|    \\/     M anipulation  |                                                 |
\*---------------------------------------------------------------------------*/
FoamFile
{
    version     2.0;
    format      ascii;
    class       volScalarField;
    location    "1.3";
    object      T;
}
// * * * * * * * * * * * * * * * * * * * * * * * * * * * * * * * * * * * * * //

dimensions      [0 0 0 1 0 0 0];

internalField   nonuniform List<scalar> 
6300
(
79.0248
216.881
354.157
490.462
625.401
758.574
889.574
1017.99
1143.41
1265.43
1383.64
1497.66
1607.14
1711.77
1811.29
79.2134
217.448
355.105
491.796
627.127
760.697
892.099
1020.92
1146.74
1269.15
1387.74
1502.1
1611.89
1716.77
1816.48
79.5895
218.579
356.997
494.458
630.572
764.938
897.147
1026.78
1153.41
1276.61
1395.96
1511.03
1621.44
1726.84
1826.93
80.1509
220.266
359.821
498.436
635.724
771.287
904.712
1035.58
1163.44
1287.85
1408.36
1524.52
1635.89
1742.1
1842.8
80.8939
222.501
363.563
503.71
642.561
779.722
914.78
1047.3
1176.84
1302.91
1425.02
1542.68
1655.41
1762.74
1864.3
81.8132
225.266
368.196
510.246
651.046
790.208
927.323
1061.95
1193.62
1321.83
1446.04
1565.69
1680.21
1789.06
1891.76
82.9014
228.54
373.686
517.998
661.125
802.691
942.293
1079.49
1213.79
1344.67
1471.53
1593.72
1710.57
1821.41
1925.62
84.1483
232.294
379.984
526.904
672.723
817.087
959.606
1099.85
1237.31
1371.44
1501.58
1626.98
1746.83
1860.26
1966.46
85.5414
236.489
387.028
536.875
685.732
833.273
979.135
1122.9
1264.09
1402.11
1536.26
1665.69
1789.39
1906.24
2015.08
87.0646
241.077
394.738
547.803
700.013
851.084
1000.69
1148.47
1293.95
1436.56
1575.57
1710.02
1838.69
1960.08
2072.54
88.6993
246.003
403.019
559.551
715.387
870.299
1024.02
1176.25
1326.59
1474.52
1619.34
1760.02
1895.14
2022.72
2140.3
90.4237
251.2
411.76
571.958
731.64
890.644
1048.78
1205.85
1361.55
1515.51
1667.12
1815.47
1958.99
2095.23
2220.46
92.2144
256.596
420.836
584.843
748.524
911.792
1074.56
1236.72
1398.17
1558.73
1718.08
1875.61
2030.02
2178.6
2316.06
94.047
262.118
430.12
598.015
765.774
933.384
1100.86
1268.23
1435.59
1603.04
1770.75
1938.75
2106.73
2272.94
2431.43
95.8974
267.691
439.483
611.284
783.122
955.054
1127.18
1299.68
1472.81
1647.02
1822.99
2001.8
2185.08
2374.85
2570.92
1897.64
1972.37
2043.31
2110.43
2173.8
2233.47
2289.55
2342.16
2391.46
2437.6
2480.78
2521.17
2558.97
2594.37
2627.56
2658.73
2688.06
2715.73
2741.9
2766.74
2790.39
2813.01
2834.7
2855.61
2875.83
2895.45
2914.57
2933.25
2951.54
2969.5
2987.16
3004.53
3021.63
3038.46
3055.02
3071.31
3087.32
3103.02
3118.4
3133.44
3148.12
3162.41
3176.29
3189.72
3202.68
3215.14
3227.07
3238.44
3249.22
3259.38
3268.9
3277.75
3285.9
3293.3
3299.94
3305.75
3310.71
3314.75
3317.82
3319.87
3320.84
3320.65
3319.23
3316.51
3312.39
3306.79
3299.59
3290.7
3279.97
3267.27
3252.47
3235.39
3215.87
3193.74
3168.79
3140.85
3109.69
3075.11
3036.9
2994.84
2948.71
2898.31
2843.44
2783.91
2719.56
2650.25
2575.88
2496.4
2411.77
2322.03
1902.94
1977.72
2048.65
2115.72
2178.97
2238.49
2294.38
2346.78
2395.83
2441.72
2484.63
2524.74
2562.26
2597.38
2630.3
2661.21
2690.28
2717.7
2743.64
2768.26
2791.71
2814.14
2835.66
2856.41
2876.49
2896
2915.01
2933.61
2951.84
2969.75
2987.37
3004.72
3021.81
3038.65
3055.22
3071.53
3087.55
3103.28
3118.69
3133.76
3148.47
3162.8
3176.72
3190.2
3203.2
3215.7
3227.67
3239.08
3249.9
3260.1
3269.67
3278.56
3286.75
3294.21
3300.91
3306.79
3311.81
3315.93
3319.09
3321.23
3322.29
3322.21
3320.9
3318.31
3314.33
3308.87
3301.84
3293.13
3282.6
3270.12
3255.54
3238.71
3219.45
3197.59
3172.93
3145.27
3114.42
3080.15
3042.26
3000.51
2954.69
2904.58
2849.97
2790.68
2726.53
2657.37
2583.1
2503.65
2418.99
2329.14
1913.62
1988.49
2059.4
2126.35
2189.39
2248.6
2304.11
2356.05
2404.62
2449.98
2492.33
2531.88
2568.84
2603.4
2635.77
2666.14
2694.7
2721.63
2747.11
2771.29
2794.33
2816.38
2837.56
2857.99
2877.79
2897.06
2915.87
2934.3
2952.4
2970.22
2987.78
3005.1
3022.18
3039.02
3055.62
3071.96
3088.02
3103.79
3119.26
3134.4
3149.19
3163.59
3177.59
3191.16
3204.25
3216.83
3228.88
3240.37
3251.27
3261.55
3271.19
3280.17
3288.46
3296.03
3302.84
3308.85
3314.02
3318.29
3321.62
3323.94
3325.2
3325.32
3324.24
3321.89
3318.18
3313.03
3306.33
3297.97
3287.83
3275.78
3261.66
3245.32
3226.58
3205.26
3181.18
3154.12
3123.88
3090.24
3052.98
3011.86
2966.66
2917.14
2863.09
2804.28
2740.54
2671.7
2597.63
2518.24
2433.52
2343.47
1929.83
2004.85
2075.73
2142.48
2205.17
2263.89
2318.8
2370.05
2417.85
2462.39
2503.9
2542.6
2578.69
2612.4
2643.94
2673.51
2701.29
2727.48
2752.26
2775.78
2798.2
2819.68
2840.33
2860.3
2879.68
2898.58
2917.09
2935.28
2953.19
2970.87
2988.34
3005.62
3022.69
3039.55
3056.19
3072.58
3088.71
3104.56
3120.11
3135.35
3150.24
3164.77
3178.9
3192.59
3205.81
3218.52
3230.7
3242.3
3253.31
3263.7
3273.47
3282.57
3291
3298.73
3305.71
3311.92
3317.31
3321.81
3325.39
3327.98
3329.52
3329.95
3329.21
3327.22
3323.91
3319.2
3312.99
3305.17
3295.62
3284.21
3270.78
3255.18
3237.23
3216.74
3193.51
3167.36
3138.05
3105.36
3069.06
3028.91
2984.66
2936.06
2882.86
2824.83
2761.74
2693.39
2619.64
2540.38
2455.56
2365.2
1951.81
2027.02
2097.86
2164.32
2226.51
2284.54
2338.6
2388.87
2435.6
2479.02
2519.37
2556.88
2591.8
2624.36
2654.78
2683.25
2710
2735.2
2759.03
2781.66
2803.26
2823.96
2843.92
2863.25
2882.07
2900.49
2918.59
2936.45
2954.12
2971.63
2989
3006.23
3023.31
3040.21
3056.91
3073.38
3089.59
3105.55
3121.21
3136.58
3151.62
3166.32
3180.62
3194.5
3207.9
3220.79
3233.13
3244.88
3256.03
3266.57
3276.48
3285.74
3294.35
3302.28
3309.5
3315.97
3321.65
3326.47
3330.38
3333.32
3335.24
3336.07
3335.76
3334.25
3331.46
3327.33
3321.76
3314.66
3305.89
3295.34
3282.84
3268.22
3251.32
3231.94
3209.88
3184.94
3156.88
3125.48
3090.5
3051.68
3008.75
2961.42
2909.43
2852.48
2790.32
2722.71
2649.44
2570.37
2485.44
2394.65
1979.91
2055.38
2126.13
2192.19
2253.68
2310.77
2363.67
2412.65
2457.97
2499.9
2538.74
2574.73
2608.15
2639.24
2668.22
2695.32
2720.75
2744.7
2767.34
2788.86
2809.41
2829.15
2848.22
2866.74
2884.85
2902.66
2920.25
2937.7
2955.07
2972.39
2989.66
3006.88
3023.99
3040.97
3057.76
3074.34
3090.67
3106.74
3122.55
3138.08
3153.31
3168.22
3182.76
3196.88
3210.53
3223.65
3236.19
3248.12
3259.44
3270.13
3280.2
3289.65
3298.47
3306.65
3314.16
3320.97
3327.01
3332.23
3336.56
3339.94
3342.31
3343.63
3343.84
3342.9
3340.75
3337.32
3332.55
3326.32
3318.54
3309.06
3297.73
3284.36
3268.79
3250.81
3230.21
3206.8
3180.33
3150.58
3117.29
3080.18
3038.97
2993.33
2942.94
2887.47
2826.59
2759.99
2687.41
2608.66
2523.61
2432.27
2014.62
2090.4
2161.01
2226.51
2287.04
2342.86
2394.25
2441.53
2485.04
2525.1
2562.03
2596.13
2627.68
2656.96
2684.2
2709.63
2733.46
2755.89
2777.1
2797.27
2816.55
2835.12
2853.1
2870.65
2887.89
2904.94
2921.91
2938.88
2955.91
2973.03
2990.22
3007.46
3024.67
3041.79
3058.73
3075.45
3091.91
3108.12
3124.08
3139.8
3155.26
3170.45
3185.3
3199.75
3213.72
3227.12
3239.91
3252.06
3263.54
3274.39
3284.62
3294.25
3303.3
3311.77
3319.63
3326.85
3333.35
3339.05
3343.89
3347.79
3350.7
3352.57
3353.38
3353.08
3351.65
3349.05
3345.2
3340.04
3333.43
3325.25
3315.33
3303.49
3289.52
3273.23
3254.41
3232.85
3208.32
3180.58
3149.37
3114.41
3075.37
3031.89
2983.6
2930.08
2870.92
2805.72
2734.12
2655.84
2570.7
2478.67
2056.57
2132.74
2203.12
2267.81
2327.05
2381.17
2430.58
2475.69
2516.91
2554.63
2589.22
2621.01
2650.33
2677.44
2702.61
2726.06
2748.01
2768.65
2788.18
2806.76
2824.55
2841.73
2858.43
2874.81
2891.01
2907.16
2923.38
2939.78
2956.43
2973.35
2990.53
3007.89
3025.31
3042.66
3059.82
3076.72
3093.33
3109.67
3125.77
3141.68
3157.41
3172.95
3188.22
3203.12
3217.51
3231.29
3244.37
3256.72
3268.36
3279.33
3289.68
3299.48
3308.76
3317.55
3325.84
3333.55
3340.62
3346.92
3352.37
3356.86
3360.37
3362.84
3364.28
3364.69
3364.05
3362.36
3359.56
3355.61
3350.38
3343.75
3335.51
3325.47
3313.4
3299.1
3282.36
3262.97
3240.72
3215.38
3186.68
3154.32
3117.97
3077.21
3031.6
2980.63
2923.77
2860.49
2790.28
2712.73
2627.57
2534.69
2106.64
2183.28
2253.28
2316.81
2374.26
2426.13
2472.96
2515.29
2553.65
2588.49
2620.26
2649.3
2675.97
2700.55
2723.31
2744.47
2764.25
2782.84
2800.43
2817.18
2833.26
2848.83
2864.04
2879.04
2894.01
2909.08
2924.41
2940.14
2956.36
2973.11
2990.38
3008.02
3025.85
3043.6
3061.09
3078.21
3094.94
3111.35
3127.54
3143.61
3159.65
3175.63
3191.48
3207
3221.99
3236.25
3249.66
3262.22
3273.95
3284.95
3295.34
3305.24
3314.72
3323.86
3332.64
3340.99
3348.78
3355.83
3361.99
3367.17
3371.3
3374.4
3376.48
3377.59
3377.77
3377.03
3375.39
3372.8
3369.17
3364.33
3358.08
3350.15
3340.3
3328.29
3313.92
3297.02
3277.38
3254.81
3229.05
3199.81
3166.72
3129.33
3087.13
3039.48
2985.7
2925.05
2856.84
2780.43
2695.38
2601.49
2166.06
2243.26
2312.59
2374.41
2429.35
2478.17
2521.63
2560.45
2595.27
2626.64
2655.03
2680.84
2704.44
2726.11
2746.12
2764.68
2782.02
2798.3
2813.7
2828.4
2842.53
2856.26
2869.74
2883.15
2896.65
2910.43
2924.68
2939.59
2955.31
2971.95
2989.48
3007.71
3026.28
3044.73
3062.71
3080.05
3096.81
3113.14
3129.27
3145.41
3161.74
3178.31
3194.99
3211.46
3227.31
3242.21
3256
3268.68
3280.37
3291.25
3301.52
3311.37
3320.99
3330.47
3339.86
3349.04
3357.79
3365.8
3372.83
3378.75
3383.52
3387.2
3389.87
3391.63
3392.58
3392.81
3392.38
3391.29
3389.47
3386.76
3382.85
3377.4
3370.08
3360.66
3348.94
3334.8
3318.08
3298.63
3276.24
3250.63
3221.45
3188.21
3150.31
3106.98
3057.32
3000.33
2935.02
2860.42
2775.76
2680.64
2236.6
2314.43
2382.57
2441.76
2493.1
2537.77
2576.83
2611.21
2641.69
2668.89
2693.32
2715.41
2735.5
2753.89
2770.82
2786.49
2801.11
2814.83
2827.82
2840.22
2852.18
2863.85
2875.37
2886.93
2898.71
2910.92
2923.82
2937.68
2952.76
2969.3
2987.37
3006.72
3026.7
3046.34
3065.02
3082.55
3099.1
3115.03
3130.76
3146.73
3163.3
3180.63
3198.59
3216.6
3233.79
3249.57
3263.72
3276.37
3287.76
3298.22
3308.07
3317.64
3327.22
3337.03
3347.16
3357.51
3367.65
3376.98
3385.07
3391.77
3397.12
3401.25
3404.35
3406.62
3408.22
3409.34
3410.1
3410.62
3410.87
3410.69
3409.64
3407.13
3402.7
3396.12
3387.26
3376.07
3362.51
3346.48
3327.85
3306.41
3281.81
3253.61
3221.12
3183.41
3139.29
3087.43
3026.4
2954.71
2871.03
2774.47
2320.96
2399.4
2465.27
2520.24
2566.3
2605.26
2638.59
2667.42
2692.65
2714.94
2734.82
2752.67
2768.85
2783.59
2797.13
2809.65
2821.3
2832.24
2842.6
2852.5
2862.07
2871.45
2880.77
2890.2
2899.94
2910.23
2921.39
2933.79
2947.92
2964.26
2983.21
3004.64
3027.4
3049.15
3068.78
3086.26
3102.09
3117
3131.72
3147
3163.54
3181.85
3201.92
3222.72
3242.12
3259.04
3273.42
3285.65
3296.28
3305.85
3314.83
3323.7
3332.92
3342.9
3353.95
3366.05
3378.46
3389.73
3399.11
3406.53
3412.24
3416.57
3419.84
3422.34
3424.36
3426.15
3427.98
3430.1
3432.7
3435.65
3438.31
3439.4
3438.23
3434.65
3428.71
3420.56
3410.27
3397.88
3383.33
3366.51
3347.18
3324.98
3299.25
3268.89
3232.23
3187.55
3132.92
3066.11
2984.65
2886.53
2423.8
2502.32
2563.5
2611.39
2649.56
2680.69
2706.63
2728.66
2747.67
2764.3
2779.03
2792.19
2804.05
2814.84
2824.73
2833.85
2842.34
2850.31
2857.85
2865.07
2872.06
2878.94
2885.81
2892.83
2900.19
2908.11
2916.97
2927.25
2939.68
2955.28
2975.27
3000.46
3029.33
3054.83
3075.45
3092.13
3106.23
3119.03
3131.66
3145.25
3161.03
3180.31
3203.99
3230.67
3253.8
3271.97
3285.99
3297.04
3306.14
3314.1
3321.54
3329.06
3337.3
3347.01
3359.03
3373.92
3390.72
3404.99
3415.76
3423.55
3429.14
3433.2
3436.21
3438.57
3440.62
3442.69
3445.21
3448.71
3453.79
3460.84
3469.03
3474.71
3477.04
3476.34
3473.16
3467.91
3460.87
3452.17
3441.88
3430
3416.49
3401.24
3383.86
3363.21
3336.52
3301.79
3256.81
3198.39
3122.11
3022.9
2554.45
2630.02
2680.71
2716.34
2742.8
2763.42
2780.13
2794.05
2805.93
2816.24
2825.3
2833.37
2840.63
2847.21
2853.23
2858.78
2863.94
2868.79
2873.37
2877.76
2882.03
2886.23
2890.45
2894.8
2899.41
2904.47
2910.3
2917.41
2926.69
2939.79
2959.63
2990.79
3035.94
3067.32
3087.62
3101.49
3112.02
3121.09
3130.03
3140.16
3153.27
3172.26
3201.51
3243.53
3272.42
3290.69
3302.62
3311.02
3317.46
3322.88
3327.92
3333.18
3339.36
3347.6
3359.78
3378.83
3406.42
3425.08
3436.49
3443.53
3448.05
3451.11
3453.31
3455.04
3456.61
3458.38
3460.83
3464.82
3471.83
3484.17
3503.14
3514.65
3519.97
3521.4
3520.37
3517.64
3513.63
3508.54
3502.5
3495.62
3488.1
3480.35
3472.99
3466.02
3452.19
3430.61
3399.84
3356.2
3292.39
3195.78
2737.16
2793.4
2819.43
2834.3
2844.25
2851.62
2857.43
2862.22
2866.27
2869.76
2872.82
2875.55
2877.99
2880.2
2882.22
2884.09
2885.82
2887.44
2888.98
2890.46
2891.89
2893.3
2894.73
2896.2
2897.78
2899.53
2901.6
2904.24
2908.02
2914.38
2927.48
2960.81
3062.16
3095.57
3108.83
3115.48
3119.73
3123.14
3126.49
3130.57
3136.83
3149.24
3180.43
3275.08
3306.15
3318.3
3324.15
3327.6
3330.02
3331.98
3333.8
3335.76
3338.27
3342.28
3350.42
3371.22
3434.75
3455.42
3463.3
3466.91
3468.85
3470.05
3470.88
3471.52
3472.13
3472.86
3474.03
3476.37
3481.99
3497.73
3547.8
3563.26
3568.31
3569.79
3569.79
3569.01
3567.73
3566.07
3564.11
3561.94
3559.85
3558.67
3561.33
3578.51
3578.81
3572.45
3561.18
3542.87
3509.7
3436.86
2217.77
2096.98
1969.42
1835.49
1695.62
1550.3
1400.05
1245.43
1086.96
925.206
760.688
593.936
425.46
255.762
85.3349
2224.7
2103.61
1975.69
1841.31
1700.96
1555.13
1404.35
1249.19
1090.19
927.909
762.878
595.623
426.656
256.476
85.5723
2238.65
2116.96
1988.27
1853.01
1711.68
1564.8
1412.96
1256.71
1096.64
933.305
767.245
598.987
429.04
257.899
86.0451
2259.79
2137.18
2007.31
1870.68
1727.83
1579.36
1425.87
1267.99
1106.29
941.368
773.763
604.004
432.594
260.018
86.7495
2288.43
2164.51
2032.99
1894.45
1749.5
1598.83
1443.1
1282.99
1119.11
952.055
782.39
610.635
437.287
262.816
87.6789
2324.97
2199.31
2065.59
1924.5
1776.79
1623.25
1464.64
1301.68
1135.02
965.297
793.059
618.824
443.075
266.264
88.8241
2369.97
2242.03
2105.43
1961.04
1809.81
1652.65
1490.44
1323.97
1153.95
980.994
805.674
628.49
449.899
270.326
90.1725
2424.19
2293.27
2152.93
2004.32
1848.64
1687.01
1520.42
1349.74
1175.72
998.998
820.106
639.525
457.678
274.951
91.7075
2488.64
2353.78
2208.56
2054.56
1893.32
1726.21
1554.38
1378.77
1200.14
1019.11
836.178
651.787
466.308
280.078
93.4079
2564.67
2424.52
2272.84
2111.9
1943.74
1770.03
1592.04
1410.75
1226.89
1041.05
853.661
665.096
475.661
285.63
95.2482
2654.2
2506.65
2346.24
2176.34
1999.61
1818.01
1632.89
1445.19
1255.56
1064.47
872.271
679.234
485.583
291.513
97.1979
2759.91
2601.49
2429
2247.46
2060.23
1869.41
1676.24
1481.48
1285.61
1088.94
891.665
693.943
495.895
297.624
99.2223
2885.73
2710.23
2520.65
2324.13
2124.33
1923.03
1721.06
1518.79
1316.4
1113.94
911.452
708.937
506.4
303.848
101.284
3037.25
2832.89
2619.11
2403.93
2189.8
1977.21
1766.08
1556.14
1347.16
1138.91
931.208
723.908
516.892
310.064
103.343
3220.01
2964.79
2718.79
2482.56
2253.6
2029.82
1809.78
1592.45
1377.11
1163.26
950.507
738.551
527.163
316.154
105.361
97.5898
272.785
448.032
623.378
798.892
974.682
1150.91
1327.84
1505.85
1685.61
1868.16
2055.38
2250.81
2462.36
2712.11
99.1135
277.369
455.715
634.226
813.001
992.176
1171.95
1352.62
1534.62
1718.67
1905.91
2098.29
2299.28
2515.26
2757.35
100.613
281.878
463.264
644.864
826.795
1009.21
1192.31
1376.4
1561.9
1749.44
1939.99
2135.11
2337.23
2549.92
2777
102.082
286.291
470.643
655.242
840.215
1025.72
1211.94
1399.15
1587.69
1778.03
1970.82
2166.98
2367.73
2574.47
2787.92
103.514
290.594
477.829
665.333
853.232
1041.67
1230.83
1420.92
1612.16
1804.84
1999.23
2195.57
2393.97
2594.25
2795.81
104.907
294.775
484.807
675.118
865.833
1057.09
1249.03
1441.81
1635.56
1830.38
2026.18
2222.62
2418.78
2613.01
2803.35
106.258
298.83
491.57
684.593
878.02
1071.98
1266.58
1461.96
1658.16
1855.14
2052.61
2249.77
2444.84
2634.35
2813.24
107.566
302.755
498.114
693.757
889.801
1086.36
1283.56
1481.47
1680.13
1879.47
2079.16
2278.28
2474.63
2662.94
2831.27
108.831
306.55
504.438
702.611
901.182
1100.27
1299.97
1500.38
1701.56
1903.49
2106
2308.61
2509.91
2705.28
2875.14
110.052
310.213
510.543
711.157
912.168
1113.69
1315.83
1518.7
1722.4
1927.02
2132.69
2339.73
2549.19
2765.21
3006.86
111.229
313.745
516.429
719.396
922.758
1126.63
1331.13
1536.38
1742.52
1949.72
2158.33
2369.07
2583.79
2807.21
3050.64
112.363
317.146
522.097
727.328
932.953
1139.09
1345.85
1553.38
1761.81
1971.37
2182.39
2395.55
2612.25
2835.19
3068.57
113.454
320.416
527.546
734.954
942.753
1151.06
1359.99
1569.67
1780.25
1991.91
2204.86
2419.48
2636.24
2855.8
3078.53
114.501
323.557
532.779
742.276
952.159
1162.54
1373.54
1585.28
1797.87
2011.45
2226.1
2441.79
2658.18
2874.08
3086.96
115.505
326.57
537.798
749.297
961.177
1173.55
1386.52
1600.22
1814.74
2030.16
2246.5
2463.52
2680.35
2894.33
3098.74
116.468
329.456
542.605
756.021
969.81
1184.08
1398.95
1614.51
1830.89
2048.15
2266.32
2485.29
2704.39
2921.09
3124.35
117.388
332.218
547.204
762.452
978.067
1194.15
1410.82
1628.18
1846.34
2065.41
2285.51
2506.84
2729.96
2957.07
3198.56
118.268
334.856
551.597
768.595
985.951
1203.77
1422.16
1641.23
1861.08
2081.86
2303.73
2527.04
2752.66
2982.93
3223.86
119.108
337.373
555.789
774.455
993.472
1212.94
1432.96
1653.65
1875.11
2097.46
2320.85
2545.54
2772.01
3001.25
3235.01
119.908
339.773
559.784
780.039
1000.63
1221.67
1443.25
1665.47
1888.43
2112.24
2336.98
2562.69
2789.3
3016.32
3242.5
120.67
342.056
563.585
785.351
1007.45
1229.97
1453.03
1676.7
1901.09
2126.28
2352.32
2579.12
2806.19
3031.84
3251.47
121.394
344.227
567.198
790.399
1013.92
1237.86
1462.31
1687.36
1913.11
2139.64
2367.03
2595.25
2823.94
3051.41
3269.86
122.081
346.287
570.627
795.19
1020.06
1245.34
1471.11
1697.46
1924.5
2152.32
2381.07
2610.94
2842.42
3077.12
3322.38
122.732
348.24
573.878
799.731
1025.88
1252.42
1479.44
1707.02
1935.26
2164.27
2394.22
2625.4
2858.53
3095.37
3340.21
123.349
350.089
576.955
804.028
1031.39
1259.13
1487.32
1716.05
1945.4
2175.48
2406.41
2638.41
2871.94
3107.92
3347.83
123.932
351.837
579.863
808.089
1036.6
1265.46
1494.76
1724.57
1954.96
2186
2417.74
2650.24
2883.53
3117.61
3352.37
124.482
353.487
582.607
811.922
1041.51
1271.44
1501.78
1732.61
1963.99
2195.94
2428.45
2661.41
2894.45
3126.69
3356.59
125.001
355.04
585.193
815.533
1046.13
1277.07
1508.41
1740.21
1972.53
2205.39
2438.75
2672.42
2905.8
3137.27
3362.94
125.488
356.501
587.624
818.929
1050.49
1282.37
1514.64
1747.37
1980.61
2214.4
2448.73
2683.52
2918.34
3151.74
3377.31
125.945
357.871
589.904
822.114
1054.57
1287.34
1520.5
1754.11
1988.23
2222.93
2458.3
2694.47
2931.77
3171.5
3419.62
126.373
359.152
592.036
825.093
1058.39
1292
1525.98
1760.41
1995.36
2230.92
2467.22
2704.51
2943.38
3185.29
3433.74
126.771
360.347
594.024
827.87
1061.95
1296.33
1531.08
1766.28
2001.98
2238.29
2475.34
2713.35
2952.76
3194.41
3439.53
127.141
361.456
595.871
830.449
1065.26
1300.36
1535.82
1771.71
2008.1
2245.06
2482.68
2721.1
2960.46
3200.97
3442.68
127.483
362.483
597.579
832.835
1068.31
1304.08
1540.2
1776.73
2013.73
2251.27
2489.38
2728.07
2967.25
3206.57
3445.23
127.798
363.427
599.15
835.03
1071.13
1307.51
1544.23
1781.34
2018.92
2256.98
2495.56
2734.59
2973.82
3212.47
3448.6
128.087
364.291
600.588
837.039
1073.7
1310.64
1547.91
1785.57
2023.67
2262.25
2501.33
2740.86
2980.67
3220
3455.71
128.349
365.077
601.895
838.865
1076.04
1313.49
1551.26
1789.42
2028.01
2267.07
2506.66
2746.83
2987.72
3229.9
3476.14
128.585
365.784
603.073
840.51
1078.15
1316.06
1554.29
1792.89
2031.93
2271.44
2511.5
2752.19
2993.76
3236.84
3483.03
128.795
366.415
604.123
841.977
1080.03
1318.35
1556.99
1796
2035.43
2275.34
2515.78
2756.83
2998.62
3241.48
3485.91
128.981
366.971
605.048
843.268
1081.69
1320.37
1559.36
1798.73
2038.52
2278.78
2519.54
2760.83
3002.63
3244.9
3487.55
129.141
367.452
605.848
844.385
1083.12
1322.11
1561.42
1801.1
2041.21
2281.78
2522.84
2764.35
3006.17
3247.94
3488.99
129.278
367.86
606.526
845.33
1084.33
1323.58
1563.15
1803.1
2043.48
2284.34
2525.72
2767.56
3009.64
3251.34
3491.13
129.39
368.196
607.083
846.104
1085.32
1324.78
1564.56
1804.72
2045.33
2286.46
2528.18
2770.48
3013.25
3255.92
3496.08
129.479
368.462
607.522
846.712
1086.09
1325.7
1565.64
1805.95
2046.74
2288.09
2530.12
2772.96
3016.8
3262.13
3510.95
129.545
368.66
607.847
847.156
1086.64
1326.36
1566.38
1806.79
2047.67
2289.15
2531.4
2774.63
3019.21
3265.78
3515.52
129.591
368.794
608.063
847.445
1086.99
1326.75
1566.8
1807.22
2048.11
2289.6
2531.89
2775.25
3020.12
3267.09
3516.77
129.616
368.867
608.177
847.586
1087.14
1326.89
1566.9
1807.25
2048.04
2289.4
2531.53
2774.72
3019.44
3266.4
3516.38
129.623
368.885
608.197
847.591
1087.11
1326.79
1566.7
1806.91
2047.49
2288.57
2530.33
2773.02
3017.1
3263.48
3514.04
129.614
368.855
608.134
847.478
1086.92
1326.49
1566.24
1806.22
2046.51
2287.19
2528.38
2770.24
3013.03
3257.52
3506.91
129.592
368.784
608.002
847.263
1086.59
1326.01
1565.55
1805.26
2045.18
2285.37
2525.87
2766.69
3007.67
3248.03
3484.24
129.559
368.681
607.815
846.968
1086.15
1325.38
1564.68
1804.07
2043.58
2283.23
2523.04
2762.93
3002.63
3241.29
3476.79
129.519
368.555
607.588
846.617
1085.64
1324.66
1563.69
1802.73
2041.79
2280.9
2520.04
2759.2
2998.2
3236.63
3473.69
129.474
368.416
607.34
846.234
1085.09
1323.88
1562.62
1801.29
2039.9
2278.44
2516.95
2755.46
2994.04
3232.79
3471.77
129.429
368.275
607.089
845.845
1084.52
1323.09
1561.54
1799.83
2037.96
2275.92
2513.74
2751.56
2989.66
3228.68
3469.65
129.386
368.142
606.851
845.477
1083.98
1322.34
1560.49
1798.41
2036.05
2273.39
2510.45
2747.35
2984.51
3223.07
3465.78
129.349
368.028
606.644
845.154
1083.51
1321.66
1559.55
1797.1
2034.27
2270.97
2507.16
2742.85
2978.28
3214.47
3456.01
129.322
367.941
606.486
844.902
1083.13
1321.11
1558.76
1796
2032.72
2268.81
2504.11
2738.42
2971.39
3202.01
3425.96
129.306
367.891
606.391
844.744
1082.88
1320.73
1558.2
1795.17
2031.53
2267.09
2501.63
2734.8
2966.01
3194.06
3416.45
129.305
367.884
606.371
844.697
1082.79
1320.56
1557.9
1794.7
2030.8
2266
2500.01
2732.43
2962.69
3189.92
3413.18
129.319
367.926
606.435
844.775
1082.87
1320.62
1557.92
1794.64
2030.62
2265.62
2499.37
2731.46
2961.34
3188.39
3412.22
129.351
368.02
606.59
844.988
1083.13
1320.93
1558.27
1795.02
2031.01
2266.02
2499.77
2731.88
2961.84
3188.97
3412.64
129.4
368.167
606.837
845.338
1083.59
1321.5
1558.96
1795.84
2031.98
2267.18
2501.19
2733.69
2964.17
3191.8
3414.89
129.465
368.365
607.173
845.821
1084.23
1322.32
1559.99
1797.1
2033.52
2269.07
2503.56
2736.75
2968.35
3197.64
3421.69
129.546
368.61
607.591
846.428
1085.05
1323.38
1561.32
1798.75
2035.56
2271.59
2506.7
2740.8
2973.99
3206.97
3443.15
129.64
368.896
608.082
847.143
1086.02
1324.64
1562.92
1800.76
2038.04
2274.63
2510.42
2745.35
2979.61
3213.94
3450.39
129.744
369.214
608.629
847.945
1087.11
1326.07
1564.75
1803.06
2040.89
2278.12
2514.6
2750.24
2985.03
3219.25
3453.66
129.855
369.553
609.214
848.808
1088.3
1327.64
1566.77
1805.61
2044.07
2282
2519.25
2755.58
2990.7
3224.26
3456.07
129.968
369.9
609.816
849.701
1089.53
1329.28
1568.91
1808.34
2047.5
2286.25
2524.4
2761.61
2997.28
3230.33
3459.17
130.079
370.239
610.409
850.588
1090.77
1330.95
1571.09
1811.17
2051.1
2290.79
2530.07
2768.57
3005.53
3239.13
3465.19
130.181
370.555
610.964
851.428
1091.96
1332.57
1573.25
1814
2054.77
2295.52
2536.14
2776.44
3015.94
3253
3480.58
130.268
370.827
611.45
852.177
1093.04
1334.07
1575.29
1816.72
2058.35
2300.2
2542.3
2784.73
3027.89
3273.27
3527.77
130.335
371.037
611.834
852.786
1093.95
1335.37
1577.11
1819.2
2061.67
2304.6
2548.08
2792.38
3038.13
3287.03
3543.13
130.373
371.162
612.079
853.205
1094.62
1336.39
1578.6
1821.31
2064.58
2308.49
2553.17
2798.85
3046.02
3295.62
3549.08
130.376
371.181
612.147
853.38
1094.98
1337.04
1579.67
1822.93
2066.93
2311.73
2557.43
2804.15
3052.06
3301.35
3552.06
130.334
371.069
612
853.256
1094.96
1337.24
1580.2
1823.96
2068.61
2314.22
2560.84
2808.48
3056.98
3305.9
3554.32
130.241
370.802
611.595
852.775
1094.49
1336.89
1580.11
1824.28
2069.51
2315.88
2563.42
2812.05
3061.44
3310.64
3557.4
130.088
370.354
610.891
851.877
1093.49
1335.9
1579.27
1823.77
2069.51
2316.61
2565.11
2814.95
3065.86
3316.89
3564.43
129.866
369.701
609.844
850.501
1091.88
1334.17
1577.58
1822.29
2068.47
2316.25
2565.73
2816.97
3070.04
3325.38
3585.71
129.566
368.815
608.41
848.584
1089.57
1331.6
1574.9
1819.7
2066.2
2314.59
2565
2817.57
3072.49
3330.25
3592.22
129.181
367.67
606.543
846.059
1086.48
1328.07
1571.1
1815.84
2062.53
2311.4
2562.64
2816.4
3072.81
3332.02
3594.18
128.7
366.241
604.2
842.863
1082.52
1323.48
1566.04
1810.52
2057.23
2306.44
2558.4
2813.24
3071.02
3331.58
3594.43
128.118
364.502
601.338
838.932
1077.61
1317.7
1559.57
1803.57
2050.09
2299.47
2552.01
2807.91
3067.14
3329.38
3593.79
127.425
362.433
597.917
834.209
1071.65
1310.63
1551.53
1794.79
2040.86
2290.18
2543.18
2800.11
3061.02
3325.49
3592.48
126.617
360.015
593.907
828.641
1064.59
1302.15
1541.77
1783.96
2029.26
2278.24
2531.47
2789.42
3052.28
3319.69
3590.43
125.69
357.235
589.283
822.19
1056.34
1292.17
1530.16
1770.89
2014.99
2263.22
2516.36
2775.18
3040.22
3311.41
3587.43
124.641
354.088
584.034
814.833
1046.88
1280.62
1516.57
1755.37
1997.77
2244.68
2497.17
2756.48
3023.75
3299.59
3582.98
123.473
350.578
578.162
806.57
1036.19
1267.46
1500.94
1737.28
1977.32
2222.14
2473.14
2732.1
3001.17
3282.37
3576.01
122.191
346.718
571.688
797.425
1024.29
1252.72
1483.24
1716.52
1953.44
2195.2
2443.45
2700.58
2970.01
3256.36
3563.95
120.801
342.532
564.655
787.455
1011.26
1236.46
1463.55
1693.15
1926.11
2163.63
2407.47
2660.38
2926.97
3215.42
3539.76
119.317
338.058
557.122
776.748
997.209
1218.83
1442.03
1667.36
1895.52
2127.57
2365.07
2610.54
2868.6
3149.38
3481.47
3404.46
3077.09
2801.06
2547.82
2307.19
2074.52
1847.25
1623.81
1403.14
1184.52
967.411
751.413
536.202
321.52
107.14
3462.74
3143.39
2859.91
2598.28
2350.3
2111.32
1878.59
1650.31
1425.31
1202.74
981.969
762.525
544.031
326.174
108.685
3487.01
3184.64
2903.48
2639.15
2387.05
2143.71
1906.74
1674.48
1445.75
1219.66
995.563
772.946
551.394
330.56
110.141
3499.19
3211.02
2935.22
2671.44
2417.6
2171.57
1931.55
1696.14
1464.28
1235.14
1008.09
782.595
558.235
334.644
111.499
3506.31
3228.69
2958.5
2696.7
2442.65
2195.17
1953.07
1715.26
1480.85
1249.13
1019.49
791.424
564.518
338.404
112.751
3510.96
3241.06
2975.82
2716.46
2463.02
2214.95
1971.52
1731.94
1495.51
1261.63
1029.75
799.414
570.227
341.829
113.892
3514.21
3250.05
2988.94
2732
2479.55
2231.43
1987.2
1746.35
1508.34
1272.67
1038.89
806.576
575.365
344.92
114.924
3516.59
3256.78
2999.04
2744.3
2492.98
2245.11
2000.47
1758.72
1519.49
1282.36
1046.96
812.937
579.948
347.683
115.847
3518.39
3261.95
3006.94
2754.12
2503.91
2256.44
2011.63
1769.28
1529.1
1290.79
1054.04
818.545
584.003
350.136
116.668
3519.79
3265.98
3013.18
2762.01
2512.83
2265.84
2021.01
1778.25
1537.35
1298.09
1060.21
823.453
587.567
352.295
117.391
3520.89
3269.17
3018.17
2768.38
2520.14
2273.63
2028.88
1785.85
1544.4
1304.37
1065.55
827.725
590.678
354.185
118.025
3521.77
3271.73
3022.2
2773.57
2526.15
2280.09
2035.47
1792.27
1550.41
1309.75
1070.15
831.422
593.38
355.83
118.577
3522.47
3273.79
3025.46
2777.81
2531.09
2285.46
2040.99
1797.69
1555.51
1314.35
1074.1
834.608
595.715
357.254
119.055
3523.04
3275.46
3028.13
2781.3
2535.18
2289.93
2045.61
1802.25
1559.83
1318.27
1077.48
837.343
597.724
358.482
119.468
3523.51
3276.83
3030.31
2784.16
2538.57
2293.64
2049.48
1806.1
1563.48
1321.6
1080.36
839.681
599.446
359.536
119.823
3523.89
3277.96
3032.11
2786.53
2541.37
2296.74
2052.72
1809.33
1566.57
1324.42
1082.81
841.676
600.918
360.437
120.127
3524.21
3278.89
3033.6
2788.49
2543.7
2299.33
2055.43
1812.04
1569.17
1326.81
1084.89
843.372
602.171
361.206
120.386
3524.47
3279.65
3034.83
2790.12
2545.64
2301.48
2057.7
1814.32
1571.37
1328.82
1086.65
844.81
603.236
361.86
120.606
3524.68
3280.29
3035.84
2791.47
2547.26
2303.28
2059.59
1816.23
1573.21
1330.52
1088.14
846.027
604.138
362.415
120.793
3524.86
3280.81
3036.69
2792.59
2548.6
2304.78
2061.18
1817.83
1574.76
1331.95
1089.39
847.053
604.9
362.884
120.952
3525.01
3281.24
3037.39
2793.52
2549.71
2306.03
2062.5
1819.17
1576.05
1333.15
1090.44
847.917
605.542
363.279
121.085
3525.13
3281.6
3037.97
2794.29
2550.64
2307.06
2063.6
1820.29
1577.13
1334.15
1091.32
848.642
606.081
363.61
121.197
3525.23
3281.9
3038.45
2794.93
2551.41
2307.92
2064.52
1821.22
1578.04
1334.98
1092.06
849.247
606.531
363.888
121.291
3525.31
3282.14
3038.84
2795.46
2552.04
2308.63
2065.27
1821.98
1578.78
1335.68
1092.67
849.749
606.905
364.119
121.369
3525.38
3282.34
3039.16
2795.89
2552.56
2309.21
2065.89
1822.61
1579.4
1336.25
1093.17
850.163
607.213
364.309
121.433
3525.44
3282.51
3039.42
2796.23
2552.98
2309.69
2066.4
1823.13
1579.89
1336.71
1093.58
850.501
607.465
364.464
121.485
3525.48
3282.63
3039.63
2796.51
2553.31
2310.06
2066.8
1823.54
1580.29
1337.08
1093.91
850.772
607.667
364.589
121.528
3525.51
3282.73
3039.79
2796.72
2553.57
2310.36
2067.11
1823.86
1580.61
1337.37
1094.17
850.984
607.826
364.687
121.561
3525.54
3282.81
3039.91
2796.88
2553.76
2310.57
2067.34
1824.09
1580.84
1337.59
1094.36
851.145
607.946
364.761
121.586
3525.56
3282.86
3039.99
2796.99
2553.89
2310.72
2067.51
1824.26
1581
1337.75
1094.5
851.257
608.03
364.813
121.603
3525.57
3282.88
3040.04
2797.05
2553.97
2310.81
2067.6
1824.36
1581.1
1337.84
1094.58
851.326
608.082
364.845
121.614
3525.57
3282.89
3040.05
2797.07
2553.99
2310.83
2067.63
1824.39
1581.13
1337.87
1094.61
851.353
608.103
364.859
121.619
3525.56
3282.87
3040.02
2797.04
2553.95
2310.8
2067.59
1824.36
1581.11
1337.85
1094.59
851.341
608.094
364.854
121.617
3525.55
3282.84
3039.96
2796.96
2553.86
2310.7
2067.49
1824.26
1581.02
1337.77
1094.53
851.288
608.057
364.831
121.61
3525.53
3282.77
3039.86
2796.83
2553.71
2310.53
2067.32
1824.1
1580.86
1337.63
1094.41
851.195
607.989
364.79
121.596
3525.49
3282.68
3039.71
2796.64
2553.49
2310.3
2067.08
1823.86
1580.64
1337.44
1094.24
851.061
607.891
364.73
121.576
3525.45
3282.55
3039.51
2796.38
2553.19