/*--------------------------------*- C++ -*----------------------------------*\
| =========                 |                                                 |
| \\      /  F ield         | OpenFOAM: The Open Source CFD Toolbox           |
|  \\    /   O peration     | Version:  5.x                                   |
|   \\  /    A nd           | Web:      www.OpenFOAM.org                      |
|    \\/     M anipulation  |                                                 |
\*---------------------------------------------------------------------------*/
FoamFile
{
    version     2.0;
    format      ascii;
    class       volScalarField;
    location    "2";
    object      gradTy;
}
// * * * * * * * * * * * * * * * * * * * * * * * * * * * * * * * * * * * * * //

dimensions      [0 -1 0 1 0 0 0];

internalField   nonuniform List<scalar> 
6300
(
5635.01
14892.1
24110.1
33263
42324.3
51266.9
60063.6
68686.9
77109
85302.2
93239.7
100896
108246
115270
121950
19.0373
57.2153
95.6929
134.631
174.129
214.201
254.736
295.469
335.947
375.506
413.265
448.151
478.959
504.455
523.512
31.6129
95.0235
158.972
223.755
289.572
356.48
424.333
492.723
560.921
627.826
691.945
751.421
804.129
847.865
880.586
44.0015
132.289
221.407
311.83
403.907
497.792
593.364
690.135
787.149
882.889
975.221
1061.4
1138.22
1202.22
1250.19
56.103
168.716
282.523
398.234
516.41
637.385
761.159
887.261
1014.6
1141.3
1264.57
1380.68
1485.03
1572.54
1638.3
67.7946
203.938
341.72
482.147
626.081
774.141
926.577
1083.09
1242.62
1403.06
1561.01
1711.61
1848.56
1964.5
2052.01
78.9275
237.509
398.25
562.526
731.588
906.472
1087.86
1275.84
1469.64
1667.2
1864.69
2056.1
2232.96
2384.77
2500.18
89.3292
268.904
451.222
638.083
831.226
1032.25
1242.46
1462.68
1692.81
1931.29
2174.34
2414.97
2642.28
2841.26
2994.37
98.8095
297.542
499.623
707.321
922.933
1148.76
1386.99
1639.52
1907.51
2190.7
2486.24
2787.03
3079.76
3343.43
3550.39
107.171
322.811
542.377
768.6
1004.37
1252.78
1517.12
1800.78
2106.88
2437.62
2792.74
3166.98
3546.1
3902.12
4191.03
114.229
344.134
578.441
820.282
1073.1
1340.79
1627.85
1939.47
2281.5
2660
3079.93
3541.86
4035.33
4527.64
4950.53
119.832
361.035
606.934
860.934
1126.89
1409.35
1713.91
2047.63
2419.48
2840.8
3324.95
3884.95
4525.45
5222.26
5881.54
123.889
373.218
627.288
889.578
1164.09
1455.72
1770.72
2117.51
2507.86
2958.59
3493.9
4147.28
4958.97
5954.06
7058.54
126.388
380.636
639.386
905.939
1184.12
1478.62
1795.62
2143.72
2535.7
2991.63
3544.56
4251.04
5208.74
6576.09
8524.29
127.407
383.53
643.64
910.621
1187.74
1478.94
1789.3
2125.91
2499.45
2927.47
3441.45
4103.28
5048.55
6616.85
9812.95
127746
132762
137521
142026
146278
150282
154047
157579
160891
163994
166899
169620
172170
174562
176809
178924
180920
182809
184602
186310
187944
189513
191027
192493
193918
195310
196674
198015
199336
200640
201929
203205
204468
205717
206953
208174
209379
210566
211734
212880
214003
215100
216169
217207
218211
219178
220106
220992
221835
222631
223379
224076
224720
225309
225841
226312
226719
227059
227328
227522
227638
227671
227615
227466
227218
226864
226399
225813
225099
224248
223250
222093
220767
219260
217557
215647
213516
211148
208530
205646
202483
199025
195259
191173
186754
181995
176887
171426
165612
159446
534.279
538.683
537.639
531.302
520.03
504.337
484.85
462.252
437.235
410.462
382.54
354.003
325.306
296.828
268.875
241.693
215.476
190.381
166.538
144.058
123.045
103.6
85.8218
69.8092
55.6554
43.4391
33.2136
24.9929
18.7402
14.3588
11.6929
10.5367
10.6556
11.8131
13.7991
16.4515
19.665
23.3849
27.5891
32.2624
37.3711
42.8451
48.5733
54.4133
60.2139
65.8432
71.2151
76.3058
81.1585
85.8753
90.5985
95.4871
100.693
106.341
112.517
119.265
126.598
134.511
143.005
152.101
161.857
172.369
183.771
196.221
209.888
224.935
241.5
259.689
279.56
301.127
324.36
349.194
375.539
403.283
432.292
462.406
493.42
525.07
557.006
588.78
619.827
649.459
676.882
701.208
721.507
736.86
746.426
749.525
745.701
734.783
899.029
906.476
904.491
893.367
873.758
846.606
813.037
774.268
731.513
685.922
638.531
590.241
541.81
493.856
446.876
401.261
357.317
315.287
275.369
237.739
202.559
169.992
140.205
113.37
89.6558
69.2119
52.1479
38.5071
28.2403
21.1871
17.0713
15.5179
16.0923
18.3556
21.9241
26.5135
31.9573
38.1937
45.2263
53.0698
61.696
70.9959
80.7684
90.7411
100.617
110.136
119.127
127.542
135.468
143.103
150.722
158.628
167.106
176.383
186.604
197.83
210.057
223.246
237.366
252.435
268.54
285.849
304.6
325.08
347.6
372.454
399.898
430.117
463.213
499.204
538.027
579.562
623.648
670.099
718.706
769.222
821.337
874.642
928.589
982.448
1035.29
1085.95
1133.06
1175.09
1210.39
1237.31
1254.34
1260.23
1254.13
1235.72
1277.11
1287.75
1284.4
1267.53
1238.23
1197.99
1148.59
1091.9
1029.75
963.846
895.687
826.552
757.493
689.351
622.785
558.3
496.282
437.031
380.791
327.778
278.198
232.269
190.227
152.329
118.839
90.0103
66.0462
47.0561
33.0062
23.6783
18.6523
17.3272
18.9878
22.909
28.4683
35.2333
42.9953
51.7421
61.581
72.6339
84.9332
98.3471
112.555
127.086
141.413
155.067
167.742
179.36
190.072
200.23
210.308
220.822
232.246
244.942
259.12
274.834
292.011
310.518
330.242
351.158
373.372
397.135
422.82
450.887
481.831
516.128
554.182
596.282
642.58
693.081
747.667
806.132
868.226
933.685
1002.24
1073.6
1147.41
1223.16
1300.16
1377.45
1453.74
1527.39
1596.42
1658.51
1711.17
1751.85
1778.14
1788.04
1780.16
1753.93
1675
1689.09
1683.67
1659.53
1618.36
1562.49
1494.57
1417.31
1333.33
1244.95
1154.18
1062.69
971.789
882.515
795.638
711.729
631.209
554.39
481.523
412.83
348.541
288.912
234.249
184.906
141.28
103.774
72.7529
48.4628
30.9443
19.9468
14.8757
14.8077
18.5984
25.0728
33.2447
42.4849
52.5815
63.6832
76.1518
90.3661
106.528
124.516
143.835
163.684
183.135
201.362
217.837
232.433
245.43
257.427
269.221
281.662
295.51
311.322
329.383
349.689
372.007
395.998
421.363
447.972
475.937
505.613
537.569
572.51
611.194
654.351
702.595
756.359
815.847
881.028
951.672
1027.43
1107.9
1192.75
1281.68
1374.4
1470.6
1569.79
1671.23
1773.8
1875.9
1975.42
2069.66
2155.42
2229.12
2287.01
2325.44
2341.33
2332.48
2297.94
2100.52
2118.41
2109.75
2075.9
2019.55
1944.23
1853.86
1752.32
1643.14
1529.4
1413.65
1297.89
1183.68
1072.16
964.156
860.224
760.754
666.012
576.199
491.503
412.135
338.372
270.579
209.225
154.879
108.175
69.7431
40.095
19.469
7.65783
3.87063
6.7071
14.3187
24.7651
36.4548
48.4742
60.6898
73.6243
88.1755
105.26
125.458
148.732
174.314
200.816
226.58
250.14
270.594
287.769
302.183
314.872
327.162
340.435
355.904
374.427
396.377
421.611
449.56
479.464
510.658
542.805
576.003
610.779
647.99
688.708
734.082
785.212
843.023
908.153
980.875
1061.07
1148.27
1241.87
1341.23
1445.89
1555.58
1670.14
1789.42
1913.12
2040.6
2170.73
2301.7
2430.94
2555
2669.6
2769.75
2850.05
2905.11
2930.16
2921.7
2878.11
2563.66
2585.8
2572
2524.57
2447.92
2347.53
2229.16
2098.22
1959.44
1816.7
1673.06
1530.83
1391.67
1256.73
1126.78
1002.28
883.48
770.529
663.508
562.505
467.667
379.246
297.651
223.471
157.495
100.687
54.1085
18.7598
-4.67483
-16.1608
-16.6483
-8.24634
5.97879
22.6879
39.2094
54.1989
67.7794
81.2521
96.5645
115.683
139.967
169.635
203.478
239.018
273.204
303.394
328.076
347.085
361.423
372.892
383.69
396.05
411.906
432.602
458.653
489.633
524.311
561.088
598.597
636.138
673.816
712.451
753.376
798.215
848.696
906.464
972.917
1049.02
1135.15
1231
1335.67
1447.99
1566.91
1691.78
1822.44
1959.03
2101.84
2250.96
2406.12
2566.39
2729.94
2893.84
3053.89
3204.5
3338.88
3449.34
3527.91
3567.16
3561.39
3507.76
3077.85
3104.81
3082.48
3015.18
2910.33
2776.57
2622.39
2455.26
2281.28
2105.14
1930.31
1759.21
1593.45
1434.03
1281.47
1136.02
997.705
866.432
742.082
624.568
513.897
410.239
313.994
225.856
146.864
78.4264
22.2636
-19.77
-46.063
-55.8554
-50.0072
-31.6258
-5.98041
20.8363
44.1236
61.9038
74.9739
86.1788
99.4173
118.611
146.665
184.464
230.132
279.104
325.515
364.51
393.655
413.054
424.723
431.804
437.898
446.558
460.865
482.998
513.765
552.265
595.975
641.598
686.433
729.215
770.194
810.772
853.068
899.544
952.756
1015.15
1088.85
1175.39
1275.36
1388.14
1511.98
1644.54
1783.93
1929.25
2080.64
2238.89
2405.04
2580
2764.17
2957.18
3157.51
3362.16
3566.2
3762.61
3942.28
4094.39
4207.12
4268.82
4269.82
4204.82
3662.33
3694.59
3657.5
3559.67
3414.15
3234.82
3034.1
2821.99
2606.02
2391.51
2182
1979.72
1785.95
1601.25
1425.77
1259.35
1101.64
952.228
810.685
676.654
549.91
430.445
318.557
214.967
120.937
38.3935
-30.0218
-81.0592
-111.304
-118.165
-101.508
-65.5619
-19.7254
23.9645
56.8625
76.2826
84.7431
88.0645
93.5811
108.661
139.209
187.836
251.902
322.749
388.37
439.673
473.13
490.012
494.486
491.995
488.268
488.79
498.416
520.819
557.605
607.262
664.756
723.115
777.1
824.771
867.027
906.501
946.619
991.052
1043.47
1107.43
1186.18
1282.29
1396.97
1529.24
1675.59
1831.11
1992.24
2157.83
2328.8
2507.2
2695.4
2895.56
3109.28
3337.21
3578.68
3831.1
4089.25
4344.58
4585.1
4795.86
4959.53
5057.59
5073.03
4995.12
4346.66
4383.97
4319.74
4172.55
3966.4
3723.64
3461.97
3194.1
2928.53
2670.54
2423.16
2187.9
1965.26
1755.12
1556.97
1370.06
1193.58
1026.64
868.432
718.213
575.418
439.72
311.159
190.301
78.4655
-21.9841
-107.329
-172.285
-210.213
-214.338
-180.783
-113.742
-30.3859
42.6226
88.9953
106.425
101.892
86.767
73.9514
76.4142
105.696
168.95
263.877
373.881
471.806
540.491
576.428
584.79
574.231
553.918
532.471
517.866
517.524
537.889
582.873
650.942
732.267
810.908
876.843
928.108
967.853
1001.29
1033.94
1071.04
1117.55
1178.38
1258.47
1362.41
1493.21
1650.02
1825.93
2009.57
2194.06
2378.6
2566.2
2761.3
2968.42
3191.52
3433.82
3697.61
3983.92
4291.65
4616.18
4947.71
5270.58
5564.93
5806.23
5965.09
6010.43
5918.64
5180.67
5219.27
5101.15
4870.05
4571.13
4239.44
3898.52
3562.68
3239.9
2934.09
2646.69
2377.74
2126.44
1891.6
1671.83
1465.67
1271.66
1088.41
914.588
749.011
590.638
438.66
292.617
152.596
19.5576
-104.149
-214.028
-302.461
-357.83
-364.799
-308.315
-185.456
-26.1926
99.5835
162.75
168.136
134.234
82.0821
32.257
5.48172
23.1945
104.382
254.065
442.323
597.262
688.372
719.338
706.719
667.919
617.374
566.72
526.303
506.716
519.412
574.813
675.452
803.572
916.929
997.651
1047.97
1077.71
1097.14
1114.79
1137.41
1170.95
1221.53
1296.33
1403.77
1551.93
1743.21
1965.05
2186.68
2395.7
2594.87
2792.66
2997.96
3218.28
3459.68
3727.23
4025.42
4358.13
4727.78
5132.79
5563.07
5996.88
6410.09
6771.34
7035.75
7145.02
7042.49
6260.03
6279.89
6044.96
5664.9
5222.75
4768.28
4327.49
3912.22
3526.6
3170.89
2843.46
2541.94
2263.73
2006.22
1766.95
1543.63
1334.13
1136.45
948.762
769.33
596.551
428.962
265.319
104.76
-52.8572
-206.289
-351.669
-480.307
-575.194
-606.689
-531.485
-309.661
26.1427
246.615
319.613
286.327
192.76
73.9503
-42.7251
-129.611
-150.812
-58.9241
188.592
558.62
814.499
922.729
924.868
866.207
778.379
680.84
586.083
504.6
449.277
439.3
501.478
660.268
896.022
1069.85
1162.14
1197.39
1202.29
1195.49
1188.36
1187.97
1199.71
1229.69
1287.06
1386.4
1548.41
1792.28
2104.34
2381.82
2611.4
2812.95
3008.14
3212.83
3437.6
3689.99
3976.32
4303.27
4678.89
5112.74
5612.72
6173.04
6752.49
7329.72
7875.54
8329.42
8584.19
8495.21
7805.88
7707.01
7197.32
6548.77
5891.74
5277.08
4719.42
4218.79
3770.04
3366.76
3002.74
2672.44
2371.05
2094.43
1839
1601.61
1379.47
1170.04
970.978
780.013
594.942
413.544
233.552
52.6651
-131.313
-320.033
-513.418
-706.747
-883.835
-1002.22
-965.787
-598.006
244.524
605.964
629.472
491.269
287.584
62.6953
-160.65
-359.332
-487.708
-446.384
-53.3542
839.22
1244.27
1309.76
1217.85
1067.6
902.724
740.196
586.23
445.125
326.437
255.186
288.935
534.178
1077.6
1340.13
1408.74
1390.49
1343.7
1294.26
1252.21
1221
1202.15
1198.34
1217.28
1278.72
1426.96
1743.05
2293.35
2645.84
2867.38
3040.07
3209.84
3398.64
3617.04
3871.25
4166.76
4510.86
4915.59
5402.26
6005.48
6755.19
7510.96
8294.22
9111.76
9909.42
10518
10574
10472
9725.19
8549.15
7444.42
6499.35
5703.42
5028.91
4450.35
3947.71
3505.83
3113.23
2761.09
2442.51
2151.96
1884.89
1637.46
1406.36
1188.6
981.41
782.104
587.948
396.014
202.995
4.95394
-202.999
-427.109
-675.29
-956.608
-1277.03
-1620.7
-1877.25
-1570.03
1155.58
1451.82
1172.08
790.388
412.836
49.1165
-314.182
-690.383
-1069.06
-1340.39
-1014.75
1821.72
2162.82
1923.31
1594.7
1289.87
1023.53
787.06
567.686
353.201
135.112
-80.3025
-228.329
-21.4296
1663.55
1889.58
1780.36
1624.59
1488.86
1382.29
1300.35
1236.15
1182.82
1134.11
1086.2
1045.92
1063.64
1356.45
2767.07
3098.31
3193.55
3271.26
3383.96
3541.63
3744.72
3992.84
4287.01
4630.88
5034.03
5523.63
6187.01
7328.22
8229.47
9208.9
10376.1
11761.2
13246.8
14157.5
16762.3
12360.9
9797.72
8109.68
6891.76
5954.52
5199.9
4572.27
4037.61
3573.69
3165.22
2801.22
2473.44
2175.51
1902.34
1649.68
1413.91
1191.82
980.39
776.69
577.675
379.98
179.61
-28.5334
-251.457
-499.551
-789.461
-1150.16
-1636.75
-2364.61
-3600.51
-6024.53
5564.82
3126.95
1861.35
1083.43
518.068
34.846
-449.206
-1017.93
-1805.02
-3094.07
-5591.8
6397.41
3917.3
2664.98
1937.14
1456.55
1101.17
809.154
541.941
266.301
-60.2435
-513.02
-1256.88
-2705.66
4350.37
2921.78
2218.99
1829.78
1592
1434.76
1322.88
1235.56
1156.72
1068.65
943.999
729.478
304.072
-639.959
4795
3890.48
3544.85
3451.92
3493.19
3619.05
3807.38
4047.94
4335.46
4665.31
5027.74
5394.46
5680.14
8246.4
8834.99
9852.7
11326.1
13467.7
16802.9
22615.9
152282
143981
135216
126013
116403
106420
96100.1
85481.3
74600.7
63495.6
52202.7
40757.7
29195.6
17550.4
5855.62
715.109
684.294
645.38
599.965
549.777
496.483
441.549
386.155
331.162
277.124
224.324
172.82
122.495
73.1006
24.2986
1202.18
1149.43
1082.8
1005.2
919.712
829.268
736.407
643.129
550.86
460.486
372.426
286.723
203.127
121.179
40.2734
1705.3
1628.33
1531.12
1418.25
1294.52
1164.4
1031.62
899.037
768.614
641.494
518.146
398.503
282.107
168.213
55.892
2232.25
2127.38
1995
1842.07
1675.66
1502.12
1326.57
1152.73
983.009
818.682
660.12
507.013
358.571
213.67
70.9741
2792.31
2653.85
2479.35
2279.28
2063.85
1841.79
1619.75
1402.25
1191.96
990.055
796.59
610.821
431.471
256.912
85.3054
3397.11
3216.26
2989.19
2731.75
2458.59
2181.37
1908.33
1644.51
1392.48
1152.94
925.318
708.171
499.549
297.185
98.6352
4061.85
3824.73
3529.22
3199.78
2857.24
2516.67
2187.57
1874.91
1580.46
1303.88
1043.52
796.956
561.338
333.624
110.678
4807.49
4491.33
4102.94
3680.72
3253.74
2840.35
2450.23
2086.98
1750.48
1438.54
1147.89
874.748
615.189
365.276
121.121
5664.41
5229.94
4710.32
4166.26
3636.48
3140.65
2685.9
2272.16
1895.84
1551.85
1234.68
938.909
659.358
391.149
129.644
6678.18
6053.49
5341.92
4637.34
3985.08
3399.75
2880.43
2419.82
2008.77
1638.25
1300.02
986.797
692.147
410.297
135.943
7918.82
6963.54
5966.2
5055.82
4266.55
3592.64
3016.09
2517.8
2081.09
1692.28
1340.28
1016.06
712.098
421.924
139.765
9485.59
7915.31
6503.24
5352.89
4432.45
3687.98
3073.32
2554.06
2105.42
1709.41
1352.68
1025.01
718.221
425.516
140.951
11434.8
8708.45
6778.28
5419.79
4422.15
3653.33
3034.99
2519.58
2077
1687.16
1335.97
1013.02
710.221
420.945
139.465
13139.7
8704.88
6481.26
5125.57
4182.8
3468.03
2893.56
2412.15
1995.74
1626.18
1290.95
980.828
688.657
408.558
135.426
127.228
382.789
641.691
906.273
1179.06
1462.88
1761.11
2078.04
2419.65
2795.25
3221.06
3728.37
4383.53
5339
6967.34
126.21
379.523
635.511
895.944
1162.56
1437.03
1720.84
2015.1
2320.21
2635.02
2954.97
3266
3521.85
3548.6
2614.48
124.567
374.384
626.215
881.281
1140.57
1404.65
1673.24
1944.56
2213.92
2471.1
2694.96
2841.83
2819.09
2425.32
1244.05
122.446
367.832
614.648
863.647
1115.22
1369.07
1623.69
1875.3
2116
2330.22
2488.32
2535.33
2373.85
1848.82
781.088
119.976
360.273
601.539
844.192
1088.23
1332.91
1576.17
1813.56
2036.37
2228.2
2358.72
2373.52
2180.99
1649.12
661.455
117.262
352.026
587.445
823.741
1060.76
1297.7
1532.67
1761.86
1978.2
2168.69
2309.4
2355.57
2223.71
1765.86
774.609
114.379
343.311
572.719
802.756
1033.31
1263.82
1493.12
1719.03
1937.89
2143.67
2325.63
2461.18
2492.71
2252.97
1275.21
111.369
334.252
557.536
781.388
1005.84
1230.76
1455.88
1681.02
1906.61
2135.15
2373.98
2638.96
2950.02
3252.51
2867.89
108.257
324.905
541.938
759.577
978.018
1197.51
1418.6
1642.64
1873.21
2119.42
2404.09
2784.65
3413.17
4729.09
8176.54
105.05
315.28
525.902
737.182
949.435
1163.14
1379.23
1599.67
1828.88
2076.95
2367.52
2758.05
3398.86
4725.28
8176.97
101.749
305.376
509.394
714.089
919.813
1127.09
1336.8
1550.57
1771.4
2004.93
2261.45
2557.57
2908.31
3245.44
2872.72
98.3578
295.196
492.405
690.26
889.087
1089.32
1291.54
1496.53
1705.04
1916.91
2127.82
2319.1
2427.13
2258.45
1299.42
94.8813
284.754
474.96
665.74
857.365
1050.13
1244.33
1440.01
1636.32
1829.5
2007.79
2138.39
2138.06
1820.25
864.832
91.328
274.077
457.109
640.622
824.83
1009.94
1196.07
1383.05
1569.72
1752.4
1920.85
2048.55
2069.44
1824.79
967.904
87.7096
263.202
438.918
615.014
791.658
969.015
1147.22
1326.27
1505.89
1685.17
1862.17
2032.87
2185.19
2254.5
1820.22
84.0396
252.171
420.459
589.02
757.981
927.493
1097.75
1269.09
1442.27
1619.51
1807.87
2029.96
2358.57
3033.94
4899.06
80.333
241.027
401.809
562.744
723.916
885.445
1047.54
1210.63
1375.82
1546.12
1730.14
1953.08
2291.15
2987.2
4882.64
76.6063
229.822
383.049
536.3
689.6
843.002
996.62
1150.7
1305.82
1463.21
1625.38
1796.26
1975.15
2107.59
1769.22
72.8769
218.608
364.271
509.82
655.212
800.41
945.38
1090.07
1234.25
1376.98
1514.58
1633.89
1691.45
1554.95
878.078
69.1633
207.441
345.571
483.447
620.959
757.978
894.341
1029.78
1163.69
1294.33
1416.49
1514.44
1542.54
1377.6
736.459
65.4837
196.377
327.046
457.329
587.049
716.002
843.948
970.571
1095.4
1217.59
1335.25
1443.53
1527.71
1530.99
1172.49
61.8556
185.47
308.79
431.602
553.672
674.73
794.477
912.613
1028.97
1144.01
1260.53
1389.38
1569.1
1935.69
2988.06
58.2948
174.768
290.887
406.393
520.999
634.371
746.132
855.898
963.461
1069.43
1177.29
1299.96
1480.77
1864.23
2958.05
54.8151
164.314
273.41
381.812
489.186
595.135
699.178
800.722
899.074
993.544
1083.78
1170.2
1251.77
1299.56
1069.54
51.427
154.139
256.418
357.947
458.364
557.227
653.965
747.771
837.394
920.621
992.937
1043.83
1046.28
927.879
506.806
48.1376
144.266
239.947
334.856
428.623
520.799
610.791
697.732
780.168
855.287
916.99
951.133
924.737
766.415
355.583
44.95
134.704
224.013
312.559
399.989
485.888
569.739
650.826
728.029
799.28
860.192
900.491
894.826
780.32
412.931
41.864
125.45
208.609
291.038
372.419
452.402
530.606
606.621
680.027
750.457
817.715
881.775
940.505
969.841
788.664
38.876
116.494
193.709
270.245
345.819
420.151
492.994
564.228
634.094
703.838
777.462
866.761
1006.59
1305.54
2133.93
35.9806
107.818
179.281
250.119
320.081
388.932
456.499
522.783
588.244
654.52
726.322
816.648
962.175
1273.56
2121.91
33.171
99.3991
165.285
230.599
295.11
358.601
420.891
481.907
541.824
601.36
662.314
728.194
802.564
868.666
749.752
30.4398
91.2168
151.685
211.633
270.845
329.098
386.162
441.789
495.663
547.208
594.875
633.835
648.681
592.239
336.321
27.7793
83.2473
138.442
193.174
247.241
300.416
352.425
402.879
451.113
495.738
533.474
556.21
544.292
454.327
212.274
25.1807
75.4652
125.517
175.172
224.249
272.537
319.758
365.501
409.057
449.043
482.478
502.639
494.09
422.022
214.956
22.6344
67.8419
112.863
157.565
201.799
245.39
288.108
329.629
369.471
406.883
440.686
468.992
487.986
483.455
372.385
20.1297
60.3447
100.425
140.274
179.788
218.839
257.276
294.911
331.559
367.214
402.697
441.796
498.204
618.86
969.875
17.6546
52.9374
88.1406
123.21
158.086
192.704
226.987
260.862
294.319
327.648
362.179
402.563
463.788
594.277
960.677
15.1963
45.581
75.9426
106.269
136.552
166.786
196.967
227.086
257.151
287.227
317.578
348.838
381.254
405.846
342.7
12.7421
38.2358
63.761
89.3478
115.039
140.891
166.97
193.329
219.953
246.593
272.324
294.289
304.133
278.327
156.834
10.2794
30.8634
51.5277
72.3418
93.3985
114.82
136.758
159.367
182.721
206.566
229.661
248.131
251.748
217.24
104.414
7.79726
23.4292
39.1805
55.1536
71.4873
88.3708
106.057
124.861
145.12
167.032
190.181
212.259
225.811
210.521
118.654
5.28689
15.9057
26.668
37.6999
49.175
61.3412
74.5533
89.3164
106.341
126.606
151.411
182.274
219.872
256.95
233.88
2.74282
8.27489
13.9563
19.9212
26.3613
33.5598
41.9438
52.1695
65.276
82.9904
108.395
147.572
214.253
345.106
657.884
0.163737
0.532163
1.03382
1.79378
2.99711
4.92679
8.02298
12.9861
20.9724
33.9929
55.7718
93.7239
164.02
306.862
642.71
-2.44685
-7.31229
-12.0832
-16.6626
-20.898
-24.5479
-27.2305
-28.3372
-26.8709
-21.133
-8.13149
17.3642
63.3538
134.522
183.301
-5.08044
-15.2326
-25.3501
-35.3813
-45.2293
-54.7294
-63.6185
-71.4921
-77.7296
-81.3545
-80.7645
-73.2812
-54.8518
-22.3219
12.3132
-7.72384
-23.1881
-38.6955
-54.2529
-69.8349
-85.3741
-100.757
-115.833
-130.457
-144.561
-158.243
-171.587
-182.904
-180.673
-117.544
-10.3598
-31.126
-52.0267
-73.1358
-94.5064
-116.171
-138.157
-160.545
-183.607
-208.124
-236.023
-271.365
-320.425
-381.363
-366.84
-12.968
-38.9839
-65.2355
-91.8684
-119.014
-146.792
-175.334
-204.851
-235.814
-269.411
-308.707
-361.69
-449.767
-634.518
-1115.59
-15.5257
-46.6928
-78.2041
-110.279
-143.125
-176.935
-211.895
-248.223
-286.269
-326.82
-371.972
-427.726
-512.056
-681.974
-1134.25
-18.0083
-54.1786
-90.8074
-128.192
-166.616
-206.337
-247.575
-290.479
-335.069
-381.124
-427.969
-474.014
-515.003
-533.44
-428.733
-20.3899
-61.3631
-102.915
-145.424
-189.256
-234.749
-282.172
-331.649
-382.946
-434.983
-484.631
-523.924
-533.717
-470.512
-246.015
-22.6434
-68.1643
-114.388
-161.78
-210.8
-261.888
-315.424
-371.647
-430.416
-490.615
-548.61
-594.448
-603.251
-519.692
-249.129
-24.7406
-74.4972
-125.082
-177.051
-230.969
-287.399
-346.898
-409.978
-477.009
-547.909
-621.176
-690.848
-737.082
-698.87
-410.427
-26.6534
-80.2756
-134.848
-191.019
-249.455
-310.857
-375.977
-445.674
-521.041
-603.703
-696.407
-803.71
-929.759
-1052.02
-941.575
-28.3541
-85.4152
-143.541
-203.465
-265.95
-331.816
-401.976
-477.548
-560.142
-652.684
-761.687
-903.778
-1125.33
-1567.08
-2704.06
-29.8172
-89.8375
-151.024
-214.184
-280.165
-349.877
-424.32
-504.665
-592.478
-690.402
-804.194
-948.913
-1168.3
-1599.83
-2716.83
-31.0198
-93.4726
-157.176
-222.999
-291.861
-364.74
-442.67
-526.721
-617.941
-717.275
-825.43
-942.445
-1064.29
-1157.05
-983.715
-31.9434
-96.2629
-161.895
-229.759
-300.839
-376.182
-456.876
-543.924
-637.918
-738.194
-840.712
-932.86
-980.747
-899.385
-496.804
-32.5744
-98.1658
-165.103
-234.344
-306.928
-383.999
-466.775
-556.429
-653.684
-757.727
-863.385
-954.229
-987.194
-865.01
-420.457
-32.9061
-99.1581
-166.753
-236.663
-309.976
-387.943
-472.005
-563.778
-664.881
-776.306
-896.525
-1015.99
-1101.58
-1054.67
-619.443
-32.9403
-99.2423
-166.836
-236.676
-309.867
-387.744
-471.986
-564.773
-669.051
-788.937
-930.36
-1101.47
-1308.17
-1514.17
-1376.61
-32.6902
-98.4542
-165.4
-234.419
-306.577
-383.217
-466.139
-557.914
-662.523
-786.765
-943.759
-1162.42
-1515.43
-2212.43
-3950.36
-32.1817
-96.8702
-162.565
-230.041
-300.246
-374.415
-454.25
-542.27
-642.502
-761.998
-914.515
-1130.25
-1484.02
-2188.1
-3940.79
-31.4554
-94.6122
-158.535
-223.826
-291.238
-361.766
-436.782
-518.272
-609.246
-714.45
-841.545
-1002.4
-1209.55
-1435.83
-1344.87
-30.5662
-91.8472
-153.596
-216.196
-280.141
-346.088
-414.921
-487.812
-566.252
-651.848
-745.298
-842.588
-921.984
-904.05
-553.803
-29.5814
-88.7815
-148.108
-207.692
-267.73
-328.498
-390.346
-453.623
-518.434
-583.948
-646.553
-695.38
-702.184
-603.199
-288.759
-28.5785
-85.6519
-142.483
-198.933
-254.889
-310.252
-364.888
-418.494
-470.276
-518.227
-557.55
-577.54
-556.029
-452.118
-206.477
-27.6411
-82.7145
-137.164
-190.577
-242.538
-292.607
-340.258
-384.76
-424.929
-458.666
-482.157
-488.717
-467.298
-399.647
-240.489
-26.8566
-80.2345
-132.605
-183.288
-231.58
-276.738
-317.93
-354.169
-384.204
-406.394
-418.722
-419.542
-410.916
-410.984
-498.215
-26.3127
-78.4784
-129.26
-177.717
-222.877
-263.72
-299.159
-328.026
-349.086
-361.151
-363.492
-357.163
-348.781
-362.173
-478.866
-26.096
-77.7079
-127.572
-174.496
-217.25
-254.552
-285.07
-307.446
-320.382
-322.846
-314.501
-296.459
-271.821
-242.015
-176.03
-26.2902
-78.1758
-127.967
-174.231
-215.487
-250.193
-276.754
-293.564
-299.12
-292.24
-272.462
-240.584
-198.727
-147.27
-72.0951
-26.9746
-80.1226
-130.853
-177.505
-218.353
-251.588
-275.326
-287.641
-286.666
-270.79
-239.05
-191.892
-132.564
-69.2363
-16.2143
-28.2231
-83.7722
-136.611
-184.869
-226.583
-259.677
-281.949
-291.091
-284.733
-260.559
-216.578
-151.919
-69.454
15.7103
53.8492
-30.1019
-89.3269
-145.59
-196.833
-240.875
-275.376
-297.808
-305.446
-295.343
-264.291
-208.711
-124.597
-8.54068
132.998
224.997
-32.6674
-96.96
-158.093
-213.853
-261.866
-299.547
-324.056
-332.259
-320.671
-285.264
-220.925
-119.773
34.2872
284.216
772.083
-35.9633
-106.807
-174.363
-236.303
-290.098
-332.949
-361.732
-372.952
-362.704
-326.532
-258.969
-152.025
10.0816
269.493
767.232
-40.0168
-118.957
-194.565
-264.455
-325.99
-376.198
-411.7
-428.677
-422.896
-389.786
-324.611
-222.903
-82.1457
88.5702
210.562
-44.8352
-133.436
-218.768
-298.45
-369.802
-429.725
-474.613
-500.314
-502.204
-475.475
-415.831
-321.168
-195.534
-58.9572
30.6228
-50.4005
-150.198
-246.916
-338.266
-421.596
-493.749
-550.918
-588.573
-601.505
-584.163
-531.542
-441.155
-316.769
-174.111
-44.745
-56.6658
-169.11
-278.812
-383.677
-481.189
-568.22
-640.826
-694.065
-721.918
-717.458
-673.602
-584.909
-450.857
-280.183
-92.497
-63.5495
-189.932
-314.08
-434.212
-548.084
-652.738
-744.217
-817.231
-864.824
-878.18
-846.882
-760.256
-610.481
-398.154
-138.416
-70.932
-212.309
-352.141
-489.105
-621.391
-746.418
-860.448
-958.072
-1031.53
-1069.94
-1058.64
-979.5
-813.596
-549.091
-196.224
-78.6526
-235.759
-392.195
-547.245
-699.735
-847.728
-988.068
-1115.69
-1222.59
-1296.22
-1317.51
-1259
-1085.19
-761.395
-281.522
-86.5097
-259.672
-433.206
-607.154
-781.187
-954.328
-1124.49
-1287.69
-1436.71
-1558.79
-1631.77
-1618.53
-1460.92
-1082.06
-424.561
-94.2649
-283.319
-473.918
-666.985
-863.231
-1062.96
-1265.69
-1469.47
-1669.49
-1855.39
-2005.84
-2078.22
-1990.19
-1596.16
-700.636
-101.652
-305.882
-512.899
-724.582
-942.819
-1169.45
-1406.09
-1653.78
-1911.99
-2176.49
-2434
-2649.18
-2731.83
-2458.41
-1327.85
-108.391
-326.495
-548.615
-777.592
-1016.53
-1268.91
-1538.74
-1830.67
-2150.01
-2502.3
-2891.4
-3311.96
-3720.49
-3915.74
-3014.08
-114.206
-344.303
-579.539
-823.641
-1080.84
-1356.16
-1655.93
-1988.42
-2365
-2802.36
-3326.7
-3982.86
-4856.92
-6134.5
-8260.1
9281.02
6914.76
5487.36
4507.65
3769.97
3178.96
2684.8
2258.46
1881.45
1541.14
1228.36
936.075
658.644
391.292
129.791
3390.6
4416.52
4205.16
3749.96
3278.29
2840.11
2442.07
2080.34
1749.05
1442.48
1155.57
883.893
623.562
371.071
123.184
1496.79
2777.35
3092.13
3003.57
2763.26
2473.28
2174.04
1881.02
1599.42
1330.12
1072.16
823.804
583.013
347.641
115.52
792.511
1808.76
2259.09
2362.44
2282.62
2112.79
1901.62
1673.69
1441.18
1209.83
982.041
758.434
538.682
321.943
107.099
483.179
1233.12
1666.93
1848.44
1864.39
1780.94
1640.75
1469.5
1282.1
1087.03
888.983
690.359
492.24
294.918
98.2276
324.118
876.964
1249.92
1449.35
1515.12
1488.42
1401.41
1276.46
1128.28
966.272
796.292
621.908
445.229
267.443
89.1895
231.29
645.7
953.371
1143.03
1230
1237.75
1188.38
1099.5
984.029
851.012
706.631
555.031
398.97
240.285
80.2354
171.905
488.535
738.739
907.972
999.859
1026.68
1002.73
940.973
851.925
743.615
621.956
491.231
354.52
214.066
71.5714
131.389
377.482
580.311
726.598
814.865
850.847
843.307
801.363
733.168
645.459
543.557
431.572
312.655
189.258
63.3547
102.455
296.46
461.128
585.489
666.151
705.204
707.742
679.953
627.937
557.137
472.141
376.71
273.892
166.185
55.6956
81.0907
235.8
369.921
474.706
546.309
584.892
593.213
575.342
535.729
478.652
407.956
326.965
238.516
145.037
48.6609
64.9127
189.428
299.072
386.948
449.378
485.573
496.853
485.81
455.628
409.609
350.906
282.389
206.623
125.896
42.2813
52.4201
153.377
243.33
316.847
370.65
403.539
415.976
409.552
386.508
349.361
300.657
242.836
178.17
108.757
36.5584
42.6226
124.961
198.994
260.425
306.432
335.694
348.181
344.82
327.168
297.125
256.731
208.03
153.005
93.5488
31.4719
34.8419
102.309
163.402
214.704
253.83
279.487
291.378
290
276.421
252.068
218.563
177.608
130.912
80.1572
26.9863
28.5989
84.0807
134.602
177.432
210.572
232.829
243.778
243.644
233.147
213.357
185.56
151.165
111.634
68.4406
23.0565
23.5463
69.2939
111.137
146.882
174.863
194.014
203.866
204.474
196.318
180.198
157.133
128.285
94.8938
58.2429
19.6322
19.4267
57.2155
91.9039
121.72
145.279
161.651
170.367
171.382
165.012
151.854
132.717
108.554
80.4142
49.4039
16.661
16.0457
47.2879
76.0505
100.897
120.68
134.597
142.208
143.413
138.414
127.657
111.785
91.5805
67.9251
41.7662
14.0913
13.2539
39.0804
62.9137
83.5861
100.149
111.918
118.493
119.748
115.807
107.007
93.8578
76.9997
57.1717
35.1797
11.8735
10.9347
32.2556
51.9693
69.1261
82.9428
92.8414
98.4667
99.6853
96.5699
89.374
78.502
64.4782
47.9186
29.5045
9.96118
8.99574
26.5454
42.7982
56.9825
68.454
76.7283
81.4965
82.6281
80.1622
74.2895
65.3312
53.7148
39.9511
24.612
8.3117
7.36323
21.7344
35.0617
46.7199
56.1823
63.0462
67.0476
68.0652
66.1162
61.3441
54.0031
44.4401
33.0755
20.3859
6.88615
5.97705
17.6472
28.4824
37.9797
45.7121
51.3486
54.667
55.5588
54.0272
50.1793
44.2152
36.4138
27.1184
16.7213
5.64947
4.78767
14.1389
22.8303
30.4627
36.6945
41.2576
43.9682
44.7319
43.5431
40.4809
35.7003
29.4229
21.9246
13.5241
4.57018
3.75357
11.0877
17.9119
23.9161
28.8329
32.4498
34.618
35.2573
34.3569
31.9726
28.2222
23.2774
17.3556
10.7101
3.62002
2.83928
8.38951
13.5611
18.1224
21.8713
24.6449
26.3263
26.8487
26.1977
24.41
21.5707
17.8081
13.2876
8.20388
2.77362
2.01372
5.95318
9.63244
12.8904
15.5842
17.5954
18.8359
19.2514
18.8244
17.5745
15.5577
12.863
9.60877
5.93724
2.00811
1.24887
3.69639
5.99446
8.04774
9.76797
11.0778
11.9147
12.2355
12.0189
11.2683
10.0123
8.30387
6.21799
3.84837
1.30268
0.518477
1.54214
2.52446
3.43367
4.23355
4.8848
5.34818
5.58875
5.58037
5.30954
4.77808
4.00425
3.02229
1.88055
0.638283
-0.203155
-0.584799
-0.896997
-1.10745
-1.20123
-1.18171
-1.06793
-0.889449
-0.680134
-0.472195
-0.291351