/*--------------------------------*- C++ -*----------------------------------*\
| =========                 |                                                 |
| \\      /  F ield         | OpenFOAM: The Open Source CFD Toolbox           |
|  \\    /   O peration     | Version:  5.x                                   |
|   \\  /    A nd           | Web:      www.OpenFOAM.org                      |
|    \\/     M anipulation  |                                                 |
\*---------------------------------------------------------------------------*/
FoamFile
{
    version     2.0;
    format      ascii;
    class       volScalarField;
    location    "2";
    object      T;
}
// * * * * * * * * * * * * * * * * * * * * * * * * * * * * * * * * * * * * * //

dimensions      [0 0 0 1 0 0 0];

internalField   nonuniform List<scalar> 
6300
(
56.2865
148.73
240.782
332.181
422.662
511.954
599.787
685.884
769.971
851.773
931.023
1007.47
1080.87
1151.03
1217.77
56.4137
149.112
241.421
333.08
423.824
513.383
601.485
687.853
772.208
854.272
933.772
1010.45
1084.05
1154.38
1221.24
56.6673
149.874
242.696
334.874
426.144
516.238
604.882
691.794
776.69
859.283
939.288
1016.43
1090.45
1161.12
1228.24
57.0459
151.012
244.6
337.555
429.615
520.513
609.972
697.708
783.427
866.828
947.611
1025.47
1100.14
1171.33
1238.85
57.5473
152.52
247.124
341.11
434.222
526.194
616.749
705.596
792.433
876.941
958.793
1037.66
1113.22
1185.16
1253.24
58.168
154.386
250.251
345.52
439.943
533.26
625.195
715.453
803.719
889.654
972.902
1053.09
1129.84
1202.79
1271.62
58.9032
156.598
253.958
350.753
446.744
541.677
635.28
727.258
817.285
905.002
990.013
1071.89
1150.19
1224.45
1294.28
59.7466
159.137
258.216
356.77
454.575
551.39
646.952
740.97
833.112
922.998
1010.2
1094.21
1174.5
1250.48
1321.62
60.6898
161.977
262.983
363.515
463.368
562.322
660.13
756.512
851.141
943.628
1033.5
1120.19
1203.03
1281.28
1354.17
61.7227
165.087
268.208
370.917
473.034
574.365
674.692
773.76
871.262
966.812
1059.92
1149.95
1236.09
1317.35
1392.63
62.8332
168.433
273.83
378.887
483.456
587.377
690.472
792.527
893.279
992.38
1089.35
1183.53
1273.95
1359.32
1437.99
64.0073
171.97
279.777
387.322
494.496
601.181
707.249
812.55
916.892
1020.01
1121.52
1220.79
1316.8
1407.9
1491.64
65.2299
175.653
285.969
396.106
505.994
615.564
724.75
833.48
941.669
1049.2
1155.85
1261.23
1364.46
1463.76
1555.62
66.4851
179.435
292.323
405.114
517.778
630.295
742.664
854.9
967.049
1079.18
1191.4
1303.73
1415.98
1526.98
1632.81
67.7576
183.266
298.757
414.224
529.676
645.137
760.663
876.354
992.383
1109.03
1226.74
1346.25
1468.64
1595.29
1726.1
1275.69
1325.83
1373.43
1418.5
1461.05
1501.15
1538.85
1574.26
1607.46
1638.57
1667.72
1695.02
1720.61
1744.63
1767.19
1788.44
1808.48
1827.45
1845.46
1862.62
1879.03
1894.79
1909.98
1924.69
1939
1952.96
1966.63
1980.06
1993.29
2006.35
2019.25
2032.02
2044.64
2057.13
2069.48
2081.68
2093.72
2105.58
2117.24
2128.69
2139.91
2150.86
2161.53
2171.89
2181.91
2191.56
2200.82
2209.67
2218.08
2226.02
2233.48
2240.44
2246.87
2252.74
2258.03
2262.72
2266.76
2270.14
2272.8
2274.72
2275.84
2276.13
2275.53
2274
2271.48
2267.89
2263.18
2257.26
2250.06
2241.48
2231.41
2219.77
2206.42
2191.25
2174.13
2154.93
2133.51
2109.73
2083.44
2054.5
2022.77
1988.09
1950.34
1909.39
1865.14
1817.5
1766.39
1711.77
1653.65
1592.02
1279.23
1329.4
1377
1422.02
1464.51
1504.5
1542.08
1577.33
1610.37
1641.3
1670.26
1697.38
1722.78
1746.61
1768.99
1790.05
1809.92
1828.73
1846.58
1863.59
1879.85
1895.48
1910.56
1925.16
1939.37
1953.25
1966.86
1980.23
1993.42
2006.45
2019.34
2032.09
2044.72
2057.22
2069.58
2081.79
2093.85
2105.74
2117.43
2128.91
2140.16
2151.15
2161.85
2172.25
2182.31
2192
2201.3
2210.18
2218.62
2226.6
2234.09
2241.08
2247.54
2253.45
2258.78
2263.51
2267.61
2271.03
2273.75
2275.73
2276.92
2277.28
2276.76
2275.31
2272.88
2269.4
2264.79
2259
2251.93
2243.49
2233.58
2222.1
2208.93
2193.94
2177.02
2158.02
2136.8
2113.23
2087.16
2058.43
2026.89
1992.41
1954.84
1914.06
1869.94
1822.39
1771.34
1716.75
1658.59
1596.9
1286.37
1336.6
1384.18
1429.12
1471.45
1511.24
1548.55
1583.5
1616.2
1646.78
1675.37
1702.1
1727.12
1750.56
1772.57
1793.27
1812.79
1831.26
1848.79
1865.5
1881.49
1896.86
1911.7
1926.09
1940.11
1953.82
1967.29
1980.56
1993.67
2006.64
2019.49
2032.23
2044.86
2057.37
2069.76
2082.01
2094.11
2106.05
2117.8
2129.34
2140.66
2151.72
2162.5
2172.98
2183.11
2192.88
2202.25
2211.2
2219.7
2227.74
2235.3
2242.35
2248.88
2254.87
2260.28
2265.1
2269.29
2272.83
2275.66
2277.76
2279.08
2279.58
2279.21
2277.93
2275.67
2272.39
2268.01
2262.46
2255.65
2247.5
2237.9
2226.75
2213.93
2199.31
2182.78
2164.18
2143.38
2120.23
2094.58
2066.28
2035.16
2001.08
1963.88
1923.42
1879.57
1832.24
1781.32
1726.77
1668.56
1606.72
1297.21
1347.53
1395.09
1439.89
1481.98
1521.43
1558.34
1592.82
1625
1655.02
1683.03
1709.18
1733.62
1756.48
1777.92
1798.08
1817.07
1835.03
1852.09
1868.34
1883.91
1898.88
1913.36
1927.43
1941.16
1954.64
1967.9
1981
1993.99
2006.87
2019.68
2032.4
2045.04
2057.58
2070.02
2082.32
2094.49
2106.5
2118.33
2129.97
2141.39
2152.57
2163.47
2174.06
2184.32
2194.2
2203.68
2212.73
2221.33
2229.46
2237.1
2244.25
2250.88
2256.98
2262.52
2267.47
2271.81
2275.5
2278.5
2280.78
2282.29
2283
2282.85
2281.82
2279.83
2276.84
2272.79
2267.6
2261.19
2253.47
2244.34
2233.69
2221.4
2207.34
2191.39
2173.4
2153.23
2130.73
2105.73
2078.07
2047.6
2014.13
1977.5
1937.56
1894.15
1847.14
1796.43
1741.95
1683.68
1621.61
1311.92
1362.36
1409.87
1454.47
1496.22
1535.2
1571.52
1605.34
1636.8
1666.06
1693.28
1718.63
1742.27
1764.35
1785.03
1804.44
1822.72
1840
1856.41
1872.06
1887.05
1901.5
1915.5
1929.13
1942.49
1955.62
1968.61
1981.5
1994.33
2007.11
2019.86
2032.57
2045.24
2057.83
2070.33
2082.72
2094.97
2107.08
2119.03
2130.79
2142.35
2153.69
2164.75
2175.52
2185.94
2195.98
2205.6
2214.78
2223.5
2231.75
2239.5
2246.77
2253.52
2259.76
2265.46
2270.6
2275.14
2279.04
2282.26
2284.78
2286.54
2287.52
2287.67
2286.95
2285.31
2282.71
2279.09
2274.38
2268.5
2261.36
2252.85
2242.87
2231.29
2217.99
2202.82
2185.65
2166.33
2144.7
2120.59
2093.83
2064.24
2031.63
1995.81
1956.59
1913.8
1867.27
1816.88
1762.53
1704.16
1641.79
1330.71
1381.31
1428.76
1473.08
1514.35
1552.68
1588.23
1621.16
1651.66
1679.92
1706.12
1730.44
1753.05
1774.14
1793.84
1812.31
1829.69
1846.12
1861.72
1876.6
1890.88
1904.66
1918.05
1931.13
1943.99
1956.71
1969.35
1981.97
1994.61
2007.27
2019.97
2032.7
2045.41
2058.08
2070.68
2083.17
2095.54
2107.77
2119.86
2131.78
2143.52
2155.06
2166.35
2177.34
2187.98
2198.23
2208.04
2217.38
2226.24
2234.61
2242.49
2249.88
2256.79
2263.2
2269.1
2274.46
2279.25
2283.42
2286.93
2289.74
2291.81
2293.11
2293.61
2293.27
2292.06
2289.93
2286.84
2282.73
2277.51
2271.09
2263.38
2254.24
2243.56
2231.2
2217.02
2200.89
2182.64
2162.12
2139.15
2113.55
2085.12
2053.64
2018.9
1980.67
1938.73
1892.88
1842.94
1788.78
1730.33
1667.57
1353.93
1404.73
1452.07
1495.99
1536.61
1574.08
1608.6
1640.39
1669.66
1696.64
1721.55
1744.59
1765.94
1785.79
1804.31
1821.64
1837.93
1853.32
1867.93
1881.89
1895.3
1908.27
1920.91
1933.32
1945.58
1957.79
1970.01
1982.31
1994.72
2007.26
2019.94
2032.71
2045.52
2058.32
2071.06
2083.69
2096.19
2108.56
2120.79
2132.9
2144.86
2156.66
2168.24
2179.53
2190.47
2200.98
2211.01
2220.54
2229.55
2238.04
2246.05
2253.57
2260.64
2267.25
2273.39
2279.03
2284.13
2288.63
2292.48
2295.64
2298.06
2299.74
2300.63
2300.72
2299.99
2298.42
2295.95
2292.55
2288.12
2282.58
2275.82
2267.71
2258.12
2246.91
2233.93
2219.06
2202.12
2182.96
2161.4
2137.24
2110.27
2080.24
2046.91
2009.98
1969.19
1924.27
1874.98
1821.13
1762.6
1699.36
1381.99
1433.03
1480.2
1523.57
1563.31
1599.63
1632.81
1663.13
1690.85
1716.25
1739.58
1761.05
1780.89
1799.27
1816.37
1832.36
1847.36
1861.53
1874.99
1887.85
1900.23
1912.24
1924
1935.6
1947.14
1958.72
1970.44
1982.35
1994.51
2006.95
2019.64
2032.53
2045.53
2058.54
2071.47
2084.26
2096.9
2109.4
2121.79
2134.09
2146.32
2158.45
2170.42
2182.12
2193.45
2204.3
2214.6
2224.32
2233.46
2242.06
2250.16
2257.8
2265.03
2271.85
2278.28
2284.26
2289.74
2294.64
2298.9
2302.46
2305.29
2307.36
2308.67
2309.23
2309.03
2308.06
2306.3
2303.71
2300.21
2295.71
2290.09
2283.2
2274.89
2265.03
2253.47
2240.07
2224.68
2207.14
2187.27
2164.88
2139.71
2111.52
2079.97
2044.76
2005.51
1961.87
1913.5
1860.12
1801.55
1737.73
1415.48
1466.82
1513.72
1556.29
1594.82
1629.61
1661.05
1689.49
1715.29
1738.75
1760.16
1779.77
1797.81
1814.48
1829.94
1844.36
1857.89
1870.65
1882.78
1894.38
1905.58
1916.48
1927.19
1937.84
1948.52
1959.36
1970.45
1981.91
1993.8
2006.15
2018.94
2032.08
2045.4
2058.74
2071.94
2084.92
2097.69
2110.28
2122.78
2135.27
2147.8
2160.35
2172.84
2185.12
2196.98
2208.27
2218.89
2228.8
2238.04
2246.68
2254.8
2262.51
2269.86
2276.91
2283.67
2290.08
2296.05
2301.46
2306.21
2310.22
2313.47
2315.95
2317.69
2318.71
2319.05
2318.72
2317.73
2316.05
2313.63
2310.34
2306.06
2300.6
2293.8
2285.49
2275.55
2263.83
2250.22
2234.56
2216.68
2196.39
2173.42
2147.49
2118.23
2085.23
2048.04
2006.16
1959.12
1906.51
1847.99
1783.45
1455.23
1506.92
1553.35
1594.76
1631.59
1664.33
1693.49
1719.57
1742.97
1764.08
1783.22
1800.65
1816.61
1831.29
1844.89
1857.54
1869.4
1880.58
1891.2
1901.38
1911.23
1920.85
1930.37
1939.9
1949.56
1959.49
1969.84
1980.73
1992.29
2004.59
2017.61
2031.22
2045.14
2059.02
2072.6
2085.78
2098.59
2111.16
2123.66
2136.27
2149.11
2162.21
2175.45
2188.57
2201.21
2213.09
2224.06
2234.12
2243.35
2251.9
2259.93
2267.58
2275
2282.27
2289.43
2296.4
2303.03
2309.1
2314.44
2318.96
2322.63
2325.49
2327.61
2329.05
2329.9
2330.21
2330.03
2329.36
2328.15
2326.3
2323.6
2319.82
2314.74
2308.19
2300.05
2290.21
2278.59
2265.05
2249.46
2231.62
2211.29
2188.14
2161.76
2131.65
2097.21
2057.78
2012.69
1961.28
1903.01
1837.63
1502.42
1554.5
1600.11
1639.75
1674.14
1704.08
1730.29
1753.37
1773.86
1792.16
1808.62
1823.53
1837.12
1849.58
1861.08
1871.76
1881.76
1891.18
1900.14
1908.74
1917.08
1925.27
1933.42
1941.64
1950.09
1958.92
1968.31
1978.46
1989.59
2001.86
2015.32
2029.8
2044.8
2059.59
2073.72
2087.05
2099.72
2112.01
2124.26
2136.8
2149.91
2163.73
2178.12
2192.59
2206.42
2219.08
2230.42
2240.5
2249.52
2257.76
2265.45
2272.86
2280.21
2287.67
2295.32
2303.1
2310.69
2317.68
2323.74
2328.78
2332.83
2335.98
2338.37
2340.13
2341.4
2342.29
2342.9
2343.3
2343.49
2343.35
2342.58
2340.79
2337.68
2333.06
2326.87
2319.06
2309.59
2298.39
2285.36
2270.34
2253.1
2233.32
2210.55
2184.19
2153.45
2117.46
2075.25
2025.81
1968.2
1901.83
1558.85
1611.31
1655.37
1692.17
1723.01
1749.12
1771.46
1790.82
1807.77
1822.77
1836.15
1848.2
1859.14
1869.13
1878.33
1886.86
1894.83
1902.34
1909.49
1916.36
1923.04
1929.63
1936.22
1942.95
1949.95
1957.41
1965.56
1974.68
1985.13
1997.29
2011.45
2027.51
2044.61
2061.01
2075.86
2089.15
2101.28
2112.8
2124.3
2136.38
2149.57
2164.3
2180.54
2197.42
2213.16
2226.86
2238.45
2248.25
2256.71
2264.25
2271.26
2278.11
2285.13
2292.66
2300.92
2309.91
2319.1
2327.44
2334.4
2339.92
2344.18
2347.43
2349.9
2351.8
2353.32
2354.64
2355.95
2357.43
2359.19
2361.16
2362.9
2363.55
2362.65
2360.09
2355.9
2350.17
2342.95
2334.25
2324.01
2312.13
2298.45
2282.69
2264.41
2242.91
2217.15
2185.98
2148.12
2101.99
2045.92
1978.48
1627.62
1680.1
1721.01
1753.04
1778.6
1799.45
1816.84
1831.62
1844.39
1855.58
1865.49
1874.37
1882.39
1889.7
1896.42
1902.64
1908.44
1913.91
1919.12
1924.13
1929.01
1933.85
1938.72
1943.74
1949.03
1954.79
1961.27
1968.86
1978.09
1989.73
2004.69
2023.61
2045.32
2064.53
2080.11
2092.78
2103.58
2113.49
2123.4
2134.21
2146.89
2162.55
2181.89
2203.77
2222.71
2237.54
2248.91
2257.82
2265.09
2271.37
2277.18
2282.96
2289.2
2296.46
2305.35
2316.3
2328.61
2339.07
2346.99
2352.73
2356.87
2359.89
2362.13
2363.89
2365.39
2366.88
2368.64
2371.03
2374.46
2379.19
2384.67
2388.43
2389.91
2389.32
2387.03
2383.32
2378.34
2372.19
2364.89
2356.4
2346.68
2335.58
2322.81
2307.65
2288.5
2264.05
2232.76
2192.4
2139.89
2071.73
1714.96
1765.45
1799.32
1823.14
1840.85
1854.66
1865.85
1875.2
1883.17
1890.1
1896.21
1901.65
1906.56
1911.02
1915.11
1918.89
1922.42
1925.74
1928.91
1931.96
1934.94
1937.9
1940.89
1944
1947.32
1951.01
1955.29
1960.54
1967.45
1977.25
1992.13
2015.55
2049.5
2073.13
2088.45
2098.97
2107.03
2114.06
2121.09
2129.19
2139.82
2155.37
2179.47
2214.2
2238.04
2253.05
2262.8
2269.61
2274.77
2279.05
2282.99
2287.01
2291.66
2297.76
2306.7
2320.59
2340.65
2354.24
2362.57
2367.73
2371.06
2373.32
2374.95
2376.22
2377.36
2378.61
2380.3
2383.01
2387.73
2396.02
2408.77
2416.47
2420
2420.89
2420.1
2418.15
2415.29
2411.67
2407.34
2402.35
2396.76
2390.74
2384.52
2378.01
2367.37
2351.87
2330.35
2300.18
2256.27
2189.96
1837.06
1874.6
1891.99
1901.93
1908.59
1913.52
1917.42
1920.63
1923.34
1925.69
1927.76
1929.59
1931.24
1932.74
1934.11
1935.38
1936.57
1937.69
1938.75
1939.77
1940.77
1941.77
1942.78
1943.84
1944.97
1946.25
1947.77
1949.73
1952.55
1957.31
1967.15
1992.21
2068.43
2093.56
2103.55
2108.59
2111.84
2114.48
2117.12
2120.4
2125.51
2135.74
2161.6
2240.2
2265.96
2276
2280.81
2283.62
2285.56
2287.12
2288.53
2290.02
2291.9
2294.85
2300.79
2315.87
2361.88
2376.86
2382.59
2385.22
2386.65
2387.53
2388.14
2388.61
2389.05
2389.56
2390.37
2391.95
2395.73
2406.32
2440.01
2450.39
2453.78
2454.75
2454.71
2454.15
2453.23
2452.05
2450.63
2449.02
2447.36
2446.05
2446.55
2454.21
2453.09
2448.23
2440.28
2427.62
2404.82
2354.88
1520.44
1437.54
1350.01
1258.13
1162.2
1062.54
959.53
853.526
744.902
634.031
521.278
407
291.547
175.26
58.475
1525.19
1442.08
1354.3
1262.12
1165.85
1065.85
962.473
856.101
747.112
635.882
522.776
408.155
292.365
175.748
58.6374
1534.75
1451.22
1362.92
1270.13
1173.19
1072.47
968.361
861.249
751.526
639.574
525.765
410.456
293.996
176.722
58.961
1549.24
1465.07
1375.96
1282.22
1184.25
1082.43
977.201
868.963
758.129
645.091
530.225
413.889
296.428
178.172
59.4429
1568.85
1483.79
1393.54
1298.5
1199.08
1095.76
988.994
879.229
766.898
652.404
536.127
418.426
299.639
180.086
60.0788
1593.88
1507.62
1415.86
1319.07
1217.76
1112.48
1003.73
892.018
777.789
661.465
543.427
424.029
303.599
182.445
60.8624
1624.7
1536.87
1443.13
1344.08
1240.36
1132.6
1021.39
907.274
790.737
672.205
552.059
430.643
308.268
185.224
61.7849
1661.82
1571.94
1475.64
1373.7
1266.93
1156.1
1041.9
924.908
805.639
684.524
561.934
438.193
313.59
188.389
62.8351
1705.94
1613.36
1513.71
1408.08
1297.5
1182.93
1065.14
944.773
822.346
698.283
572.93
446.582
319.495
191.897
63.9985
1757.97
1661.77
1557.7
1447.32
1332.01
1212.91
1090.9
966.648
840.649
713.295
584.891
455.688
325.894
195.694
65.2575
1819.22
1717.96
1607.92
1491.4
1370.23
1245.74
1118.86
990.216
860.263
729.319
597.623
465.36
332.682
199.72
66.5913
1891.54
1782.84
1664.54
1540.06
1411.71
1280.91
1148.51
1015.04
880.824
746.06
610.892
475.424
339.737
203.9
67.9763
1977.6
1857.23
1727.25
1592.52
1455.56
1317.6
1179.18
1040.57
901.885
763.165
624.429
485.681
346.924
208.158
69.3866
2081.25
1941.15
1794.6
1647.12
1500.36
1354.67
1209.98
1066.13
922.932
780.248
637.945
495.924
354.101
212.411
70.7954
2206.3
2031.4
1862.81
1700.91
1544.01
1390.66
1239.88
1090.96
943.425
796.908
651.148
505.942
361.128
216.577
72.176
68.9269
186.785
304.659
422.568
540.544
658.646
776.967
895.663
1014.98
1135.34
1257.44
1382.5
1512.92
1653.98
1820.49
69.9844
189.966
309.988
430.087
550.315
670.746
791.497
912.744
1034.76
1158.01
1283.22
1411.69
1545.72
1689.61
1850.81
71.0304
193.111
315.251
437.5
559.92
682.597
805.648
929.248
1053.65
1179.26
1306.69
1436.94
1571.62
1713.13
1864.06
72.0605
196.206
320.425
444.775
569.324
694.157
819.384
945.153
1071.66
1199.19
1328.14
1459.05
1592.71
1730.03
1871.54
73.0712
199.241
325.495
451.894
578.507
705.414
832.709
960.503
1088.92
1218.1
1348.16
1479.19
1611.18
1743.94
1877.08
74.0601
202.21
330.451
458.845
587.462
716.372
845.654
975.379
1105.6
1236.33
1367.45
1498.61
1629.06
1757.51
1882.57
75.0256
205.108
335.286
465.623
596.187
727.043
858.254
989.867
1121.89
1254.24
1386.65
1518.45
1648.25
1773.37
1889.99
75.9664
207.932
339.996
472.225
604.683
737.436
870.539
1004.03
1137.9
1272.06
1406.21
1539.63
1670.6
1795.06
1903.82
76.8817
210.679
344.578
478.646
612.951
747.555
882.519
1017.88
1153.67
1289.83
1426.21
1562.43
1697.41
1827.58
1937.79
77.7707
213.347
349.028
484.884
620.984
757.395
894.182
1031.41
1169.12
1307.38
1446.28
1586.04
1727.49
1873.88
2040.09
78.6326
215.934
353.343
490.933
628.775
766.941
905.506
1044.55
1184.15
1324.44
1465.67
1608.4
1754.06
1906.34
2074.07
79.4665
218.437
357.518
496.786
636.314
776.179
916.462
1057.25
1198.64
1340.8
1483.97
1628.66
1775.96
1927.97
2087.97
80.2719
220.854
361.55
502.437
643.593
785.096
927.031
1069.49
1212.57
1356.39
1501.14
1647.05
1794.51
1943.98
2095.73
81.0479
223.183
365.434
507.881
650.603
793.682
937.201
1081.25
1225.92
1371.29
1517.43
1664.3
1811.6
1958.31
2102.39
81.794
225.422
369.168
513.114
657.34
801.929
946.966
1092.54
1238.73
1385.6
1533.15
1681.2
1829
1974.39
2111.86
82.5097
227.569
372.75
518.132
663.798
809.832
956.322
1103.35
1251.01
1399.37
1548.47
1698.19
1848.01
1995.88
2132.72
83.1947
229.625
376.176
522.931
669.973
817.387
965.262
1113.69
1262.77
1412.59
1563.28
1715.03
1868.31
2024.96
2193.51
83.8486
231.586
379.446
527.511
675.863
824.589
973.78
1123.53
1273.95
1425.14
1577.3
1730.74
1886.2
2045.67
2214.1
84.4714
233.455
382.56
531.869
681.466
831.437
981.872
1132.87
1284.53
1436.98
1590.37
1744.97
1901.23
2060.08
2223
85.0632
235.23
385.518
536.008
686.783
837.93
989.537
1141.7
1294.52
1448.09
1602.54
1757.97
1914.39
2071.59
2228.74
85.6241
236.912
388.32
539.927
691.816
844.07
996.778
1150.03
1303.92
1458.55
1613.98
1770.21
1926.94
2083.04
2235.27
86.1546
238.503
390.968
543.63
696.567
849.863
1003.6
1157.88
1312.77
1468.39
1624.8
1782.03
1939.85
2097.1
2248.28
86.6551
240.003
393.466
547.12
701.043
855.315
1010.02
1165.24
1321.07
1477.61
1634.99
1793.36
1953.09
2115.3
2285.07
87.1262
241.416
395.816
550.403
705.251
860.436
1016.04
1172.14
1328.83
1486.21
1644.42
1803.69
1964.53
2128.17
2297.58
87.5687
242.742
398.023
553.484
709.196
865.234
1021.67
1178.59
1336.06
1494.17
1653.05
1812.87
1973.95
2136.96
2302.9
87.9833
243.985
400.09
556.369
712.89
869.723
1026.94
1184.6
1342.79
1501.55
1660.97
1821.09
1981.97
2143.64
2306.03
88.3709
245.146
402.022
559.065
716.34
873.914
1031.85
1190.22
1349.06
1508.43
1668.33
1828.72
1989.37
2149.74
2308.83
88.7325
246.23
403.824
561.578
719.556
877.821
1036.43
1195.45
1354.92
1514.88
1675.31
1836.1
1996.88
2156.64
2312.91
89.0687
247.237
405.499
563.915
722.547
881.454
1040.7
1200.33
1360.39
1520.94
1681.96
1843.42
2005.04
2165.9
2321.97
89.3804
248.171
407.052
566.082
725.32
884.824
1044.65
1204.85
1365.49
1526.61
1688.26
1850.54
2013.66
2178.4
2348.47
89.6684
249.034
408.487
568.084
727.882
887.937
1048.3
1209.04
1370.2
1531.84
1694.07
1857.03
2021.08
2187.13
2357.34
89.9332
249.828
409.807
569.926
730.239
890.8
1051.66
1212.89
1374.52
1536.63
1699.3
1862.68
2027.04
2192.88
2360.97
90.1757
250.554
411.015
571.611
732.396
893.422
1054.74
1216.4
1378.46
1540.97
1703.98
1867.59
2031.89
2197
2362.94
90.3962
251.215
412.114
573.145
734.359
895.807
1057.54
1219.6
1382.04
1544.89
1708.19
1871.95
2036.11
2200.45
2364.51
90.5954
251.812
413.107
574.531
736.133
897.964
1060.07
1222.49
1385.28
1548.45
1712.02
1875.97
2040.12
2204.03
2366.52
90.7735
252.346
413.995
575.771
737.723
899.897
1062.34
1225.09
1388.2
1551.67
1715.54
1879.77
2044.24
2208.51
2370.71
90.9309
252.818
414.781
576.869
739.13
901.611
1064.36
1227.41
1390.8
1554.57
1718.74
1883.33
2048.43
2214.35
2382.69
91.0677
253.228
415.464
577.825
740.357
903.109
1066.12
1229.44
1393.1
1557.13
1721.57
1886.48
2051.97
2218.41
2386.72
91.1841
253.578
416.046
578.64
741.406
904.391
1067.64
1231.19
1395.09
1559.36
1724.03
1889.14
2054.78
2221.11
2388.4
91.2801
253.866
416.527
579.314
742.275
905.457
1068.91
1232.66
1396.77
1561.24
1726.11
1891.38
2057.04
2223.05
2389.34
91.3555
254.092
416.905
579.845
742.962
906.305
1069.92
1233.85
1398.13
1562.8
1727.86
1893.28
2058.98
2224.73
2390.14
91.41
254.256
417.18
580.233
743.466
906.93
1070.67
1234.75
1399.19
1564.03
1729.28
1894.92
2060.8
2226.56
2391.32
91.4436
254.357
417.35
580.474
743.782
907.327
1071.16
1235.34
1399.91
1564.91
1730.38
1896.32
2062.64
2229.01
2394.04
91.4558
254.394
417.413
580.565
743.905
907.489
1071.37
1235.61
1400.27
1565.41
1731.09
1897.38
2064.37
2232.31
2402.28
91.4463
254.366
417.367
580.504
743.832
907.409
1071.3
1235.56
1400.26
1565.48
1731.31
1897.88
2065.38
2234.13
2404.75
91.415
254.272
417.211
580.287
743.557
907.08
1070.92
1235.14
1399.83
1565.06
1730.95
1897.67
2065.43
2234.56
2405.34
91.3616
254.112
416.944
579.914
743.078
906.497
1070.24
1234.36
1398.96
1564.12
1729.96
1896.66
2064.46
2233.75
2404.96
91.2862
253.886
416.566
579.383
742.393
905.657
1069.24
1233.21
1397.65
1562.65
1728.32
1894.81
2062.38
2231.54
2403.38
91.189
253.593
416.077
578.695
741.503
904.561
1067.93
1231.69
1395.9
1560.65
1726.03
1892.14
2059.12
2227.4
2398.84
91.0701
253.236
415.479
577.852
740.41
903.211
1066.32
1229.8
1393.72
1558.16
1723.17
1888.78
2054.89
2220.97
2384.78
90.9302
252.815
414.774
576.857
739.118
901.612
1064.4
1227.55
1391.13
1555.2
1719.83
1885.01
2050.59
2216.03
2379.94
90.77
252.333
413.966
575.715
737.633
899.772
1062.19
1224.96
1388.14
1551.81
1716.04
1880.88
2046.3
2212.08
2377.64
90.5904
251.792
413.059
574.433
735.963
897.699
1059.7
1222.02
1384.75
1547.95
1711.75
1876.28
2041.69
2208.19
2375.84
90.3926
251.197
412.059
573.019
734.119
895.407
1056.93
1218.76
1380.96
1543.63
1706.89
1870.97
2036.25
2203.42
2373.49
90.178
250.551
410.974
571.483
732.114
892.909
1053.92
1215.19
1376.8
1538.82
1701.4
1864.76
2029.41
2196.54
2369
89.9484
249.859
409.812
569.835
729.962
890.226
1050.67
1211.33
1372.28
1533.57
1695.29
1857.58
2020.75
2185.88
2357.79
89.7055
249.127
408.582
568.091
727.681
887.379
1047.22
1207.23
1367.46
1527.94
1688.71
1849.7
2010.65
2170.42
2323.93
89.4514
248.362
407.295
566.266
725.292
884.395
1043.6
1202.92
1362.4
1522.06
1681.88
1841.76
2001.28
2159.22
2312.51
89.1885
247.569
405.962
564.375
722.817
881.3
1039.84
1198.45
1357.16
1515.99
1674.95
1833.99
1992.91
2151.14
2307.53
88.919
246.757
404.596
562.436
720.278
878.125
1035.98
1193.86
1351.77
1509.76
1667.87
1826.21
1984.94
2144.23
2304.23
88.6456
245.933
403.21
560.469
717.702
874.9
1032.06
1189.18
1346.27
1503.36
1660.56
1818.09
1976.46
2136.72
2300.53
88.3706
245.105
401.817
558.492
715.112
871.659
1028.11
1184.46
1340.69
1496.82
1652.93
1809.28
1966.58
2126.65
2293.91
88.0965
244.279
400.43
556.524
712.537
868.438
1024.19
1179.77
1335.12
1490.21
1645.05
1799.73
1954.66
2111.49
2277.58
87.8257
243.464
399.06
554.585
710.003
865.272
1020.35
1175.16
1329.65
1483.71
1637.2
1789.91
1941.32
2089.78
2228.07
87.5602
242.665
397.72
552.69
707.533
862.197
1016.62
1170.73
1324.41
1477.51
1629.81
1780.89
1929.92
2075.02
2211.9
87.3015
241.887
396.418
550.855
705.149
859.243
1013.07
1166.53
1319.49
1471.8
1623.18
1773.2
1921.16
2065.85
2205.65
87.0507
241.134
395.16
549.087
702.864
856.429
1009.71
1162.6
1314.97
1466.65
1617.39
1766.85
1914.56
2059.95
2202.67
86.8085
240.407
393.95
547.393
700.686
853.768
1006.56
1158.96
1310.85
1462.07
1612.4
1761.61
1909.46
2055.79
2200.84
86.5744
239.706
392.786
545.772
698.616
851.258
1003.63
1155.62
1307.13
1458.01
1608.1
1757.22
1905.29
2052.42
2199.23
86.3478
239.029
391.664
544.217
696.644
848.891
1000.89
1152.55
1303.77
1454.42
1604.36
1753.47
1901.67
2049.13
2196.83
86.1268
238.369
390.576
542.717
694.756
846.646
998.326
1149.72
1300.73
1451.24
1601.12
1750.23
1898.44
2045.57
2190.93
85.9092
237.721
389.509
541.255
692.93
844.496
995.903
1147.08
1297.95
1448.4
1598.31
1747.51
1895.85
2043.1
2188.85
85.6919
237.074
388.449
539.809
691.135
842.404
993.575
1144.6
1295.39
1445.86
1595.88
1745.29
1893.91
2041.53
2187.99
85.4711
236.418
387.377
538.351
689.338
840.326
991.291
1142.19
1292.97
1443.53
1593.76
1743.5
1892.54
2040.64
2187.65
85.2423
235.739
386.268
536.85
687.496
838.21
988.987
1139.8
1290.61
1441.34
1591.89
1742.09
1891.7
2040.38
2187.72
85.0007
235.022
385.1
535.27
685.562
835.998
986.591
1137.34
1288.22
1439.19
1590.16
1740.97
1891.39
2040.9
2188.55
84.7406
234.25
383.842
533.57
683.481
833.621
984.023
1134.71
1285.69
1436.94
1588.41
1740.01
1891.56
2042.6
2191.47
84.4562
233.406
382.465
531.706
681.197
831.005
981.19
1131.8
1282.88
1434.44
1586.47
1738.98
1891.96
2045.64
2201.42
84.1412
232.47
380.936
529.631
678.647
828.072
977.994
1128.5
1279.64
1431.5
1584.1
1737.48
1891.73
2047.09
2204.26
83.7893
231.423
379.222
527.298
675.764
824.735
974.329
1124.66
1275.83
1427.94
1581.06
1735.26
1890.59
2047.12
2204.93
83.394
230.246
377.29
524.657
672.483
820.91
970.084
1120.16
1271.27
1423.57
1577.17
1732.13
1888.47
2046.1
2204.77
82.9493
228.92
375.107
521.66
668.737
816.506
965.147
1114.85
1265.81
1418.2
1572.2
1727.91
1885.31
2044.22
2204.18
82.4496
227.427
372.643
518.262
664.463
811.439
959.404
1108.59
1259.24
1411.61
1565.94
1722.38
1880.95
2041.43
2203.23
81.8901
225.754
369.872
514.423
659.603
805.627
952.743
1101.23
1251.39
1403.57
1558.09
1715.24
1875.13
2037.58
2201.87
81.2674
223.889
366.774
510.111
654.107
798.999
945.063
1092.62
1242.05
1393.78
1548.3
1706.05
1867.39
2032.28
2199.96
80.5792
221.825
363.336
505.303
647.94
791.499
936.275
1082.63
1231.02
1381.96
1536.13
1694.25
1857.05
2024.89
2197.18
79.8255
219.561
359.554
499.991
641.087
783.094
926.321
1071.16
1218.1
1367.8
1521.1
1679.08
1843.05
2014.25
2192.88
79.0081
217.103
355.437
494.186
633.553
773.783
915.181
1058.14
1203.19
1351.04
1502.7
1659.62
1823.88
1998.29
2185.5
78.1313
214.463
351.005
487.915
625.373
763.603
902.886
1043.6
1186.24
1331.53
1480.53
1634.93
1797.52
1973.28
2170.75
77.2016
211.661
346.293
481.226
616.611
752.634
889.535
1027.63
1167.36
1309.33
1454.51
1604.42
1761.87
1933.03
2135.27
2332.56
2108.26
1919.11
1745.57
1580.68
1421.25
1265.52
1112.42
961.229
811.449
662.713
514.741
367.312
220.248
73.3932
2372.46
2153.63
1959.38
1780.1
1610.17
1446.43
1286.96
1130.55
976.401
823.916
672.672
522.343
372.668
223.432
74.4498
2389.07
2181.87
1989.2
1808.07
1635.32
1468.58
1306.22
1147.09
990.379
835.491
681.973
529.472
377.705
226.433
75.4463
2397.41
2199.92
2010.92
1830.16
1656.23
1487.65
1323.19
1161.91
1003.06
846.084
690.542
536.073
382.385
229.226
76.3751
2402.28
2212.01
2026.85
1847.45
1673.36
1503.8
1337.91
1174.99
1014.4
855.655
698.34
542.113
386.683
231.798
77.2313
2405.46
2220.47
2038.7
1860.97
1687.3
1517.33
1350.54
1186.4
1024.43
864.202
705.358
547.579
390.589
234.142
78.0122
2407.68
2226.63
2047.68
1871.6
1698.61
1528.6
1361.27
1196.26
1033.2
871.759
711.611
552.478
394.103
236.256
78.7178
2409.31
2231.24
2054.59
1880.02
1707.8
1537.96
1370.34
1204.72
1040.83
878.385
717.135
556.83
397.238
238.146
79.3495
2410.55
2234.77
2059.99
1886.73
1715.28
1545.71
1377.98
1211.94
1047.4
884.153
721.977
560.665
400.012
239.823
79.9106
2411.5
2237.53
2064.26
1892.13
1721.38
1552.14
1384.4
1218.08
1053.05
889.143
726.195
564.022
402.449
241.301
80.4054
2412.26
2239.71
2067.68
1896.49
1726.38
1557.47
1389.78
1223.27
1057.87
893.438
729.846
566.944
404.577
242.593
80.8389
2412.86
2241.46
2070.43
1900.04
1730.49
1561.89
1394.29
1227.67
1061.97
897.12
732.994
569.472
406.424
243.718
81.2164
2413.34
2242.87
2072.66
1902.94
1733.87
1565.56
1398.06
1231.37
1065.46
900.265
735.695
571.65
408.021
244.691
81.5436
2413.73
2244.01
2074.48
1905.32
1736.67
1568.61
1401.22
1234.49
1068.42
902.943
738.005
573.519
409.394
245.53
81.8257
2414.05
2244.95
2075.98
1907.28
1738.98
1571.15
1403.86
1237.12
1070.91
905.217
739.974
575.117
410.571
246.251
82.0681
2414.31
2245.72
2077.21
1908.9
1740.9
1573.27
1406.07
1239.33
1073.02
907.144
741.647
576.479
411.576
246.866
82.2755
2414.53
2246.35
2078.22
1910.24
1742.49
1575.04
1407.93
1241.18
1074.8
908.773
743.066
577.637
412.431
247.391
82.4524
2414.7
2246.87
2079.06
1911.35
1743.81
1576.51
1409.47
1242.73
1076.3
910.147
744.266
578.617
413.157
247.837
82.6027
2414.85
2247.31
2079.75
1912.27
1744.91
1577.73
1410.76
1244.04
1077.55
911.304
745.278
579.446
413.772
248.215
82.7301
2414.97
2247.66
2080.33
1913.03
1745.82
1578.75
1411.84
1245.12
1078.6
912.275
746.129
580.144
414.289
248.533
82.8376
2415.07
2247.96
2080.8
1913.66
1746.58
1579.59
1412.74
1246.03
1079.48
913.088
746.843
580.729
414.724
248.801
82.928
2415.15
2248.2
2081.19
1914.18
1747.2
1580.3
1413.48
1246.79
1080.21
913.765
747.438
581.218
415.088
249.025
83.0036
2415.22
2248.4
2081.52
1914.61
1747.72
1580.87
1414.1
1247.41
1080.82
914.326
747.931
581.624
415.39
249.211
83.0665
2415.28
2248.56
2081.78
1914.96
1748.14
1581.35
1414.6
1247.92
1081.31
914.787
748.338
581.959
415.639
249.365
83.1184
2415.32
2248.69
2081.99
1915.24
1748.48
1581.73
1415.01
1248.33
1081.72
915.162
748.668
582.231
415.842
249.49
83.1606
2415.36
2248.8
2082.16
1915.47
1748.75
1582.03
1415.33
1248.67
1082.04
915.462
748.933
582.449
416.005
249.59
83.1945
2415.38
2248.88
2082.29
1915.64
1748.96
1582.27
1415.59
1248.92
1082.29
915.695
749.139
582.619
416.132
249.668
83.221
2415.4
2248.94
2082.39
1915.77
1749.12
1582.44
1415.77
1249.11
1082.48
915.869
749.292
582.746
416.226
249.727
83.2408
2415.42
2248.98
2082.45
1915.86
1749.22
1582.56
1415.9
1249.24
1082.6
915.988
749.398
582.834
416.292
249.767
83.2544
2415.42
2249
2082.49
1915.9
1749.28
1582.63
1415.97
1249.32
1082.68
916.056
749.459
582.885
416.33
249.791
83.2625
2415.42
2249
2082.49
1915.91
1749.29
1582.64
1415.99
1249.34
1082.7
916.076
749.478
582.9
416.342
249.799
83.2651
2415.42
2248.99
2082.47
1915.89
1749.26
1582.61
1415.95
1249.3
1082.67
916.049
749.454
582.882
416.329
249.791
83.2624
2415.41
2248.96
2082.42
1915.82
1749.18
1582.52
1415.86
1249.21
1082.58
915.972
749.389
582.829
416.29
249.767
83.2545
2415.39
2248.91
2082.34
1915.71
1749.05
1582.38
1415.72
1249.07
1082.44
915.846
749.28
582.741
416.225
249.727
83.2411
2415.37
2248.83
2082.22
1915.55
1748.87
1582.18
1415.51
1248.86
1082.24
915.666
749.124
582.615
416.132
249.671
83.222
2415.33
2248.73
2082.06
1915.34
1748.62
1581.91
1415.23
1248.58
1081.98
915.429
748.919
582.448
416.01
249.596
83.1969
2415.29
2248.6
2081.85
1915.07
1748.3
1581.57
1414.87
1248.23
1081.65
915.128