/*--------------------------------*- C++ -*----------------------------------*\
| =========                 |                                                 |
| \\      /  F ield         | OpenFOAM: The Open Source CFD Toolbox           |
|  \\    /   O peration     | Version:  5.x                                   |
|   \\  /    A nd           | Web:      www.OpenFOAM.org                      |
|    \\/     M anipulation  |                                                 |
\*---------------------------------------------------------------------------*/
FoamFile
{
    version     2.0;
    format      ascii;
    class       volScalarField;
    location    "12.3";
    object      gradTx;
}
// * * * * * * * * * * * * * * * * * * * * * * * * * * * * * * * * * * * * * //

dimensions      [0 -1 0 1 0 0 0];

internalField   nonuniform List<scalar> 
6300
(
59.7466
59.5684
59.2121
58.6776
57.965
57.0749
56.0087
54.7689
53.3598
51.7883
50.0641
48.2009
46.2166
44.1335
41.978
59.922
59.7439
59.3876
58.853
58.1398
57.2485
56.1797
54.9356
53.5199
51.9385
50.2008
48.3199
46.3134
44.2039
42.0186
60.2728
60.0949
59.7389
59.2042
58.4903
57.5968
56.5236
55.2716
53.8432
52.2429
50.4786
48.5622
46.5111
44.3482
42.102
60.7988
60.6214
60.2661
59.732
59.0178
58.1222
57.0438
55.7816
54.3359
52.7089
50.906
48.9372
46.8187
44.5736
42.2331
61.4995
61.323
60.9693
60.4371
59.7242
58.8279
57.7451
56.4726
55.0075
53.3484
51.497
49.4598
47.2505
44.8925
42.4198
62.3739
62.199
61.8484
61.3201
60.6111
59.7174
58.6336
57.3536
55.8705
54.1779
52.2716
50.1522
47.829
45.3239
42.6749
63.4203
63.2481
62.9025
62.3811
61.6802
60.7942
59.7158
58.4351
56.9405
55.2187
53.2569
51.0461
48.5871
45.8974
43.0182
64.6361
64.4676
64.1294
63.6188
62.9315
62.0609
60.9974
59.728
58.2351
56.497
54.4886
52.1859
49.5737
46.6581
43.4815
66.0175
65.854
65.5259
65.0305
64.3634
63.5176
62.4823
61.2415
59.7723
58.0429
56.0122
53.6329
50.8613
47.6777
44.1163
67.5594
67.4021
67.0867
66.6109
65.9711
65.1609
64.1697
62.9807
61.567
59.8874
57.8817
55.4697
52.5587
49.0728
45.0117
69.2556
69.1055
68.8048
68.3524
67.7463
66.9821
66.0521
64.9418
63.6249
62.0551
60.155
57.803
54.8287
51.041
46.3307
71.0988
70.9563
70.6715
70.2448
69.6764
68.9662
68.1118
67.1065
65.9325
64.5504
62.8776
60.756
57.9095
53.9294
48.4006
73.0814
72.9463
72.677
72.2755
71.7453
71.0912
70.3195
69.4367
68.4454
67.3333
66.0463
64.4312
62.1215
58.3639
51.9559
75.1959
75.0672
74.8114
74.4319
73.9349
73.3305
72.6349
71.8722
71.0762
70.288
69.5402
68.7981
67.7785
65.4459
58.8993
77.4357
77.312
77.0662
76.7024
76.2284
75.6577
75.0141
74.3377
73.6959
73.1994
73.0254
73.4392
74.7454
76.739
75.0517
39.9651
38.1243
36.2933
34.4909
32.7348
31.0413
29.425
27.8981
26.4708
25.151
23.9447
22.8556
21.8864
21.0378
20.3097
19.7009
19.2092
18.8318
18.565
18.4044
18.3449
18.3804
18.5039
18.7076
18.9825
19.3186
19.7051
20.1306
20.5833
21.0515
21.5238
21.9895
22.4392
22.8644
23.2573
23.6114
23.92
24.1768
24.3754
24.5094
24.5729
24.5606
24.4685
24.2947
24.0388
23.7027
23.2893
22.8027
22.2467
21.6246
20.9383
20.188
19.3726
18.4895
17.5352
16.5059
15.3982
14.2089
12.9355
11.5759
10.1281
8.58917
6.95544
5.22156
3.38041
1.42304
-0.661192
-2.88424
-5.25886
-7.79808
-10.5146
-13.4206
-16.527
-19.8438
-23.3797
-27.142
-31.1367
-35.3682
-39.8384
-44.5465
-49.4882
-54.6543
-60.03
-65.5944
-71.3196
-77.1704
-83.1053
-89.0771
-95.0341
-100.923
39.9766
38.1085
36.2507
34.4227
32.6431
30.9289
29.2949
27.7535
26.3148
24.9867
23.7746
22.6822
21.7116
20.8634
20.1371
19.5313
19.0438
18.6717
18.4112
18.2581
18.2072
18.2528
18.3878
18.6043
18.8935
19.2451
19.6481
20.0906
20.5603
21.0448
21.5322
22.0118
22.4737
22.9097
23.3125
23.6758
23.9936
24.2596
24.4674
24.6101
24.6811
24.6744
24.5854
24.4118
24.1536
23.8129
23.3939
22.9016
22.3411
21.7162
21.0295
20.2811
19.4695
18.5913
17.6424
16.6183
15.515
14.3293
13.0591
11.7027
10.2588
8.72538
7.09936
5.37579
3.54761
1.60562
-0.461338
-2.66594
-5.02174
-7.54251
-10.2416
-13.1316
-16.2236
-19.5278
-23.0529
-26.8065
-30.795
-35.0233
-39.4945
-44.209
-49.1636
-54.3507
-59.7566
-65.3611
-71.1365
-77.0471
-83.05
-89.0957
-95.13
-101.096
40.0002
38.0763
36.1634
34.2832
32.4559
30.6996
29.03
27.4597
25.9986
24.654
23.431
22.3324
21.3595
20.5124
19.79
19.1906
18.7115
18.3499
18.102
17.9637
17.9301
17.9955
18.1533
18.3958
18.7137
19.0969
19.5334
20.0106
20.5149
21.0328
21.5512
22.0585
22.5447
23.0018
23.4236
23.805
24.1407
24.4253
24.652
24.8131
24.9002
24.9056
24.8232
24.65
24.386
24.0349
23.6031
23.0981
22.5272
21.8962
21.2086
20.4645
19.6613
18.7943
17.8572
16.8441
15.7499
14.5711
13.3062
11.955
10.5179
8.99462
7.38349
5.68042
3.87853
1.96806
-0.0633176
-2.22987
-4.54694
-7.02994
-9.69357
-12.5511
-15.6143
-18.8931
-22.3964
-26.132
-30.107
-34.3277
-38.7991
-43.5242
-48.5029
-53.7303
-59.1955
-64.8799
-70.7565
-76.7886
-82.9304
-89.1281
-95.3214
-101.446
40.0377
38.0264
36.0275
34.066
32.1649
30.3443
28.6208
27.0073
25.5134
24.1454
22.9072
21.8005
20.8254
19.9809
19.2651
18.6755
18.2094
17.8634
17.6342
17.5177
17.5095
17.6044
17.7963
18.0776
18.4394
18.8709
19.3594
19.8907
20.4492
21.0192
21.5854
22.1347
22.6565
23.1438
23.5922
23.9987
24.3606
24.6734
24.9303
25.1216
25.236
25.2622
25.1911
25.0177
24.7428
24.3724
23.9169
23.3884
22.7988
22.1571
21.4682
20.7322
19.9445
19.0973
18.1809
17.1862
16.1059
14.9363
13.6771
12.3307
10.9006
9.39003
7.7997
6.12711
4.36563
2.5045
0.529311
-1.57706
-3.83308
-6.2571
-8.866
-11.6743
-14.6939
-17.9346
-21.4047
-25.1119
-29.0643
-33.27
-37.7372
-42.4732
-47.4826
-52.7659
-58.3168
-64.1202
-70.1505
-76.3699
-82.7283
-89.1645
-95.6083
-101.985
40.0922
37.9568
35.8361
33.7603
31.7565
29.8477
28.0518
26.3816
24.8457
23.4488
22.1931
21.0781
20.1023
19.2631
18.5574
17.982
17.5333
17.2082
17.0032
16.915
16.9397
17.073
17.3096
17.6429
18.064
18.5619
19.123
19.7306
20.3663
21.0101
21.6432
22.2494
22.8172
23.341
23.8199
24.2557
24.6501
25.0012
25.302
25.5398
25.6978
25.758
25.705
25.5308
25.2361
24.8316
24.3347
23.7659
23.1445
22.4851
21.7949
21.0735
20.3127
19.4992
18.6169
17.6507
16.5899
15.43
14.173
12.8262
11.399
9.89986
8.33407
6.70153
4.99602
3.20507
1.31078
-0.708737
-2.87723
-5.21789
-7.75105
-10.4928
-13.4548
-16.6452
-20.0707
-23.7381
-27.6559
-31.8347
-36.2872
-41.027
-46.0666
-51.4146
-57.0726
-63.032
-69.2702
-75.7486
-82.4116
-89.1871
-95.9899
-102.726
40.1684
37.8641
35.5783
33.3492
31.21
29.1873
27.3003
25.5612
23.9765
22.5481
21.2751
20.1544
19.1817
18.3523
17.6615
17.105
16.6787
16.3792
16.2035
16.1488
16.2127
16.3921
16.6832
17.0808
17.5771
18.1613
18.8186
19.5295
20.2706
21.0157
21.7389
22.4183
23.0404
23.6019
24.1086
24.5716
25.0009
25.4004
25.7633
26.0719
26.2995
26.4155
26.3928
26.2161
25.8867
25.4229
24.8551
24.2181
23.5442
22.8564
22.1658
21.4705
20.7561
19.9994
19.1728
18.2509
17.2161
16.0627
14.7978
13.4371
12.0003
10.5053
8.96421
7.38076
5.7492
4.0543
2.2725
0.374098
-1.67343
-3.90133
-6.33552
-8.99391
-11.8863
-15.0169
-18.3879
-22.0032
-25.8708
-30.0042
-34.4224
-39.148
-44.205
-49.6152
-55.393
-61.5405
-68.042
-74.8594
-81.9305
-89.1681
-96.4642
-103.697
40.2736
37.7431
35.2373
32.8069
30.4943
28.3303
26.3346
24.5173
22.8809
21.4227
20.137
19.0166
18.0538
17.241
16.5715
16.0397
15.6407
15.3712
15.2286
15.2114
15.3187
15.5495
15.9028
16.3757
16.9629
17.6548
18.4362
19.2841
20.1683
21.052
21.8966
22.6689
23.35
23.9405
24.4592
24.9348
25.3939
25.8511
26.3016
26.7197
27.061
27.2715
27.3013
27.1203
26.7299
26.163
25.4739
24.7228
23.9628
23.2307
22.5428
21.8941
21.2596
20.5993
19.8654
19.013
18.0121
16.8557
15.5599
14.1572
12.6851
11.1767
9.65497
8.12897
6.59334
5.02847
3.40198
1.67162
-0.209858
-2.28763
-4.59697
-7.15776
-9.97455
-13.042
-16.3528
-19.9042
-23.702
-27.763
-32.1139
-36.7905
-41.8337
-47.2849
-53.1793
-59.5375
-66.3566
-73.603
-81.2071
-89.0621
-97.0265
-104.935
40.4195
37.585
34.786
32.0938
29.5631
27.2295
25.111
23.2119
21.5275
20.0477
18.7599
17.6511
16.7089
15.9225
15.2827
14.7822
14.4157
14.1797
14.0725
14.0941
14.2459
14.5302
14.9494
15.5053
16.1971
17.0189
17.9569
18.9858
20.0659
21.1437
22.1573
23.05
23.7892
24.3815
24.871
25.3207
25.7887
26.3102
26.8857
27.4769
28.0097
28.3867
28.5121
28.3251
27.8261
27.0782
26.181
25.2394
24.3404
23.5405
22.8626
22.2963
21.7995
21.3045
20.7277
19.9883
19.0316
17.8485
16.4754
14.9768
13.4214
11.867
10.3515
8.89074
7.4793
6.09113
4.68089
3.18666
1.53634
-0.340438
-2.49621
-4.95278
-7.70145
-10.7164
-13.9709
-17.4495
-21.1536
-25.1032
-29.3357
-33.9041
-38.8735
-44.3149
-50.2962
-56.8691
-64.0541
-71.8291
-80.1201
-88.7958
-97.6668
-106.498
40.6251
37.3739
34.1795
31.1465
28.3467
25.8179
23.5703
21.5964
19.8786
18.3953
17.1242
16.0447
15.1391
14.3923
13.7926
13.3312
13.0021
12.802
12.7303
12.7889
12.9819
13.3158
13.7985
14.4386
15.2433
16.215
17.3462
18.6128
19.966
21.3269
22.5912
23.6512
24.4389
24.9695
25.3393
25.679
26.1055
26.6905
27.4461
28.3173
29.1816
29.8629
30.1718
29.9778
29.2798
28.2072
26.9509
25.694
24.5742
23.6736
23.0212
22.5974
22.336
22.1265
21.8235
21.2758
20.3766
19.114
17.5714
15.8773
14.156
12.5011
10.9687
9.5812
8.3315
7.18534
6.08054
4.92634
3.60855
2.00849
0.0377641
-2.32702
-5.04471
-8.04538
-11.266
-14.6697
-18.2512
-22.0352
-26.0727
-30.4393
-35.2323
-40.566
-46.5599
-53.3174
-60.9002
-69.3098
-78.4768
-88.2457
-98.3616
-108.477
40.9221
37.0795
33.3391
29.8619
26.739
24
21.6345
19.6112
17.8914
16.4365
15.2117
14.1874
13.3397
12.6496
12.1028
11.6891
11.4022
11.239
11.2001
11.2894
11.5144
11.8864
12.4204
13.1344
14.0485
15.1805
16.5397
18.1144
19.854
21.6485
23.3185
24.6433
25.4579
25.788
25.8497
25.9116
26.1928
26.8241
27.839
29.1664
30.6161
31.8742
32.5546
32.3551
31.2717
29.5996
27.7206
25.95
24.4914
23.4484
22.8497
22.6638
22.7972
23.0823
23.271
23.0686
22.2439
20.7822
18.8848
16.8164
14.7945
12.958
11.3769
10.0729
9.03434
8.21972
7.55113
6.9014
6.08712
4.89112
3.13916
0.807022
-1.98032
-5.05746
-8.29695
-11.6332
-15.0567
-18.6012
-22.3352
-26.3596
-30.8115
-35.8653
-41.7224
-48.5756
-56.5537
-65.698
-75.9643
-87.1933
-99.0545
-111.016
41.3663
36.6364
32.118
28.066
24.5771
21.643
19.2046
17.1879
15.5219
14.1456
13.0096
12.0753
11.3128
10.6999
10.2207
9.86407
9.62348
9.49649
9.48469
9.59391
9.83476
10.2234
10.7823
11.5417
12.5391
13.8183
15.4223
17.3778
19.662
22.1484
24.542
26.3692
27.1733
26.992
26.3587
25.8272
25.775
26.404
27.7806
29.8384
32.3251
34.716
36.2032
36.004
34.1102
31.289
28.3331
25.7559
23.8091
22.5823
22.083
22.2694
23.039
24.1761
25.281
25.7568
25.0279
23.0769
20.444
17.6877
15.1657
13.0468
11.3855
10.182
9.41434
9.04351
8.99432
9.11315
9.11517
8.57418
7.07592
4.59653
1.50144
-1.83559
-5.18833
-8.47079
-11.6875
-14.894
-18.1785
-21.6636
-25.523
-30.0067
-35.4494
-42.2123
-50.526
-60.4687
-72.0634
-85.2279
-99.6003
-114.355
42.0641
35.8866
30.224
25.4577
21.6154
18.5714
16.1668
14.2589
12.7345
11.508
10.5168
9.71501
9.06978
8.55747
8.16164
7.87146
7.68077
7.58771
7.59462
7.70851
7.94195
8.31454
8.85526
9.60559
10.6235
11.9876
13.7981
16.167
19.178
22.7812
26.58
29.5672
30.3067
28.8457
26.72
25.0515
24.3751
24.9066
26.7402
29.8916
34.1711
38.8576
42.2789
42.0914
38.2829
33.1711
28.3989
24.6533
22.089
20.6679
20.328
21.0345
22.7506
25.3154
28.1958
30.1789
29.5707
26.3526
22.18
18.2213
14.9557
12.4764
10.7346
9.66321
9.22258
9.40383
10.1953
11.4928
12.9249
13.6355
12.4253
9.27248
5.33155
1.40897
-2.1807
-5.40274
-8.33266
-11.0738
-13.7325
-16.4279
-19.3348
-22.7659
-27.2741
-33.6146
-42.1508
-52.8589
-65.8997
-81.5205
-99.5931
-118.914
43.2355
34.3938
27.0378
21.5179
17.5032
14.5781
12.4128
10.7772
9.51737
8.53123
7.7505
7.12895
6.63497
6.24689
5.95009
5.73521
5.59716
5.53464
5.55018
5.65064
5.84839
6.16326
6.626
7.28374
8.209
9.51365
11.3693
14.0309
17.8407
23.131
29.7856
36.0007
36.6074
31.6555
26.4218
22.8462
21.2349
21.533
23.801
28.3192
35.4295
44.8195
53.5496
53.3916
44.3309
34.563
26.9852
21.8488
18.7217
17.196
17.0653
18.345
21.2395
25.9994
32.4017
38.3314
37.8706
31.0021
23.6071
17.7561
13.613
10.8433
9.11791
8.23578
8.13503
8.88516
10.6671
13.6786
17.7729
21.4623
20.5716
15.0831
9.13508
4.17415
0.297595
-2.7552
-5.24932
-7.37211
-9.23299
-10.8869
-12.3912
-13.9734
-16.4593
-21.854
-30.6468
-41.8885
-56.0188
-74.2805
-97.7845
-125.493
45.379
30.7605
21.2061
15.4094
11.8211
9.49017
7.89564
6.75383
5.90571
5.25826
4.75465
4.35886
4.04736
3.80459
3.6203
3.48809
3.40454
3.36893
3.3832
3.45245
3.58591
3.79879
4.11563
4.57636
5.24779
6.24578
7.77962
10.2407
14.3706
21.5155
33.6226
50.5087
50.9112
34.8696
23.7347
17.8113
15.3442
15.322
17.6204
23.0132
33.4038
51.7301
77.6168
77.5095
51.3955
32.7997
22.0548
16.1501
13.0478
11.7145
11.7711
13.3293
17.0414
24.3176
37.2869
55.6849
55.3963
36.4087
22.8102
14.8308
10.2922
7.70594
6.28667
5.68288
5.82193
6.88042
9.36802
14.3046
23.2036
35.8839
35.3382
21.555
11.5169
5.37772
1.58969
-0.912021
-2.70049
-4.04727
-5.0313
-5.56067
-5.33502
-3.87907
-1.455
-5.19927
-15.6152
-26.7571
-40.1868
-59.4895
-89.9196
-135.753
49.6612
19.8332
9.96255
6.12032
4.32759
3.34145
2.72617
2.30724
2.00483
1.77791
1.60334
1.46718
1.3606
1.2779
1.21537
1.17072
1.14276
1.13124
1.13691
1.16164
1.2089
1.28446
1.39787
1.5654
1.81611
2.20602
2.85439
4.04681
6.55838
12.7535
30.5766
88.7509
88.8924
31.0165
13.5423
7.79845
5.93219
5.76879
6.98326
10.5096
19.9491
47.7518
139.112
139.074
47.6318
19.7299
10.1538
6.41524
4.82624
4.2308
4.31437
5.21171
7.71018
14.437
34.3535
99.9451
99.8467
34.0537
13.9212
6.95026
4.15974
2.88785
2.28092
2.0601
2.18466
2.81755
4.54219
9.22407
23.1889
69.3497
69.1658
22.6332
8.2841
3.19546
1.02944
-0.0958716
-0.787563
-1.24465
-1.48411
-1.32144
-0.050158
4.82158
22.4322
21.0631
0.462558
-8.33032
-15.8965
-28.6728
-59.8716
-153.357
-107.249
-113.912
-120.238
-126.16
-131.626
-136.601
-141.061
-144.998
-148.411
-151.305
-153.693
-155.584
-156.99
-157.922
-158.386
-107.504
-114.246
-120.638
-126.612
-132.114
-137.111
-141.581
-145.518
-148.924
-151.809
-154.184
-156.064
-157.46
-158.385
-158.845
-108.021
-114.926
-121.454
-127.531
-133.105
-138.143
-142.63
-146.565
-149.956
-152.818
-155.167
-157.022
-158.398
-159.308
-159.761
-108.821
-115.981
-122.718
-128.951
-134.628
-139.722
-144.227
-148.151
-151.512
-154.334
-156.641
-158.455
-159.798
-160.684
-161.124
-109.937
-117.457
-124.481
-130.922
-136.73
-141.886
-146.4
-150.295
-153.604
-156.361
-158.602
-160.356
-161.649
-162.5
-162.923
-111.42
-119.424
-126.825
-133.524
-139.478
-144.689
-149.188
-153.021
-156.242
-158.901
-161.045
-162.714
-163.938
-164.741
-165.139
-113.349
-121.993
-129.867
-136.866
-142.966
-148.2
-152.637
-156.356
-159.437
-161.951
-163.96
-165.511
-166.643
-167.383
-167.749
-115.846
-125.327
-133.781
-141.104
-147.314
-152.505
-156.799
-160.324
-163.193
-165.502
-167.326
-168.723
-169.736
-170.395
-170.72
-119.109
-129.684
-138.822
-146.45
-152.678
-157.701
-161.727
-164.944
-167.506
-169.533
-171.114
-172.313
-173.177
-173.737
-174.012
-123.461
-135.475
-145.37
-153.192
-159.243
-163.889
-167.459
-170.214
-172.35
-174.006
-175.279
-176.234
-176.917
-177.358
-177.574
-129.481
-143.381
-153.987
-161.701
-167.209
-171.148
-173.999
-176.099
-177.67
-178.858
-179.755
-180.421
-180.895
-181.199
-181.348
-138.283
-154.576
-165.491
-172.41
-176.74
-179.489
-181.286
-182.507
-183.368
-183.994
-184.457
-184.796
-185.036
-185.19
-185.266
-152.287
-171.145
-180.988
-185.704
-187.848
-188.775
-189.145
-189.27
-189.297
-189.29
-189.276
-189.265
-189.259
-189.255
-189.254
-177.607
-196.726
-201.605
-201.564
-200.17
-198.613
-197.242
-196.127
-195.254
-194.587
-194.088
-193.724
-193.472
-193.313
-193.236
-232.679
-236.542
-227.135
-218.77
-212.649
-208.259
-205.076
-202.736
-201
-199.71
-198.757
-198.066
-197.586
-197.283
-197.136
79.5993
79.4784
79.2381
78.8817
78.4162
77.8547
77.2218
76.5629
75.9611
75.5695
75.6783
76.8722
80.4983
90.4623
121.667
81.6477
81.5285
81.2907
80.9362
80.4692
79.8989
79.2445
78.544
77.872
77.3743
77.3341
78.3015
81.3244
88.1848
100.011
83.7766
83.6585
83.4219
83.0662
82.5913
81.9991
81.2968
80.5027
79.6596
78.8589
78.2875
78.3009
79.483
82.4563
86.6022
85.9849
85.8683
85.6333
85.2764
84.7922
84.1731
83.4101
82.4932
81.4153
80.1815
78.8322
77.4866
76.3953
75.9106
76.1084
88.2717
88.1577
87.9267
87.5724
87.0839
86.4445
85.6278
84.5931
83.2767
81.5816
79.3718
76.4932
72.884
68.8884
65.788
90.635
90.5257
90.3031
89.9587
89.4777
88.8361
87.9943
86.8861
85.3984
83.3365
80.3734
76.0048
69.6385
61.2422
53.3509
93.0717
92.9697
92.7612
92.4369
91.9802
91.364
90.5431
89.44
87.9161
85.7146
82.3485
76.9013
67.8006
53.2434
35.4702
95.5766
95.4848
95.297
95.0041
94.5906
94.0312
93.2851
92.2834
90.9015
88.8986
85.7663
80.3323
69.7496
47.4762
5.28402
98.1424
98.0638
97.9029
97.6521
97.2991
96.825
96.202
95.3879
94.3152
92.8643
90.7797
87.3362
79.8151
55.5399
-54.1643
100.76
100.697
100.568
100.368
100.089
99.7193
99.2488
98.6692
97.9883
97.2672
96.7341
97.1688
101.513
122.927
230.811
103.419
103.373
103.28
103.136
102.937
102.681
102.369
102.018
101.686
101.537
102.014
104.283
111.353
130.262
170.182
106.106
106.079
106.023
105.938
105.822
105.678
105.513
105.351
105.253
105.368
106.045
108.061
112.969
123.002
137.321
108.81
108.801
108.784
108.758
108.724
108.686
108.651
108.635
108.669
108.806
109.143
109.826
111.023
112.761
114.45
111.517
111.527
111.548
111.58
111.626
111.689
111.774
111.883
112.009
112.102
111.998
111.231
108.696
102.552
92.7982
114.213
114.242
114.3
114.389
114.512
114.673
114.876
115.116
115.367
115.531
115.311
113.858
108.874
94.8455
64.4206
116.887
116.933
117.026
117.17
117.368
117.625
117.948
118.338
118.783
119.224
119.477
118.935
115.329
98.5224
14.9626
119.526
119.588
119.715
119.91
120.178
120.528
120.971
121.52
122.197
123.043
124.192
126.135
130.947
148.552
232.392
122.118
122.195
122.353
122.595
122.928
123.363
123.916
124.61
125.488
126.649
128.353
131.338
137.678
152.582
183.23
124.652
124.744
124.929
125.212
125.603
126.113
126.759
127.567
128.58
129.874
131.62
134.206
138.458
145.674
155.404
127.12
127.223
127.432
127.752
128.192
128.764
129.486
130.38
131.471
132.78
134.301
135.913
137.176
137.015
134.39
129.513
129.626
129.854
130.204
130.684
131.307
132.09
133.052
134.207
135.536
136.913
137.859
136.878
130.063
111.607
131.824
131.945
132.189
132.562
133.073
133.735
134.566
135.587
136.817
138.254
139.821
141.138
140.628
131.191
76.0629
134.048
134.174
134.43
134.82
135.353
136.042
136.907
137.974
139.278
140.879
142.899
145.683
150.573
164.045
221.721
136.18
136.31
136.573
136.973
137.52
138.224
139.105
140.191
141.529
143.209
145.442
148.759
154.554
166.196
188.06
138.219
138.351
138.617
139.022
139.572
140.278
141.156
142.229
143.536
145.151
147.229
150.11
154.471
161.243
169.641
140.161
140.294
140.561
140.965
141.512
142.209
143.068
144.101
145.326
146.766
148.454
150.43
152.709
155.157
157.111
142.009
142.14
142.405
142.805
143.343
144.025
144.854
145.835
146.962
148.205
149.475
150.533
150.826
149.409
145.998
143.761
143.891
144.151
144.544
145.07
145.733
146.532
147.465
148.513
149.622
150.64
151.162
150.125
145.041
132.575
145.419
145.546
145.802
146.186
146.699
147.341
148.113
149.01
150.017
151.096
152.146
152.87
152.232
145.795
110.555
146.984
147.109
147.359
147.734
148.233
148.856
149.603
150.474
151.466
152.586
153.874
155.518
158.36
166.547
202.718
148.459
148.581
148.825
149.19
149.676
150.281
151.004
151.849
152.822
153.954
155.352
157.329
160.773
167.861
181.464
149.846
149.965
150.203
150.559
151.031
151.618
152.318
153.131
154.063
155.135
156.422
158.118
160.65
164.646
169.717
151.146
151.262
151.495
151.842
152.302
152.872
153.549
154.327
155.201
156.161
157.203
158.322
159.506
160.68
161.553
152.36
152.475
152.703
153.043
153.493
154.048
154.705
155.453
156.274
157.127
157.927
158.477
158.363
156.918
154.056
153.492
153.604
153.829
154.163
154.605
155.15
155.794
156.524
157.319
158.125
158.819
159.089
158.141
154.136
144.632
154.542
154.653
154.874
155.204
155.64
156.18
156.818
157.547
158.351
159.196
160.002
160.541
160.038
155.167
128.67
155.51
155.62
155.839
156.166
156.599
157.136
157.775
158.514
159.351
160.291
161.365
162.713
164.963
171.211
198.42
156.399
156.508
156.725
157.05
157.481
158.017
158.658
159.408
160.274
161.287
162.533
164.254
167.108
172.693
183.076
157.207
157.316
157.532
157.856
158.286
158.821
159.463
160.216
161.092
162.117
163.367
165.004
167.353
170.838
175.004
157.937
158.045
158.261
158.583
159.012
159.546
160.186
160.936
161.799
162.788
163.927
165.255
166.805
168.505
169.887
158.588
158.696
158.911
159.233
159.66
160.193
160.83
161.572
162.415
163.35
164.352
165.347
166.147
166.388
165.791
159.16
159.267
159.482
159.804
160.231
160.763
161.398
162.133
162.961
163.86
164.777
165.57
165.874
164.848
161.343
159.653
159.761
159.976
160.297
160.725
161.256
161.891
162.626
163.454
164.354
165.285
166.128
166.52
165.026
154.521
160.067
160.175
160.39
160.713
161.141
161.674
162.311
163.052
163.891
164.823
165.848
166.995
168.471
171.457
182.751
160.403
160.511
160.727
161.05
161.479
162.015
162.656
163.404
164.258
165.223
166.322
167.629
169.368
172.114
176.599
160.66
160.768
160.985
161.309
161.74
162.278
162.924
163.678
164.543
165.526
166.647
167.959
169.562
171.559
173.622
160.838
160.946
161.163
161.488
161.921
162.462
163.112
163.871
164.743
165.727
166.836
168.083
169.477
170.953
172.139
160.937
161.045
161.263
161.588
162.023
162.566
163.219
163.983
164.858
165.839
166.924
168.099
169.331
170.544
171.539
160.956
161.065
161.282
161.608
162.044
162.589
163.246
164.015
164.894
165.875
166.945
168.071
169.195
170.281
171.691
160.897
161.005
161.222
161.548
161.984
162.531
163.191
163.966
164.853
165.846
166.924
168.039
169.08
169.789
169.377
160.758
160.866
161.082
161.407
161.843
162.39
163.053
163.834
164.735
165.752
166.872
168.054
169.193
170.069
170.342
160.541
160.648
160.862
161.186
161.619
162.165
162.829
163.616
164.532
165.583
166.774
168.095
169.485
170.764
171.555
160.245
160.351
160.563
160.883
161.312
161.855
162.516
163.304
164.23
165.313
166.582
168.083
169.849
171.792
173.376
159.872
159.976
160.185
160.499
160.922
161.457
162.11
162.892
163.815
164.908
166.226
167.883
170.085
173.066
176.356
159.424
159.525
159.729
160.037
160.45
160.973
161.613
162.377
163.279
164.342
165.63
167.299
169.778
174.122
181.677
158.901
159
159.197
159.496
159.897
160.405
161.025
161.762
162.624
163.618
164.764
166.148
168.17
172.942
192.304
158.307
158.401
158.592
158.879
159.266
159.755
160.351
161.058
161.874
162.783
163.731
164.548
164.651
161.625
143.221
157.643
157.733
157.915
158.189
158.558
159.026
159.597
160.275
161.056
161.917
162.784
163.44
163.299
160.984
154.625
156.912
156.998
157.17
157.429
157.779
158.222
158.766
159.416
160.176
161.042
161.981
162.882
163.453
163.149
161.668
156.119
156.199
156.36
156.602
156.929
157.345
157.857
158.476
159.219
160.113
161.201
162.548
164.212
166.125
167.737
155.267
155.341
155.489
155.712
156.014
156.397
156.87
157.447
158.154
159.044
160.238
161.99
164.794
169.308
174.979
154.36
154.427
154.562
154.765
155.037
155.383
155.808
156.324
156.956
157.761
158.883
160.697
164.185
171.682
186.213
153.403
153.463
153.584
153.764
154.006
154.31
154.678
155.117
155.635
156.254
157.043
158.238
160.787
169.169
207.591
152.401
152.454
152.56
152.718
152.928
153.188
153.497
153.852
154.239
154.624
154.918
154.835
153.336
145.789
107.787
151.359
151.405
151.496
151.632
151.81
152.028
152.282
152.561
152.84
153.055
153.05
152.413
150.08
143.555
129.56
150.281
150.32
150.398
150.512
150.66
150.84
151.045
151.266
151.48
151.636
151.618
151.164
149.732
146.506
141.666
149.174
149.206
149.27
149.364
149.485
149.63
149.795
149.973
150.157
150.333
150.485
150.592
150.626
150.574
150.459
148.04
148.067
148.119
148.194
148.29
148.404
148.532
148.674
148.836
149.044
149.381
150.065
151.578
154.682
159.222
146.885
146.906
146.947
147.006
147.079
147.163
147.255
147.357
147.479
147.661
148.032
148.958
151.422
157.789
171.186
145.712
145.728
145.76
145.804
145.856
145.913
145.97
146.023
146.075
146.143
146.296
146.779
148.553
156.01
192.501
144.524
144.537
144.561
144.592
144.627
144.66
144.683
144.687
144.658
144.563
144.326
143.7
141.735
134.066
97.3794
143.325
143.335
143.353
143.375
143.396
143.41
143.406
143.372
143.281
143.078
142.623
141.548
138.875
132.269
118.653
142.116
142.124
142.138
142.154
142.167
142.168
142.147
142.092
141.98
141.765
141.348
140.502
138.742
135.337
130.517
140.898
140.906
140.919
140.933
140.942
140.938
140.91
140.85
140.746
140.588
140.369
140.087
139.75
139.385
139.079
139.672
139.681
139.696
139.712
139.723
139.72
139.693
139.635
139.546
139.449
139.429
139.708
140.773
143.389
147.472
138.437
138.448
138.468
138.491
138.51
138.515
138.494
138.438
138.348
138.255
138.28
138.78
140.717
146.37
158.746
137.191
137.206
137.235
137.271
137.304
137.325
137.316
137.263
137.149
136.975
136.796
136.851
138.079
144.677
178.659
135.931
135.953
135.994
136.047
136.105
136.151
136.167
136.126
135.989
135.695
135.148
134.105
131.707
123.966
89.1977
134.654
134.683
134.74
134.819
134.909
134.995
135.056
135.054
134.932
134.589
133.841
132.296
129.042
122.02
108.651
133.353
133.392
133.469
133.578
133.711
133.854
133.984
134.063
134.025
133.762
133.085
131.67
128.992
124.479
118.863
132.022
132.072
132.172
132.318
132.504
132.72
132.946
133.149
133.272
133.218
132.839
131.917
130.215
127.701
125.216
130.653
130.715
130.84
131.027
131.273
131.575
131.92
132.289
132.638
132.899
132.966
132.704
131.997
130.901
129.885
129.238
129.312
129.462
129.69
130.001
130.396
130.877
131.438
132.062
132.71
133.318
133.796
134.048
134.041
133.89
127.769
127.854
128.027
128.294
128.666
129.155
129.775
130.542
131.467
132.546
133.759
135.042
136.276
137.279
137.831
126.238
126.331
126.523
126.823
127.247
127.819
128.568
129.534
130.76
132.287
134.148
136.319
138.662
140.825
142.197
124.64
124.738
124.941
125.261
125.722
126.356
127.209
128.343
129.839
131.795
134.318
137.473
141.169
144.919
147.557
122.972
123.07
123.274
123.6
124.075
124.739
125.652
126.898
128.595
130.906
134.046
138.248
143.635
149.782
154.789
121.233
121.325
121.519
121.832
122.292
122.946
123.861
125.137
126.922
129.44
133.032
138.198
145.569
155.435
165.539
119.427
119.508
119.679
119.958
120.373
120.97
121.817
123.02
124.736
127.225
130.922
136.614
145.768
160.917
183.347
117.562
117.626
117.762
117.986
118.324
118.816
119.525
120.542
122.012
124.167
127.425
132.622
141.801
161.341
216.77
-385.016
-285.199
-249.577
-232.48
-222.497
-215.99
-211.478
-208.234
-205.854
-204.093
-202.792
-201.848
-201.19
-200.774
-200.572
-325.418
-284.847
-257.109
-239.997
-229.032
-221.629
-216.414
-212.629
-209.834
-207.753
-206.208
-205.082
-204.294
-203.795
-203.552
-294.056
-275.576
-257.258
-243.241
-233.09
-225.743
-220.35
-216.334
-213.314
-211.037
-209.33
-208.076
-207.195
-206.634
-206.36
-275.59
-266.188
-254.414
-243.794
-235.198
-228.496
-223.326
-219.342
-216.274
-213.92
-212.133
-210.807
-209.868
-209.268
-208.975
-263.713
-258.442
-250.764
-242.938
-235.985
-230.18
-225.473
-221.711
-218.735
-216.406
-214.611
-213.264
-212.303
-211.685
-211.383
-255.56
-252.361
-247.213
-241.471
-235.971
-231.097
-226.958
-223.53
-220.743
-218.516
-216.773
-215.449
-214.496
-213.88
-213.577
-249.692
-247.627
-244.071
-239.829
-235.518
-231.5
-227.943
-224.9
-222.359
-220.287
-218.638
-217.371
-216.451
-215.852
-215.557
-245.319
-243.925
-241.399
-238.232
-234.857
-231.577
-228.568
-225.915
-223.646
-221.759
-220.234
-219.048
-218.179
-217.609
-217.328
-241.977
-241.004
-239.167
-236.774
-234.125
-231.461
-228.941
-226.66
-224.665
-222.975
-221.589
-220.499
-219.694
-219.163
-218.899
-239.374
-238.679
-237.317
-235.487
-233.401
-231.241
-229.144
-227.2
-225.468
-223.975
-222.735
-221.749
-221.014
-220.527
-220.284
-237.315
-236.812
-235.787
-234.375
-232.723
-230.972
-229.234
-227.591
-226.1
-224.796
-223.7
-222.819
-222.157
-221.717
-221.496
-235.669
-235.302
-234.523
-233.423
-232.11
-230.69
-229.253
-227.871
-226.598
-225.47
-224.51
-223.731
-223.143
-222.749
-222.552
-234.34
-234.072
-233.476
-232.615
-231.568
-230.415
-229.23
-228.072
-226.991
-226.021
-225.189
-224.508
-223.99
-223.641
-223.466
-233.26
-233.067
-232.609
-231.932
-231.094
-230.158
-229.182
-228.215
-227.302
-226.474
-225.757
-225.166
-224.714
-224.409
-224.255
-232.377
-232.241
-231.889
-231.356
-230.685
-229.925
-229.122
-228.317
-227.549
-226.847
-226.233
-225.724
-225.332
-225.067
-224.932
-231.652
-231.559
-231.29
-230.871
-230.334
-229.717
-229.057
-228.389
-227.746
-227.153
-226.631
-226.195
-225.858
-225.629
-225.513
-231.053
-230.995
-230.792
-230.463
-230.033
-229.534
-228.993
-228.441
-227.904
-227.405
-226.964
-226.593
-226.305
-226.109
-226.009
-230.558
-230.527
-230.376
-230.12
-229.778
-229.374
-228.933
-228.478
-228.031
-227.614
-227.242
-226.929
-226.684
-226.517
-226.432
-230.148
-230.138
-230.029
-229.831
-229.561
-229.236
-228.878
-228.504
-228.134
-227.787
-227.476
-227.212
-227.005
-226.864
-226.791
-229.806
-229.814
-229.739
-229.589
-229.377
-229.118
-228.828
-228.522
-228.218
-227.931
-227.671
-227.451
-227.277
-227.158
-227.097
-229.521
-229.544
-229.496
-229.385
-229.221
-229.016
-228.783
-228.535
-228.286
-228.05
-227.835
-227.652
-227.507
-227.407
-227.356
-229.283
-229.318
-229.293
-229.214
-229.089
-228.929
-228.744
-228.544
-228.342
-228.149
-227.973
-227.821
-227.701
-227.618
-227.575
-229.084
-229.128
-229.122
-229.07
-228.978
-228.855
-228.71
-228.551
-228.389
-228.232
-228.088
-227.964
-227.865
-227.796
-227.761
-228.918
-228.97
-228.979
-228.948
-228.884
-228.792
-228.681
-228.556
-228.427
-228.301
-228.185
-228.084
-228.004
-227.947
-227.919
-228.778
-228.836
-228.858
-228.846
-228.804
-228.739
-228.655
-228.559
-228.458
-228.359
-228.267
-228.186
-228.121
-228.075
-228.052
-228.66
-228.724
-228.756
-228.759
-228.737
-228.694
-228.634
-228.562
-228.485
-228.408
-228.336
-228.272
-228.22
-228.183
-228.164
-228.56
-228.629
-228.67
-228.686
-228.68
-228.655
-228.615
-228.564
-228.507
-228.449
-228.394
-228.345
-228.304
-228.275
-228.26
-228.475
-228.548
-228.597
-228.624
-228.632
-228.622
-228.6
-228.566
-228.526
-228.484
-228.444
-228.406
-228.375
-228.353
-228.341
-228.403
-228.479
-228.535