/*--------------------------------*- C++ -*----------------------------------*\
| =========                 |                                                 |
| \\      /  F ield         | OpenFOAM: The Open Source CFD Toolbox           |
|  \\    /   O peration     | Version:  5.x                                   |
|   \\  /    A nd           | Web:      www.OpenFOAM.org                      |
|    \\/     M anipulation  |                                                 |
\*---------------------------------------------------------------------------*/
FoamFile
{
    version     2.0;
    format      ascii;
    class       volScalarField;
    location    "12.3";
    object      T;
}
// * * * * * * * * * * * * * * * * * * * * * * * * * * * * * * * * * * * * * //

dimensions      [0 0 0 1 0 0 0];

internalField   nonuniform List<scalar> 
6300
(
10.299
10.896
11.4903
12.0802
12.6639
13.2395
13.8054
14.3597
14.9008
15.4269
15.9365
16.4282
16.9005
17.3525
17.7832
10.2998
10.8986
11.4947
12.0864
12.6718
13.2492
13.8167
14.3728
14.9155
15.4431
15.9542
16.4472
16.9206
17.3734
17.8047
10.3016
10.9039
11.5035
12.0986
12.6876
13.2685
13.8395
14.3989
14.9449
15.4758
15.9898
16.4854
16.961
17.4156
17.848
10.3042
10.9118
11.5166
12.1171
12.7113
13.2974
13.8737
14.4383
14.9894
15.525
16.0435
16.5432
17.0223
17.4795
17.9138
10.3077
10.9223
11.5342
12.1417
12.7429
13.3361
13.9195
14.491
15.0489
15.5912
16.1159
16.6211
17.1051
17.5661
18.0029
10.3121
10.9354
11.5561
12.1724
12.7825
13.3846
13.9768
14.5573
15.1239
15.6747
16.2074
16.7201
17.2105
17.6767
18.117
10.3173
10.9511
11.5823
12.2091
12.8299
13.4427
14.0458
14.6371
15.2145
15.7759
16.3189
16.841
17.3398
17.8127
18.2577
10.3234
10.9693
11.6127
12.2519
12.8851
13.5106
14.1263
14.7305
15.3209
15.8952
16.4508
16.985
17.4946
17.9764
18.4277
10.3303
10.9901
11.6474
12.3006
12.948
13.5878
14.2183
14.8375
15.4432
16.0329
16.604
17.1532
17.6767
18.1704
18.6302
10.338
11.0132
11.686
12.3549
13.0183
13.6744
14.3215
14.9577
15.5811
16.1891
16.7788
17.3467
17.8882
18.3979
18.8697
10.3465
11.0386
11.7286
12.4147
13.0956
13.7697
14.4353
15.0907
15.7341
16.3632
16.9752
17.5663
18.1313
18.6629
19.1521
10.3557
11.0663
11.7748
12.4797
13.1797
13.8733
14.559
15.2355
15.9011
16.5541
17.1922
17.8117
18.4073
18.9699
19.4859
10.3656
11.0961
11.8245
12.5496
13.27
13.9845
14.6918
15.3909
16.0806
16.7598
17.4272
18.0807
18.7159
19.3232
19.8831
10.3761
11.1278
11.8775
12.624
13.3661
14.1027
14.8327
15.5554
16.2702
16.9769
17.6759
18.3677
19.0519
19.7233
20.3608
10.3873
11.1614
11.9336
12.7027
13.4676
14.2273
14.9808
15.7276
16.4675
17.2015
17.9315
18.662
19.4003
20.1569
20.9351
18.158
18.4834
18.7934
19.0883
19.3682
19.6338
19.8856
20.1242
20.3506
20.5654
20.7698
20.9645
21.1507
21.3293
21.5013
21.6678
21.8297
21.9879
22.1435
22.2973
22.4503
22.6031
22.7566
22.9115
23.0684
23.2279
23.3904
23.5563
23.7259
23.8993
24.0767
24.2581
24.4432
24.6321
24.8243
25.0197
25.2178
25.4183
25.6208
25.8246
26.0293
26.2341
26.4386
26.642
26.8435
27.0426
27.2386
27.4308
27.6186
27.8015
27.979
28.1505
28.3155
28.4734
28.6236
28.7656
28.8987
29.0223
29.1356
29.2379
29.3285
29.4067
29.4716
29.5226
29.5587
29.5789
29.5824
29.5679
29.5343
29.4803
29.4043
29.305
29.1807
29.0296
28.8499
28.6399
28.3976
28.121
27.8081
27.457
27.0657
26.6322
26.1548
25.6317
25.0615
24.443
23.7753
23.0579
22.2907
21.474
18.1797
18.5051
18.8149
19.1092
19.3886
19.6533
19.9041
20.1415
20.3666
20.5801
20.7831
20.9764
21.1611
21.3382
21.5088
21.6738
21.8343
21.9912
22.1455
22.2981
22.4498
22.6016
22.754
22.908
23.0641
23.2229
23.3849
23.5504
23.7197
23.893
24.0705
24.2519
24.4373
24.6265
24.8191
25.015
25.2137
25.4149
25.6181
25.8227
26.0282
26.2341
26.4395
26.6438
26.8463
27.0464
27.2432
27.4363
27.6249
27.8086
27.9869
28.1591
28.3249
28.4836
28.6347
28.7776
28.9117
29.0362
29.1505
29.2539
29.3456
29.4249
29.491
29.5432
29.5806
29.6023
29.6073
29.5946
29.5629
29.5109
29.4372
29.3402
29.2183
29.0698
28.8929
28.6856
28.4461
28.1724
27.8624
27.5141
27.1256
26.6947
26.2197
25.6988
25.1304
24.5132
23.8463
23.129
22.3613
21.5435
18.2235
18.5488
18.8581
19.1515
19.4295
19.6925
19.9411
20.1763
20.3988
20.6096
20.8097
21.0001
21.1819
21.3561
21.5238
21.6859
21.8436
21.9978
22.1495
22.2995
22.4488
22.5983
22.7488
22.9009
23.0554
23.2128
23.3737
23.5383
23.7072
23.8803
24.0577
24.2395
24.4254
24.6152
24.8087
25.0056
25.2055
25.4079
25.6126
25.8188
26.0261
26.2338
26.4412
26.6475
26.852
27.054
27.2526
27.4473
27.6376
27.8228
28.0025
28.1763
28.3436
28.504
28.6568
28.8016
28.9376
29.0641
29.1804
29.2859
29.3797
29.4611
29.5296
29.5842
29.6243
29.6489
29.6571
29.6478
29.6199
29.572
29.5027
29.4105
29.2935
29.1502
28.9787
28.7769
28.5431
28.2752
27.971
27.6285
27.2456
26.8201
26.3501
25.8335
25.2688
24.6543
23.9889
23.2721
22.5035
21.6834
18.29
18.6153
18.9238
19.2157
19.4915
19.7518
19.9973
20.2288
20.4474
20.654
20.8498
21.0358
21.2131
21.3829
21.5462
21.704
21.8574
22.0075
22.1551
22.3014
22.4471
22.5932
22.7405
22.8898
23.0418
23.1971
23.3563
23.5198
23.6878
23.8606
24.0382
24.2204
24.4071
24.598
24.7928
24.9912
25.1928
25.3972
25.604
25.8127
26.0227
26.2333
26.4437
26.6531
26.8607
27.0655
27.2669
27.4641
27.6567
27.8441
28.026
28.2019
28.3715
28.5343
28.6898
28.8373
28.9763
29.1058
29.2252
29.3337
29.4307
29.5154
29.5872
29.6454
29.6893
29.7182
29.7311
29.727
29.7048
29.6631
29.6005
29.5153
29.4059
29.2704
29.107
28.9137
28.6885
28.4293
28.134
27.8003
27.4261
27.009
26.5467
26.037
25.478
24.8678
24.2052
23.489
22.7191
21.8956
18.3802
18.7054
19.0129
19.3027
19.5755
19.832
20.073
20.2995
20.5127
20.7136
20.9035
21.0835
21.2548
21.4185
21.5758
21.7278
21.8755
22.02
22.1623
22.3034
22.4443
22.5858
22.7288
22.8743
23.0229
23.1753
23.3322
23.494
23.6611
23.8335
24.0112
24.1942
24.3821
24.5745
24.7711
24.9715
25.1753
25.3823
25.592
25.804
26.0177
26.2323
26.447
26.6607
26.8725
27.0813
27.2864
27.4869
27.6825
27.8727
28.0572
28.2359
28.4084
28.5744
28.7334
28.8847
29.0276
29.1612
29.2848
29.3974
29.4985
29.5874
29.6635
29.7263
29.7752
29.8096
29.8286
29.8314
29.8168
29.7835
29.7299
29.6543
29.555
29.4301
29.2776
29.0955
28.8819
28.6346
28.3514
28.0298
27.6676
27.2621
26.8107
26.3108
25.7601
25.1563
24.4977
23.7828
23.0112
22.183
18.4957
18.8209
19.1268
19.4138
19.6826
19.934
20.1691
20.389
20.5951
20.7886
20.9709
21.1432
21.3068
21.4629
21.6127
21.7573
21.8978
22.0352
22.1708
22.3053
22.4399
22.5755
22.7131
22.8536
22.9978
23.1465
23.3005
23.4602
23.626
23.798
23.9762
24.1603
24.3499
24.5443
24.7432
24.9461
25.1528
25.3628
25.5761
25.7922
26.0106
26.2305
26.4509
26.6704
26.8878
27.1019
27.3115
27.5161
27.7152
27.9085
28.0961
28.2779
28.4539
28.6239
28.7873
28.9434
29.0915
29.2304
29.3592
29.477
29.5831
29.677
29.7582
29.8264
29.8812
29.9222
29.9488
29.9601
29.955
29.9322
29.89
29.8266
29.7401
29.6285
29.4898
29.322
29.1231
28.8909
28.623
28.3172
27.9706
27.5804
27.1436
26.6572
26.118
25.5232
24.8703
24.1576
23.3842
22.5499
18.6385
18.9636
19.2675
19.5509
19.8143
20.0591
20.2865
20.498
20.6951
20.8794
21.0522
21.215
21.3691
21.5159
21.6565
21.7921
21.9238
22.0527
22.18
22.3065
22.4335
22.5619
22.6927
22.8269
22.9656
23.1096
23.2598
23.4169
23.5812
23.753
23.9321
24.118
24.3099
24.5071
24.7089
24.9148
25.1245
25.338
25.5554
25.7764
26.0007
26.2274
26.4552
26.6824
26.9072
27.1279
27.3433
27.5525
27.7553
27.9519
28.1425
28.3276
28.5074
28.6819
28.8507
29.013
29.1676
29.3132
29.4485
29.5725
29.6845
29.7839
29.8708
29.9449
30.0062
30.0548
30.09
30.1115
30.1179
30.108
30.0798
30.0313
29.9605
29.8651
29.7431
29.5925
29.4114
29.1975
28.9487
28.6623
28.3355
27.9651
27.5474
27.0787
26.5551
25.9728
25.3284
24.6193
23.844
23.0022
18.8112
19.1362
19.4376
19.716
19.9725
20.2087
20.4263
20.6272
20.8132
20.986
21.1473
21.2987
21.4415
21.5772
21.7069
21.8319
21.9533
22.0721
22.1896
22.3067
22.4245
22.5441
22.6667
22.7933
22.9251
23.0632
23.2087
23.3625
23.5252
23.6969
23.8776
24.0662
24.2617
24.4627
24.6681
24.8772
25.0901
25.307
25.5286
25.7551
25.9866
26.222
26.4597
26.6972
26.9318
27.1609
27.3831
27.5973
27.8037
28.003
28.1961
28.384
28.5677
28.7473
28.9227
29.0928
29.2559
29.41
29.5533
29.6846
29.803
29.9083
30.0007
30.0808
30.1489
30.2055
30.2504
30.2835
30.3035
30.3091
30.2979
30.2675
30.2153
30.1391
30.0367
29.9063
29.7459
29.5537
29.3275
29.0648
28.7624
28.4169
28.0239
27.5786
27.076
26.511
25.8789
25.1757
24.399
23.5479
19.0175
19.3425
19.6404
19.9122
20.1595
20.3846
20.5898
20.7775
20.9498
21.1088
21.2564
21.3942
21.5238
21.6465
21.7636
21.8764
21.9858
22.0931
22.1992
22.3052
22.4123
22.5216
22.6343
22.7516
22.8749
23.0056
23.1452
23.2947
23.4554
23.6275
23.8108
24.004
24.205
24.4113
24.6212
24.8337
25.0492
25.2688
25.494
25.7262
25.966
26.2126
26.4637
26.7154
26.9633
27.2034
27.4334
27.6526
27.8616
28.0622
28.2562
28.4459
28.6328
28.8181
29.0016
29.1818
29.3562
29.5215
29.6748
29.8143
29.9394
30.0502
30.1477
30.2331
30.3074
30.3719
30.4272
30.4733
30.5093
30.5334
30.5428
30.534
30.504
30.45
30.3699
30.2622
30.1254
29.958
29.7581
29.5235
29.2508
28.9362
28.5747
28.1602
27.6861
27.1452
26.5309
25.8373
25.0602
24.1979
19.2624
19.5874
19.8804
20.1431
20.3781
20.5887
20.7781
20.9493
21.105
21.2475
21.3789
21.501
21.6154
21.7233
21.8262
21.9251
22.021
22.1151
22.2083
22.3018
22.3965
22.4937
22.5946
22.7007
22.8135
22.9348
23.0665
23.2105
23.3684
23.5414
23.7292
23.93
24.1399
24.3543
24.5697
24.7851
25.0016
25.2217
25.4487
25.6857
25.9348
26.1959
26.466
26.7385
27.0053
27.2597
27.4986
27.7217
27.9311
28.1299
28.3219
28.5107
28.6996
28.8907
29.0843
29.2785
29.4688
29.6493
29.8152
29.964
30.0955
30.2106
30.3114
30.4002
30.4793
30.5508
30.6163
30.6766
30.7313
30.7781
30.8128
30.8304
30.8263
30.7974
30.742
30.6591
30.5481
30.4082
30.2381
30.0359
29.7988
29.5224
29.201
28.827
28.3914
27.8845
27.2965
26.6184
25.8432
24.9675
19.553
19.878
20.1637
20.4133
20.6314
20.8229
20.9921
21.143
21.2786
21.4017
21.5144
21.6185
21.7156
21.807
21.8939
21.9774
22.0583
22.1378
22.2166
22.2959
22.3765
22.4598
22.5469
22.6395
22.7393
22.8485
22.9696
23.1055
23.2592
23.4332
23.6283
23.8422
24.0678
24.2951
24.5177
24.7344
24.9482
25.164
25.3882
25.627
25.8855
26.1658
26.4641
26.7692
27.0642
27.3377
27.5857
27.8099
28.0149
28.2067
28.3913
28.5747
28.7625
28.9587
29.1654
29.3801
29.5947
29.7972
29.9793
30.1379
30.2741
30.3907
30.4915
30.5805
30.6612
30.7374
30.812
30.8873
30.9638
31.0392
31.1068
31.1571
31.1834
31.1822
31.1528
31.0957
31.0116
30.9009
30.7634
30.5979
30.4023
30.1725
29.9022
29.5817
29.1986
28.7396
28.1908
27.5385
26.7704
25.8785
19.9002
20.2246
20.4983
20.7283
20.9226
21.0886
21.2322
21.358
21.4698
21.5703
21.6616
21.7456
21.8235
21.8967
21.9662
22.0327
22.0973
22.1608
22.2238
22.2873
22.3523
22.4197
22.4909
22.5673
22.651
22.7443
22.8507
22.9743
23.1202
23.294
23.4999
23.737
23.9927
24.2421
24.4734
24.6874
24.891
25.0936
25.3061
25.5393
25.8043
26.1088
26.4519
26.8135
27.1534
27.4515
27.7063
27.9248
28.1171
28.293
28.4616
28.6318
28.8122
29.011
29.2341
29.4809
29.7371
29.9737
30.1763
30.3434
30.48
30.5927
30.6879
30.7716
30.849
30.9253
31.0057
31.0952
31.1973
31.3106
31.4245
31.5177
31.5791
31.6066
31.6025
31.5702
31.5125
31.4314
31.3279
31.2025
31.0541
30.8802
30.6747
30.4257
30.1145
29.7232
29.2335
28.6248
27.8748
26.9649
20.3223
20.6437
20.8956
21.0943
21.2542
21.386
21.4972
21.5929
21.6768
21.7515
21.819
21.8807
21.9378
21.9913
22.0419
22.0904
22.1375
22.1837
22.2297
22.2762
22.3239
22.3737
22.4266
22.4841
22.548
22.6209
22.7066
22.8104
22.9404
23.1078
23.326
23.6042
23.926
24.2143
24.4536
24.6547
24.8343
25.0086
25.1932
25.4053
25.6652
25.9958
26.4122
26.8883
27.3021
27.6271
27.8781
28.0769
28.2423
28.3889
28.5289
28.6733
28.8346
29.0273
29.2679
29.5673
29.9068
30.1985
30.4235
30.592
30.7194
30.8189
30.9001
30.9708
31.0374
31.1064
31.1855
31.2842
31.4135
31.5804
31.7712
31.9233
32.0226
32.0755
32.0921
32.0805
32.0462
31.993
31.9233
31.8391
31.7419
31.6326
31.509
31.3583
31.1448
30.8475
30.4466
29.9138
29.2086
28.2841
20.8562
21.1622
21.3689
21.5156
21.6257
21.7126
21.7839
21.8442
21.8965
21.9426
21.9841
22.0219
22.0568
22.0893
22.1202
22.1497
22.1783
22.2064
22.2345
22.2628
22.292
22.3226
22.3553
22.3912
22.4316
22.4786
22.5357
22.6083
22.7064
22.8478
23.0649
23.4082
23.9068
24.2567
24.4879
24.6523
24.7848
24.908
25.0401
25.2017
25.4237
25.7584
26.2859
27.052
27.5777
27.9086
28.1244
28.2762
28.3935
28.4937
28.5888
28.6899
28.8109
28.9739
29.2162
29.5953
30.1443
30.5186
30.7511
30.8988
30.9983
31.0703
31.1267
31.1751
31.2214
31.2721
31.3361
31.4283
31.5745
31.815
32.1726
32.404
32.5318
32.5959
32.6215
32.6224
32.6063
32.5774
32.5388
32.4935
32.4461
32.4046
32.3815
32.3804
32.2948
32.1201
31.8489
31.4503
30.8574
29.9517
21.5977
21.823
21.9282
21.989
22.0302
22.0612
22.0859
22.1066
22.1244
22.14
22.154
22.1667
22.1785
22.1894
22.1998
22.2097
22.2193
22.2287
22.2381
22.2477
22.2575
22.2678
22.2789
22.2911
22.305
22.3214
22.3418
22.369
22.4092
22.4783
22.6218
22.9879
24.1009
24.4694
24.6179
24.6951
24.7479
24.794
24.844
24.9104
25.0192
25.2429
25.815
27.5614
28.1329
28.3553
28.4618
28.5245
28.5687
28.6049
28.6392
28.6768
28.7261
28.8053
28.9667
29.3779
30.6324
31.042
31.2
31.274
31.3158
31.3434
31.364
31.3814
31.3983
31.4178
31.4453
31.4935
31.599
31.88
32.7548
33.0327
33.132
33.1708
33.1853
33.188
33.1837
33.1748
33.163
33.1501
33.1409
33.1493
33.2213
33.5231
33.5723
33.5308
33.4335
33.2659
32.9556
32.268
20.5221
19.4156
18.2439
17.0108
15.7207
14.3783
12.9887
11.5571
10.0887
8.58886
7.06262
5.51501
3.95094
2.37521
0.792508
20.5897
19.4802
18.3048
17.0674
15.7725
14.4251
13.0303
11.5935
10.12
8.615
7.08378
5.53131
3.9625
2.38211
0.794801
20.7256
19.6101
18.4271
17.181
15.8765
14.5189
13.1136
11.6663
10.1823
8.66715
7.12597
5.56381
3.98553
2.39584
0.799367
20.9317
19.8068
18.6121
17.3524
16.0331
14.6599
13.2386
11.7753
10.2756
8.74508
7.18895
5.61226
4.01984
2.41631
0.806168
21.2107
20.0726
18.8616
17.583
16.2431
14.8484
13.4054
11.9204
10.3995
8.84834
7.27227
5.6763
4.06515
2.44331
0.815139
21.5665
20.4109
19.178
17.8744
16.5075
15.0849
13.6137
12.1011
10.5533
8.97626
7.3753
5.75536
4.12102
2.47659
0.826192
22.0044
20.826
19.5646
18.2286
16.8272
15.3693
13.8632
12.3166
10.7361
9.12784
7.49709
5.84865
4.18687
2.51578
0.839201
22.5316
21.3234
20.0251
18.6478
17.203
15.7015
14.1529
12.5655
10.9464
9.30164
7.63637
5.95512
4.26191
2.5604
0.854006
23.1577
21.9103
20.564
19.1339
17.635
16.0803
14.4809
12.8458
11.1821
9.49566
7.7914
6.07338
4.34514
2.60984
0.870402
23.8955
22.5957
21.186
19.6883
18.1222
16.5034
14.8444
13.1543
11.4401
9.70726
7.95998
6.20169
4.4353
2.66335
0.888139
24.763
23.3903
21.8954
20.3106
18.6614
16.9664
15.2385
13.4864
11.7165
9.93303
8.13933
6.33793
4.53091
2.72004
0.906924
25.7857
24.3065
22.6942
20.9967
19.246
17.4619
15.6562
13.8361
12.006
10.1688
8.32616
6.47962
4.63023
2.77889
0.926422
27.0004
25.3551
23.5775
21.7353
19.8634
17.9783
16.0879
14.1954
12.3025
10.4095
8.51668
6.62398
4.73138
2.83881
0.946269
28.4591
26.5352
24.5246
22.5031
20.4934
18.4997
16.5211
14.5549
12.5986
10.6498
8.70683
6.76807
4.83234
2.89864
0.966086
30.2128
27.8013
25.482
23.2586
21.1066
19.0056
16.9414
14.9041
12.8867
10.8841
8.89249
6.90895
4.93116
2.95723
0.985501
10.3981
11.1938
11.9877
12.7786
13.5654
14.3469
15.1224
15.8914
16.6537
17.4106
18.1651
18.9241
19.7025
20.5341
21.5118
10.4084
11.2246
12.039
12.8504
13.6577
14.4598
15.2557
16.0447
16.8265
17.6021
18.374
19.1488
19.9401
20.7753
21.7038
10.419
11.2565
12.0922
12.9249
13.7535
14.5768
15.3935
16.2027
17.0036
17.7959
18.5807
19.3616
20.1468
20.9513
21.7959
10.4301
11.2896
12.1474
13.0023
13.853
14.6981
15.5364
16.3663
17.1863
17.9946
18.7899
19.5713
20.3397
21.0992
21.8579
10.4415
11.3239
12.2047
13.0825
13.9561
14.8241
15.685
16.5367
17.3769
18.2022
19.0085
19.7897
20.5383
21.2474
21.9161
10.4533
11.3594
12.2638
13.1655
14.063
14.955
15.8397
16.7149
17.5774
18.4229
19.2442
20.0303
20.7643
21.4231
21.9891
10.4655
11.3959
12.3249
13.2512
14.1736
15.0908
16.0009
16.9016
17.7897
18.66
19.504
20.3069
21.042
21.6629
22.1069
10.478
11.4335
12.3877
13.3395
14.2878
15.2313
16.1684
17.097
18.0141
18.915
19.792
20.6303
21.3987
22.0253
22.3482
10.4908
11.472
12.4521
13.4301
14.4051
15.3761
16.3416
17.3001
18.2494
19.1864
20.1067
21.002
21.8534
22.5983
22.9642
10.5039
11.5113
12.5178
13.5227
14.5252
15.5245
16.5196
17.5094
18.4929
19.4692
20.4383
21.4039
22.3817
23.4341
24.8402
10.5172
11.5512
12.5846
13.6168
14.6473
15.6756
16.7009
17.7229
18.7413
19.7567
20.772
21.7969
22.8577
24.024
25.4629
10.5306
11.5916
12.6521
13.712
14.7709
15.8285
16.8845
17.9387
18.9915
20.0438
21.0988
22.1647
23.2601
24.4241
25.7201
10.5441
11.6321
12.7201
13.8078
14.8953
15.9823
17.069
18.1553
19.2417
20.3287
21.4178
22.5116
23.6143
24.732
25.8696
10.5576
11.6728
12.7881
13.9037
15.0197
16.1362
17.2535
18.3717
19.4911
20.6119
21.7332
22.8518
23.9578
25.0258
26.0088
10.571
11.7132
12.8559
13.9992
15.1436
16.2895
17.4371
18.587
19.7394
20.8943
22.0501
23.2006
24.3272
25.378
26.2241
10.5844
11.7534
12.923
14.0939
15.2664
16.4412
17.6189
18.8002
19.9857
21.1759
22.3702
23.5654
24.7489
25.872
26.7193
10.5976
11.793
12.9893
14.1873
15.3875
16.5908
17.7981
19.0102
20.2285
21.4542
22.6893
23.938
25.212
26.557
28.1831
10.6105
11.8319
13.0544
14.2789
15.5063
16.7375
17.9736
19.2158
20.4657
21.7256
22.9987
24.2926
25.6255
27.0462
28.6771
10.6231
11.8699
13.118
14.3685
15.6223
16.8805
18.1445
19.4157
20.6959
21.9873
23.2933
24.6197
25.9775
27.3889
28.8909
10.6355
11.9069
13.1799
14.4556
15.735
17.0194
18.3103
19.6091
20.9179
22.2385
23.5735
24.9246
26.2917
27.6681
29.032
10.6474
11.9428
13.2399
14.5399
15.844
17.1536
18.4702
19.7954
21.1312
22.4795
23.8419
25.2178
26.5991
27.9554
29.2004
10.659
11.9775
13.2979
14.6213
15.9491
17.2827
18.6238
19.9741
21.3356
22.7104
24.1006
25.5068
26.9234
28.3194
29.5472
10.6701
12.0109
13.3536
14.6995
16.05
17.4065
18.7708
20.1447
21.5303
22.9302
24.3479
25.7882
27.2615
28.7997
30.5424
10.6807
12.0429
13.4069
14.7743
16.1464
17.5247
18.9109
20.3068
21.7147
23.1374
24.5789
26.0462
27.5541
29.1373
30.878
10.6909
12.0734
13.4579
14.8458
16.2384
17.6372
19.0439
20.4603
21.8885
23.3311
24.7915
26.2757
27.7937
29.3651
31.0186
10.7006
12.1026
13.5065
14.9138
16.3258
17.744
19.17
20.6054
22.052
23.5119
24.9874
26.481
27.9959
29.5352
31.0991
10.7099
12.1303
13.5527
14.9784
16.4088
17.8453
19.2893
20.7423
22.206
23.6816
25.1701
26.6711
28.1807
29.6876
31.1689
10.7186
12.1566
13.5965
15.0396
16.4873
17.941
19.402
20.8716
22.3513
23.8419
25.3437
26.8547
28.367
29.8572
31.2678
10.7269
12.1814
13.6379
15.0975
16.5616
18.0315
19.5084
20.9937
22.4886
23.994
25.5105
27.037
28.5679
30.0816
31.4838
10.7348
12.2049
13.6769
15.1521
16.6316
18.1168
19.6087
21.1088
22.6182
24.1381
25.6699
27.2156
28.7803
30.3828
32.1112
10.7421
12.227
13.7138
15.2035
16.6976
18.1971
19.7032
21.2171
22.7402
24.2736
25.8193
27.3806
28.9658
30.5961
32.3231
10.7491
12.2478
13.7484
15.2519
16.7596
18.2725
19.7919
21.3189
22.8545
24.4001
25.9572
27.5286
29.1196
30.7416
32.4125
10.7556
12.2673
13.7808
15.2972
16.8177
18.3433
19.8751
21.4143
22.9617
24.5183
26.0849
27.6623
29.2513
30.8524
32.4649
10.7617
12.2855
13.8112
15.3396
16.872
18.4095
19.953
21.5036
23.062
24.629
26.2046
27.7876
29.3741
30.9548
32.5125
10.7673
12.3025
13.8394
15.3791
16.9227
18.4712
20.0257
21.5871
23.1562
24.7334
26.3187
27.9098
29.5004
31.0726
32.5831
10.7726
12.3183
13.8656
15.4157
16.9697
18.5285
20.0933
21.6649
23.2442
24.8319
26.4281
28.032
29.639
31.2327
32.7423
10.7774
12.3328
13.8898
15.4496
17.0131
18.5816
20.1559
21.737
23.3261
24.9241
26.5319
28.1514
29.7862
31.4506
33.2104
10.7819
12.3461
13.912
15.4806
17.053
18.6302
20.2134
21.8034
23.4015
25.0089
26.6272
28.2596
29.9123
31.6017
33.3662
10.7859
12.3582
13.9322
15.5089
17.0893
18.6746
20.2658
21.8639
23.4701
25.0857
26.7124
28.353
30.0125
31.7001
33.4293
10.7895
12.3692
13.9505
15.5344
17.1221
18.7146
20.313
21.9184
23.5318
25.1544
26.7875
28.4329
30.0926
31.769
33.4627
10.7928
12.379
13.9667
15.5572
17.1514
18.7504
20.3552
21.967
23.5867
25.2153
26.8537
28.5023
30.1606
31.8253
33.4884
10.7957
12.3875
13.981
15.5772
17.1771
18.7818
20.3923
22.0097
23.635
25.269
26.9122
28.5645
30.2236
31.882
33.5206
10.7981
12.3949
13.9933
15.5944
17.1993
18.8089
20.4244
22.0468
23.6769
25.3158
26.964
28.6215
30.2866
31.9519
33.5871
10.8002
12.4011
14.0037
15.609
17.218
18.8318
20.4514
22.078
23.7125
25.3558
27.0089
28.6728
30.3488
32.0422
33.778
10.8019
12.4062
14.0121
15.6207
17.2331
18.8503
20.4734
22.1034
23.7415
25.3886
27.0459
28.715
30.3985
32.1024
33.8408
10.8032
12.41
14.0185
15.6297
17.2447
18.8645
20.4903
22.123
23.7638
25.4139
27.0743
28.7468
30.4335
32.138
33.8647
10.8041
12.4127
14.023
15.636
17.2527
18.8744
20.502
22.1366
23.7794
25.4315
27.094
28.7682
30.4556
32.1577
33.8747
10.8045
12.4142
14.0255
15.6394
17.2572
18.8799
20.5085
22.1443
23.7882
25.4414
27.105
28.7799
30.467
32.1665
33.8778
10.8046
12.4145
14.0259
15.6401
17.2581
18.881
20.5099
22.1459
23.7902
25.4438
27.1077
28.7827
30.4691
32.1666
33.8747
10.8043
12.4136
14.0245
15.638
17.2554
18.8777
20.506
22.1415
23.7854
25.4386
27.1023
28.7771
30.4631
32.1587
33.8588
10.8037
12.4115
14.021
15.6331
17.2491
18.87
20.4969
22.1311
23.7736
25.4258
27.0887
28.7632
30.4498
32.1471
33.8511
10.8026
12.4082
14.0155
15.6255
17.2392
18.8579
20.4825
22.1144
23.7549
25.4051
27.0665
28.7406
30.4284
32.1303
33.8437
10.8011
12.4038
14.0081
15.6151
17.2258
18.8413
20.4629
22.0916
23.7289
25.3762
27.0352
28.7079
30.3968
32.1048
33.8327
10.7992
12.3982
13.9988
15.6019
17.2087
18.8204
20.4379
22.0626
23.6957
25.3389
26.9939
28.6634
30.3515
32.0651
33.8129
10.797
12.3915
13.9875
15.5861
17.1882
18.7951
20.4077
22.0273
23.6552
25.2929
26.9421
28.6055
30.2881
32.001
33.7705
10.7944
12.3836
13.9744
15.5676
17.1643
18.7655
20.3724
21.986
23.6076
25.2385
26.88
28.5338
30.2029
31.8972
33.6618
10.7914
12.3747
13.9594
15.5466
17.137
18.7319
20.3321
21.9389
23.5533
25.1764
26.8089
28.451
30.0999
31.744
33.3324
10.7881
12.3648
13.9428
15.523
17.1065
18.6942
20.2871
21.8862
23.4926
25.1073
26.7309
28.363
29.9997
31.6289
33.2194
10.7845
12.3538
13.9244
15.4972
17.073
18.6528
20.2374
21.8281
23.4257
25.0316
26.6466
28.2712
29.9042
31.5403
33.1672
10.7805
12.3419
13.9045
15.4691
17.0365
18.6077
20.1834
21.7648
23.3529
24.9492
26.5552
28.1732
29.8062
31.4574
33.1287
10.7762
12.3291
13.8831
15.4389
16.9973
18.5591
20.1252
21.6965
23.2742
24.8596
26.4551
28.0644
29.6949
31.3603
33.081
10.7717
12.3155
13.8603
15.4067
16.9555
18.5075
20.0632
21.6236
23.1897
24.7627
26.3449
27.9404
29.5588
31.2241
32.9925
10.7669
12.3011
13.8362
15.3728
16.9115
18.4529
19.9977
21.5465
23.1
24.6592
26.2251
27.8
29.3899
31.0158
32.7732
10.7619
12.2861
13.811
15.3373
16.8654
18.3958
19.9291
21.4658
23.0062
24.5505
26.0987
27.6489
29.1954
30.7156
32.1111
10.7567
12.2704
13.7848
15.3004
16.8175
18.3366
19.858
21.3822
22.9092
24.439
25.9703
27.5
29.0186
30.5016
31.8897
10.7514
12.2543
13.7578
15.2622
16.768
18.2754
19.7848
21.2963
22.8101
24.3259
25.8428
27.3583
28.8661
30.3529
31.7962
10.7458
12.2376
13.7299
15.223
16.7172
18.2128
19.7098
21.2087
22.7093
24.2118
25.716
27.2215
28.7278
30.234
31.7393
10.7402
12.2206
13.7015
15.183
16.6654
18.1488
19.6334
21.1194
22.6069
24.0962
25.5878
27.0838
28.5891
30.1153
31.6827
10.7344
12.2033
13.6725
15.1422
16.6126
18.0838
19.5559
21.0289
22.503
23.9785
25.4562
26.9391
28.4354
29.9676
31.5912
10.7285
12.1857
13.6431
15.1009
16.5592
18.018
19.4774
20.9374
22.3979
23.8589
25.3208
26.7848
28.2563
29.7559
31.3766
10.7226
12.1679
13.6133
15.0591
16.5052
17.9516
19.3984
20.8453
22.2921
23.7385
25.1834
26.625
28.0574
29.4597
30.7387
10.7166
12.1499
13.5833
15.0169
16.4508
17.8849
19.319
20.753
22.1864
23.6186
25.048
26.4711
27.879
29.2486
30.5243
10.7106
12.1317
13.553
14.9745
16.3961
17.8178
19.2395
20.6608
22.0813
23.5004
24.9166
26.3274
27.7267
29.1022
30.4334
10.7045
12.1135
13.5226
14.9319
16.3413
17.7507
19.16
20.5689
21.977
23.3838
24.7888
26.1912
27.5905
28.9862
30.3782
10.6983
12.0951
13.492
14.889
16.2862
17.6835
19.0806
20.4773
21.8733
23.2682
24.6623
26.0568
27.4564
28.8723
30.3242
10.6922
12.0766
13.4611
14.8459
16.231
17.6161
19.0013
20.386
21.77
23.153
24.5351
25.9186
27.3107
28.7329
30.2381
10.6859
12.0579
13.4301
14.8026
16.1755
17.5487
18.922
20.295
21.6672
23.038
24.4067
25.7739
27.1437
28.5355
30.0373
10.6796
12.039
13.3987
14.7589
16.1196
17.481
18.8427
20.2043
21.5652
22.9241
24.2791
25.627
26.9612
28.2612
29.4405
10.6732
12.0198
13.3669
14.7146
16.0633
17.4128
18.7632
20.1139
21.4643
22.8126
24.156
25.4894
26.802
28.0702
29.2424
10.6667
12.0003
13.3346
14.6697
16.0061
17.344
18.6832
20.0236
21.3645
22.7041
24.0397
25.3658
26.6731
27.9457
29.1627
10.66
11.9804
13.3015
14.6238
15.9479
17.2739
18.6022
19.9328
21.2652
22.5983
23.9296
25.255
26.5679
27.8593
29.122
10.6532
11.9599
13.2675
14.5767
15.888
17.2021
18.5195
19.8405
21.1653
22.4933
23.8233
25.1526
26.4773
27.7926
29.0954
10.6461
11.9387
13.2323
14.5279
15.8262
17.1279
18.4341
19.7455
21.0628
22.3867
23.717
25.0531
26.393
27.734
29.0738
10.6387
11.9166
13.1958
14.4772
15.7617
17.0505
18.3448
19.646
20.9556
22.2753
23.6066
24.9505
26.3074
27.676
29.053
10.6311
11.8937
13.1577
14.4241
15.6942
16.9691
18.2505
19.5405
20.8412
22.1556
23.487
24.8386
26.2133
27.6118
29.0298
10.6231
11.8697
13.1178
14.3685
15.6231
16.883
18.1502
19.4272
20.7171
22.0239
23.353
24.7103
26.1024
27.5337
29.0008
10.6147
11.8447
13.0761
14.3102
15.5481
16.7917
18.0429
19.3047
20.5809
21.8766
23.199
24.5575
25.964
27.4302
28.9596
10.606
11.8186
13.0326
14.249
15.4692
16.6948
17.9281
19.1721
20.4309
21.7105
23.0197
24.3711
25.7836
27.2825
28.8923
10.597
11.7915
12.9872
14.1851
15.3863
16.5925
17.8057
19.0289
20.2661
21.5236
22.8106
24.1421
25.5429
27.0574
28.7613
10.5877
11.7635
12.9402
14.1187
15.3
16.4852
17.6763
18.8757
20.0871
21.316
22.5705
23.8644
25.2229
26.7005
28.4497
31.975
28.8766
26.271
23.8851
21.6214
19.4351
17.3016
15.2056
13.1369
11.0885
9.05504
7.03263
5.01809
3.00883
1.00261
32.5321
29.5114
26.8352
24.3692
22.0352
19.7886
17.6026
15.4603
13.3501
11.2636
9.195
7.13947
5.09336
3.05359
1.01746
32.7643
29.9065
27.2527
24.7613
22.3879
20.0995
17.8731
15.6925
13.5464
11.4262
9.32565
7.23964
5.16414
3.09574
1.03147
32.8808
30.1593
27.5571
25.071
22.6812
20.367
18.1113
15.9005
13.7244
11.575
9.44601
7.33236
5.22988
3.13499
1.04451
32.9491
30.3285
27.7802
25.3133
22.9215
20.5936
18.3179
16.0841
13.8836
11.7094
9.55553
7.41719
5.29025
3.17112
1.05654
32.9936
30.4471
27.9464
25.5028
23.1169
20.7834
18.495
16.2443
14.0244
11.8294
9.65407
7.49395
5.3451
3.20403
1.06751
33.0247
30.5333
28.0722
25.6519
23.2756
20.9415
18.6456
16.3827
14.1476
11.9355
9.74187
7.56273
5.39446
3.23372
1.07742
33.0476
30.5979
28.1691
25.7699
23.4044
21.0728
18.7729
16.5014
14.2546
12.0285
9.81942
7.62384
5.43847
3.26027
1.08629
33.0649
30.6475
28.2448
25.8641
23.5093
21.1816
18.8801
16.6028
14.3469
12.1095
9.88741
7.67769
5.47742
3.28382
1.09417
33.0783
30.6861
28.3047
25.9398
23.595
21.2718
18.9701
16.6889
14.4261
12.1795
9.94662
7.72484
5.51165
3.30456
1.10112
33.0888
30.7167
28.3526
26.001
23.6651
21.3465
19.0457
16.7619
14.4938
12.2399
9.99791
7.76586
5.54154
3.32272
1.10721
33.0972
30.7413
28.3912
26.0508
23.7227
21.4086
19.1089
16.8235
14.5515
12.2916
10.0421
7.80138
5.56749
3.33852
1.11251
33.104
30.7611
28.4226
26.0915
23.7703
21.4602
19.162
16.8756
14.6005
12.3358
10.0801
7.832
5.58993
3.35221
1.11711
33.1095
30.7772
28.4482
26.125
23.8095
21.5031
19.2064
16.9195
14.6421
12.3734
10.1126
7.85829
5.60925
3.36401
1.12108
33.114
30.7903
28.4692
26.1526
23.8421
21.5389
19.2436
16.9564
14.6772
12.4055
10.1403
7.8808
5.62582
3.37415
1.12449
33.1177
30.8012
28.4865
26.1754
23.8691
21.5687
19.2747
16.9875
14.707
12.4326
10.1639
7.90001
5.64
3.38284
1.12742
33.1207
30.8101
28.5008
26.1943
23.8916
21.5936
19.3009
17.0137
14.7321
12.4556
10.184
7.91637
5.65209
3.39026
1.12992
33.1232
30.8175
28.5127
26.21
23.9103
21.6144
19.3228
17.0357
14.7533
12.4751
10.201
7.93027
5.66239
3.39658
1.13205
33.1253
30.8236
28.5225
26.223
23.9259
21.6318
19.3412
17.0543
14.7711
12.4916
10.2154
7.94207
5.67114
3.40196
1.13387
33.127
30.8287
28.5308
26.2339
23.939
21.6464
19.3566
17.0699
14.7862
12.5055
10.2276
7.95207
5.67856
3.40653
1.13541
33.1285
30.833
28.5376
26.2431
23.9499
21.6586
19.3696
17.083
14.7989
12.5172
10.2379
7.96054
5.68485
3.4104
1.13671
33.1297
30.8365
28.5433
26.2507
23.9591
21.6689
19.3805
17.094
14.8096
12.5272
10.2466
7.96771
5.69018
3.41368
1.13782
33.1307
30.8395
28.5481
26.2571
23.9667
21.6775
19.3896
17.1033
14.8186
12.5355
10.254
7.97377
5.69469
3.41646
1.13876
33.1315
30.842
28.5521
26.2624
23.9732
21.6847
19.3973
17.1111
14.8262
12.5426
10.2602
7.97889
5.69851
3.41881
1.13956
33.1322
30.8441
28.5555
26.2669
23.9786
21.6908
19.4038
17.1177
14.8326
12.5486
10.2655
7.98322
5.70173
3.42081
1.14023
33.1328
30.8458
28.5584
26.2707
23.9832
21.696
19.4093
17.1233
14.8381
12.5536
10.2699
7.98689
5.70447
3.42249
1.1408
33.1333
30.8473
28.5608
26.2739
23.987
21.7003
19.4139
17.128
14.8427
12.5579
10.2737
7.99
5.70678
3.42392
1.14128
33.1338
30.8486
28.5628
26.2767
23.9903
21.704
19.4179
17.132
14.8466
12.5615
10.2769
7.99264
5.70875
3.42513
1.14169
33.1341
30.8497
28.5646
26.279
23.9931
21.7072
19.4212
17.1354
14.8499
12.5646
10.2796
7.99488
5.71042
3.42616
1.14204
33.1345
30.8506
28.5661
26.281
23.9955
21.7099
19.4241
17.1384
14.8527
12.5672
10.2819
7.99679
5.71184
3.42704
1.14234
33.1347
30.8514
28.5674
26.2827
23.9976
21.7122
19.4266
17.1409
14.8552
12.5695
10.2839
7.99843
5.71306
3.42779
1.14259
33.135
30.8521
28.5685
26.2843
23.9995
21.7143
19.4288
17.1431
14.8573
12.5715
10.2856
7.99984
5.71411
3.42844
1.14281
33.1352
30.8528
28.5696
26.2857
24.0011
21.7161
19.4307
17.145
14.8591
12.5732
10.2871
8.00106
5.71501
3.42899
1.14299
33.1354
30.8534
28.5706
26.287
24.0027
21.7178
19.4324
17.1467
14.8608
12.5747
10.2884
8.00211
5.71579
3.42947
1.14315
33.1356
30.854
28.5715
26.2882
24.0041
21.7194
19.4341
17.1483
14.8623
12.576
10.2896
8.00303
5.71646
3.42987
1.14329
33.1358
30.8547
28.5725
26.2895
24.0056
21.7209
19.4356
17.1498
14.8636
12.5772
10.2906
8.00382
5.71703
3.43022
1.14341
33.1361
30.8554