/*--------------------------------*- C++ -*----------------------------------*\
| =========                 |                                                 |
| \\      /  F ield         | OpenFOAM: The Open Source CFD Toolbox           |
|  \\    /   O peration     | Version:  5.x                                   |
|   \\  /    A nd           | Web:      www.OpenFOAM.org                      |
|    \\/     M anipulation  |                                                 |
\*---------------------------------------------------------------------------*/
FoamFile
{
    version     2.0;
    format      ascii;
    class       volScalarField;
    location    "2.4";
    object      gradTx;
}
// * * * * * * * * * * * * * * * * * * * * * * * * * * * * * * * * * * * * * //

dimensions      [0 -1 0 1 0 0 0];

internalField   nonuniform List<scalar> 
6300
(
6844.48
6825.12
6786.32
6727.91
6649.68
6551.38
6432.83
6293.94
6134.78
5955.72
5757.52
5541.38
5309.08
5062.95
4805.88
6863.25
6843.98
6805.35
6747.16
6669.17
6571.08
6452.64
6313.66
6154.15
5974.36
5774.96
5557.08
5322.46
5073.45
4813.05
6900.71
6881.63
6843.35
6785.65
6708.18
6610.58
6492.43
6353.39
6193.27
6012.12
5810.39
5589.05
5349.77
5094.94
4827.71
6956.66
6937.89
6900.21
6843.31
6766.77
6670.05
6552.55
6413.67
6252.9
6069.94
5864.91
5638.5
5392.17
5128.37
4850.52
7030.78
7012.48
6975.69
6920.04
6844.97
6749.74
6633.5
6495.29
6334.17
6149.33
5940.33
5707.37
5451.6
5175.4
4882.6
7122.6
7104.96
7069.44
7015.6
6942.73
6849.87
6735.85
6599.28
6438.61
6252.34
6039.2
5798.57
5530.98
5238.6
4925.71
7231.46
7214.7
7180.93
7129.6
7059.88
6970.58
6860.19
6726.79
6568.11
6381.68
6165.03
5916.24
5634.66
5321.88
4982.57
7356.45
7340.85
7309.36
7261.39
7195.99
7111.8
7006.95
6878.99
6724.81
6540.69
6322.48
6066.19
5769.07
5431.21
5057.44
7496.43
7482.26
7453.65
7409.99
7350.29
7273.06
7176.22
7056.81
6910.87
6733.22
6517.45
6256.45
5943.72
5576.01
5157.19
7649.93
7637.49
7612.37
7574
7521.47
7453.33
7367.43
7260.56
7128.06
6963.28
6757.1
6497.91
6172.83
5771.46
5293.43
7815.21
7804.76
7783.68
7751.53
7707.61
7650.72
7578.97
7489.31
7376.91
7234.14
7049.18
6804.73
6477.68
6043.08
5487.17
7990.29
7982.01
7965.38
7940.19
7906.06
7862.32
7807.75
7740.15
7655.52
7546.55
7400.17
7193.56
6889.54
6435.46
5779.95
8172.95
8166.94
8154.96
8137.09
8113.44
8084.07
8048.9
8007.38
7957.8
7895.75
7810.75
7679.19
7450.83
7028.72
6263.97
8360.94
8357.15
8349.73
8339.09
8325.83
8310.93
8295.71
8281.97
8271.87
8267.22
8267.21
8260.92
8205.23
7964.03
7175.78
8552.02
8550.26
8547.03
8542.97
8539.17
8537.38
8540.33
8552.24
8579.77
8633.34
8729.23
8891.35
9144.4
9445.73
9234.58
4563.74
4340.26
4116.03
3893.23
3673.92
3460
3253.16
3054.79
2866.06
2687.83
2520.72
2365.11
2221.2
2088.99
1968.36
1859.05
1760.74
1673
1595.36
1527.29
1468.21
1417.49
1374.45
1338.38
1308.51
1284.05
1264.16
1248
1234.73
1223.52
1213.62
1204.34
1195.09
1185.35
1174.73
1162.88
1149.53
1134.45
1117.4
1098.18
1076.59
1052.47
1025.67
996.124
963.819
928.797
891.149
850.986
808.416
763.516
716.312
666.766
614.775
560.181
502.782
442.352
378.657
311.467
240.556
165.702
86.6718
3.20796
-84.989
-178.273
-277.062
-381.84
-493.149
-611.582
-737.768
-872.35
-1015.97
-1169.25
-1332.77
-1507.08
-1692.66
-1889.91
-2099.16
-2320.61
-2554.36
-2800.3
-3058.16
-3327.39
-3607.2
-3896.47
-4193.74
-4497.22
-4804.83
-5114.16
-5422.65
-5727.57
4567.57
4340.96
4113.63
3887.87
3665.84
3449.53
3240.66
3040.67
2850.69
2671.59
2503.94
2348.08
2204.16
2072.15
1951.88
1843.07
1745.36
1658.32
1581.45
1514.22
1456.05
1406.3
1364.3
1329.33
1300.63
1277.36
1258.7
1243.75
1231.65
1221.54
1212.63
1204.22
1195.68
1186.54
1176.39
1164.94
1151.94
1137.18
1120.44
1101.5
1080.16
1056.22
1029.54
1000.02
967.648
932.498
894.69
854.374
811.696
766.761
719.614
670.217
618.459
564.157
507.087
446.998
383.64
316.777
246.191
171.677
93.0232
9.99621
-77.6842
-170.36
-268.446
-372.433
-482.878
-600.399
-725.647
-859.294
-1002.01
-1154.43
-1317.16
-1490.76
-1675.73
-1872.5
-2081.42
-2302.74
-2536.59
-2782.93
-3041.52
-3311.9
-3593.29
-3884.62
-4184.43
-4490.92
-4801.92
-5114.95
-5427.3
-5736.11
4575.41
4342.35
4108.63
3876.8
3649.23
3428.06
3215.11
3011.87
2819.44
2638.64
2469.96
2313.66
2169.79
2038.23
1918.73
1810.95
1714.48
1628.84
1553.53
1487.99
1431.64
1383.84
1343.92
1311.17
1284.79
1263.96
1247.77
1235.3
1225.6
1217.74
1210.85
1204.16
1197.07
1189.07
1179.84
1169.15
1156.81
1142.67
1126.54
1108.2
1087.38
1063.85
1037.41
1007.92
975.4
939.949
901.765
861.088
818.149
773.121
726.084
677.003
625.739
572.06
515.68
456.295
393.617
327.399
257.44
183.573
105.639
23.4579
-63.2073
-154.671
-251.341
-353.723
-462.41
-578.067
-701.403
-833.145
-974.011
-1124.69
-1285.81
-1457.97
-1641.69
-1837.46
-2045.68
-2266.66
-2500.64
-2747.69
-3007.69
-3280.27
-3564.79
-3860.23
-4165.16
-4477.74
-4795.69
-5116.31
-5436.62
-5753.42
4587.5
4344.32
4100.58
3859.25
3623.08
3394.45
3175.32
2967.22
2771.21
2588
2417.95
2261.16
2117.51
1986.76
1868.53
1762.39
1667.84
1584.36
1511.41
1448.41
1394.79
1349.91
1313.12
1283.71
1260.87
1243.75
1231.39
1222.77
1216.8
1212.43
1208.66
1204.62
1199.64
1193.29
1185.31
1175.62
1164.18
1150.94
1135.75
1118.36
1098.43
1075.6
1049.56
1020.12
987.288
951.252
912.348
870.98
827.535
782.302
735.423
686.865
636.43
583.789
528.542
470.277
408.639
343.359
274.272
201.285
124.338
43.3466
-41.8441
-131.501
-226.021
-325.935
-431.899
-544.66
-665.026
-793.82
-931.84
-1079.84
-1238.49
-1408.43
-1590.21
-1784.37
-1991.39
-2211.71
-2445.69
-2693.59
-2955.48
-3231.2
-3520.28
-3821.84
-4134.53
-4456.46
-4785.18
-5117.68
-5450.5
-5779.91
4604.35
4346.7
4088.69
3833.95
3585.75
3346.85
3119.38
2904.88
2704.32
2518.2
2346.64
2189.52
2046.49
1917.09
1800.79
1697
1605.13
1524.6
1454.82
1395.22
1345.22
1304.23
1271.6
1246.67
1228.63
1216.6
1209.54
1206.3
1205.61
1206.18
1206.77
1206.33
1204.11
1199.74
1193.16
1184.52
1174.06
1161.92
1148.03
1132.08
1113.57
1091.89
1066.51
1037.12
1003.71
966.605
926.4
883.786
839.417
793.778
747.107
699.36
650.229
599.207
545.685
489.06
428.848
364.753
296.673
224.657
148.822
69.2515
-14.0758
-101.347
-192.944
-289.443
-391.597
-500.292
-616.492
-741.174
-875.259
-1019.58
-1174.86
-1341.73
-1520.8
-1712.63
-1917.8
-2136.91
-2370.52
-2619.14
-2883.13
-3162.64
-3457.51
-3767.11
-4090.25
-4425.04
-4768.83
-5118.14
-5468.84
-5816.3
4626.69
4349.24
4071.75
3798.9
3534.73
3282.5
3044.51
2822.23
2616.4
2427.18
2254.35
2097.4
1955.66
1828.41
1714.86
1614.29
1525.96
1449.22
1383.46
1328.09
1282.58
1246.37
1218.92
1199.59
1187.64
1182.18
1182.1
1186.06
1192.52
1199.8
1206.26
1210.49
1211.6
1209.29
1203.86
1195.95
1186.27
1175.33
1163.18
1149.4
1133.17
1113.42
1089.17
1059.82
1025.35
986.343
943.84
899.041
853.05
806.666
760.269
713.775
666.68
618.16
567.231
512.946
454.594
391.831
324.692
253.488
178.644
100.533
19.3444
-64.9883
-152.826
-244.818
-341.877
-445.108
-555.73
-674.959
-803.902
-943.488
-1094.45
-1257.41
-1432.91
-1621.55
-1824.02
-2041.07
-2273.56
-2522.34
-2788.19
-3071.72
-3373.24
-3692.56
-4028.84
-4380.31
-4744.11
-5116.18
-5491.36
-5863.67
4655.67
4351.45
4047.81
3751
3466.24
3197.36
2946.76
2715.66
2504.33
2312.37
2138.99
1983.18
1843.82
1719.82
1610.13
1513.8
1429.98
1357.93
1297.01
1246.66
1206.41
1175.82
1154.44
1141.78
1137.22
1139.92
1148.74
1162.13
1178.16
1194.52
1208.84
1219.06
1223.91
1223.26
1218.04
1209.82
1200.23
1190.38
1180.57
1170.17
1157.74
1141.33
1119.08
1089.8
1053.43
1011.04
964.506
915.933
867.169
819.5
773.496
728.983
685.114
640.515
593.543
542.624
486.633
425.157
358.513
287.512
213.13
136.207
57.2614
-23.6079
-106.743
-192.914
-283.275
-379.282
-482.565
-594.735
-717.19
-850.965
-996.732
-1154.94
-1326.01
-1510.47
-1709.09
-1922.87
-2152.99
-2400.77
-2667.57
-2954.66
-3263.05
-3593.31
-3945.22
-4317.44
-4707.05
-5109.3
-5517.53
-5923.63
4693.03
4352.48
4013.67
3685.43
3374.59
3085.6
2820.7
2580.42
2364.16
2170.62
1998.17
1845.09
1709.7
1590.47
1486.01
1395.16
1316.93
1250.5
1195.22
1150.6
1116.25
1091.9
1077.31
1072.22
1076.24
1088.76
1108.69
1134.33
1163.22
1192.09
1217.25
1235.26
1244.05
1243.7
1236.43
1225.6
1214.46
1205.27
1198.72
1193.8
1187.94
1177.56
1159.02
1129.92
1090.07
1041.61
988.03
933.018
879.632
829.861
784.5
743.193
704.526
666.219
625.471
579.541
526.508
465.867
398.552
326.357
251.229
174.755
97.9129
21.0058
-56.3122
-134.994
-216.555
-302.988
-396.599
-499.692
-614.157
-741.139
-881.047
-1033.9
-1199.73
-1378.9
-1572.24
-1780.99
-2006.81
-2251.63
-2517.54
-2806.69
-3121.13
-3462.57
-3832.02
-4229.14
-4651.41
-5093.37
-5546.28
-5998.62
4741.47
4350.66
3963.97
3594.48
3251.2
2938.89
2658.91
2410.35
2191.06
1998.3
1829.29
1681.38
1552.19
1439.69
1342.18
1258.25
1186.77
1126.9
1077.99
1039.64
1011.61
993.848
986.414
989.431
1002.96
1026.83
1060.32
1101.78
1148.2
1194.93
1235.85
1264.66
1277.24
1274
1259.87
1241.71
1225.8
1216.26
1214.43
1218.67
1224.56
1225.44
1214.1
1185.41
1139.04
1079.49
1013.53
947.679
886.813
833.79
789.593
753.527
723.348
695.367
664.789
626.621
577.271
516.127
445.562
369.372
291.217
213.789
138.617
66.1755
-3.94729
-72.9555
-142.838
-216.373
-296.987
-388.272
-493.089
-612.679
-746.69
-894.106
-1054.17
-1226.87
-1413.08
-1614.42
-1833.14
-2071.94
-2333.84
-2622.08
-2940.06
-3291.22
-3678.68
-4104.28
-4567.02
-5061.23
-5575.38
-6092.28
4805.36
4342.5
3889.15
3465.48
3082.94
2745.37
2451.63
2197.93
1979.53
1791.62
1629.88
1490.54
1370.5
1267.23
1178.68
1103.28
1039.81
987.408
945.479
913.724
892.104
880.839
880.39
891.425
914.724
950.975
1000.38
1061.98
1132.67
1206.03
1271.79
1317.35
1333.11
1319.91
1288.99
1254.48
1227.87
1216.07
1221.28
1241.1
1268.28
1290.85
1294.05
1266.26
1206.9
1126.49
1038.78
955.086
882.618
824.934
782.9
755.308
738.928
728.179
714.962
689.729
644.946
579.885
500.609
415.159
330.105
249.528
175.345
107.966
46.7759
-9.69105
-63.8916
-119.589
-182.031
-257.382
-350.752
-463.447
-593.014
-736.071
-890.351
-1055.32
-1232.03
-1422.71
-1630.43
-1858.85
-2112.04
-2394.46
-2710.99
-3067.32
-3470.09
-3925.61
-4436.9
-4999.95
-5600.06
-6210.44
4892.17
4320.27
3771.25
3276.94
2849.64
2488.53
2186.51
1934.54
1723.92
1547.14
1398.05
1271.8
1164.57
1073.43
996.15
931.032
876.847
832.749
798.238
773.14
757.616
752.183
757.757
775.687
807.762
856.104
922.804
1009.03
1113.2
1227.99
1336.72
1412.84
1430.58
1391.23
1323.19
1255.79
1208.52
1191.29
1207.02
1252.82
1318.57
1384.02
1418.53
1392.47
1304.98
1183.92
1058.16
946.25
857.058
793.466
755.341
740.87
746.323
764.47
782.358
780.909
741.745
664.039
564.476
460.315
362.494
276.011
202.234
140.803
90.66
50.272
17.1722
-13.1297
-48.5233
-100.578
-180.611
-289.931
-419.909
-561.859
-711.101
-866.819
-1030.8
-1206.37
-1397.8
-1609.94
-1848.02
-2117.52
-2424.4
-2776.32
-3185.26
-3666.3
-4231.89
-4884.88
-5609.47
-6362.91
5015.56
4264.74
3574.23
2991.65
2520.78
2146.39
1849.09
1611.41
1419.43
1262.63
1133.24
1025.55
935.36
859.604
796.018
742.962
699.28
664.217
637.377
618.708
608.534
607.617
617.271
639.519
677.311
734.73
817.044
930.149
1078.36
1258.56
1448.53
1592.3
1610.16
1503.77
1356.38
1228.01
1145.85
1118.94
1149.36
1235.72
1369.19
1521.66
1630.13
1607.05
1451.29
1248.02
1057.5
904.626
794.56
725.25
693.646
697.669
735.362
801.048
877.514
926.31
893.955
779.587
634.892
496.278
378.499
284.146
211.294
157.342
120.453
99.6953
94.1592
100.609
108.922
96.4575
31.6579
-86.6992
-229.584
-377.144
-522.504
-666.381
-812.818
-967.14
-1135.27
-1323.56
-1538.61
-1786.63
-2072.75
-2403.01
-2796.37
-3284.92
-3900.67
-4666.28
-5576.81
-6567.6
5203.01
4122.01
3221.51
2545.23
2052.74
1693.05
1425.67
1222.34
1064.16
938.553
837.083
753.993
685.293
628.177
580.656
541.33
509.242
483.791
464.696
451.992
446.071
447.781
458.598
480.919
518.546
577.45
666.884
800.655
997.359
1274.98
1626.75
1952.95
1968.52
1675.26
1362.07
1133.6
1003.51
963.95
1011.06
1150.69
1392.37
1722.52
2031.03
2012.57
1665.91
1293.67
1002.54
801.285
673.305
602.674
580.584
605.915
684.014
822.018
1012.42
1188.46
1164.16
938.715
696.47
502.173
360.715
261.274
193.096
149.267
126.974
127.151
153.829
211.599
296.207
368.771
320.971
151.792
-32.5652
-195.616
-336.039
-462.235
-583.441
-707.97
-843.636
-998.581
-1181.62
-1400.75
-1657.39
-1938.67
-2270.2
-2720.13
-3353.3
-4238.62
-5428.1
-6860.71
5514.98
3718.95
2545.61
1833.97
1393.31
1106.65
909.89
768.157
661.891
579.639
514.386
461.655
418.488
382.878
353.443
329.23
309.603
294.173
282.776
275.47
272.583
274.797
283.324
300.24
329.101
376.166
452.826
580.477
799.764
1184.54
1841.68
2760.75
2771.48
1875.31
1245.67
897.437
730.757
684.072
739.483
918.596
1288.05
1954.44
2902.61
2890.55
1917.25
1222.44
818.074
592.367
469.408
410.147
399.183
438.111
546.33
767.452
1167.87
1739
1723.87
1121.93
688.921
431.917
282.375
193.339
139.799
110.144
101.099
116.397
168.668
283.858
500.73
814.277
784.94
412.041
133.712
-46.7013
-170.071
-265.264
-349.257
-432.727
-524.195
-633.092
-772.585
-960.777
-1206.45
-1401.85
-1573.38
-1891.27
-2442.55
-3372.57
-4928.8
-7322.21
6089.7
2418.88
1204.67
732.314
511.985
390.687
314.794
262.834
224.985
196.197
173.614
155.506
140.764
128.654
118.68
110.501
103.894
98.7246
94.9388
92.5646
91.7293
92.6974
95.9489
102.336
113.417
132.235
165.308
228.301
363.802
701.816
1679.31
4876.34
4880.19
1691.4
723.98
399.765
285.153
257.127
289.717
412.341
756.074
1780.44
5156.72
5152.51
1767.41
732.891
376.277
235.446
173.747
148.035
145.896
170.487
246.005
454.62
1077.37
3133.54
3128.4
1061.74
427.85
206.86
116.871
74.2588
52.0815
41.3181
40.1386
52.366
92.8469
209.61
565.899
1753.31
1743.42
535.977
158.915
20.0345
-44.6902
-84.42
-115.815
-145.948
-179.63
-223.513
-293.395
-437.997
-827.896
-899.382
-665.684
-726.199
-986.209
-1604.54
-3223.51
-8135.16
-6055.25
-6400.47
-6728.45
-7035.75
-7319.67
-7578.3
-7810.44
-8015.54
-8193.5
-8344.58
-8469.26
-8568.09
-8641.64
-8690.38
-8714.66
-6067.87
-6417.15
-6748.54
-7058.5
-7344.31
-7604.1
-7836.8
-8041.96
-8219.64
-8370.24
-8494.35
-8592.62
-8665.68
-8714.07
-8738.16
-6093.59
-6451.15
-6789.48
-7104.79
-7394.32
-7656.34
-7889.99
-8095.13
-8272.13
-8421.65
-8544.52
-8641.58
-8713.62
-8761.27
-8784.97
-6133.3
-6503.82
-6852.84
-7176.22
-7471.18
-7736.25
-7970.98
-8175.73
-8351.35
-8498.95
-8619.72
-8714.8
-8785.17
-8831.62
-8854.71
-6188.58
-6577.4
-6941.22
-7275.42
-7577.28
-7845.8
-8081.24
-8284.73
-8457.83
-8602.31
-8719.84
-8811.93
-8879.84
-8924.57
-8946.76
-6261.84
-6675.39
-7058.62
-7406.31
-7716.05
-7987.72
-8222.73
-8423.36
-8592.19
-8731.83
-8844.58
-8932.42
-8996.91
-9039.25
-9060.21
-6356.82
-6803.13
-7210.95
-7574.49
-7892.21
-8165.58
-8397.88
-8593.02
-8755
-8887.45
-8993.43
-9075.42
-9135.31
-9174.48
-9193.84
-6479.35
-6968.75
-7406.91
-7787.83
-8112
-8383.81
-8609.4
-8795.09
-8946.58
-9068.75
-9165.47
-9239.69
-9293.59
-9328.7
-9346.01
-6638.7
-7185.01
-7659.43
-8057.24
-8383.42
-8647.52
-8860.05
-9030.51
-9166.69
-9274.72
-9359.19
-9423.43
-9469.8
-9499.88
-9514.67
-6850.57
-7472.52
-7987.88
-8397.54
-8716.14
-8962.02
-9151.97
-9299.36
-9414.12
-9503.42
-9572.3
-9624.2
-9661.42
-9685.47
-9697.28
-7143.29
-7865.94
-8421.34
-8828.15
-9120.8
-9331.68
-9485.64
-9599.97
-9686.15
-9751.71
-9801.55
-9838.77
-9865.33
-9882.44
-9890.82
-7572.81
-8425.9
-9002.64
-9372.12
-9606.4
-9757.43
-9858.09
-9927.83
-9977.9
-10014.9
-10042.6
-10063.1
-10077.8
-10087.2
-10091.9
-8263.41
-9261.46
-9790.39
-10050.4
-10174.3
-10232.7
-10260.6
-10274.4
-10281.8
-10286.4
-10289.8
-10292.4
-10294.5
-10295.9
-10296.6
-9533.53
-10565.3
-10846.2
-10864
-10806.7
-10737.7
-10676.2
-10626.4
-10587.7
-10558.4
-10536.8
-10521.4
-10510.9
-10504.3
-10501.2
-12349.7
-12618.8
-12164.2
-11751.6
-11449.8
-11234.3
-11079.2
-10966.2
-10883
-10821.7
-10776.8
-10744.6
-10722.3
-10708.4
-10701.7
8728.13
8727.96
8727.97
8728.94
8732.21
8739.96
8755.67
8785.02
8837.47
8929.45
9091.35
9385.18
9960.35
11272.9
15121.1
8887.84
8888.87
8891.29
8895.9
8904.08
8918.06
8941.45
8980.07
9043.76
9149.55
9328.36
9638.19
10189.4
11172.5
12694.3
9046.31
9048.28
9052.55
9059.84
9071.38
9089.12
9116.11
9157.2
9220.25
9318.39
9473.82
9722.98
10117.9
10697.4
11332.1
9202.89
9205.56
9211.17
9220.29
9233.84
9253.21
9280.46
9318.54
9371.82
9446.87
9553.63
9705.93
9917.75
10183.2
10418.6
9357.07
9360.26
9366.82
9377.11
9391.7
9411.31
9436.75
9468.77
9507.68
9552.77
9601.26
9646.95
9679.71
9689.15
9676.42
9508.49
9512.06
9519.31
9530.39
9545.53
9564.8
9587.92
9613.64
9638.67
9655.73
9650.27
9596.37
9457.28
9209.94
8933.33
9656.87
9660.76
9668.56
9680.3
9695.92
9715.07
9736.73
9758.4
9774.59
9773.76
9732.35
9604.36
9309.45
8750.47
8006.14
9801.98
9806.16
9814.5
9826.94
9843.29
9863.03
9884.95
9906.39
9921.76
9919.4
9873.96
9727.68
9344.42
8419.17
6570.09
9943.62
9948.09
9957.01
9970.29
9987.73
10008.9
10032.9
10058
10080.6
10094.4
10085
10015
9755.21
8728.89
3858.04
10081.6
10086.4
10095.9
10110.2
10129
10152.3
10179.6
10210.6
10245.1
10284.8
10337.5
10433.6
10697.7
11707.9
16551.6
10215.6
10220.7
10230.9
10246.2
10266.6
10292.2
10323.1
10360.1
10405.4
10465.7
10559.2
10734.8
11121.5
12024
13837.5
10345.5
10350.9
10361.8
10378.2
10400.1
10427.8
10461.9
10503.3
10554.7
10622.9
10723.1
10888.9
11186.5
11706.7
12391.4
10471
10476.7
10488.2
10505.6
10528.9
10558.5
10594.8
10638.7
10691.8
10757.4
10840.9
10950.8
11096.4
11274.3
11429.6
10591.9
10597.9
10610
10628.3
10652.8
10683.9
10721.9
10767.1
10819.7
10878.7
10939.6
10987.2
10983.3
10857
10584.4
10708
10714.3
10726.9
10745.9
10771.5
10803.9
10843.4
10889.8
10942.4
10998.1
11046.8
11059
10954.3
10540.8
9558.61
10819.1
10825.6
10838.6
10858.3
10884.9
10918.5
10959.3
11007.5
11062.3
11121.8
11178.8
11211.1
11139.3
10618.9
7859.63
10925
10931.7
10945.1
10965.4
10992.7
11027.3
11069.6
11119.9
11178.5
11246.5
11327.2
11435
11635.1
12251.2
15051.2
11025.7
11032.5
11046.2
11066.9
11094.8
11130.3
11173.7
11225.8
11287.4
11361.7
11456.2
11594
11841.3
12366.1
13398.7
11121
11127.9
11141.8
11162.8
11191
11227
11271.2
11324.2
11387
11462.1
11554.5
11676.4
11854.2
12127.8
12472.5
11210.9
11217.8
11231.8
11252.8
11281.3
11317.5
11362
11415.1
11477.5
11549.8
11631.5
11719.2
11799.8
11839.3
11795
11295.3
11302.2
11316.1
11337.1
11365.5
11401.6
11446
11498.9
11560.5
11630.2
11703.7
11766.4
11773.4
11608.4
11096.1
11374.3
11381.1
11394.8
11415.6
11443.6
11479.4
11523.3
11575.9
11637.3
11707.3
11782.8
11851.5
11865.7
11617.9
10050.9
11447.9
11454.6
11468
11488.3
11515.8
11550.8
11594
11646
11707.4
11779.8
11865.8
11973.7
12139.3
12542.9
14196.5
11516.2
11522.7
11535.6
11555.3
11582
11616
11658
11708.7
11769.3
11842.2
11932.9
12055.3
12246.8
12599.2
13230.7
11579.3
11585.5
11598
11616.8
11642.3
11675
11715.2
11763.8
11821.9
11891.6
11977.2
12088.1
12241.8
12460.8
12713.4
11637.5
11643.4
11655.2
11673
11697.1
11728
11766
11811.7
11865.7
11929.1
12003.4
12090.3
12190.7
12298.3
12381.5
11691
11696.5
11707.4
11724.1
11746.6
11775.4
11810.7
11852.9
11902.2
11958.4
12020
12082.4
12134
12151.9
12117.3
11740
11745
11755.1
11770.4
11791.1
11817.5
11850
11888.6
11933.2
11983.1
12035.3
12081.3
12099.8
12041.4
11839
11784.8
11789.3
11798.5
11812.3
11831
11854.8
11884.2
11919.2
11959.9
12005.6
12054.1
12098.7
12118.1
12030.1
11430.3
11825.8
11829.8
11837.9
11850
11866.5
11887.7
11913.8
11945.2
11982.3
12025.3
12074.8
12132.7
12210.3
12373.4
13004.1
11863.4
11866.8
11873.7
11884.1
11898.2
11916.4
11939
11966.6
11999.8
12039.8
12088.9
12152.1
12242.4
12391.2
12637.3
11898
11900.8
11906.4
11914.8
11926.4
11941.3
11960.1
11983.3
12011.7
12047.2
12092.5
12152
12232.9
12340.4
12451.9
11930
11932.1
11936.4
11942.8
11951.6
11963
11977.4
11995.5
12018.1
12047.1
12085.2
12136.3
12204.1
12285.9
12354.3
11959.9
11961.3
11964.1
11968.4
11974.2
11981.8
11991.5
12003.7
12019.3
12040
12068.2
12108
12164.5
12239.9
12314.7
11988.2
11988.9
11990.3
11992.3
11995.1
11998.6
12003.1
12008.9
12016.4
12026.8
12042.4
12067.3
12110.9
12193.4
12337.3
12015.3
12015.3
12015.2
12015.1
12014.7
12014.1
12013.2
12012
12010.6
12009.3
12009.2
12012.8
12029.5
12103.1
12470.3
12041.8
12041.2
12039.7
12037.3
12033.8
12029.1
12022.9
12014.7
12004
11990.3
11972.6
11948.2
11907.8
11808
11412.2
12068.3
12066.9
12064.1
12059.7
12053.3
12044.6
12033.2
12018.2
11998.8
11973.4
11940
11894
11826.5
11717.7
11545
12095
12093.1
12089.1
12082.7
12073.7
12061.4
12045.3
12024.3
11996.9
11961.5
11915.2
11854
11773.2
11671
11567.3
12122.6
12120.1
12115.1
12107.1
12095.7
12080.4
12060.2
12034
12000.1
11956.4
11899.9
11826.8
11733.8
11624.4
11526.9
12151.3
12148.4
12142.5
12133.2
12120
12102.1
12078.7
12048.4
12009.4
11959.5
11895.5
11812.7
11705
11568.7
11428
12181.5
12178.3
12171.8
12161.5
12146.9
12127.2
12101.5
12068.3
12025.8
11971.8
11903.4
11815.2
11695.2
11515.1
11240.3
12213.4
12210
12203.1
12192.2
12176.8
12156
12128.9
12093.9
12049.4
11993.6
11924.5
11839
11726.4
11526
10870.4
12247.1
12243.7
12236.6
12225.6
12209.9
12188.8
12161.2
12125.7
12080.5
12024.2
11956.3
11880.9
11818
11852.2
12392.3
12282.7
12279.4
12272.5
12261.6
12246.3
12225.6
12198.6
12163.6
12118.8
12062.3
11992.9
11913.8
11841.6
11826.8
11956.4
12320.2
12317.1
12310.6
12300.4
12285.9
12266.5
12241
12207.9
12164.8
12108.8
12035.9
11941.6
11825.1
11701.1
11616
12359.5
12356.7
12350.8
12341.6
12328.6
12311.2
12288.4
12258.6
12219.4
12166.8
12093.3
11984.3
11813.7
11548.2
11221.8
12400.4
12398
12392.9
12385.1
12374
12359.3
12340.2
12315.4
12282.9
12239
12175.1
12069.7
11867.8
11437.4
10605.8
12442.6
12440.6
12436.6
12430.3
12421.6
12410.1
12395.5
12377.1
12354.1
12324.9
12285.4
12221.9
12080.3
11604.9
9416.92
12485.8
12484.4
12481.5
12476.9
12470.8
12462.8
12453.1
12441.8
12429.3
12417.7
12412
12428.1
12524.3
12961.6
15124
12529.7
12528.8
12527
12524.4
12520.8
12516.4
12511.6
12506.9
12503.8
12506.2
12523.4
12578.7
12731.5
13120.3
13924.8
12573.8
12573.5
12572.9
12572.1
12571.1
12570.1
12569.7
12570.5
12574.1
12584.2
12608.1
12661.4
12774.9
12990.7
13287.1
12617.8
12618
12618.6
12619.6
12621
12623.2
12626.6
12631.9
12639.9
12652.5
12672.1
12702.4
12747.1
12805.3
12858
12661.3
12662.1
12663.8
12666.4
12670.1
12675.3
12682.1
12691
12702.3
12715.6
12728.7
12733.4
12710.1
12623.8
12468.2
12703.9
12705.2
12708
12712.2
12718
12725.8
12735.8
12748.3
12763.1
12778.9
12790.9
12783.9
12716.8
12490.7
11972.8
12745.3
12747.1
12750.8
12756.5
12764.3
12774.6
12787.6
12803.7
12823
12844.7
12866
12876
12833.8
12560.3
11120.4
12785.1
12787.4
12792
12799
12808.6
12821.2
12837.1
12856.7
12880.9
12910.7
12949
13004.2
13111.6
13439.8
14908.9
12823.1
12825.8
12831.2
12839.4
12850.7
12865.3
12883.6
12906.4
12934.6
12970.7
13019.9
13096.1
13235.9
13526.8
14082.8
12859
12862
12868.1
12877.4
12890.1
12906.5
12926.9
12952
12982.8
13021.3
13071.9
13143.8
13254.9
13429.6
13646.1
12892.4
12895.8
12902.5
12912.8
12926.7
12944.6
12966.6
12993.3
13025.3
13063.3
13108.9
13163.9
13229.7
13303.1
13363.1
12923.3
12926.9
12934.3
12945.4
12960.4
12979.5
13002.9
13030.8
13063.3
13099.9
13139.2
13176.2
13199.1
13185.8
13125.2
12951.3
12955.2
12963.1
12974.9
12990.9
13011.2
13035.8
13064.9
13098.1
13134.5
13170.9
13198.3
13193.2
13101.3
12848.7
12976.3
12980.4
12988.8
13001.4
13018.2
13039.5
13065.3
13095.7
13130.5
13168.8
13208.5
13242.5
13247.6
13128.1
12400.5
12998.1
13002.5
13011.3
13024.5
13042.2
13064.5
13091.4
13123.3
13160
13202
13249.8
13306.6
13388.1
13577.1
14340.2
13016.6
13021.2
13030.4
13044.2
13062.6
13085.8
13113.9
13147.1
13185.7
13230.7
13284.6
13353.3
13453.7
13626.9
13924.8
13031.6
13036.4
13046
13060.4
13079.5
13103.5
13132.5
13166.7
13206.6
13253.1
13308.6
13377.7
13468.5
13589.6
13720.7
13043
13048
13058
13072.9
13092.7
13117.5
13147.3
13182.2
13222.5
13269
13323
13386.6
13461.8
13544.9
13612.3
13050.6
13055.8
13066.2
13081.7
13102.2
13127.7
13158.1
13193.5
13233.7
13279.2
13330.3
13387.3
13449.2
13510.8
13555.3
13054.2
13059.7
13070.5
13086.6
13107.9
13134.2
13165.3
13201
13241.1
13285.3
13333.2
13384.1
13436.5
13488.1
13534
13053.8
13059.5
13070.8
13087.7
13109.8
13137
13168.9
13205.2
13245.2
13288.4
13333.7
13379.4
13423.9
13469.1
13549.1
13049.1
13055.1
13067
13084.7
13107.9
13136.2
13169.2
13206.3
13246.9
13289.7
13333.5
13375.4
13410.4
13425.7
13373.9
13039.9
13046.2
13058.9
13077.6
13102
13131.8
13166.3
13204.8
13246.5
13290.2
13334.1
13375.7
13410.1
13428.3
13418.4
13025.9
13032.7
13046.2
13066.1
13092.1
13123.7
13160.2
13200.8
13244.4
13290
13336.1
13380.7
13420.7
13450.2
13461.1
13006.8
13014.2
13028.7
13050.1
13078.1
13111.9
13151
13194.2
13240.6
13289.1
13338.7
13388.6
13438.1
13484.4
13516.4
12982.4
12990.3
13006
13029.3
13059.5
13096.2
13138.4
13185.1
13235
13287
13340.6
13396.4
13457.5
13528.2
13598.9
12952
12960.7
12977.8
13003.2
13036.2
13076.3
13122.4
13173.3
13227.5
13283.6
13340.6
13400.1
13469.7
13571.7
13735.6
12915.3
12924.8
12943.6
12971.4
13007.7
13051.9
13102.8
13158.9
13218.4
13279.1
13338.6
13396.3
13459
13571.7
13991.3
12871.7
12882.1
12902.7
12933.3
12973.4
13022.4
13079.1
13141.8
13208.2
13275
13337.5
13388.7
13413.2
13358.3
12961.3
12820.6
12832
12854.6
12888.3
12932.7
12987.2
13050.8
13121.7
13197.3
13273.4
13343.9
13399.1
13422.1
13382.1
13242.9
12761.2
12773.6
12798.4
12835.4
12884.5
12945.4
13017.1
13098.1
13185.6
13275.3
13360.7
13431.6
13474.5
13474.4
13433
12692.9
12706.3
12733.3
12773.8
12827.9
12895.7
12976.6
13069.5
13172
13280
13387
13483.1
13556.2
13595.1
13599.4
12614.9
12629.4
12658.4
12702.3
12761.5
12836.5
12927.4
13033.8
13154.2
13285
13420.4
13550.2
13661.4
13739.2
13774.1
12526.6
12541.9
12572.7
12619.8
12683.8
12765.9
12867.2
12988.1
13128.6
13286.7
13457.1
13630
13789.2
13912.9
13978.1
12427.3
12443.2
12475.5
12525.1
12593.2
12681.8
12792.8
12928.5
13090.5
13279.3
13491.8
13718.9
13941.3
14126.7
14232.7
12316.6
12332.9
12366
12417.1
12488.1
12581.7
12701
12850.2
13033.5
13255
13516
13810.7
14118.8
14395.1
14566.1
12194.3
12210.5
12243.6
12295
12367.1
12463.3
12588.1
12747.7
12949.7
13203
13516.3
13892.7
14317.9
14736.2
15023.4
12060.4
12076
12108
12158.1
12229
12324.6
12450.8
12615.4
12829.8
13109
13472.3
13940.5
14521.4
15168
15685.3
11915.3
11929.8
11959.6
12006.5
12073.3
12164.4
12286.3
12448.3
12664.5
12956.1
13355.3
13909.6
14679
15689.1
16711.7
11759.8
11772.6
11799
11840.7
11900.4
11982.6
12093.6
12243.2
12446.5
12728.1
13130.1
13728.8
14668.9
16201.2
18453.2
11595.1
11605.6
11627.4
11661.9
11711.7
11780.4
11873.8
12000.4
12173.8
12416.2
12767.9
13310.7
14247
16213.2
21763.6
-20339.6
-15163.7
-13333
-12462.7
-11959.1
-11633.3
-11409.2
-11249.4
-11132.8
-11047.2
-10984.3
-10939
-10907.7
-10887.9
-10878.4
-17249
-15153.2
-13727.6
-12853.8
-12297.7
-11924.8
-11663.9
-11475.9
-11337.8
-11235.6
-11160.2
-11105.5
-11067.4
-11043.3
-11031.7
-15624.2
-14676.4
-13738.2
-13023.3
-12508.4
-12137.7
-11867.2
-11667
-11517.2
-11404.7
-11320.9
-11259.6
-11216.7
-11189.5
-11176.2
-14668.4
-14192
-13592.7
-13053.2
-12618.1
-12280.3
-12021.1
-11822.3
-11669.9
-11553.3
-11465.3
-11400.3
-11354.4
-11325.1
-11310.8
-14054.1
-13792
-13404.9
-13009.8
-12659.4
-12367.7
-12132.1
-11944.6
-11796.8
-11681.5
-11593
-11526.9
-11479.8
-11449.6
-11434.9
-13632.6
-13478
-13221.9
-12934.5
-12659.1
-12415.4
-12208.9
-12038.6
-11900.5
-11790.4
-11704.5
-11639.5
-11592.9
-11562.7
-11547.9
-13329.3
-13233.5
-13059.8
-12850
-12636
-12436.4
-12260
-12109.4
-11983.9
-11881.7
-11800.7
-11738.6
-11693.7
-11664.4
-11650
-13103.4
-13042.3
-12921.9
-12767.7
-12602
-12440.5
-12292.4
-12161.9
-12050.4
-11957.7
-11883
-11825.1
-11782.8
-11755
-11741.3
-12930.7
-12891.4
-12806.7
-12692.4
-12564.3
-12434.6
-12311.7
-12200.3
-12103
-12020.5
-11953
-11900
-11860.9
-11835.2
-11822.4
-12796.2
-12771.2
-12711.1
-12626.1
-12527
-12423.3
-12322.2
-12228.3
-12144.4
-12072.2
-12012.2
-11964.5
-11929.1
-11905.6
-11893.9
-12689.8
-12674.8
-12632.1
-12568.6
-12492
-12409.5
-12326.9
-12248.5
-12177.1
-12114.6
-12062
-12019.8
-11988.2
-11967.1
-11956.5
-12604.6
-12596.7
-12566.7
-12519.4
-12460.3
-12394.9
-12327.9
-12263
-12202.9
-12149.4
-12103.9
-12067
-12039.1
-12020.5
-12011.1
-12535.9
-12533.1
-12512.6
-12477.6
-12432.3
-12380.7
-12326.7
-12273.4
-12223.2
-12177.9
-12139
-12107.2
-12082.9
-12066.6
-12058.4
-12480
-12481
-12467.6
-12442.2
-12407.7
-12367.4
-12324.2
-12280.8
-12239.3
-12201.4
-12168.4
-12141.3
-12120.4
-12106.3
-12099.2
-12434.2
-12438.2
-12430.3
-12412.4
-12386.5
-12355.2
-12321
-12286.1
-12252.1
-12220.7
-12193.1
-12170.2
-12152.5
-12140.5
-12134.4
-12396.5
-12402.8
-12399.2
-12387.1
-12368.3
-12344.4
-12317.7
-12289.8
-12262.3
-12236.6
-12213.8
-12194.7
-12179.8
-12169.7
-12164.6
-12365.4
-12373.4
-12373.3
-12365.9
-12352.6
-12334.9
-12314.3
-12292.5
-12270.5
-12249.7
-12231.1
-12215.4
-12203.1
-12194.7
-12190.4
-12339.5
-12349
-12351.5
-12347.9
-12339.2
-12326.5
-12311.2
-12294.4
-12277.2
-12260.6
-12245.7
-12233
-12223
-12216.1
-12212.6
-12317.9
-12328.5
-12333.3
-12332.8
-12327.8
-12319.3
-12308.2
-12295.7
-12282.6
-12269.7
-12257.9
-12247.8
-12239.9
-12234.3
-12231.5
-12299.8
-12311.4
-12317.9
-12320
-12318.1
-12313
-12305.6
-12296.7
-12287
-12277.3
-12268.3
-12260.5
-12254.3
-12249.9
-12247.7
-12284.6
-12296.9
-12305
-12309.1
-12309.7
-12307.5
-12303.2
-12297.4
-12290.6
-12283.7
-12277.1
-12271.3
-12266.6
-12263.3
-12261.5
-12271.7
-12284.7
-12293.9
-12299.8
-12302.6
-12302.8
-12301
-12297.9
-12293.7
-12289
-12284.5
-12280.4
-12277.1
-12274.7
-12273.5
-12260.7
-12274.2
-12284.5
-12291.8
-12296.4
-12298.7
-12299.1
-12298.2
-12296.2
-12293.6
-12290.9
-12288.4
-12286.2
-12284.6
-12283.8
-12251.3
-12265.2
-12276.3
-12284.9
-12291
-12295.1
-12297.5
-12298.5
-12298.4
-12297.6
-12296.4
-12295.2
-12294.1
-12293.2
-12292.8
-12243
-12257.3
-12269.2
-12278.8
-12286.3
-12291.9
-12295.9
-12298.7
-12300.2
-12301
-12301.3
-12301.2
-12301
-12300.8
-12300.6
-12235.7
-12250.3
-12262.9
-12273.4
-12282.1
-12289.1
-12294.6
-12298.8
-12301.9
-12304
-12305.5
-12306.6
-12307.2
-12307.5
-12307.7
-12229.1
-12244
-12257.2
-12268.6
-12278.3
-12286.5
-12293.4
-12298.9
-12303.3
-12306.8
-12309.4
-12311.4
-12312.8
-12313.6
-12314
-12222.9
-12238.1
-12251.9
-12264.1
-12274.8
-12284.2
-12292.2
-12299.1
-12304.7
-12309.3
-12313
-12315.9
-12318
-12319.3
-12319.9
-12217.1
-12232.6
-12246.8
-12259.8
-12271.5
-12281.9
-12291.2
-12299.2
-12306
-12311.7
-12316.4
-12320.1
-12322.9
-12324.6
-12325.5
-12211.3
-12227.1