/*--------------------------------*- C++ -*----------------------------------*\
| =========                 |                                                 |
| \\      /  F ield         | OpenFOAM: The Open Source CFD Toolbox           |
|  \\    /   O peration     | Version:  5.x                                   |
|   \\  /    A nd           | Web:      www.OpenFOAM.org                      |
|    \\/     M anipulation  |                                                 |
\*---------------------------------------------------------------------------*/
FoamFile
{
    version     2.0;
    format      ascii;
    class       volScalarField;
    location    "2.4";
    object      T;
}
// * * * * * * * * * * * * * * * * * * * * * * * * * * * * * * * * * * * * * //

dimensions      [0 0 0 1 0 0 0];

internalField   nonuniform List<scalar> 
6300
(
44.2466
112.643
180.749
248.369
315.307
381.363
446.335
510.02
572.214
632.715
691.328
747.865
802.156
854.047
903.415
44.3403
112.925
181.22
249.032
316.163
382.415
447.585
511.468
573.858
634.551
693.345
750.05
804.487
856.499
905.956
44.5274
113.487
182.16
250.354
317.873
384.518
450.084
514.366
577.152
638.232
697.395
754.439
809.176
861.435
911.074
44.8067
114.326
183.565
252.331
320.431
387.666
453.832
518.717
582.105
643.775
703.504
761.073
816.274
868.917
918.841
45.1767
115.439
185.426
254.953
323.827
391.852
458.822
524.522
588.728
651.205
711.714
770.012
825.862
879.044
929.37
45.635
116.817
187.734
258.206
328.046
397.06
465.044
531.777
597.029
660.55
722.076
781.334
838.047
891.953
942.819
46.1781
118.451
190.472
262.07
333.064
403.267
472.476
540.471
607.012
671.833
734.645
795.134
852.97
907.827
959.408
46.8017
120.327
193.619
266.515
338.846
410.434
481.082
550.573
618.662
685.07
749.476
811.519
870.8
926.901
979.424
47.4997
122.429
197.145
271.502
345.345
418.508
490.806
562.032
631.942
700.249
766.607
830.598
891.736
949.473
1003.26
48.2651
124.733
201.015
276.981
352.495
427.41
501.562
574.759
646.773
717.32
786.038
852.462
915.997
975.918
1031.43
49.0891
127.215
205.184
282.889
360.215
437.041
513.229
588.62
663.016
736.159
807.698
877.142
943.793
1006.7
1064.65
49.9617
129.844
209.602
289.152
368.406
447.273
525.652
603.428
680.455
756.538
831.386
904.542
975.258
1042.33
1103.97
50.8723
132.587
214.211
295.686
376.953
457.955
538.634
618.933
698.782
778.089
856.697
934.304
1010.28
1083.32
1150.86
51.8095
135.409
218.952
302.404
385.734
468.921
551.953
634.835
717.592
800.272
882.937
965.616
1048.16
1129.72
1207.44
52.7624
138.278
223.768
309.219
394.627
480.002
565.375
650.809
736.419
822.404
909.086
996.989
1086.91
1179.88
1275.83
946.269
983.373
1018.61
1051.97
1083.49
1113.21
1141.16
1167.42
1192.07
1215.19
1236.87
1257.2
1276.29
1294.22
1311.11
1327.03
1342.09
1356.38
1369.97
1382.97
1395.43
1407.44
1419.05
1430.34
1441.36
1452.15
1462.76
1473.22
1483.56
1493.8
1503.95
1514.03
1524.02
1533.94
1543.78
1553.52
1563.16
1572.68
1582.07
1591.31
1600.37
1609.25
1617.91
1626.34
1634.52
1642.41
1650
1657.26
1664.18
1670.73
1676.9
1682.67
1688.02
1692.92
1697.35
1701.3
1704.73
1707.61
1709.92
1711.62
1712.68
1713.06
1712.73
1711.65
1709.76
1707.03
1703.4
1698.81
1693.2
1686.51
1678.66
1669.58
1659.18
1647.37
1634.06
1619.16
1602.56
1584.17
1563.88
1541.6
1517.21
1490.63
1461.76
1430.51
1396.81
1360.61
1321.86
1280.53
1236.62
1190.15
948.86
985.983
1021.21
1054.54
1086.01
1115.64
1143.5
1169.65
1194.18
1217.16
1238.7
1258.9
1277.84
1295.63
1312.37
1328.16
1343.09
1357.25
1370.73
1383.61
1395.97
1407.88
1419.41
1430.62
1441.56
1452.29
1462.85
1473.27
1483.58
1493.8
1503.94
1514.01
1524.01
1533.94
1543.78
1553.54
1563.2
1572.74
1582.15
1591.42
1600.51
1609.42
1618.12
1626.58
1634.78
1642.71
1650.32
1657.62
1664.56
1671.15
1677.34
1683.14
1688.51
1693.45
1697.92
1701.9
1705.37
1708.29
1710.65
1712.4
1713.51
1713.95
1713.67
1712.65
1710.83
1708.18
1704.63
1700.13
1694.62
1688.03
1680.3
1671.33
1661.06
1649.38
1636.21
1621.45
1605
1586.76
1566.62
1544.49
1520.24
1493.79
1465.04
1433.91
1400.3
1364.17
1325.45
1284.13
1240.2
1193.68
954.079
991.241
1026.45
1059.72
1091.07
1120.54
1148.2
1174.12
1198.4
1221.11
1242.37
1262.28
1280.94
1298.44
1314.91
1330.42
1345.09
1359
1372.24
1384.89
1397.04
1408.75
1420.1
1431.15
1441.95
1452.56
1463.02
1473.36
1483.61
1493.78
1503.9
1513.97
1523.97
1533.92
1543.79
1553.58
1563.28
1572.86
1582.32
1591.64
1600.79
1609.76
1618.52
1627.05
1635.32
1643.31
1650.99
1658.34
1665.34
1671.97
1678.22
1684.07
1689.51
1694.5
1699.04
1703.1
1706.64
1709.66
1712.1
1713.95
1715.16
1715.71
1715.55
1714.65
1712.97
1710.47
1707.08
1702.76
1697.44
1691.07
1683.56
1674.84
1664.81
1653.4
1640.51
1626.04
1609.89
1591.95
1572.11
1550.27
1526.32
1500.14
1471.65
1440.73
1407.31
1371.31
1332.68
1291.38
1247.41
1200.77
962.003
999.224
1034.41
1067.57
1098.73
1127.95
1155.3
1180.87
1204.76
1227.06
1247.89
1267.36
1285.58
1302.65
1318.69
1333.79
1348.06
1361.59
1374.47
1386.78
1398.61
1410.03
1421.11
1431.91
1442.5
1452.93
1463.23
1473.45
1483.61
1493.73
1503.82
1513.87
1523.9
1533.87
1543.78
1553.62
1563.38
1573.03
1582.56
1591.96
1601.2
1610.26
1619.13
1627.76
1636.13
1644.21
1651.98
1659.42
1666.5
1673.21
1679.54
1685.47
1690.98
1696.07
1700.71
1704.88
1708.55
1711.69
1714.27
1716.26
1717.63
1718.34
1718.35
1717.64
1716.16
1713.87
1710.73
1706.67
1701.65
1695.59
1688.42
1680.06
1670.42
1659.42
1646.95
1632.91
1617.21
1599.72
1580.35
1558.96
1535.45
1509.7
1481.6
1451.03
1417.9
1382.12
1343.63
1302.37
1258.33
1211.53
972.752
1010.05
1045.2
1078.2
1109.1
1137.96
1164.88
1189.95
1213.29
1235.02
1255.26
1274.13
1291.75
1308.24
1323.71
1338.25
1351.99
1365.01
1377.4
1389.25
1400.65
1411.67
1422.39
1432.87
1443.17
1453.34
1463.44
1473.5
1483.55
1493.6
1503.65
1513.71
1523.76
1533.78
1543.75
1553.66
1563.5
1573.23
1582.86
1592.37
1601.73
1610.92
1619.93
1628.7
1637.21
1645.43
1653.32
1660.87
1668.05
1674.86
1681.28
1687.31
1692.94
1698.15
1702.92
1707.24
1711.08
1714.39
1717.15
1719.33
1720.9
1721.81
1722.05
1721.58
1720.36
1718.36
1715.54
1711.84
1707.2
1701.56
1694.85
1686.98
1677.86
1667.39
1655.49
1642.05
1626.95
1610.08
1591.33
1570.58
1547.68
1522.52
1494.97
1464.9
1432.19
1396.73
1358.44
1317.25
1273.13
1226.1
986.497
1023.9
1058.98
1091.76
1122.3
1150.68
1177.01
1201.42
1224.04
1245.02
1264.5
1282.6
1299.45
1315.19
1329.93
1343.77
1356.83
1369.21
1380.99
1392.26
1403.12
1413.64
1423.89
1433.95
1443.89
1453.75
1463.59
1473.45
1483.36
1493.33
1503.35
1513.43
1523.53
1533.62
1543.68
1553.69
1563.62
1573.46
1583.21
1592.85
1602.36
1611.73
1620.92
1629.88
1638.58
1646.97
1655.02
1662.7
1670.01
1676.92
1683.45
1689.59
1695.35
1700.7
1705.65
1710.16
1714.2
1717.73
1720.73
1723.15
1724.95
1726.12
1726.63
1726.45
1725.55
1723.9
1721.47
1718.2
1714.05
1708.94
1702.8
1695.54
1687.07
1677.3
1666.12
1653.42
1639.09
1623.02
1605.07
1585.12
1563.03
1538.65
1511.84
1482.43
1450.3
1415.29
1377.29
1336.22
1292.02
1244.7
1003.47
1041.01
1076
1108.47
1138.51
1166.24
1191.8
1215.35
1237.06
1257.09
1275.6
1292.74
1308.66
1323.47
1337.32
1350.31
1362.55
1374.14
1385.18
1395.76
1405.96
1415.87
1425.56
1435.11
1444.59
1454.06
1463.58
1473.21
1482.95
1492.84
1502.86
1512.99
1523.18
1533.39
1543.57
1553.69
1563.73
1573.69
1583.57
1593.37
1603.07
1612.66
1622.1
1631.32
1640.26
1648.87
1657.11
1664.95
1672.38
1679.4
1686.03
1692.29
1698.18
1703.71
1708.86
1713.6
1717.9
1721.71
1724.99
1727.69
1729.78
1731.24
1732.05
1732.19
1731.66
1730.42
1728.44
1725.69
1722.12
1717.65
1712.21
1705.7
1698.03
1689.09
1678.78
1666.99
1653.6
1638.5
1621.55
1602.62
1581.54
1558.16
1532.3
1503.77
1472.41
1438.02
1400.45
1359.57
1315.3
1267.61
1024
1061.69
1096.54
1128.59
1157.96
1184.83
1209.39
1231.84
1252.4
1271.25
1288.57
1304.55
1319.32
1333.04
1345.83
1357.81
1369.08
1379.76
1389.93
1399.68
1409.1
1418.28
1427.3
1436.24
1445.17
1454.18
1463.32
1472.65
1482.22
1492.04
1502.09
1512.33
1522.68
1533.06
1543.41
1553.67
1563.83
1573.91
1583.92
1593.89
1603.82
1613.69
1623.44
1633.01
1642.28
1651.17
1659.64
1667.64
1675.19
1682.3
1689.02
1695.38
1701.4
1707.12
1712.51
1717.54
1722.17
1726.32
1729.93
1732.96
1735.37
1737.15
1738.28
1738.78
1738.63
1737.84
1736.38
1734.23
1731.33
1727.62
1723.01
1717.39
1710.65
1702.7
1693.42
1682.71
1670.44
1656.5
1640.76
1623.06
1603.23
1581.1
1556.45
1529.08
1498.74
1465.21
1428.26
1387.69
1343.37
1295.25
1048.5
1086.39
1121.01
1152.46
1180.92
1206.65
1229.9
1250.96
1270.08
1287.48
1303.38
1317.97
1331.4
1343.84
1355.4
1366.21
1376.37
1385.99
1395.15
1403.95
1412.48
1420.81
1429.04
1437.25
1445.53
1453.97
1462.65
1471.64
1481.01
1490.78
1500.93
1511.38
1522
1532.66
1543.24
1553.66
1563.93
1574.09
1584.2
1594.33
1604.51
1614.74
1624.94
1634.98
1644.69
1653.96
1662.69
1670.85
1678.48
1685.63
1692.38
1698.79
1704.94
1710.85
1716.53
1721.93
1726.97
1731.55
1735.57
1738.97
1741.73
1743.83
1745.29
1746.14
1746.39
1746.07
1745.18
1743.69
1741.57
1738.74
1735.1
1730.52
1724.89
1718.08
1709.99
1700.51
1689.54
1676.96
1662.63
1646.41
1628.1
1607.51
1584.4
1558.51
1529.55
1497.2
1461.14
1421.08
1376.79
1328.16
1077.59
1115.71
1149.97
1180.53
1207.72
1231.91
1253.48
1272.77
1290.11
1305.77
1319.97
1332.93
1344.81
1355.77
1365.93
1375.42
1384.32
1392.75
1400.78
1408.51
1416.01
1423.37
1430.69
1438.05
1445.55
1453.29
1461.4
1469.97
1479.1
1488.84
1499.2
1510.04
1521.15
1532.26
1543.15
1553.74
1564.06
1574.21
1584.33
1594.56
1605.01
1615.7
1626.53
1637.27
1647.63
1657.38
1666.4
1674.69
1682.32
1689.4
1696.07
1702.45
1708.66
1714.77
1720.8
1726.68
1732.29
1737.43
1741.96
1745.78
1748.88
1751.28
1753.03
1754.2
1754.83
1754.98
1754.67
1753.92
1752.68
1750.88
1748.39
1745.04
1740.67
1735.15
1728.4
1720.31
1710.81
1699.78
1687.1
1672.61
1656.12
1637.4
1616.21
1592.22
1565.09
1534.39
1499.66
1460.44
1416.33
1367.1
1112.12
1150.51
1184.13
1213.36
1238.74
1260.85
1280.22
1297.3
1312.46
1326.03
1338.25
1349.33
1359.44
1368.74
1377.33
1385.34
1392.85
1399.95
1406.73
1413.26
1419.62
1425.89
1432.15
1438.52
1445.08
1451.98
1459.35
1467.36
1476.17
1485.91
1496.63
1508.19
1520.18
1532.03
1543.37
1554.09
1564.3
1574.23
1584.15
1594.35
1605.03
1616.32
1628.1
1639.96
1651.31
1661.71
1671.04
1679.35
1686.81
1693.63
1700.04
1706.22
1712.38
1718.66
1725.12
1731.7
1738.14
1744.06
1749.21
1753.47
1756.88
1759.51
1761.48
1762.88
1763.83
1764.39
1764.66
1764.68
1764.44
1763.87
1762.77
1760.86
1757.94
1753.86
1748.57
1742.01
1734.12
1724.83
1714.02
1701.53
1687.19
1670.73
1651.89
1630.33
1605.62
1577.24
1544.52
1506.71
1463.1
1413.22
1153.43
1192.06
1224.51
1251.63
1274.37
1293.64
1310.15
1324.46
1337
1348.12
1358.05
1367
1375.14
1382.59
1389.47
1395.86
1401.85
1407.51
1412.92
1418.14
1423.23
1428.28
1433.36
1438.57
1444.02
1449.86
1456.26
1463.47
1471.77
1481.45
1492.74
1505.59
1519.28
1532.42
1544.34
1555.03
1564.81
1574.13
1583.46
1593.28
1604.05
1616.1
1629.41
1643.27
1656.2
1667.46
1677
1685.08
1692.08
1698.33
1704.16
1709.89
1715.79
1722.14
1729.14
1736.77
1744.58
1751.67
1757.57
1762.25
1765.85
1768.56
1770.58
1772.08
1773.2
1774.09
1774.87
1775.66
1776.54
1777.47
1778.15
1778
1776.7
1774.17
1770.42
1765.47
1759.31
1751.92
1743.19
1733
1721.13
1707.35
1691.36
1672.81
1651.31
1626.2
1596.56
1561.19
1518.79
1468.24
1203.79
1242.38
1272.49
1296.08
1314.91
1330.29
1343.13
1354.05
1363.5
1371.79
1379.14
1385.74
1391.71
1397.16
1402.18
1406.84
1411.2
1415.32
1419.26
1423.07
1426.8
1430.5
1434.26
1438.15
1442.27
1446.79
1451.9
1457.9
1465.24
1474.53
1486.49
1501.64
1519.04
1534.45
1546.96
1557.15
1565.86
1573.87
1581.92
1590.72
1601.1
1613.93
1629.81
1647.78
1663.35
1675.55
1684.91
1692.26
1698.27
1703.48
1708.31
1713.15
1718.41
1724.55
1732.11
1741.43
1751.92
1760.83
1767.56
1772.44
1775.93
1778.45
1780.29
1781.67
1782.78
1783.78
1784.89
1786.35
1788.42
1791.28
1794.57
1796.63
1797.1
1796.09
1793.84
1790.49
1786.13
1780.77
1774.33
1766.71
1757.69
1747.01
1734.34
1719.39
1702.03
1681.55
1656.7
1625.66
1586.05
1535.2
1267.75
1304.84
1329.74
1347.26
1360.3
1370.48
1378.75
1385.65
1391.55
1396.68
1401.21
1405.25
1408.9
1412.23
1415.28
1418.12
1420.77
1423.28
1425.67
1427.99
1430.27
1432.54
1434.85
1437.26
1439.85
1442.74
1446.12
1450.29
1455.79
1463.62
1475.54
1494.31
1521.55
1540.5
1552.8
1561.27
1567.76
1573.45
1579.16
1585.77
1594.47
1607.24
1627.05
1655.61
1675.22
1687.57
1695.6
1701.2
1705.47
1709.03
1712.3
1715.68
1719.61
1724.79
1732.4
1744.25
1761.38
1772.98
1780.08
1784.46
1787.28
1789.17
1790.5
1791.5
1792.34
1793.18
1794.28
1796
1799.01
1804.34
1812.58
1817.42
1819.45
1819.65
1818.67
1816.82
1814.25
1811
1807.03
1802.26
1796.48
1789.38
1780.47
1769.28
1757.11
1743.05
1725.58
1702.34
1669.37
1620.2
1357.17
1384.72
1397.49
1404.8
1409.69
1413.33
1416.2
1418.58
1420.59
1422.32
1423.86
1425.22
1426.45
1427.56
1428.59
1429.54
1430.43
1431.27
1432.08
1432.86
1433.62
1434.39
1435.17
1435.98
1436.87
1437.87
1439.08
1440.63
1442.88
1446.69
1454.58
1474.68
1535.85
1556.02
1564.04
1568.08
1570.7
1572.84
1574.99
1577.67
1581.86
1590.27
1611.53
1676.21
1697.41
1705.67
1709.62
1711.94
1713.55
1714.84
1716.02
1717.27
1718.86
1721.37
1726.43
1739.32
1778.66
1791.46
1796.36
1798.59
1799.8
1800.54
1801.04
1801.41
1801.73
1802.08
1802.6
1803.63
1806.1
1813.06
1835.32
1842.12
1844.25
1844.76
1844.58
1844.02
1843.18
1842.09
1840.74
1839.1
1837.02
1834.21
1829.72
1820.41
1814.73
1809.31
1802.63
1792.88
1775.88
1739.15
1136.27
1073.95
1008.26
939.38
867.541
792.986
715.975
636.778
555.665
472.908
388.773
303.522
217.411
130.69
43.6036
1139.69
1077.23
1011.35
942.258
870.18
795.372
718.098
638.636
557.259
474.243
389.854
304.356
218.002
131.042
43.7208
1146.59
1083.83
1017.57
948.036
875.474
800.15
722.347
642.35
560.444
476.908
392.011
306.017
219.18
131.745
43.9544
1157.05
1093.82
1026.97
956.76
883.449
807.336
728.724
647.917
565.21
480.89
395.231
308.495
220.935
132.792
44.3023
1171.2
1107.32
1039.66
968.495
894.148
816.949
737.232
655.324
571.537
486.167
399.491
311.771
223.253
134.174
44.7614
1189.25
1124.5
1055.74
983.326
907.618
829.005
747.864
664.551
579.397
492.707
404.76
315.815
226.112
135.877
45.3271
1211.46
1145.58
1075.4
1001.36
923.912
843.516
760.601
675.558
588.74
500.458
410.991
320.59
229.483
137.884
45.9932
1238.2
1170.85
1098.83
1022.71
943.072
860.47
775.396
688.282
599.494
509.35
418.119
326.04
233.326
140.169
46.7516
1269.96
1200.67
1126.26
1047.48
965.113
879.816
792.163
702.615
611.552
519.282
426.058
332.098
237.589
142.702
47.5917
1307.39
1235.52
1157.94
1075.76
989.991
901.441
810.75
718.401
624.763
530.119
434.695
338.673
242.21
145.445
48.501
1351.44
1275.97
1194.12
1107.54
1017.56
925.125
830.922
735.412
638.923
541.69
443.889
345.659
247.113
148.352
49.4645
1403.44
1322.68
1234.92
1142.63
1047.47
950.499
852.326
753.337
653.769
553.779
453.472
352.928
252.21
151.372
50.465
1465.36
1376.28
1280.13
1180.47
1079.12
976.983
874.468
771.771
668.98
566.134
463.251
360.338
257.402
154.448
51.484
1540.05
1436.81
1328.75
1219.89
1111.47
1003.75
896.713
790.229
684.185
578.476
473.017
367.74
262.589
157.522
52.5021
1630.41
1502.04
1378.04
1258.76
1143
1029.76
918.318
808.177
698.993
590.516
482.559
374.98
267.668
160.533
53.5
53.641
140.922
228.2
315.481
402.779
490.125
577.578
665.239
753.279
841.988
931.868
1023.82
1119.57
1223.02
1345.03
54.438
143.319
232.215
321.145
410.133
499.226
588.495
678.055
768.096
858.93
951.087
1045.5
1143.85
1249.29
1367.3
55.2292
145.697
236.195
326.748
417.392
508.176
599.174
690.498
782.318
874.903
968.686
1064.38
1163.15
1266.74
1377.09
56.0112
148.047
240.122
332.27
424.528
516.947
609.593
702.556
795.963
889.992
984.901
1081.07
1179.02
1279.42
1382.68
56.7814
150.36
243.987
337.696
431.529
525.53
619.755
714.265
809.13
904.419
1000.19
1096.44
1193.12
1290.04
1386.91
57.538
152.632
247.779
343.018
438.387
533.928
629.683
725.687
821.956
918.46
1015.07
1111.47
1207
1300.61
1391.2
58.2795
154.858
251.495
348.229
445.101
542.147
639.402
736.882
834.57
932.374
1030.05
1127.02
1222.13
1313.21
1397.14
59.0047
157.035
255.128
353.325
451.667
550.191
648.927
747.89
847.055
946.325
1045.44
1143.8
1240
1330.69
1408.38
59.7125
159.16
258.674
358.3
458.08
558.055
658.258
758.713
859.418
960.326
1061.31
1162.03
1261.61
1357.13
1436.18
60.4018
161.229
262.129
363.147
464.332
565.727
667.377
769.32
871.589
974.222
1077.29
1180.97
1285.96
1394.93
1520.11
61.0715
163.24
265.486
367.859
470.41
573.191
676.254
779.654
883.457
987.763
1092.77
1198.95
1307.47
1421.38
1547.95
61.7205
165.189
268.739
372.425
476.302
580.426
684.858
789.663
894.923
1000.76
1107.38
1215.22
1325.16
1438.95
1559.29
62.3477
167.072
271.882
376.837
481.994
587.415
693.164
799.311
905.939
1013.15
1121.09
1229.97
1340.1
1451.89
1565.59
62.9518
168.886
274.91
381.086
487.475
594.142
701.153
808.58
916.496
1024.97
1134.07
1243.77
1353.81
1463.43
1570.96
63.532
170.627
277.817
385.165
492.735
600.595
708.814
817.463
926.61
1036.31
1146.57
1257.25
1367.75
1476.33
1578.57
64.0872
172.294
280.599
389.067
497.766
606.764
716.135
825.951
936.285
1047.2
1158.72
1270.77
1382.94
1493.56
1595.32
64.6168
173.884
283.251
392.787
502.559
612.641
723.106
834.033
945.504
1057.6
1170.43
1284.15
1399.13
1516.85
1644.16
65.1201
175.394
285.771
396.319
507.109
618.215
729.715
841.69
954.23
1067.44
1181.46
1296.56
1413.34
1533.39
1660.67
65.5965
176.824
288.155
399.66
511.41
623.481
735.951
848.906
962.435
1076.65
1191.68
1307.74
1425.2
1544.82
1667.76
66.0459
178.172
290.403
402.808
515.459
628.433
741.809
855.672
970.112
1085.22
1201.11
1317.85
1435.49
1553.85
1672.28
66.468
179.439
292.513
405.761
519.255
633.07
747.287
861.989
977.265
1093.2
1209.87
1327.27
1445.2
1562.74
1677.36
66.863
180.623
294.486
408.52
522.797
637.392
752.385
867.859
983.902
1100.6
1218.05
1336.26
1455.08
1573.57
1687.44
67.2311
181.727
296.322
411.086
526.088
641.401
757.105
873.282
990.024
1107.43
1225.62
1344.75
1465.1
1587.53
1715.95
67.5729
182.751
298.026
413.464
529.132
645.103
761.452
878.263
995.626
1113.65
1232.47
1352.31
1473.58
1597.24
1725.56
67.889
183.698
299.6
415.657
531.936
648.504
765.435
882.809
1000.71
1119.25
1238.54
1358.79
1480.3
1603.63
1729.52
68.1803
184.57
301.048
417.673
534.508
651.616
769.068
886.936
1005.3
1124.25
1243.88
1364.32
1485.69
1608.13
1731.65
68.4481
185.372
302.377
419.521
536.859
654.453
772.366
890.667
1009.43
1128.71
1248.59
1369.11
1490.24
1611.79
1733.28
68.6936
186.106
303.594
421.208
539.002
657.03
775.352
894.029
1013.12
1132.69
1252.79
1373.4
1494.41
1615.39
1735.24
68.9184
186.778
304.705
422.747
540.951
659.366
778.047
897.05
1016.43
1136.25
1256.54
1377.33
1498.52
1619.69
1739.12
69.1242
187.393
305.721
424.15
542.721
661.48
780.475
899.756
1019.38
1139.4
1259.89
1380.9
1502.54
1625.1
1750.01
69.3129
187.956
306.65
425.429
544.331
663.393
782.659
902.174
1021.99
1142.17
1262.79
1383.95
1505.83
1628.8
1753.65
69.4865
188.474
307.502
426.601
545.799
665.129
784.626
904.33
1024.29
1144.57
1265.24
1386.41
1508.28
1631.07
1755.08
69.6473
188.953
308.29
427.68
547.145
666.711
786.404
906.259
1026.31
1146.62
1267.26
1388.33
1509.98
1632.41
1755.7
69.7976
189.4
309.024
428.683
548.392
668.168
788.029
907.998
1028.1
1148.38
1268.9
1389.75
1511.06
1633.04
1755.86
69.9398
189.823
309.717
429.628
549.563
669.53
789.535
909.592
1029.71
1149.92
1270.25
1390.77
1511.59
1632.99
1755.46
70.0765
190.23
310.383
430.535
550.684
670.828
790.965
911.093
1031.21
1151.3
1271.39
1391.49
1511.65
1632.08
1753.71
70.21
190.627
311.033
431.421
551.779
672.097
792.361
912.554
1032.65
1152.63
1272.46
1392.09
1511.43
1630.24
1747.59
70.343
191.022
311.681
432.305
552.875
673.37
793.766
914.034
1034.13
1154.01
1273.6
1392.81
1511.48
1629.34
1745.83
70.4776
191.423
312.34
433.205
553.994
674.678
795.223
915.584
1035.71
1155.52
1274.94
1393.83
1512.02
1629.29
1745.44
70.616
191.836
313.019
434.138
555.161
676.052
796.768
917.256
1037.45
1157.26
1276.58
1395.26
1513.11
1629.93
1745.6
70.7601
192.266
313.729
435.117
556.393
677.516
798.435
919.09
1039.4
1159.28
1278.59
1397.19
1514.85
1631.29
1746.22
70.9113
192.718
314.478
436.154
557.707
679.091
800.251
921.121
1041.62
1161.64
1281.05
1399.7
1517.36
1633.61
1747.66
71.071
193.196
315.271
437.258
559.115
680.793
802.235
923.371
1044.11
1164.36
1283.99
1402.85
1520.77
1637.38
1751.29
71.2396
193.702
316.113
438.435
560.624
682.632
804.4
925.856
1046.91
1167.47
1287.4
1406.59
1525.02
1642.95
1762.06
71.4177
194.237
317.005
439.686
562.238
684.612
806.75
928.583
1050.02
1170.96
1291.27
1410.82
1529.54
1647.65
1766.08
71.6051
194.8
317.947
441.011
563.954
686.73
809.284
931.55
1053.44
1174.85
1295.62
1415.56
1534.45
1652.07
1768.47
71.8012
195.39
318.935
442.406
565.767
688.978
811.991
934.746
1057.16
1179.13
1300.5
1421
1540.19
1657.27
1771.15
72.0051
196.003
319.964
443.862
567.666
691.342
814.852
938.145
1061.16
1183.8
1305.94
1427.31
1547.33
1664.66
1776.08
72.2155
196.637
321.028
445.369
569.635
693.801
817.838
941.711
1065.38
1188.79
1311.88
1434.5
1556.32
1676.11
1788.41
72.4308
197.285
322.118
446.914
571.657
696.33
820.914
945.392
1069.75
1193.98
1318.1
1442.22
1566.67
1692.71
1825.9
72.6493
197.944
323.225
448.485
573.713
698.901
824.041
949.132
1074.18
1199.21
1324.3
1449.67
1575.88
1704.3
1838.28
72.8692
198.606
324.339
450.064
575.78
701.486
827.183
952.88
1078.59
1204.36
1330.28
1456.52
1583.51
1712.02
1843.32
73.0885
199.267
325.449
451.639
577.841
704.06
830.306
956.593
1082.94
1209.39
1335.99
1462.83
1590.04
1717.78
1846.15
73.3052
199.92
326.547
453.195
579.875
706.598
833.38
960.24
1087.2
1214.29
1341.51
1468.86
1596.18
1723.06
1848.66
73.5177
200.56
327.622
454.719
581.865
709.08
836.382
963.796
1091.35
1219.06
1346.93
1474.87
1602.6
1729.21
1852.42
73.7241
201.181
328.666
456.197
583.796
711.484
839.287
967.236
1095.36
1223.7
1352.26
1481.02
1609.78
1737.69
1860.98
73.9228
201.78
329.671
457.619
585.65
713.792
842.074
970.533
1099.21
1228.15
1357.42
1487.13
1617.51
1749.36
1886.3
74.1122
202.35
330.628
458.973
587.416
715.987
844.721
973.659
1102.85
1232.35
1362.26
1492.75
1624.18
1757.47
1894.72
74.291
202.888
331.531
460.25
589.079
718.053
847.208
976.59
1106.25
1236.25
1366.67
1497.68
1629.55
1762.78
1898.14
74.4579
203.39
332.373
461.441
590.63
719.976
849.521
979.309
1109.39
1239.81
1370.65
1501.99
1633.93
1766.59
1900
74.6117
203.853
333.15
462.539
592.058
721.747
851.648
981.805
1112.26
1243.07
1374.26
1505.85
1637.79
1769.84
1901.5
74.7515
204.274
333.855
463.535
593.354
723.354
853.578
984.07
1114.87
1246.03
1377.56
1509.45
1641.53
1773.31
1903.56
74.8763
204.65
334.485
464.425
594.512
724.79
855.303
986.097
1117.22
1248.71
1380.59
1512.88
1645.44
1777.83
1908.01
74.9851
204.977
335.035
465.203
595.525
726.046
856.814
987.875
1119.28
1251.08
1383.32
1516.07
1649.45
1783.83
1920.99
75.0773
205.255
335.501
465.863
596.385
727.116
858.102
989.394
1121.04
1253.11
1385.66
1518.8
1652.72
1787.87
1925.26
75.1521
205.48
335.88
466.4
597.087
727.99
859.158
990.641
1122.49
1254.77
1387.56
1520.95
1655.11
1790.32
1926.9
75.2087
205.651
336.168
466.81
597.626
728.665
859.976
991.61
1123.62
1256.06
1389
1522.52
1656.73
1791.76
1927.63
75.2464
205.765
336.362
467.089
597.995
729.132
860.549
992.295
1124.42
1256.97
1390
1523.58
1657.75
1792.56
1927.96
75.2644
205.82
336.458
467.23
598.19
729.388
860.874
992.694
1124.89
1257.52
1390.6
1524.18
1658.28
1792.91
1928.04
75.2618
205.814
336.452
467.231
598.205
729.427
860.945
992.805
1125.05
1257.71
1390.82
1524.38
1658.41
1792.86
1927.79
75.2378
205.744
336.34
467.084
598.034
729.241
860.757
992.625
1124.88
1257.56
1390.68
1524.23
1658.19
1792.44
1926.7
75.1913
205.606
336.116
466.784
597.668
728.824
860.303
992.149
1124.4
1257.08
1390.2
1523.76
1657.72
1791.96
1926.28
75.1208
205.397
335.775
466.321
597.097
728.163
859.572
991.367
1123.59
1256.26
1389.39
1522.98
1657
1791.39
1926
75.0249
205.112
335.308
465.686
596.311
727.247
858.549
990.266
1122.43
1255.08
1388.21
1521.85
1655.99
1790.61
1925.68
74.9018
204.745
334.708
464.866
595.293
726.057
857.218
988.825
1120.92
1253.53
1386.66
1520.34
1654.59
1789.49
1925.15
74.7493
204.291
333.963
463.848
594.027
724.573
855.553
987.021
1119.02
1251.57
1384.69
1518.38
1652.69
1787.78
1924.13
74.5648
203.742
333.061
462.614
592.489
722.768
853.526
984.823
1116.7
1249.19
1382.29
1515.96
1650.21
1785.14
1921.65
74.3457
203.089
331.988
461.144
590.654
720.612
851.102
982.193
1113.94
1246.36
1379.44
1513.11
1647.21
1781.37
1914.38
74.0888
202.323
330.728
459.415
588.493
718.068
848.237
979.084
1110.67
1243.03
1376.14
1509.91
1644.12
1778.35
1911.76
73.7907
201.434
329.263
457.401
585.971
715.092
844.879
975.434
1106.84
1239.15
1372.35
1506.36
1640.98
1775.85
1910.47
73.4478
200.411
327.575
455.076
583.05
711.634
840.964
971.166
1102.35
1234.61
1367.95
1502.34
1637.62
1773.47
1909.52
73.0567
199.242
325.644
452.409
579.689
707.639
836.419
966.188
1097.1
1229.27
1362.8
1497.68
1633.8
1770.91
1908.59
72.614
197.918
323.452
449.373
575.847
703.049
831.166
960.393
1090.93
1222.97
1356.66
1492.11
1629.26
1767.89
1907.52
72.1168
196.429
320.982
445.94
571.483
697.805
825.119
953.661
1083.69
1215.47
1349.27
1485.31
1623.65
1764.13
1906.19
71.5629
194.769
318.221
442.089
566.563
691.852
818.196
945.872
1075.2
1206.54
1340.3
1476.86
1616.51
1759.24
1904.41
70.9514
192.934
315.161
437.805
561.06
685.147
810.325
936.909
1065.28
1195.9
1329.34
1466.23
1607.19
1752.59
1901.92
70.2826
190.925
311.803
433.086
554.965
677.665
801.457
926.68
1053.77
1183.28
1315.95
1452.72
1594.75
1743.15
1898.12
69.5586
188.747
308.154
427.939
548.284
669.405
791.573
915.131
1040.54
1168.42
1299.66
1435.53
1577.85
1729.11
1891.63
68.7832
186.413
304.235
422.393
541.049
660.401
780.7
902.273
1025.56
1151.2
1280.13
1413.8
1554.7
1707.18
1878.73
67.9625
183.939
300.075
416.488
533.314
650.721
768.921
888.196
1008.93
1131.67
1257.25
1387.03
1523.47
1671.97
1847.73
1722.04
1557.71
1418.77
1291.05
1169.52
1051.87
936.85
823.684
711.862
601.028
490.919
381.341
272.138
163.187
54.38
1750.99
1590.58
1447.92
1316.03
1190.85
1070.08
952.35
836.797
722.832
610.041
498.12
386.838
276.011
165.49
55.144
1763.03
1611.03
1469.5
1336.27
1209.04
1086.1
966.281
848.755
732.941
618.412
504.846
391.994
279.654
167.659
55.8647
1769.07
1624.11
1485.23
1352.25
1224.16
1099.89
978.557
859.471
742.111
626.074
511.044
396.768
283.039
169.68
56.5366
1772.6
1632.86
1496.76
1364.76
1236.56
1111.58
989.209
868.935
750.317
632.999
516.687
401.138
286.149
171.541
57.1561
1774.9
1638.99
1505.34
1374.55
1246.65
1121.37
998.345
877.193
757.573
639.184
521.766
405.094
288.976
173.237
57.7213
1776.51
1643.45
1511.84
1382.25
1254.84
1129.53
1006.11
884.333
763.927
644.655
526.293
408.641
291.52
174.768
58.2321
1777.69
1646.79
1516.85
1388.35
1261.49
1136.31
1012.68
890.46
769.447
649.453
530.293
411.792
293.791
176.137
58.6896
1778.59
1649.34
1520.76
1393.21
1266.91
1141.92
1018.22
895.691
774.211
653.631
533.801
414.571
295.8
177.352
59.0962
1779.28
1651.34
1523.85
1397.12
1271.33
1146.58
1022.87
900.138
778.301
657.249
536.858
417.005
297.567
178.423
59.4549
1779.83
1652.93
1526.33
1400.28
1274.96
1150.44
1026.77
903.907
781.799
660.364
539.507
419.124
299.111
179.361
59.7694
1780.26
1654.19
1528.33
1402.86
1277.94
1153.65
1030.04
907.095
784.78
663.038
541.793
420.961
300.453
180.178
60.0437
1780.61
1655.22
1529.95
1404.97
1280.4
1156.32
1032.78
909.788
787.315
665.324
543.757
422.544
301.614
180.886
60.2816
1780.9
1656.05
1531.27
1406.7
1282.43
1158.54
1035.08
912.06
789.467
667.275
545.439
423.906
302.614
181.497
60.4872
1781.13
1656.73
1532.36
1408.13
1284.12
1160.4
1037.01
913.977
791.291
668.935
546.877
425.074
303.474
182.024
60.6643
1781.32
1657.3
1533.26
1409.31
1285.52
1161.95
1038.63
915.593
792.836
670.347
548.104
426.072
304.211
182.475
60.8164
1781.48
1657.76
1534.01
1410.3
1286.69
1163.24
1039.99
916.958
794.144
671.547
549.149
426.925
304.841
182.862
60.9467
1781.61
1658.15
1534.63
1411.12
1287.67
1164.33
1041.14
918.109
795.252
672.566
550.039
427.652
305.38
183.193
61.0583
1781.72
1658.47
1535.15
1411.8
1288.49
1165.25
1042.11
919.083
796.191
673.432
550.797
428.273
305.84
183.476
61.1538
1781.81
1658.74
1535.58
1412.38
1289.18
1166.02
1042.92
919.909
796.989
674.169
551.444
428.803
306.234
183.718
61.2355
1781.89
1658.97
1535.95
1412.87
1289.77
1166.67
1043.62
920.61
797.669
674.798
551.996
429.257
306.571
183.925
61.3055
1781.95
1659.16
1536.26
1413.28
1290.26
1167.23
1044.21
921.21
798.25
675.336
552.469
429.646
306.86
184.104
61.3658
1782.01
1659.32
1536.52
1413.63
1290.69
1167.71
1044.71
921.724
798.75
675.8
552.878
429.982
307.11
184.258
61.4178
1782.06
1659.47
1536.75
1413.94
1291.05
1168.12
1045.15
922.17
799.183
676.203
553.232
430.274
307.328
184.392
61.4632
1782.1
1659.59
1536.95
1414.21
1291.37
1168.48
1045.54
922.56
799.563
676.556
553.543
430.531
307.519
184.51
61.503
1782.13
1659.7
1537.13
1414.44
1291.66
1168.8
1045.88
922.907
799.901
676.87
553.82
430.759
307.689
184.615
61.5385
1782.17
1659.8
1537.29
1414.65
1291.92
1169.09
1046.19
923.221
800.206
677.154
554.071
430.966
307.843
184.71
61.5706
1782.2
1659.89
1537.44
1414.85
1292.15
1169.36
1046.47
923.511
800.489
677.417
554.303
431.157
307.986
184.798
61.6003
1782.23
1659.98
1537.58
1415.04
1292.38
1169.61
1046.74
923.787
800.758
677.667
554.524
431.339
308.121
184.881
61.6285
1782.26
1660.06
1537.72
1415.23
1292.6
1169.86
1047.01
924.058
801.021
677.911
554.739
431.515
308.253
184.963
61.6559
1782.29
1660.15
1537.86
1415.41
1292.83
1170.11
1047.28
924.331
801.286
678.156
554.954
431.693
308.385
185.044
61.6834
1782.32
1660.24
1538.01
1415.61
1293.07
1170.38
1047.56
924.614
801.56
678.41
555.177
431.876
308.521
185.128
61.7117
1782.35
1660.34
1538.17
1415.83
1293.32
1170.66
1047.86
924.918
801.853
678.68
555.414
432.07
308.665
185.216
61.7416
1782.39
1660.46
1538.35
1416.06
1293.61
1170.98
1048.19
925.25
802.173
678.974
555.671
432.28
308.82
185.312
61.7737
1782.43
1660.58
1538.55
1416.33
1293.93
1171.33
1048.56
925.622
802.529
679.3
555.954
432.511
308.991
185.417
61.8091
1782.48
1660.73
1538.79
1416.65
1294.3
1171.74
1048.99
926.044
802.931
679.667
556.272
432.77
309.182
185.533
61.8484
1782.55
1660.91
1539.07
1417.02
1294.73
1172.21
1049.48
926.529
803.391
680.084
556.633
433.061