/*--------------------------------*- C++ -*----------------------------------*\
| =========                 |                                                 |
| \\      /  F ield         | OpenFOAM: The Open Source CFD Toolbox           |
|  \\    /   O peration     | Version:  5.x                                   |
|   \\  /    A nd           | Web:      www.OpenFOAM.org                      |
|    \\/     M anipulation  |                                                 |
\*---------------------------------------------------------------------------*/
FoamFile
{
    version     2.0;
    format      ascii;
    class       volScalarField;
    location    "2.3";
    object      gradTy;
}
// * * * * * * * * * * * * * * * * * * * * * * * * * * * * * * * * * * * * * //

dimensions      [0 -1 0 1 0 0 0];

internalField   nonuniform List<scalar> 
6300
(
4723.54
12160.2
19565.3
26917.9
34196.6
41379.6
48445.2
55371.1
62135
68715
75089.4
81237.7
87140.8
92782.1
98147.5
15.2585
45.854
76.677
107.848
139.441
171.458
203.807
236.272
268.486
299.92
329.87
357.481
381.795
401.831
416.694
25.3424
76.168
127.403
179.272
231.922
285.387
339.542
394.052
448.332
501.498
552.36
599.438
641.042
675.42
700.953
35.2832
106.067
177.486
249.9
323.571
398.605
474.892
552.032
629.252
705.338
778.587
846.815
907.46
957.792
995.242
45.0037
135.323
226.56
319.253
413.831
510.538
609.353
709.886
811.254
911.954
1009.76
1101.7
1184.11
1252.96
1304.35
54.4088
163.653
274.159
386.699
501.931
620.322
742.047
866.847
993.855
1121.38
1246.73
1366
1474.2
1565.48
1633.94
63.3827
190.709
319.703
451.423
586.833
726.724
871.605
1021.53
1175.85
1332.91
1489.65
1641.28
1781.08
1900.68
1991.09
71.7909
216.082
362.495
512.422
667.206
828.078
996.049
1171.73
1355
1544.63
1737.55
1928.24
2108
2264.91
2385.04
79.4852
239.318
401.746
568.526
741.438
922.264
1112.71
1314.22
1527.7
1752.91
1987.55
2225.98
2457.61
2665.75
2828.42
86.3112
259.94
436.613
618.451
807.697
1006.76
1218.19
1444.64
1688.55
1951.61
2233.61
2530.35
2830.51
3111.85
3339.39
92.1243
277.496
466.282
660.917
864.075
1078.79
1308.57
1557.48
1830.1
2131.23
2464.74
2831.1
3222.01
3611.48
3945.25
96.807
291.615
490.066
694.804
908.824
1135.67
1379.71
1646.47
1943.01
2278.28
2662.84
3107.06
3614.68
4166.5
4687.95
100.288
302.068
507.524
719.355
940.67
1175.27
1428.03
1705.54
2017.06
2375.84
2801.08
3319.38
3962.82
4751.55
5626.84
102.56
308.82
518.569
734.362
959.158
1196.6
1451.47
1730.49
2043.66
2406.78
2846.02
3406.27
4165.36
5249.65
6795.97
103.682
312.061
523.527
740.309
964.924
1200.4
1450.66
1721.15
2020.16
2361.42
2769.7
3294.05
4042.35
5285.32
7824.06
102803
106833
110658
114279
117698
120920
123949
126794
129463
131965
134310
136508
138571
140508
142332
144051
145676
147218
148684
150085
151429
152723
153976
155192
156380
157543
158687
159815
160930
162035
163131
164218
165298
166370
167433
168486
169529
170559
171575
172576
173559
174523
175465
176382
177272
178133
178963
179758
180518
181239
181921
182561
183156
183705
184206
184655
185050
185388
185666
185879
186025
186100
186098
186017
185851
185594
185241
184786
184222
183541
182735
181795
180712
179477
178078
176505
174747
172793
170631
168249
165637
162782
159675
156306
152666
148748
144547
140061
135287
130229
424.946
428.134
426.961
421.555
412.2
399.311
383.387
364.974
344.625
322.869
300.19
277.014
253.705
230.563
207.836
185.72
164.372
143.92
124.472
106.12
88.9543
73.0609
58.5276
45.4416
33.886
23.932
15.629
8.99329
3.99723
0.562352
-1.44085
-2.18427
-1.8647
-0.680185
1.19402
3.62379
6.52353
9.85087
13.5906
17.7322
22.2484
27.0794
32.1292
37.2748
42.3861
47.3504
52.0958
56.606
60.9234
65.1413
69.3872
73.8009
78.5127
83.6256
89.2042
95.2735
101.827
108.845
116.307
124.217
132.611
141.564
151.184
161.605
172.97
185.418
199.069
214.009
230.285
247.903
266.828
286.994
308.31
330.667
353.939
377.977
402.603
427.596
452.673
477.481
501.585
524.462
545.511
564.064
579.419
590.878
597.802
599.665
596.114
587.009
715.097
720.493
718.34
708.875
692.627
670.346
642.936
611.365
576.605
539.572
501.092
461.885
422.554
383.594
345.401
308.29
272.508
238.252
205.688
174.963
146.215
119.588
95.2278
73.2869
53.9154
37.248
23.3853
12.3712
4.17054
-1.34723
-4.41173
-5.33731
-4.48924
-2.23581
1.10201
5.28897
10.1907
15.7621
22.0129
28.9604
36.583
44.7872
53.3988
62.1814
70.8784
79.2662
87.2013
94.6509
101.698
108.526
115.38
122.528
130.217
138.635
147.891
158.015
168.971
180.694
193.125
206.249
220.121
234.869
250.689
267.827
286.546
307.102
329.713
354.536
381.654
411.069
442.715
476.468
512.167
549.629
588.649
628.997
670.395
712.497
754.854
796.895
837.898
876.985
913.128
945.168
971.868
991.984
1004.36
1008.03
1002.33
986.995
1015.91
1023.62
1020.14
1005.86
981.626
948.655
908.359
862.231
811.738
758.234
702.918
646.809
590.745
535.397
481.291
428.833
378.334
330.04
284.152
240.854
200.324
162.752
128.347
97.337
69.9569
46.4324
26.9477
11.6065
0.389651
-6.88011
-10.5532
-11.1351
-9.22843
-5.44425
-0.304453
5.8326
12.8007
20.6017
29.3379
39.1216
49.9841
61.8114
74.3241
87.112
99.7165
111.733
122.905
133.173
142.688
151.769
160.845
170.373
180.767
192.33
205.222
219.45
234.903
251.413
268.832
287.093
306.255
326.514
348.181
371.652
397.354
425.702
457.045
491.63
529.581
570.887
615.427
662.993
713.337
766.193
821.291
878.341
937.007
996.855
1057.31
1117.62
1176.78
1233.55
1286.45
1333.75
1373.59
1404.02
1423.23
1429.65
1422.21
1400.42
1332.56
1342.79
1337.41
1317.07
1283.12
1237.42
1182.09
1119.3
1051.13
979.432
905.813
831.595
757.833
685.344
614.745
546.494
480.931
418.31
358.841
302.715
250.131
201.318
156.545
116.128
80.417
49.7721
24.5178
4.87838
-9.0984
-17.6148
-21.1683
-20.5382
-16.6932
-10.6267
-3.169
5.15735
14.189
24.0717
35.1318
47.706
61.9724
77.8247
94.828
112.281
129.374
145.391
159.881
172.754
184.274
194.992
205.629
216.943
229.602
244.083
260.597
279.087
299.276
320.789
343.29
366.601
390.772
416.089
443.034
472.218
504.307
539.94
579.653
623.821
672.612
725.983
783.707
845.442
910.806
979.44
1051.02
1125.26
1201.8
1280.22
1359.87
1439.85
1518.94
1595.55
1667.66
1732.93
1788.66
1832.05
1860.33
1871.07
1862.55
1833.96
1671.3
1684.3
1676.08
1647.74
1601.41
1539.94
1466.45
1384.03
1295.5
1203.32
1109.5
1015.66
923.025
832.508
744.761
660.235
579.243
502.001
428.68
359.444
294.482
234.042
178.451
128.125
83.5671
45.3371
13.9921
-10.0129
-26.4573
-35.5033
-37.8145
-34.5776
-27.3633
-17.8192
-7.2913
3.4595
14.3444
25.8387
38.7374
53.8458
71.6694
92.1724
114.676
137.959
160.571
181.235
199.176
214.27
227.003
238.321
249.428
261.562
275.804
292.893
313.114
336.261
361.727
388.725
416.56
444.847
473.616
503.296
534.634
568.572
606.126
648.266
695.808
749.309
808.999
874.753
946.149
1022.59
1103.49
1188.36
1276.85
1368.74
1463.8
1561.69
1661.81
1763.23
1864.56
1963.85
2058.58
2145.64
2221.34
2281.66
2322.48
2340.06
2331.6
2295.72
2040.1
2056.22
2043.62
2004.18
1941.4
1859.67
1763.58
1657.46
1545.06
1429.49
1313.17
1197.95
1085.14
975.664
870.122
768.881
672.151
580.047
492.646
410.03
332.34
259.809
192.803
131.849
77.6406
31.0268
-7.06215
-35.7482
-54.4249
-63.0439
-62.4037
-54.2978
-41.3414
-26.3816
-11.6879
1.61519
13.669
25.6297
39.2073
56.1213
77.5542
103.686
133.446
164.651
194.62
221.044
242.617
259.23
271.811
282
291.789
303.192
317.948
337.237
361.462
390.135
422.011
455.496
489.217
522.436
555.18
588.149
622.52
659.745
701.362
748.835
803.397
865.898
936.657
1015.4
1101.31
1193.32
1290.44
1392.01
1497.74
1607.61
1721.67
1839.86
1961.8
2086.65
2212.98
2338.58
2460.43
2574.54
2676.02
2759.18
2817.91
2846.38
2839.94
2796.16
2449.68
2469.33
2449.64
2394.07
2308.52
2199.92
2075.02
1939.78
1799.05
1656.59
1515.15
1376.65
1242.36
1113.07
989.213
870.961
758.336
651.27
549.672
453.485
362.735
277.591
198.419
125.837
60.7637
4.42929
-41.6647
-75.903
-96.8797
-103.921
-97.7457
-81.0051
-58.2069
-34.564
-14.086
1.56558
13.1235
23.0878
34.867
51.8827
76.6647
109.968
150.126
193.111
233.765
267.828
293.189
309.985
320.054
326.242
331.811
339.982
353.548
374.46
403.388
439.382
479.96
521.905
562.573
600.684
636.394
670.951
706.264
744.559
788.127
839.149
899.506
970.538
1052.76
1145.64
1247.6
1356.59
1470.88
1589.55
1712.54
1840.3
1973.45
2112.46
2257.41
2407.77
2562.23
2718.51
2873.17
3021.39
3156.82
3271.58
3356.63
3402.67
3401.78
3349.33
2915.37
2938.92
2907.14
2826.91
2708.66
2563.44
2401.16
2229.81
2055.36
1882.06
1712.71
1549.1
1392.21
1242.51
1100.09
964.805
836.39
714.5
598.8
489.008
384.962
286.684
194.461
108.939
31.231
-36.9814
-93.4027
-135.215
-159.46
-163.887
-148.359
-116.493
-76.3478
-38.2488
-9.59567
7.34829
14.8096
17.8696
22.9233
36.3968
63.4392
106.311
162.664
224.86
282.326
327.07
356.02
370.35
373.81
371.302
368.01
368.926
378.491
400.062
435.056
481.945
535.853
590.064
639.518
682.295
719.173
752.564
785.614
821.672
864.048
915.908
980.12
1058.93
1153.39
1262.64
1383.63
1512.08
1644.81
1780.69
1920.27
2065.01
2216.54
2376.25
2544.95
2722.68
2908.54
3100.44
3294.83
3486.28
3666.98
3826.36
3951.06
4026.12
4037.39
3975.61
3460.73
3487.93
3434.16
3314.25
3147.36
2951.3
2740.17
2524.11
2309.88
2101.68
1901.91
1711.77
1531.63
1361.38
1200.61
1048.7
904.996
768.78
639.387
516.234
398.869
287.052
180.854
80.7936
-11.9626
-95.3539
-166.155
-219.798
-250.549
-252.558
-222.472
-163.876
-91.5187
-28.3101
11.7753
26.8041
22.8519
9.79929
-1.12459
1.39389
27.441
83.2646
166.807
263.433
349.221
409.066
439.913
446.377
436.17
417.504
398.163
385.433
386.164
406.348
449.611
514.411
591.317
665.075
726.079
772.396
806.965
834.661
860.626
889.677
926.302
974.863
1039.69
1124.77
1232.68
1362.69
1508.83
1661.3
1814.11
1966.38
2120.45
2279.78
2447.71
2626.94
2819.31
3025.7
3245.92
3478.53
3720.44
3966.31
4207.53
4430.67
4616.6
4741.01
4777.8
4706.81
4125.46
4153.24
4056.12
3868.98
3627.83
3360.61
3086.06
2815.58
2555.53
2308.99
2077.11
1859.89
1656.68
1466.51
1288.26
1120.73
962.75
813.178
670.949
535.089
404.76
279.315
158.4
42.1297
-68.6352
-171.843
-263.599
-337.324
-383.002
-387.422
-337.616
-231.054
-93.5011
14.9374
69.238
73.6023
44.0102
-1.32329
-44.5156
-67.4758
-51.4212
20.3141
152.119
317.617
453.473
532.817
558.918
546.411
510.713
464.68
418.803
382.562
365.833
379.409
433.155
529.442
651.308
758.442
833.772
879.4
904.638
919.232
931.177
946.757
971.35
1010.37
1070.06
1157.68
1280.11
1439.43
1624.83
1809.94
1984.04
2149.35
2312.92
2481.99
2662.42
2858.52
3073.26
3308.55
3565.21
3842.94
4140
4452.65
4773.7
5088.14
5370.24
5581.6
5672.93
5596.75
4985.75
4998.07
4807.41
4501.17
4145.55
3780.19
3425.81
3091.81
2781.48
2494.98
2231
1987.64
1762.78
1554.34
1360.33
1178.88
1008.28
846.9
693.244
545.899
403.547
264.989
129.203
-4.50755
-136.227
-264.853
-387.028
-495.254
-574.879
-600.385
-534.503
-342.881
-53.5909
136.106
198.568
169.257
87.7977
-15.5641
-117.072
-192.557
-210.494
-129.17
88.8694
414.438
639.047
733.183
733.457
679.787
600.083
511.587
425.521
351.552
301.824
294.583
355.393
507.588
732.45
897.536
984.163
1015.69
1017.56
1007.54
996.419
990.787
995.546
1016.04
1060.15
1140.35
1274.33
1478.49
1741.11
1974.24
2166.44
2334.63
2497.24
2667.6
2854.32
3062.97
3297.37
3560.31
3853.83
4179.15
4536.66
4926.4
5348.86
5791.57
6225.12
6594.36
6808.64
6748.94
6217.74
6134.82
5724.7
5204.11
4676.94
4183.66
3735.93
3333.71
2972.89
2648.33
2355.04
2088.59
1845.11
1621.28
1414.2
1221.34
1040.45
869.441
706.403
549.479
396.845
246.654
97.0133
-54.0088
-208.261
-367.127
-530.513
-694.332
-844.642
-944.9
-912.415
-595.318
129.747
440.491
460.049
340.003
163.128
-32.4641
-227.084
-400.482
-512.476
-475.5
-129.208
656.638
1012.49
1068.69
985.66
850.638
702.109
554.995
414.828
285.653
176.65
111.785
146.052
381.1
899.656
1149.58
1213.87
1194.64
1147.59
1097.41
1053.74
1019.84
997.072
987.7
998.252
1045.55
1167.46
1433.28
1899.75
2197.33
2383.24
2527.76
2670.22
2829.45
3014.44
3230.14
3480.14
3767.79
4096.36
4468.69
4886.49
5352.57
5894.28
6507.59
7171.93
7829.58
8338.21
8403.26
8342.18
7742.21
6800.57
5916.1
5159.13
4521.2
3980.18
3515.73
3111.84
2756.4
2440.23
2156.27
1898.99
1663.94
1447.46
1246.47
1058.26
880.424
710.681
546.82
386.571
227.488
66.7827
-98.8774
-273.656
-462.891
-673.358
-912.835
-1186.44
-1480.52
-1700.12
-1435.21
909.684
1164.14
922.513
592.545
265.383
-50.7787
-367.655
-696.821
-1028.96
-1267.23
-980.245
1517.99
1817.36
1604.61
1312.68
1040.89
802.059
588.375
388.288
190.701
-12.0769
-213.757
-352.404
-153.654
1453.63
1668.89
1563.75
1413.59
1282.04
1177.86
1096.93
1032.82
979.277
930.643
883.417
843.312
853.317
1099.08
2301.41
2581.02
2659.41
2723.61
2818.82
2953.99
3130.1
3347.66
3608.47
3916.08
4275.6
4692.39
5166.4
5669.23
6335.89
7149.35
8127.56
9278.49
10505.6
11267.6
13354
9840.96
7793.56
6444.02
5469.45
4718.81
4113.85
3610.23
3180.76
2807.7
2478.83
2185.35
1920.68
1679.7
1458.29
1253.05
1061.05
879.659
706.414
538.894
374.569
210.615
43.6593
-130.631
-318.24
-528.068
-774.406
-1082.15
-1498.7
-2123.3
-3185.44
-5270.19
4699.77
2602.03
1512.12
840.988
351.763
-68.0802
-490.524
-988.862
-1680.55
-2815.25
-5015.44
5545.6
3359.58
2254.47
1610.61
1183.62
865.757
602.147
358.135
103.227
-202.366
-630.027
-1336.66
-2716.66
4012.01
2649.45
1978.33
1605.67
1376.98
1224.8
1115.82
1030.57
954.385
871.552
758.338
568.943
199.73
-612.581
4031.51
3254.19
2955.74
2874.53
2909.63
3019.3
3185.85
3402.64
3669.17
3989.4
4372.12
4833.47
5404.48
5749.24
6565.26
7552.99
8833.51
10616.7
13341.6
18048.1
124357
117559
110386
102859
95003.8
86847.3
78419
69748.8
60867
51803.8
42588.6
33250.4
23817.4
14317.2
4776.84
570.99
546.175
514.994
478.694
438.63
396.114
352.301
308.123
264.262
221.156
179.03
137.931
97.7682
58.3447
19.3934
959.716
917.276
863.93
801.935
733.715
661.58
587.532
513.151
439.567
367.48
297.226
228.838
162.124
96.7189
32.1441
1360.96
1299.13
1221.37
1131.27
1032.59
928.851
822.997
717.294
613.297
511.913
413.514
318.051
225.163
134.262
44.6111
1780.81
1696.75
1591.01
1469.04
1336.41
1198.11
1058.2
919.636
784.324
653.283
526.806
404.65
286.193
170.546
56.6503
2226.59
2115.89
1976.74
1817.34
1645.75
1468.87
1291.96
1118.63
950.994
790.003
635.699
487.494
344.377
205.062
68.0904
2707.47
2563.3
2382.54
2177.66
1960.24
1739.52
1522.04
1311.83
1110.94
919.957
738.415
565.183
398.713
237.208
78.7311
3235.45
3047.02
2812.2
2550.29
2277.81
2006.75
1744.68
1495.59
1260.9
1040.39
832.746
636.044
448.033
266.297
88.3445
3827.19
3576.72
3268.56
2933.16
2593.66
2264.72
1954.11
1664.74
1396.56
1147.86
916.047
698.143
491.025
291.567
96.6826
4507.11
4163.75
3751.86
3319.85
2898.67
2504.16
2142.09
1812.5
1512.57
1238.3
985.344
749.377
526.297
312.229
103.489
5312.12
4818.92
4254.94
3695.39
3176.74
2710.92
2297.38
1930.4
1602.77
1307.32
1037.54
787.637
552.495
327.528
108.522
6299.18
5544.27
4753.08
4029.57
3401.64
2865.11
2405.86
2008.76
1660.61
1350.54
1069.75
811.046
568.454
336.829
111.579
7549.84
6305.34
5183.07
4267.7
3534.78
2941.72
2451.89
2037.96
1680.21
1364.34
1079.74
818.254
573.383
339.719
112.533
9113.24
6943.53
5405.69
4322.94
3527.7
2914.79
2421.77
2010.76
1657.74
1346.74
1066.51
808.754
567.041
336.094
111.355
10495.2
6949.1
5172.59
4090.24
3337.91
2767.67
2309.39
1925.34
1593.11
1298.22
1030.67
783.124
549.869
326.229
108.137
103.847
312.397
523.538
739.07
960.925
1191.26
1432.6
1688.17
1962.46
2262.53
2600.84
3001.88
3518.13
4270.99
5557.86
103.332
310.69
520.13
733.016
950.67
1174.32
1405.01
1643.42
1889.54
2142.02
2396.61
2641.35
2838.64
2849.44
2091.12
102.328
307.521
514.299
723.609
936.198
1152.43
1371.99
1593.23
1812.1
2019.93
2199.08
2313.65
2288.47
1961.84
1001.99
100.945
303.235
506.68
711.883
919.141
1128.19
1337.73
1544.6
1742.21
1917.62
2046.29
2082.89
1947.5
1513.87
637.896
99.2783
298.129
497.811
698.69
900.792
1103.53
1305.25
1502.33
1687.65
1847.67
1957.34
1971.45
1813.56
1373.01
551.415
97.4019
292.43
488.084
684.607
881.948
1079.54
1275.93
1468.16
1650.55
1812.61
1934.65
1979.33
1875.83
1496.68
660.211
95.3645
286.281
477.724
669.919
862.884
1056.32
1249.44
1440.72
1627.5
1805.24
1965.58
2090.03
2129.42
1937.87
1105.06
93.1916
279.751
466.817
654.657
843.449
1033.27
1224.17
1416.33
1610.63
1809.88
2021.32
2259.7
2543.28
2824.28
2506.31
90.8918
272.854
455.344
638.697
823.251
1009.43
1197.97
1390.39
1590.23
1805.99
2058.23
2397.9
2958.81
4126.53
7167.63
88.4638
265.577
443.248
621.865
801.877
983.91
1169.01
1359.21
1558.69
1776.69
2034.32
2382.34
2952.81
4127.63
7169.58
85.9035
257.9
430.47
604.026
779.055
956.206
1136.47
1321.51
1514.21
1719.8
1947.53
2212.19
2527
2831.94
2515.5
83.2085
249.813
416.985
585.131
754.712
926.286
1100.56
1278.42
1460.7
1647.44
1835.02
2007.1
2107.92
1967.63
1135.3
80.3805
241.321
402.803
565.208
728.941
894.438
1062.12
1232.18
1404.01
1574.43
1733.16
1851.42
1856.17
1583.84
753.828
77.4249
232.442
387.962
544.331
701.903
861.023
1021.95
1184.66
1348.23
1509.46
1659.33
1774.45
1796.77
1587.23
842.914
74.3499
223.202
372.511
522.589
673.751
826.302
980.502
1136.47
1294.01
1452.31
1609.53
1761.85
1898.28
1961.94
1585.79
71.1657
213.632
356.506
500.065
644.594
790.389
937.767
1087.13
1239.18
1395.83
1563.05
1760.21
2050.23
2641.97
4269.85
67.8835
203.768
340.006
476.839
614.522
753.33
893.602
1035.85
1181.08
1331.92
1495.69
1693.97
1992.56
2602.32
4256.06
64.5158
193.645
323.071
452.994
583.629
715.21
848.015
982.421
1119.03
1258.96
1404.27
1557.99
1718.7
1837.56
1543.21
61.0758
183.305
305.768
428.626
552.043
676.194
801.261
927.401
1054.61
1182.19
1306.92
1417.06
1473.79
1359.67
769.228
57.5777
172.79
288.172
403.838
519.908
636.497
753.71
871.579
989.852
1107.31
1219.63
1313.14
1347.42
1212.46
653.545
54.0364
162.144
270.356
378.742
487.373
596.319
705.648
815.413
925.592
1035.91
1145.31
1250.25
1338.5
1359.57
1057.38
50.467
151.414
252.4
353.448
454.582
555.828
657.23
758.898
861.162
965.068
1073.98
1198.86
1376.11
1731.07
2719.84
46.8847
140.646
234.38
328.065
421.676
515.183
608.572
701.903
795.516
890.666
991.482
1110.99
1290.17
1662.27
2691.2
43.3045
129.884
216.374
302.707
388.805
474.574
559.899
644.649
728.729
812.244
895.907
981.559
1070.16
1137.15
959.605
39.741
119.174
198.458
277.484
356.127
434.23
511.571
587.795
662.258
733.635
798.852
849.98
865.028
781.747
437.398
36.2081
108.557
180.703
252.501
323.79
394.373
463.966
532.101
597.855
659.217
711.484
743.35
728.07
607.537
283.504
32.7186
98.072
163.172
227.847
291.911
355.159
417.324
477.998
536.427
591.027
638.184
669.347
664.091
574.549
298.296
29.2845
87.7534
145.922
203.592
260.568
316.658
371.668
425.392
477.585
527.918
575.888
620.516
658.514
671.097
535.469
25.9176
77.6355
129.004
179.799
229.813
278.871
326.859
373.791
419.962
466.363
515.802
576.158
670.43
870.385
1422
22.6301
67.754
112.473
156.53
199.696
241.793
282.741
322.663
362.11
402.61
448.025
508.108
608.77
825.194
1404.81
19.4357
58.1491
96.3921
133.867
170.303
205.486
239.3
271.816
303.461
335.363
369.954
411.742
466.537
527.513
479.503
16.3504
48.868
80.8397
111.915
141.767
170.111
196.733
221.532
244.578
266.176
286.791
306.222
319.857
305.334
186.658
13.3924
39.9661
65.9085
90.8083
114.269
135.919
155.413
172.435
186.654
197.61
204.367
204.619
192.603
155.356
70.5692
10.5822
31.5052
51.7049
70.7037
88.0308
103.221
115.804
125.268
130.965
131.909
126.393
111.439
82.7617
38.2864
-6.44173
7.94201
23.5528
38.3443
51.7708
63.2871
72.3432
78.3668
80.7147
78.561
70.6634
54.9185
27.7061
-16.2175
-78.7268
-123.537
5.49496
16.1795
25.947
34.1843
40.2747
43.5954
43.5042
39.3033
30.1513
14.8555
-8.63345
-44.4942
-102.408
-208.199
-443.505
3.26483
9.457
14.6351
18.1186
19.2223
17.2584
11.5375
1.36747
-13.9634
-35.2483
-63.6122
-101.436
-155.474
-247.979
-458.851
1.27551
3.45766
4.5305
3.74674
0.351944
-6.40895
-17.2732
-32.9201
-53.8859
-80.3881
-112.003
-147.14
-181.921
-205.783
-173.911
-0.449459
-1.74716
-4.24556
-8.75825
-16.113
-27.1449
-42.67
-63.4178
-89.871
-121.89
-157.879
-193.056
-215.973
-202.387
-108.528
-1.88738
-6.08819
-11.5739
-19.2222
-29.9386
-44.6561
-64.3186
-89.8224
-121.858
-160.499
-204.193
-247.386
-275.308
-254.722
-128.722
-3.01731
-9.50089
-17.3409
-27.4733
-40.88
-58.6042
-81.7592
-111.522
-149.076
-195.409
-250.662
-312.141
-368.167
-380.146
-240.149
-3.82131
-11.9293
-21.4456
-33.3521
-48.6965
-68.6252
-94.4271
-127.6
-169.966
-223.872
-292.542
-380.412
-491.35
-610.874
-587.761
-4.28605
-13.331
-23.8094
-36.729
-53.1806
-74.384
-101.758
-137.044
-182.559
-241.765
-320.745
-432.294
-608.182
-940.25
-1735.31
-4.40433
-13.6825
-24.3858
-37.5226
-54.194
-75.6452
-103.341
-139.092
-185.307
-245.544
-325.912
-439.03
-616.036
-947.463
-1738.61
-4.17656
-12.9836
-23.1701
-35.7159
-51.6963
-72.3297
-99.0392
-133.535
-177.929
-234.892
-307.836
-400.841
-516.032
-634.707
-599.496
-3.61162
-11.2606
-20.2041
-31.3644
-45.7566
-64.5296
-89.0087
-120.724
-161.379
-212.626
-275.248
-346.601
-412.915
-428.155
-268.106
-2.72744
-8.56711
-15.5777
-24.5962
-36.547
-52.4802
-73.603
-101.286
-136.978
-181.879
-235.928
-295.098
-344.458
-342.594
-197.56
-1.55097
-4.98465
-9.42857
-15.608
-24.3299
-36.5219
-53.2687
-75.8354
-105.645
-144.132
-192.288
-249.511
-310.576
-355.463
-300.069
-0.118005
-0.621439
-1.93993
-4.66189
-9.44978
-17.0816
-28.5012
-44.8809
-67.7127
-98.9727
-141.501
-200.218
-286.663
-436.447
-779.431
1.52746
4.3891
6.66144
7.91656
7.66548
5.31626
0.113886
-8.95355
-23.3296
-45.2554
-78.5586
-130.524
-217.234
-380.949
-756.76
3.3341
9.89098
16.1089
21.7409
26.5
30.0236
31.8177
31.1589
26.9047
17.0988
-1.74167
-35.5595
-92.7858
-175.856
-223.362
5.24472
15.7098
26.1021
36.3704
46.4523
56.2551
65.6208
74.2586
81.5965
86.4429
86.334
76.6993
50.9128
6.07098
-31.7376
7.19814
21.6585
36.3172
51.3242
66.8525
83.1035
100.31
118.73
138.598
159.911
181.816
201.108
208.871
184.132
90.1607
9.13175
27.5453
46.4206
66.1029
86.9949
109.589
134.516
162.635
195.131
233.595
279.819
334.355
390.233
411.016
272.388
10.9844
33.1826
56.0858
80.2171
106.185
134.735
166.848
203.907
248.005
302.455
372.69
467.393
596.726
749.283
737.023
12.6991
38.3964
65.0109
93.2168
123.79
157.667
196.059
240.673
294.134
360.861
449.182
577.048
787.84
1202.79
2217.43
14.2256
43.0334
72.9329
104.718
139.285
177.688
221.227
271.641
331.456
404.708
498.773
629.733
837.933
1240.88
2232.24
15.5213
46.9656
79.6369
114.417
152.28
194.332
241.851
296.373
359.799
434.471
523.216
629.315
753.46
871.309
785.851
16.5519
50.0907
84.9556
122.088
162.51
207.34
257.795
315.157
380.623
454.759
535.972
616.781
673.865
643.51
372.136
17.2908
52.3305
88.7639
127.571
169.8
216.579
269.091
328.493
395.653
470.364
549.271
621.014
655.301
583.399
287.023
17.719
53.6289
90.9723
130.75
174.028
221.946
275.716
336.57
405.596
483.211
567.7
651.422
710.614
679.28
394.785
17.824
53.9496
91.523
131.551
175.101
223.328
277.502
339.056
409.665
491.361
586.716
698.895
828.775
950.892
853.21
17.6
53.2752
90.3887
129.935
172.966
220.625
274.208
335.298
406.068
490.031
594.028
733.988
952.161
1374.86
2428.46
17.0468
51.6064
87.5726
125.911
167.631
213.821
265.711
324.819
393.295
474.729
576.274
714.588
933.217
1360.13
2422.65
16.1696
48.9595
83.1075
119.533
159.182
203.041
252.172
307.798
371.462
445.349
532.838
639.184
769.275
903.404
833.871
14.9767
45.3631
77.0494
110.902
147.785
188.558
234.065
285.118
342.431
406.373
476.122
547.037
602.188
587.7
354.562
13.4791
40.8522
69.4675
100.137
133.647
170.731
212.027
257.987
308.665
363.184
418.38
465.563
483.149
423.525
205.615
11.6872
35.462
60.4309
87.3617
116.974
149.906
186.653
227.454
272.074
319.322
365.96
404.348
417.415
368.982
190.774
9.61017
29.2217
49.9969
72.6741
97.9311
126.348
158.351
194.125
233.482
275.663
319.002
360.398
394.033
404.211
316.934
7.25327
22.1493
38.2012
56.1371
76.6176
100.202
127.305
158.148
192.735
230.96
273.09
321.479
386.51
506.617
822.216
4.6172
14.2476
25.0522
37.7687
53.0649
71.5076
93.5289
119.398
149.25
183.295
222.508
270.615
340.231
472.522
809.196
1.69715
5.50265
10.5276
17.5398
27.2373
40.2172
56.9419
77.706
102.635
131.786
165.428
204.422
249.915
295.755
274.427
-1.51745
-4.11754
-5.42668
-4.62623
-0.964252
6.21105
17.4093
32.9434
52.8654
76.9017
104.324
133.35
158.916
165.131
105.539
-5.0428
-14.6625
-22.8956
-28.8527
-31.7024
-30.7074
-25.2764
-15.0423
0.0190064
19.4123
41.8122
64.3401
80.9898
79.8524
41.6465
-8.90034
-26.1981
-41.994
-55.3094
-65.2069
-70.8256
-71.4394
-66.5521
-56.0472
-40.4101
-21.0658
-0.90875
15.0934
20.0307
8.92619
-13.1156
-38.8035
-62.8624
-84.2094
-101.776
-114.536
-121.563
-122.131
-115.878
-103.041
-84.7757
-63.5754
-43.4405
-28.9463
-19.272
-17.7166
-52.5666
-85.6596
-115.801
-141.772
-162.34
-176.308
-182.61
-180.476
-169.665
-150.793
-125.803
-98.4028
-74.9552
-67.8453
-22.7308
-67.5751
-110.55
-150.353
-185.602
-214.829
-236.502
-249.104
-251.285
-242.095
-221.321
-190.004
-150.995
-110.145
-80.3964
-28.1814
-83.9058
-137.686
-188.126
-233.691
-272.658
-303.11
-322.977
-330.161
-322.759
-299.408
-259.824
-205.223
-138.135
-58.6302
-34.0825
-101.609
-167.179
-229.343
-286.433
-336.485
-377.17
-405.785
-419.323
-414.667
-388.972
-340.309
-268.409
-175.075
-63.3906
-40.433
-120.692
-199.073
-274.133
-344.13
-406.895
-459.702
-499.174
-521.254
-521.337
-494.656
-437.125
-346.687
-224.964
-78.7585
-47.2105
-141.096
-233.305
-322.485
-406.909
-484.29
-551.576
-604.734
-638.574
-646.72
-621.899
-556.946
-446.838
-291.98
-102.042
-54.3646
-162.678
-269.667
-374.179
-474.63
-568.757
-653.331
-723.788
-773.831
-795.094
-777.118
-708.235
-578.169
-383.438
-135.181
-61.8114
-185.193
-307.77
-428.727
-546.782
-659.909
-764.949
-857.085
-929.149
-970.795
-967.775
-902.091
-754.478
-512.12
-183.692
-69.4293
-208.276
-347.016
-485.314
-622.39
-756.716
-885.573
-1004.37
-1105.65
-1177.57
-1202.01
-1152.89
-996.63
-700.604
-259.266
-77.0578
-231.444
-386.583
-542.77
-699.931
-857.348
-1013.21
-1163.87
-1302.58
-1417.33
-1487.38
-1478.13
-1335.86
-990.014
-388.453
-84.5005
-254.094
-425.434
-599.566
-777.313
-959.076
-1144.48
-1331.69
-1516.17
-1688.16
-1827.82
-1895.76
-1816.47
-1457
-639.405
-91.5329
-275.536
-462.353
-653.861
-851.918
-1058.29
-1274.49
-1501.41
-1738.43
-1981.46
-2218.06
-2415.63
-2491.62
-2242.12
-1210.63
-97.915
-295.026
-496.018
-703.615
-920.754
-1150.68
-1397.07
-1664.11
-1956.53
-2279.19
-2635.37
-3019.91
-3392.76
-3570.24
-2746.95
-103.408
-311.82
-525.097
-746.744
-980.707
-1231.64
-1505.29
-1809.18
-2153.6
-2553.63
-3032.94
-3632.24
-4429.5
-5593.26
-7526.66
7422.47
5524.33
4381.65
3598.49
3009.33
2537.54
2143.17
1802.94
1502.07
1230.46
980.792
747.455
525.945
312.464
103.645
2710.91
3528.71
3358.49
2994.26
2617.37
2267.46
1949.7
1660.96
1396.52
1151.8
922.751
705.84
497.965
296.337
98.3756
1196.39
2218.98
2469.79
2398.62
2206.5
1974.87
1735.93
1501.99
1277.18
1062.17
856.211
657.9
465.613
277.642
92.2597
633.307
1445.05
1804.5
1886.81
1822.91
1687.22
1518.57
1336.57
1150.92
966.193
784.296
605.728
430.23
257.13
85.5388
386.055
985.121
1331.53
1476.39
1489.03
1422.34
1310.36
1173.6
1023.94
868.173
710.011
551.383
393.153
235.553
78.4555
258.944
700.576
998.445
1157.68
1210.15
1188.79
1119.28
1019.48
901.138
771.752
635.997
496.721
355.609
213.611
71.2372
184.772
515.814
761.559
913.016
982.449
988.608
949.16
878.166
785.936
679.697
564.382
443.301
318.656
191.915
64.0839
137.324
390.249
590.096
725.25
798.619
820.021
800.873
751.535
680.406
593.897
496.729
392.323
283.137
170.964
57.1602
104.95
301.517
463.515
580.34
650.819
679.536
673.495
639.981
585.508
515.454
434.07
344.637
249.672
151.132
50.5916
81.8272
236.768
368.272
467.575
531.973
563.139
565.146
542.937
501.387
444.842
376.969
300.768
218.674
132.679
44.4662
64.7496
188.279
295.363
379.016
436.167
466.95
473.572
459.284
427.643
382.066
325.624
260.971
190.369
115.758
38.8373
51.8129
151.198
238.707
308.833
358.642
387.507
396.485
387.65
363.546
326.81
279.96
225.287
164.837
100.433
33.7294
41.8178
122.353
194.105
252.737
295.636
321.846
331.741
326.593
308.195
278.556
239.709
193.599
142.038
86.6997
29.1435
33.9728
99.5998
158.601
207.549
244.197
267.494
277.419
274.716
260.63
236.677
204.485
165.685
121.854
74.5003
25.0631
27.7358
81.4411
130.066
170.89
202.014
222.411
231.848
230.727
219.899
200.505
173.838
141.252
104.109
63.743
21.4597
22.7235
66.8051
106.94
140.956
167.266
184.923
193.595
193.463
185.104
169.371
147.289
119.977
88.5952
54.3134
18.2969
18.6579
54.906
88.0553
116.365
138.516
153.665
161.444
161.901
155.419
142.637
124.364
101.521
75.0902
46.0854
15.5337
15.3326
45.1556
72.5268
96.0456
114.62
127.517
134.37
135.148
130.102
119.709
104.607
85.5517
63.3687
38.9291
13.128
12.5913
37.1058
59.6701
79.1553
94.6613
105.56
111.509
112.433
108.493
100.044
87.5917
71.7504
53.2116
32.7168
11.0377
10.3135
30.409
48.9497
65.0259
77.899
87.0383
92.1342
93.092
90.0115
83.1572
72.9268
59.8202
44.4114
27.3259
9.22239
8.40463
24.7914
39.9401
53.1198
63.7286
71.323
75.6318
76.5546
74.1497
68.6137
60.2587
49.4881
36.775
22.6417
7.64396
6.78928
20.0339
32.2985
43
51.6524
57.8904
61.4818
62.3294
60.4635
56.0291
49.269
40.506
30.1254
18.5582
6.26717
5.40623
15.9581
25.7441
34.3055
41.2557
46.2989
49.2409
49.9921
48.5645
45.0627
39.673
32.6496
24.3015
14.9786
5.0597
4.20482
12.416
20.0431
26.734
32.1883
36.1722
38.5271
39.174
38.1117
35.4129
31.2164
25.7173
19.1575
11.8147
3.9921
3.14217
9.2822
14.9968
20.0271
24.1491
27.1846
29.0081
29.5513
28.8038
26.8112
23.6712
19.5272
14.5615
8.9867
3.03763
2.18099
6.4475
10.4316
13.9587
16.8739
19.0493
20.3896
20.8366
20.3717
19.0168
16.8324
13.9155
10.3942
6.42215
2.17202
1.28772
3.8136
6.19147
8.32541
10.1247
11.5076
12.406
12.7699
12.5722
11.8117
10.5143
8.73336
6.54718
4.05526
1.37323
0.430888
1.2884
2.13021
2.93713
3.6798
4.31944
4.81152
5.11152
5.18147
4.99594
4.54661
3.84479
2.92162
1.82606
0.62114
-0.420505
-1.21861
-1.8951
-2.39097
-2.6749
-2.74541
-2.62742
-2.36466
-2.0101
-1.61636
-1.22784
-0.87524
-0.573118
-0.320268
-0.102572
-1.29866
-3.80113
-6.0315
-7.84726
-9.1551
-9.91584
-10.1401
-9.87756
-9.2027
-8.20079
-6.95594
-5.54249
-4.02029
-2.43386
-0.81464
-2.239
-6.56172
-10.4384
-13.6332
-15.9877
-17.4282
-17.9587
-17.6444
-16.5912
-14.9252
-12.7759
-10.2643
-7.49634
-4.56038
-1.53024
-3.28268
-9.61881
-15.2977
-19.9747
-23.4219
-25.5358
-26.3253