/*--------------------------------*- C++ -*----------------------------------*\
| =========                 |                                                 |
| \\      /  F ield         | OpenFOAM: The Open Source CFD Toolbox           |
|  \\    /   O peration     | Version:  5.x                                   |
|   \\  /    A nd           | Web:      www.OpenFOAM.org                      |
|    \\/     M anipulation  |                                                 |
\*---------------------------------------------------------------------------*/
FoamFile
{
    version     2.0;
    format      ascii;
    class       volScalarField;
    location    "2.3";
    object      T;
}
// * * * * * * * * * * * * * * * * * * * * * * * * * * * * * * * * * * * * * //

dimensions      [0 0 0 1 0 0 0];

internalField   nonuniform List<scalar> 
6300
(
47.1844
121.448
195.397
268.819
341.5
413.225
483.773
552.923
620.456
686.152
749.797
811.189
870.14
926.487
980.092
47.2863
121.755
195.909
269.539
342.431
414.368
485.131
554.498
622.244
688.148
751.991
813.565
872.676
929.154
982.857
47.4896
122.365
196.931
270.976
344.289
416.654
487.849
557.649
625.826
692.15
756.394
818.339
877.776
934.524
988.426
47.7932
123.278
198.457
273.125
347.069
420.076
491.922
562.379
631.211
698.178
763.038
825.554
885.497
942.663
996.876
48.1953
124.487
200.48
275.974
350.761
424.626
497.347
568.69
638.411
706.257
771.966
835.275
895.926
953.679
1008.33
48.6932
125.984
202.988
279.51
355.346
430.287
504.109
576.577
647.436
716.417
783.233
847.587
909.179
967.722
1022.96
49.2834
127.76
205.964
283.708
360.799
437.032
512.187
586.026
658.288
728.685
796.901
862.595
925.409
984.989
1041.01
49.9609
129.799
209.382
288.538
367.083
444.821
521.541
597.007
670.953
743.075
813.026
880.413
944.801
1005.74
1062.79
50.7193
132.082
213.214
293.957
374.143
453.594
532.108
609.461
685.388
759.577
831.652
901.16
967.57
1030.29
1088.71
51.5506
134.585
217.417
299.909
381.911
463.267
543.796
623.292
701.507
778.133
852.777
924.933
993.953
1059.05
1119.35
52.4455
137.28
221.946
306.326
390.297
473.729
556.472
638.354
719.159
798.61
876.324
951.767
1024.18
1092.52
1155.5
53.3931
140.135
226.743
313.127
399.193
484.842
569.967
654.441
738.109
820.758
902.072
981.555
1058.39
1131.28
1198.26
54.3816
143.113
231.747
320.222
408.474
496.442
584.067
671.283
758.02
844.175
929.581
1013.91
1096.47
1175.85
1249.26
55.3989
146.176
236.894
327.514
418.006
508.348
598.528
688.552
778.45
868.275
958.094
1047.94
1137.65
1226.31
1310.8
56.4328
149.289
242.119
334.909
427.657
520.374
613.096
705.893
798.893
892.311
986.501
1082.03
1179.78
1280.85
1385.18
1026.62
1066.91
1105.17
1141.39
1175.62
1207.87
1238.22
1266.73
1293.48
1318.57
1342.1
1364.16
1384.86
1404.32
1422.62
1439.89
1456.21
1471.69
1486.43
1500.5
1513.99
1526.99
1539.56
1551.77
1563.68
1575.35
1586.82
1598.12
1609.29
1620.35
1631.31
1642.19
1652.99
1663.7
1674.32
1684.85
1695.26
1705.56
1715.71
1725.7
1735.52
1745.14
1754.54
1763.69
1772.58
1781.17
1789.45
1797.39
1804.98
1812.18
1818.98
1825.36
1831.3
1836.77
1841.76
1846.23
1850.16
1853.52
1856.27
1858.38
1859.81
1860.53
1860.48
1859.63
1857.93
1855.32
1851.75
1847.14
1841.45
1834.58
1826.45
1816.99
1806.09
1793.66
1779.6
1763.79
1746.13
1726.51
1704.8
1680.9
1654.7
1626.08
1594.94
1561.18
1524.73
1485.52
1443.49
1398.62
1350.9
1300.35
1029.44
1069.75
1108
1144.19
1178.35
1210.52
1240.77
1269.15
1295.77
1320.72
1344.1
1366
1386.55
1405.85
1424.01
1441.13
1457.31
1472.66
1487.26
1501.21
1514.59
1527.48
1539.95
1552.08
1563.91
1575.51
1586.92
1598.18
1609.32
1620.35
1631.3
1642.18
1652.98
1663.7
1674.33
1684.87
1695.31
1705.62
1715.8
1725.82
1735.67
1745.32
1754.75
1763.94
1772.86
1781.49
1789.8
1797.77
1805.38
1812.61
1819.44
1825.85
1831.82
1837.33
1842.36
1846.87
1850.84
1854.25
1857.05
1859.21
1860.7
1861.47
1861.49
1860.71
1859.08
1856.56
1853.08
1848.58
1842.99
1836.23
1828.24
1818.91
1808.15
1795.87
1781.96
1766.31
1748.82
1729.36
1707.82
1684.08
1658.04
1629.57
1598.57
1564.93
1528.58
1489.44
1447.46
1402.6
1354.85
1304.24
1035.12
1075.47
1113.71
1149.83
1183.86
1215.86
1245.89
1274.03
1300.37
1325.03
1348.1
1369.7
1389.94
1408.93
1426.78
1443.6
1459.5
1474.57
1488.92
1502.62
1515.77
1528.45
1540.73
1552.68
1564.36
1575.83
1587.13
1598.3
1609.37
1620.36
1631.28
1642.15
1652.95
1663.69
1674.35
1684.92
1695.39
1705.75
1715.98
1726.06
1735.97
1745.68
1755.18
1764.44
1773.43
1782.12
1790.5
1798.53
1806.19
1813.48
1820.37
1826.84
1832.87
1838.45
1843.55
1848.14
1852.2
1855.7
1858.6
1860.86
1862.46
1863.36
1863.5
1862.86
1861.39
1859.03
1855.73
1851.43
1846.05
1839.54
1831.79
1822.73
1812.26
1800.28
1786.68
1771.35
1754.18
1735.06
1713.86
1690.45
1664.73
1636.57
1605.85
1572.46
1536.32
1497.33
1455.44
1410.61
1362.82
1312.09
1043.75
1084.16
1122.37
1158.37
1192.21
1223.93
1253.62
1281.38
1307.31
1331.51
1354.12
1375.24
1395
1413.53
1430.92
1447.29
1462.76
1477.42
1491.37
1504.71
1517.51
1529.87
1541.86
1553.54
1564.99
1576.26
1587.39
1598.43
1609.4
1620.33
1631.22
1642.07
1652.89
1663.65
1674.35
1684.98
1695.51
1705.94
1716.24
1726.4
1736.4
1746.22
1755.82
1765.19
1774.28
1783.07
1791.54
1799.66
1807.41
1814.78
1821.75
1828.3
1834.43
1840.1
1845.31
1850.03
1854.22
1857.86
1860.91
1863.33
1865.1
1866.17
1866.5
1866.07
1864.81
1862.7
1859.67
1855.67
1850.62
1844.46
1837.09
1828.44
1818.39
1806.86
1793.73
1778.89
1762.22
1743.61
1722.92
1700.02
1674.8
1647.11
1616.83
1583.84
1548.02
1509.28
1467.54
1422.76
1374.9
1323.98
1055.44
1095.95
1134.11
1169.94
1203.49
1234.83
1264.05
1291.27
1316.61
1340.19
1362.16
1382.63
1401.75
1419.63
1436.41
1452.18
1467.07
1481.17
1494.6
1507.44
1519.78
1531.7
1543.3
1554.63
1565.76
1576.76
1587.67
1598.53
1609.37
1620.22
1631.07
1641.92
1652.76
1663.58
1674.34
1685.04
1695.65
1706.16
1716.57
1726.84
1736.97
1746.92
1756.67
1766.18
1775.42
1784.36
1792.95
1801.19
1809.05
1816.52
1823.58
1830.24
1836.48
1842.29
1847.65
1852.53
1856.9
1860.73
1863.97
1866.61
1868.59
1869.89
1870.47
1870.3
1869.33
1867.54
1864.87
1861.26
1856.64
1850.95
1844.1
1835.99
1826.53
1815.6
1803.1
1788.92
1772.92
1755
1735
1712.81
1688.27
1661.24
1631.58
1599.14
1563.79
1525.42
1483.91
1439.2
1391.26
1340.09
1070.4
1111.02
1149.12
1184.71
1217.87
1248.68
1277.27
1303.77
1328.33
1351.1
1372.23
1391.87
1410.16
1427.23
1443.21
1458.22
1472.38
1485.79
1498.55
1510.76
1522.51
1533.9
1544.99
1555.87
1566.6
1577.25
1587.88
1598.53
1609.22
1619.97
1630.79
1641.66
1652.55
1663.44
1674.29
1685.08
1695.8
1706.42
1716.94
1727.35
1737.64
1747.77
1757.72
1767.43
1776.87
1785.98
1794.74
1803.12
1811.1
1818.68
1825.86
1832.64
1839.02
1844.99
1850.53
1855.61
1860.21
1864.28
1867.78
1870.67
1872.91
1874.49
1875.36
1875.51
1874.9
1873.5
1871.26
1868.14
1864.07
1858.98
1852.77
1845.35
1836.61
1826.45
1814.75
1801.4
1786.26
1769.21
1750.11
1728.82
1705.18
1679.02
1650.18
1618.5
1583.79
1545.92
1504.75
1460.18
1412.15
1360.66
1088.87
1129.63
1167.63
1202.9
1235.52
1265.63
1293.38
1318.95
1342.52
1364.26
1384.35
1402.95
1420.21
1436.28
1451.3
1465.38
1478.65
1491.21
1503.17
1514.63
1525.67
1536.38
1546.86
1557.19
1567.43
1577.66
1587.95
1598.33
1608.85
1619.51
1630.31
1641.23
1652.22
1663.22
1674.19
1685.11
1695.94
1706.68
1717.34
1727.92
1738.4
1748.76
1758.96
1768.94
1778.63
1787.98
1796.94
1805.48
1813.59
1821.28
1828.57
1835.47
1842
1848.15
1853.91
1859.25
1864.13
1868.5
1872.3
1875.5
1878.06
1879.95
1881.16
1881.67
1881.46
1880.51
1878.78
1876.24
1872.82
1868.45
1863.02
1856.44
1848.6
1839.37
1828.64
1816.29
1802.2
1786.23
1768.24
1748.07
1725.56
1700.52
1672.75
1642.05
1608.22
1571.05
1530.36
1486
1437.89
1386.01
1111.2
1152.14
1189.99
1224.79
1256.7
1285.87
1312.54
1336.92
1359.23
1379.69
1398.5
1415.83
1431.86
1446.75
1460.62
1473.6
1485.82
1497.39
1508.4
1518.96
1529.16
1539.09
1548.84
1558.5
1568.15
1577.87
1587.74
1597.81
1608.13
1618.71
1629.54
1640.57
1651.73
1662.91
1674.06
1685.11
1696.07
1706.93
1717.73
1728.48
1739.19
1749.85
1760.39
1770.72
1780.76
1790.4
1799.59
1808.3
1816.54
1824.32
1831.7
1838.7
1845.38
1851.73
1857.76
1863.41
1868.65
1873.39
1877.56
1881.11
1884.02
1886.25
1887.81
1888.71
1888.93
1888.48
1887.33
1885.46
1882.8
1879.28
1874.79
1869.21
1862.42
1854.29
1844.71
1833.55
1820.69
1806.01
1789.35
1770.55
1749.43
1725.79
1699.39
1669.99
1637.31
1601.11
1561.11
1517.11
1468.95
1416.58
1137.86
1179.02
1216.62
1250.78
1281.69
1309.63
1334.88
1357.75
1378.5
1397.39
1414.65
1430.48
1445.06
1458.55
1471.08
1482.8
1493.82
1504.24
1514.17
1523.69
1532.92
1541.94
1550.83
1559.71
1568.65
1577.75
1587.11
1596.81
1606.91
1617.43
1628.36
1639.61
1651.05
1662.53
1673.91
1685.14
1696.2
1707.14
1718.04
1728.95
1739.93
1750.96
1761.96
1772.8
1783.31
1793.34
1802.8
1811.67
1819.99
1827.81
1835.21
1842.27
1849.07
1855.64
1861.98
1868.04
1873.73
1878.94
1883.56
1887.52
1890.79
1893.37
1895.28
1896.56
1897.22
1897.29
1896.77
1895.65
1893.88
1891.36
1887.98
1883.57
1878.01
1871.16
1862.89
1853.1
1841.67
1828.48
1813.39
1796.23
1776.8
1754.89
1730.21
1702.48
1671.36
1636.48
1597.49
1554.06
1505.93
1453
1169.51
1210.92
1248.13
1281.33
1310.87
1337.14
1360.56
1381.51
1400.34
1417.33
1432.75
1446.81
1459.71
1471.6
1482.62
1492.9
1502.55
1511.68
1520.38
1528.74
1536.86
1544.83
1552.73
1560.68
1568.78
1577.14
1585.87
1595.11
1604.94
1615.44
1626.58
1638.24
1650.2
1662.15
1673.86
1685.26
1696.37
1707.29
1718.18
1729.2
1740.46
1751.97
1763.64
1775.22
1786.41
1796.94
1806.71
1815.71
1824.01
1831.75
1839.06
1846.08
1852.95
1859.73
1866.46
1873.05
1879.37
1885.19
1890.35
1894.76
1898.4
1901.3
1903.53
1905.14
1906.21
1906.79
1906.93
1906.64
1905.87
1904.54
1902.46
1899.45
1895.32
1889.9
1883.11
1874.85
1865.02
1853.53
1840.25
1825.01
1807.61
1787.8
1765.29
1739.71
1710.65
1677.63
1640.13
1597.63
1549.7
1496.1
1207.08
1248.78
1285.31
1317.06
1344.64
1368.65
1389.69
1408.23
1424.7
1439.43
1452.69
1464.72
1475.69
1485.77
1495.1
1503.78
1511.92
1519.61
1526.95
1534.02
1540.9
1547.68
1554.45
1561.32
1568.41
1575.85
1583.79
1592.42
1601.9
1612.38
1623.91
1636.33
1649.22
1661.96
1674.15
1685.67
1696.66
1707.34
1718.02
1728.98
1740.48
1752.63
1765.3
1778.07
1790.29
1801.52
1811.6
1820.6
1828.71
1836.16
1843.17
1849.98
1856.79
1863.77
1870.97
1878.33
1885.56
1892.24
1898.08
1902.96
1906.93
1910.06
1912.5
1914.35
1915.74
1916.79
1917.57
1918.15
1918.53
1918.62
1918.15
1916.8
1914.3
1910.49
1905.3
1898.69
1890.62
1881.02
1869.77
1856.74
1841.72
1824.46
1804.62
1781.81
1755.51
1725.09
1689.82
1648.88
1601.49
1547.13
1252.02
1293.99
1329.25
1358.71
1383.43
1404.35
1422.28
1437.82
1451.45
1463.51
1474.29
1484.01
1492.84
1500.93
1508.38
1515.31
1521.81
1527.94
1533.8
1539.44
1544.96
1550.41
1555.9
1561.52
1567.41
1573.7
1580.6
1588.36
1597.28
1607.69
1619.82
1633.62
1648.33
1662.45
1675.25
1686.73
1697.25
1707.26
1717.29
1727.86
1739.43
1752.38
1766.68
1781.57
1795.48
1807.6
1817.89
1826.64
1834.23
1841.04
1847.43
1853.73
1860.26
1867.32
1875.12
1883.64
1892.39
1900.36
1907.03
1912.35
1916.49
1919.69
1922.15
1924.07
1925.64
1927
1928.33
1929.79
1931.48
1933.32
1934.96
1935.65
1935
1932.89
1929.37
1924.49
1918.27
1910.7
1901.71
1891.18
1878.91
1864.66
1848.09
1828.76
1806.13
1779.4
1747.53
1709.26
1663.15
1608.03
1306.79
1348.74
1381.46
1407.09
1427.55
1444.26
1458.2
1470.07
1480.33
1489.33
1497.31
1504.47
1510.95
1516.86
1522.3
1527.36
1532.08
1536.55
1540.82
1544.94
1548.97
1552.98
1557.03
1561.23
1565.68
1570.55
1576.05
1582.51
1590.4
1600.37
1613.22
1629.48
1648.15
1664.68
1678.12
1689.06
1698.41
1707.03
1715.67
1725.13
1736.27
1750.04
1767.08
1786.36
1803.07
1816.18
1826.27
1834.2
1840.71
1846.39
1851.68
1857.01
1862.83
1869.66
1878.08
1888.48
1900.21
1910.19
1917.76
1923.28
1927.28
1930.22
1932.43
1934.17
1935.66
1937.11
1938.77
1940.96
1944.02
1948.19
1952.97
1956.29
1957.62
1957.18
1955.24
1952.05
1947.71
1942.28
1935.72
1927.95
1918.8
1908.04
1895.35
1880.33
1862.48
1840.93
1814.33
1780.76
1737.66
1682.11
1376.37
1416.68
1443.75
1462.79
1476.96
1488.03
1497
1504.5
1510.91
1516.48
1521.39
1525.78
1529.74
1533.35
1536.67
1539.74
1542.61
1545.33
1547.93
1550.43
1552.89
1555.35
1557.84
1560.44
1563.24
1566.36
1569.99
1574.47
1580.39
1588.79
1601.58
1621.72
1650.92
1671.25
1684.45
1693.53
1700.51
1706.61
1712.75
1719.85
1729.18
1742.87
1764.1
1794.71
1815.73
1828.97
1837.61
1843.65
1848.27
1852.14
1855.73
1859.45
1863.8
1869.56
1878.04
1891.26
1910.39
1923.35
1931.3
1936.24
1939.45
1941.64
1943.22
1944.47
1945.58
1946.75
1948.3
1950.7
1954.82
1961.99
1972.96
1979.6
1982.66
1983.45
1982.78
1981.08
1978.56
1975.31
1971.32
1966.53
1960.84
1954.03
1945.82
1935.82
1924.01
1909.55
1890.97
1865.85
1829.92
1776.1
1473.63
1503.58
1517.47
1525.41
1530.73
1534.68
1537.81
1540.38
1542.56
1544.45
1546.11
1547.59
1548.93
1550.14
1551.25
1552.28
1553.25
1554.16
1555.03
1555.87
1556.7
1557.53
1558.37
1559.25
1560.21
1561.29
1562.58
1564.25
1566.67
1570.76
1579.22
1600.77
1666.34
1687.97
1696.57
1700.91
1703.72
1706.01
1708.32
1711.19
1715.69
1724.7
1747.47
1816.72
1839.42
1848.28
1852.52
1855.02
1856.76
1858.16
1859.45
1860.83
1862.59
1865.38
1871.03
1885.41
1929.28
1943.57
1949.04
1951.55
1952.92
1953.77
1954.36
1954.82
1955.24
1955.72
1956.44
1957.82
1961.09
1970.17
1999
2007.91
2010.81
2011.65
2011.62
2011.12
2010.31
2009.23
2007.89
2006.27
2004.31
2001.89
1998.68
1993.72
1989.2
1983.91
1976.88
1966.33
1947.77
1907.46
1241.68
1173.78
1102.15
1027
948.579
867.155
783.016
696.46
607.788
517.299
425.288
332.043
237.847
142.977
47.7035
1245.47
1177.41
1105.57
1030.18
951.497
869.792
785.364
698.515
609.552
518.776
426.484
332.965
238.501
143.367
47.8332
1253.1
1184.7
1112.45
1036.57
957.351
875.077
790.062
702.623
613.074
521.722
428.869
334.802
239.803
144.144
48.0914
1264.66
1195.75
1122.85
1046.22
966.172
883.024
797.114
708.778
618.343
526.125
432.428
337.541
241.743
145.301
48.4761
1280.32
1210.68
1136.88
1059.2
978.003
893.654
806.522
716.969
625.34
531.961
437.139
341.163
244.306
146.829
48.9836
1300.28
1229.69
1154.67
1075.6
992.9
906.986
818.278
727.171
634.03
539.191
442.964
345.634
247.467
148.712
49.6091
1324.85
1253
1176.41
1095.55
1010.92
923.031
832.361
739.341
644.359
547.761
449.853
350.913
251.193
150.93
50.3454
1354.43
1280.95
1202.32
1119.16
1032.1
941.777
848.719
753.407
656.248
557.59
457.733
356.938
255.441
153.456
51.1837
1389.56
1313.94
1232.66
1146.55
1056.47
963.166
867.255
769.253
669.578
568.569
466.508
363.633
260.154
156.256
52.1123
1430.97
1352.49
1267.69
1177.82
1083.98
987.071
887.801
786.702
684.179
580.547
476.054
370.901
265.262
159.288
53.1173
1479.7
1397.22
1307.69
1212.95
1114.45
1013.25
910.097
805.503
699.829
593.335
486.215
378.621
270.68
162.501
54.1821
1537.22
1448.87
1352.79
1251.73
1147.51
1041.29
933.749
825.31
716.235
606.694
496.804
386.654
276.312
165.838
55.2878
1605.68
1508.1
1402.75
1293.54
1182.48
1070.55
958.214
845.678
733.041
620.345
507.609
394.842
282.049
169.237
56.4137
1688.21
1574.97
1456.45
1337.08
1218.21
1100.12
982.787
866.069
749.839
633.981
518.399
403.019
287.779
172.632
57.5384
1787.95
1646.97
1510.87
1380
1253.03
1128.85
1006.65
885.893
766.196
647.28
528.94
411.017
293.39
175.959
58.6408
57.3859
152.157
246.927
341.703
436.501
531.357
626.337
721.552
817.19
913.57
1011.24
1111.17
1215.27
1327.75
1460.44
58.2502
154.756
251.281
347.844
444.476
541.227
638.176
735.453
833.264
931.952
1032.1
1134.71
1241.64
1356.29
1484.65
59.1081
157.335
255.596
353.919
452.345
550.929
649.754
748.942
848.682
949.271
1051.18
1155.2
1262.58
1375.24
1495.29
59.9557
159.882
259.853
359.905
460.08
560.434
661.043
762.006
863.465
965.618
1068.75
1173.27
1279.78
1388.99
1501.35
60.7905
162.389
264.04
365.784
467.664
569.732
672.049
774.685
877.719
981.231
1085.29
1189.91
1295.04
1400.48
1505.92
61.6103
164.851
268.15
371.549
475.093
578.827
682.797
787.045
891.593
996.412
1101.37
1206.13
1310.01
1411.88
1510.54
62.4138
167.263
272.175
377.194
482.363
587.725
693.315
799.155
905.228
1011.44
1117.53
1222.9
1326.3
1425.42
1516.92
63.1997
169.622
276.112
382.715
489.474
596.432
703.621
811.057
918.718
1026.5
1134.13
1240.97
1345.5
1444.17
1528.96
63.967
171.925
279.955
388.105
496.421
604.946
713.718
822.76
932.072
1041.61
1151.22
1260.56
1368.69
1472.49
1558.69
64.7146
174.169
283.701
393.36
503.195
613.256
723.587
834.23
945.222
1056.6
1168.43
1280.93
1394.81
1512.95
1648.42
65.4414
176.351
287.343
398.47
509.786
621.344
733.201
845.414
958.05
1071.22
1185.13
1300.27
1417.9
1541.29
1678.19
66.1463
178.468
290.875
403.427
516.179
629.193
742.528
856.256
970.459
1085.26
1200.89
1317.8
1436.93
1560.15
1690.34
66.8282
180.515
294.293
408.222
522.364
636.783
751.544
866.72
982.396
1098.67
1215.71
1333.72
1453.04
1574.08
1697.11
67.486
182.49
297.589
412.847
528.328
644.1
760.23
876.792
993.859
1111.5
1229.78
1348.66
1467.87
1586.54
1702.91
68.1186
184.389
300.759
417.294
534.063
651.133
768.576
886.465
1004.87
1123.83
1243.36
1363.29
1482.98
1600.53
1711.16
68.7252
186.21
303.797
421.557
539.558
657.872
776.572
895.733
1015.43
1135.71
1256.6
1378.02
1499.5
1619.24
1729.34
69.3047
187.95
306.7
425.628
544.806
664.306
784.206
904.584
1025.52
1147.1
1269.42
1392.63
1517.15
1644.57
1782.32
69.8566
189.606
309.464
429.504
549.8
670.427
791.465
912.997
1035.11
1157.91
1281.53
1406.26
1532.71
1662.62
1800.27
70.38
191.177
312.085
433.178
554.533
676.226
798.339
920.957
1044.17
1168.08
1292.82
1418.6
1545.8
1675.19
1808.04
70.8745
192.661
314.56
436.648
559
681.697
804.82
928.454
1052.69
1177.61
1303.32
1429.87
1557.28
1685.28
1813.09
71.3396
194.057
316.888
439.909
563.198
686.835
810.901
935.484
1060.67
1186.53
1313.15
1440.48
1568.26
1695.4
1818.93
71.7751
195.363
319.066
442.96
567.123
691.636
816.581
942.044
1068.11
1194.88
1322.4
1450.71
1579.58
1707.94
1830.71
72.1807
196.58
321.094
445.8
570.774
696.098
821.855
948.132
1075.02
1202.62
1331.05
1460.46
1591.19
1724.25
1864.26
72.5565
197.708
322.973
448.428
574.151
700.222
826.723
953.742
1081.37
1209.72
1338.93
1469.23
1601.09
1735.64
1875.57
72.9025
198.745
324.701
450.845
577.254
704.008
831.187
958.876
1087.17
1216.16
1345.98
1476.82
1609.03
1743.2
1880.26
73.2189
199.694
326.28
453.053
580.087
707.459
835.25
963.539
1092.41
1221.95
1352.24
1483.39
1615.5
1748.67
1882.86
73.506
200.554
327.712
455.053
582.651
710.581
838.92
967.744
1097.13
1227.14
1357.84
1489.21
1621.16
1753.33
1884.98
73.7642
201.328
329
456.85
584.952
713.379
842.205
971.506
1101.35
1231.8
1362.88
1494.55
1626.57
1758.25
1887.83
73.994
202.017
330.144
458.446
586.994
715.858
845.114
974.834
1105.09
1235.94
1367.43
1499.55
1632.14
1764.51
1893.91
74.1961
202.622
331.15
459.847
588.782
718.026
847.653
977.736
1108.35
1239.57
1371.48
1504.15
1637.75
1772.75
1911.53
74.3712
203.146
332.019
461.055
590.322
719.888
849.826
980.212
1111.12
1242.65
1374.9
1508.02
1642.28
1778.27
1917.32
74.5201
203.591
332.756
462.078
591.62
721.451
851.641
982.266
1113.41
1245.16
1377.64
1511.01
1645.52
1781.54
1919.52
74.6437
203.961
333.366
462.921
592.685
722.724
853.105
983.904
1115.2
1247.09
1379.68
1513.13
1647.61
1783.36
1920.43
74.7433
204.257
333.855
463.591
593.525
723.716
854.231
985.14
1116.52
1248.45
1381.05
1514.42
1648.73
1784.13
1920.7
74.8201
204.486
334.228
464.099
594.152
724.444
855.035
985.992
1117.38
1249.29
1381.79
1514.98
1648.99
1783.99
1920.32
74.8756
204.65
334.494
464.454
594.58
724.922
855.537
986.485
1117.83
1249.63
1381.96
1514.89
1648.46
1782.82
1918.64
74.9117
204.755
334.661
464.669
594.823
725.17
855.76
986.647
1117.89
1249.53
1381.64
1514.24
1647.29
1780.52
1912.93
74.9301
204.808
334.738
464.756
594.9
725.21
855.73
986.508
1117.59
1249.04
1380.9
1513.2
1645.87
1778.69
1910.99
74.9329
204.813
334.736
464.731
594.829
725.064
855.473
986.098
1116.99
1248.19
1379.78
1511.79
1644.25
1777.09
1910.03
74.9226
204.779
334.667
464.61
594.632
724.757
855.019
985.451
1116.1
1247.01
1378.27
1509.98
1642.27
1775.32
1909.18
74.9015
204.712
334.543
464.411
594.33
724.319
854.401
984.601
1114.96
1245.52
1376.37
1507.67
1639.67
1772.85
1907.89
74.8723
204.62
334.378
464.152
593.95
723.781
853.656
983.592
1113.61
1243.75
1374.09
1504.78
1636.14
1768.98
1905.18
74.8378
204.513
334.186
463.855
593.519
723.176
852.827
982.475
1112.12
1241.79
1371.5
1501.33
1631.48
1762.67
1898.09
74.8008
204.398
333.981
463.54
593.064
722.541
851.96
981.308
1110.57
1239.73
1368.75
1497.57
1626
1753.31
1876.26
74.7644
204.285
333.779
463.23
592.615
721.915
851.104
980.156
1109.04
1237.7
1366.07
1494.01
1621.21
1746.88
1869.12
74.7312
204.182
333.595
462.945
592.202
721.335
850.309
979.082
1107.6
1235.81
1363.62
1490.89
1617.4
1742.73
1866.27
74.7042
204.097
333.443
462.707
591.853
720.839
849.621
978.144
1106.35
1234.15
1361.48
1488.23
1614.33
1739.74
1864.65
74.6858
204.039
333.335
462.535
591.593
720.461
849.083
977.394
1105.32
1232.78
1359.69
1485.97
1611.66
1737.02
1862.97
74.6783
204.014
333.285
462.447
591.447
720.231
848.733
976.88
1104.59
1231.75
1358.27
1484.07
1609.15
1733.82
1859.65
74.6838
204.028
333.303
462.457
591.436
720.176
848.608
976.646
1104.19
1231.13
1357.33
1482.63
1606.88
1729.75
1849.98
74.7038
204.087
333.396
462.579
591.575
720.319
848.735
976.731
1104.2
1231
1356.96
1481.9
1605.53
1727.47
1847.03
74.7394
204.193
333.572
462.82
591.877
720.676
849.138
977.166
1104.64
1231.41
1357.3
1482.04
1605.33
1726.82
1846.26
74.7912
204.349
333.831
463.185
592.349
721.257
849.829
977.969
1105.56
1232.44
1358.4
1483.18
1606.38
1727.57
1846.5
74.8593
204.554
334.177
463.675
592.991
722.062
850.81
979.144
1106.95
1234.08
1360.33
1485.39
1608.81
1729.88
1847.76
74.9434
204.808
334.605
464.286
593.799
723.083
852.071
980.679
1108.81
1236.33
1363.07
1488.75
1612.88
1734.42
1851.04
75.0424
205.107
335.112
465.012
594.761
724.307
853.59
982.543
1111.08
1239.12
1366.54
1493.18
1618.76
1742.37
1860.05
75.155
205.448
335.689
465.84
595.862
725.711
855.338
984.691
1113.71
1242.34
1370.55
1498.37
1626.01
1754.47
1888
75.2795
205.825
336.327
466.757
597.083
727.269
857.278
987.07
1116.61
1245.87
1374.85
1503.68
1632.73
1763.05
1897.25
75.4137
206.231
337.016
467.747
598.4
728.95
859.369
989.63
1119.71
1249.58
1379.27
1508.86
1638.57
1768.99
1901.1
75.5554
206.659
337.743
468.792
599.791
730.724
861.574
992.323
1122.95
1253.45
1383.79
1513.96
1643.96
1773.78
1903.45
75.7019
207.103
338.495
469.873
601.23
732.56
863.854
995.105
1126.3
1257.42
1388.43
1519.21
1649.49
1778.71
1905.88
75.8507
207.553
339.259
470.971
602.692
734.423
866.169
997.932
1129.71
1261.5
1393.25
1524.82
1655.8
1785.1
1910.03
75.999
208.002
340.021
472.066
604.149
736.282
868.479
1000.76
1133.13
1265.61
1398.21
1530.85
1663.31
1794.56
1920.1
76.144
208.441
340.766
473.137
605.574
738.1
870.74
1003.52
1136.48
1269.67
1403.15
1537.05
1671.67
1808.01
1950.51
76.2831
208.862
341.48
474.164
606.942
739.845
872.908
1006.17
1139.68
1273.53
1407.81
1542.76
1678.86
1817.23
1960.48
76.4135
209.257
342.151
475.129
608.227
741.484
874.942
1008.65
1142.67
1277.09
1412.03
1547.7
1684.49
1823.07
1964.4
76.5327
209.618
342.764
476.013
609.406
742.988
876.809
1010.92
1145.39
1280.3
1415.75
1551.88
1688.9
1827.02
1966.39
76.6382
209.938
343.309
476.798
610.455
744.33
878.476
1012.95
1147.82
1283.14
1419
1555.46
1692.54
1830.13
1967.83
76.7275
210.209
343.772
477.469
611.355
745.487
879.919
1014.71
1149.93
1285.62
1421.85
1558.62
1695.85
1833.17
1969.57
76.7983
210.425
344.142
478.009
612.087
746.436
881.115
1016.19
1151.71
1287.74
1424.32
1561.47
1699.11
1836.87
1973.11
76.8484
210.578
344.408
478.404
612.632
747.157
882.041
1017.35
1153.14
1289.47
1426.4
1563.98
1702.29
1841.62
1983.27
76.8753
210.662
344.559
478.639
612.971
747.628
882.674
1018.18
1154.19
1290.79
1428.03
1565.98
1704.78
1844.74
1986.6
76.8767
210.67
344.584
478.697
613.086
747.827
882.99
1018.64
1154.85
1291.67
1429.16
1567.39
1706.46
1846.55
1987.85
76.85
210.594
344.469
478.562
612.955
747.731
882.964
1018.72
1155.08
1292.07
1429.76
1568.2
1707.43
1847.49
1988.36
76.7926
210.426
344.202
478.216
612.558
747.315
882.569
1018.39
1154.85
1291.99
1429.85
1568.46
1707.81
1847.88
1988.54
76.7017
210.157
343.769
477.64
611.869
746.551
881.774
1017.62
1154.14
1291.4
1429.41
1568.19
1707.68
1847.83
1988.51
76.574
209.779
343.154
476.812
610.861
745.406
880.543
1016.36
1152.92
1290.27
1428.44
1567.4
1707.09
1847.39
1988.22
76.4064
209.281
342.341
475.71
609.506
743.845
878.835
1014.57
1151.13
1288.57
1426.9
1566.09
1706.04
1846.58
1987.38
76.1952
208.653
341.312
474.306
607.768
741.826
876.601
1012.21
1148.73
1286.24
1424.75
1564.23
1704.57
1845.56
1986.88
75.9367
207.883
340.047
472.574
605.611
739.301
873.783
1009.19
1145.63
1283.19
1421.91
1561.76
1702.62
1844.28
1986.4
75.6271
206.959
338.526
470.484
602.994
736.218
870.315
1005.44
1141.74
1279.33
1418.27
1558.56
1700.1
1842.64
1985.82
75.2628
205.871
336.729
468.005
599.875
732.519
866.122
1000.87
1136.94
1274.5
1413.67
1554.47
1696.84
1840.53
1985.09
74.8403
204.608
334.637
465.109
596.212
728.146
861.122
995.363
1131.1
1268.55
1407.9
1549.28
1692.65
1837.77
1984.12
74.3567
203.16
332.234
461.769
591.965
723.04
855.233
988.807
1124.05
1261.25
1400.71
1542.67
1687.21
1834.14
1982.83
73.8101
201.521
329.508
457.964
587.099
717.148
848.373
981.079
1115.61
1252.37
1391.77
1534.24
1680.07
1829.24
1981.06
73.1996
199.689
326.451
453.68
581.592
710.428
840.473
972.067
1105.62
1241.63
1380.68
1523.45
1670.6
1822.46
1978.51
72.5258
197.664
323.065
448.918
575.434
702.858
831.486
961.681
1093.9
1228.75
1366.98
1509.61
1657.81
1812.74
1974.59
71.7912
195.454
319.36
443.688
568.637
694.443
821.399
949.872
1080.35
1213.49
1350.22
1491.86
1640.32
1798.18
1967.86
71.0003
193.071
315.359
438.02
561.235
685.22
810.245
936.657
1064.93
1195.72
1330.02
1469.35
1616.28
1775.37
1954.41
70.1593
190.537
311.093
431.961
553.291
675.265
798.114
922.137
1047.74
1175.5
1306.29
1441.53
1583.78
1738.67
1922.07
1888.94
1708.37
1555.82
1415.65
1282.31
1153.26
1027.11
903.019
780.409
658.89
538.173
418.043
298.328
178.891
59.6128
1920.84
1744.63
1587.98
1443.22
1305.85
1173.36
1044.23
917.499
792.523
668.843
546.126
424.113
302.604
181.433
60.4566
1934.12
1767.18
1611.79
1465.55
1325.93
1191.05
1059.61
930.702
803.684
678.086
553.552
429.807
306.627
183.829
61.2524
1940.78
1781.61
1629.14
1483.19
1342.63
1206.27
1073.16
942.532
813.809
686.546
560.396
435.078
310.365
186.061
61.9942
1944.67
1791.27
1641.87
1497
1356.31
1219.17
1084.92
952.978
822.866
694.189
566.624
439.902
313.798
188.115
62.678
1947.21
1798.03
1651.34
1507.8
1367.44
1229.98
1095
962.092
830.875
701.016
572.229
444.268
316.917
189.987
63.3018
1948.99
1802.94
1658.51
1516.29
1376.48
1238.98
1103.57
969.97
837.885
707.052
577.224
448.181
319.724
191.675
63.8653
1950.29
1806.63
1664.03
1523.02
1383.82
1246.46
1110.82
976.728
843.973
712.344
581.636
451.656
322.228
193.185
64.3699
1951.28
1809.45
1668.34
1528.38
1389.79
1252.65
1116.92
982.495
849.225
716.95
585.503
454.719
324.443
194.525
64.818
1952.04
1811.65
1671.75
1532.69
1394.66
1257.78
1122.05
987.395
853.732
720.935
588.87
457.4
326.389
195.704
65.2131
1952.64
1813.4
1674.48
1536.17
1398.66
1262.04
1126.34
991.544
857.582
724.364
591.786
459.732
328.088
196.736
65.5591
1953.12
1814.79
1676.68
1539
1401.93
1265.56
1129.94
995.049
860.859
727.303
594.297
461.75
329.562
197.633
65.8604
1953.5
1815.92
1678.46
1541.32
1404.63
1268.49
1132.95
998.005
863.641
729.811
596.452
463.487
330.835
198.41
66.1213
1953.82
1816.83
1679.91
1543.22
1406.86
1270.93
1135.47
1000.49
865.996
731.945
598.292
464.976
331.929
199.078
66.3461
1954.07
1817.58
1681.1
1544.78
1408.7
1272.95
1137.57
1002.58
867.985
733.756
599.86
466.248
332.866
199.651
66.539
1954.28
1818.19
1682.08
1546.07
1410.23
1274.63
1139.33
1004.34
869.661
735.287
601.19
467.331
333.665
200.141
66.7038
1954.45
1818.69
1682.89
1547.13
1411.49
1276.03
1140.8
1005.81
871.07
736.579
602.314
468.248
334.343
200.557
66.8439
1954.59
1819.1
1683.55
1548
1412.54
1277.2
1142.02
1007.04
872.251
737.664
603.262
469.023
334.916
200.909
66.9627
1954.7
1819.44
1684.09
1548.73
1413.4
1278.16
1143.04
1008.06
873.238
738.574
604.058
469.674
335.399
201.205
67.0627
1954.8
1819.72
1684.54
1549.32
1414.11
1278.96
1143.88
1008.91
874.059
739.332
604.722
470.218
335.803
201.454
67.1466
1954.88
1819.95
1684.91
1549.81
1414.7
1279.61
1144.57
1009.61
874.738
739.96
605.273
470.671
336.139
201.661
67.2164
1954.94
1820.13
1685.21
1550.21
1415.18
1280.14
1145.14
1010.19
875.295
740.475
605.727
471.043
336.416
201.831
67.274
1954.99
1820.28
1685.45
1550.53
1415.56
1280.57
1145.6
1010.65
875.746
740.893
606.094
471.346
336.641
201.97
67.3209
1955.03
1820.4
1685.64
1550.78
1415.86
1280.92
1145.96
1011.02
876.105
741.226
606.388
471.587
336.821
202.081
67.3583
1955.06
1820.49
1685.78
1550.97
1416.1
1281.18
1146.24
1011.3
876.381
741.484
606.615
471.775
336.96
202.167
67.3874
1955.08
1820.55
1685.89
1551.11
1416.27
1281.37
1146.44
1011.51
876.585
741.673
606.782
471.913
337.064
202.231
67.409
1955.1
1820.6
1685.96
1551.21
1416.38
1281.5
1146.58
1011.65
876.721
741.801
606.895
472.007
337.134
202.274
67.4236
1955.1
1820.62
1685.99
1551.25
1416.44
1281.56
1146.65
1011.72
876.794
741.87
606.958
472.058
337.173
202.298
67.4319
1955.1
1820.62
1685.99
1551.26
1416.44
1281.57
1146.66
1011.74
876.807
741.884
606.971
472.071
337.182
202.305
67.434
1955.1
1820.6
1685.96
1551.21
1416.39
1281.51
1146.61
1011.69
876.761
741.843
606.937
472.044
337.163
202.293
67.4301
1955.08
1820.55
1685.89
1551.13
1416.29
1281.4
1146.49
1011.57
876.654
741.747
606.855
471.978
337.115
202.264
67.4204
1955.06
1820.49
1685.78
1550.99
1416.12
1281.22
1146.31
1011.39
876.484
741.594
606.724
471.873
337.038
202.217
67.4046
1955.03
1820.39
1685.64
1550.79
1415.9
1280.98
1146.05
1011.14
876.248
741.381
606.542
471.726
336.931
202.152
67.3827
1954.98
1820.27
1685.44
1550.53
1415.6
1280.65
1145.72
1010.81
875.939
741.104
606.304
471.535
336.792
202.067
67.3542
1954.93
1820.11
1685.18
1550.2
1415.21
1280.23
1145.29
1010.39
875.55
740.756
606.007
471.298
336.618
201.962
67.3189
1954.86
1819.9
1684.85
1549.78
1414.72
1279.71
1144.76
1009.88
875.073
740.331
605.647
471.01
336.409
201.835
67.2764
1954.77
1819.63
1684.44
1549.25
1414.11
1279.06
1144.11