/*--------------------------------*- C++ -*----------------------------------*\
| =========                 |                                                 |
| \\      /  F ield         | OpenFOAM: The Open Source CFD Toolbox           |
|  \\    /   O peration     | Version:  5.x                                   |
|   \\  /    A nd           | Web:      www.OpenFOAM.org                      |
|    \\/     M anipulation  |                                                 |
\*---------------------------------------------------------------------------*/
FoamFile
{
    version     2.0;
    format      ascii;
    class       volScalarField;
    location    "2.1";
    object      gradTx;
}
// * * * * * * * * * * * * * * * * * * * * * * * * * * * * * * * * * * * * * //

dimensions      [0 -1 0 1 0 0 0];

internalField   nonuniform List<scalar> 
6300
(
8658.64
8634.23
8585.29
8511.61
8412.9
8288.83
8139.14
7963.67
7762.51
7536.1
7285.36
7011.78
6717.6
6405.75
6079.89
8682.44
8658.14
8609.43
8536.04
8437.65
8313.86
8164.33
7988.79
7787.22
7559.91
7307.66
7031.9
6734.79
6419.31
6089.22
8729.91
8705.87
8657.62
8584.88
8487.19
8364.06
8214.95
8039.39
7837.1
7608.11
7352.96
7072.86
6769.88
6447.03
6108.31
8800.8
8777.17
8729.71
8658.03
8561.58
8439.64
8291.43
8116.15
7913.12
7681.93
7422.68
7136.21
6824.35
6490.16
6137.98
8894.69
8871.67
8825.39
8755.36
8660.84
8540.9
8394.4
8220.09
8016.73
7783.27
7519.1
7224.43
6900.66
6550.81
6179.69
9010.97
8988.81
8944.2
8876.54
8784.92
8668.11
8524.57
8352.49
8149.88
7914.76
7645.49
7341.21
7002.56
6632.25
6235.68
9148.76
9127.77
9085.43
9021.06
8933.56
8821.43
8682.67
8514.81
8314.95
8079.84
7806.32
7491.86
7135.6
6739.48
6309.44
9306.91
9287.41
9248.05
9188.06
9106.21
9000.74
8869.24
8708.55
8514.65
8282.75
8007.51
7683.78
7307.97
6880.16
6406.42
9483.89
9466.26
9430.65
9376.26
9301.83
9205.43
9084.37
8934.85
8751.75
8528.42
8256.62
7927.21
7531.83
7066.28
6535.4
9677.82
9662.44
9631.35
9583.85
9518.73
9434.14
9327.3
9194.07
9028.46
8821.92
8562.75
8236.05
7825.31
7317.22
6711.21
9886.44
9873.64
9847.79
9808.37
9754.42
9684.43
9595.93
9485.02
9345.46
9167.43
8935.79
8628.36
8215.58
7665.55
6960.68
10107.2
10097.2
10077.1
10046.7
10005.5
9952.52
9886.3
9803.93
9700.25
9565.88
9383.99
9125.38
8742.5
8168.17
7336.81
10337.1
10330.1
10316.1
10295.2
10267.5
10233.2
10192.1
10143.5
10085.1
10011.2
9908.24
9746.01
9460.24
8927.2
7957.12
10573.5
10569.3
10561.2
10549.6
10535.5
10519.9
10504.7
10492
10484.6
10484.7
10491.1
10489.4
10424.5
10122.6
9123.06
10813.2
10811.6
10808.9
10805.9
10804
10805.5
10813.9
10834.6
10876
10951.3
11081.1
11295.4
11625
12015.1
11750.7
5772.8
5489.27
5204.66
4921.74
4643.13
4371.24
4108.19
3855.78
3615.46
3388.34
3175.19
2976.5
2792.5
2623.21
2468.46
2327.92
2201.19
2087.72
1986.91
1898.1
1820.55
1753.49
1696.07
1647.41
1606.58
1572.57
1544.39
1521
1501.37
1484.52
1469.51
1455.52
1441.81
1427.78
1412.92
1396.83
1379.18
1359.66
1338.01
1313.97
1287.3
1257.8
1225.31
1189.74
1151.05
1109.31
1064.62
1017.1
966.889
914.063
858.652
800.605
739.797
676.03
609.053
538.583
464.323
385.971
303.226
215.781
123.306
25.4315
-78.2709
-188.307
-305.267
-429.826
-562.74
-704.825
-856.94
-1019.96
-1194.76
-1382.18
-1583.02
-1798.04
-2027.9
-2273.2
-2534.45
-2812
-3106.07
-3416.65
-3743.46
-4085.9
-4442.98
-4813.27
-5194.89
-5585.47
-5982.21
-6381.91
-6781.1
-7176.14
5777.91
5490.41
5201.86
4915.18
4633.13
4358.2
4092.58
3838.11
3596.22
3367.98
3154.15
2955.14
2771.14
2602.1
2447.81
2307.91
2181.94
2069.34
1969.51
1881.75
1805.34
1739.49
1683.36
1636.06
1596.64
1564.11
1537.41
1515.5
1497.3
1481.78
1467.98
1455.04
1442.21
1428.9
1414.63
1399.03
1381.81
1362.68
1341.4
1317.7
1291.34
1262.07
1229.72
1194.17
1155.42
1113.54
1068.66
1020.97
970.633
917.773
862.436
804.577
744.057
680.653
614.088
544.052
470.23
392.316
310.019
223.052
131.114
33.8635
-69.1057
-178.286
-294.265
-417.731
-549.461
-690.301
-841.145
-1002.9
-1176.47
-1362.73
-1562.49
-1776.51
-2005.5
-2250.07
-2510.77
-2788.02
-3082.08
-3393.04
-3720.7
-4064.54
-4423.65
-4796.64
-5181.64
-5576.25
-5977.57
-6382.25
-6786.65
-7186.91
5788.35
5492.66
5196.02
4901.63
4612.54
4331.44
4060.65
3802.05
3557.05
3326.67
3111.53
2911.97
2728.04
2559.57
2406.27
2267.68
2143.28
2032.46
1934.59
1848.95
1774.81
1711.38
1657.83
1613.26
1576.7
1547.14
1523.47
1504.57
1489.29
1476.5
1465.15
1454.32
1443.24
1431.34
1418.2
1403.53
1387.11
1368.75
1348.22
1325.24
1299.51
1270.74
1238.69
1203.2
1164.28
1122.04
1076.73
1028.63
977.993
925.035
869.843
812.377
752.466
689.832
624.128
554.984
482.043
404.991
323.559
237.509
146.605
50.5689
-50.9533
-158.423
-272.426
-393.674
-522.991
-661.293
-809.547
-968.734
-1139.82
-1323.72
-1521.28
-1733.29
-1960.5
-2203.55
-2463.08
-2739.61
-3033.54
-3345.13
-3674.37
-4020.92
-4384.03
-4762.41
-5154.23
-5557.02
-5967.7
-6382.62
-6797.75
-7208.78
5804.44
5495.91
5186.55
4880.12
4580.1
4289.52
4010.89
3746.12
3496.58
3263.15
3046.29
2846.11
2662.47
2495.05
2343.37
2206.87
2084.91
1976.82
1881.92
1799.47
1728.74
1668.95
1619.27
1578.82
1546.61
1521.58
1502.58
1488.36
1477.62
1469.07
1461.51
1453.88
1445.4
1435.5
1423.9
1410.47
1395.16
1377.9
1358.51
1336.68
1312.03
1284.11
1252.55
1217.13
1177.86
1134.96
1088.81
1039.9
988.684
935.499
880.515
823.691
764.793
703.432
639.129
571.393
499.792
423.992
343.77
258.985
169.519
75.2126
-24.1926
-129.103
-240.098
-357.932
-483.514
-617.876
-762.115
-917.338
-1084.61
-1264.9
-1459.12
-1668.07
-1892.5
-2133.15
-2390.72
-2665.92
-2959.37
-3271.58
-3602.86
-3953.19
-4322.1
-4708.52
-5110.69
-5526.07
-5951.31
-6382.3
-6814.33
-7242.34
5826.84
5499.96
5172.48
4849.01
4533.72
4230.11
3940.88
3667.99
3412.67
3175.55
2956.79
2756.21
2573.38
2407.7
2258.47
2124.97
2006.42
1902.07
1811.18
1733.01
1666.82
1611.86
1567.34
1532.41
1506.08
1487.27
1474.73
1467.05
1462.71
1460.15
1457.87
1454.63
1449.52
1442.06
1432.18
1420.06
1405.97
1390.06
1372.24
1352.16
1329.21
1302.68
1271.93
1236.59
1196.65
1152.51
1104.84
1054.48
1002.19
948.542
893.825
837.985
780.665
721.269
659.077
593.379
523.599
449.377
370.576
287.229
199.432
107.235
10.538
-90.9744
-197.87
-310.97
-431.327
-560.161
-698.784
-848.502
-1010.53
-1185.93
-1375.63
-1580.4
-1801
-2038.2
-2292.81
-2565.74
-2857.94
-3170.32
-3503.66
-3858.44
-4234.65
-4631.62
-5047.79
-5480.57
-5926.26
-6380.07
-6836.28
-7288.63
5856.49
5504.47
5152.26
4805.78
4470.21
4149.66
3847.07
3564.31
3302.3
3061.27
2840.9
2640.57
2459.41
2296.47
2150.79
2021.39
1907.35
1807.82
1722.01
1649.18
1588.62
1539.64
1501.53
1473.5
1454.65
1443.86
1439.8
1440.86
1445.17
1450.73
1455.56
1457.99
1456.94
1452.04
1443.62
1432.44
1419.35
1404.9
1389.19
1371.72
1351.5
1327.27
1297.89
1262.63
1221.47
1175.1
1124.74
1071.82
1017.62
963.116
908.739
854.404
799.524
743.133
684.078
621.25
553.817
481.372
403.949
321.905
235.714
145.773
52.2428
-45.0485
-146.653
-253.502
-366.867
-488.277
-619.393
-761.848
-917.09
-1086.28
-1270.29
-1469.81
-1685.46
-1917.99
-2168.33
-2437.62
-2727.24
-3038.65
-3373.33
-3732.53
-4117
-4526.74
-4960.62
-5416.12
-5889.15
-6373.96
-6863.37
-7349.24
5894.87
5508.87
5123.42
4746.51
4384.76
4043.05
3724.45
3430.49
3161.5
2917.01
2695.98
2497.12
2319.02
2160.26
2019.51
1895.54
1787.26
1693.71
1614.05
1547.57
1493.64
1451.67
1421.1
1401.31
1391.51
1390.67
1397.42
1409.9
1425.77
1442.29
1456.63
1466.31
1469.84
1467.02
1458.97
1447.53
1434.6
1421.52
1408.63
1395.19
1379.5
1359.26
1332.27
1297.12
1253.74
1203.4
1148.31
1090.95
1033.5
977.484
923.584
871.603
820.554
768.832
714.514
655.762
591.264
520.548
443.998
362.576
277.423
189.511
99.4019
7.13118
-87.8357
-186.596
-290.76
-402.348
-523.598
-656.695
-803.468
-965.174
-1142.51
-1335.83
-1545.47
-1771.99
-2016.37
-2280.04
-2564.92
-2873.23
-3207.44
-3569.93
-3962.67
-4386.78
-4841.97
-5326.08
-5834.68
-6360.81
-6895.14
-7426.59
5944.23
5512.07
5081.93
4665.06
4270.16
3902.88
3566.08
3260.46
2985.23
2738.76
2518.95
2323.61
2150.61
1997.96
1863.92
1746.97
1645.84
1559.47
1487.02
1427.8
1381.33
1347.2
1325.09
1314.64
1315.37
1326.5
1346.72
1373.99
1405.35
1436.93
1464.32
1483.44
1491.79
1489.49
1479.14
1464.7
1450.03
1437.79
1428.8
1421.88
1414
1400.92
1378.35
1343.44
1296
1238.53
1175.13
1110.18
1047.29
988.794
935.653
887.454
842.549
798.271
751.339
698.553
637.675
568.141
491.082
408.64
323.133
236.443
149.709
63.2332
-23.5107
-111.856
-203.907
-302.442
-410.67
-531.768
-668.25
-821.459
-991.594
-1178.24
-1381.02
-1600.11
-1836.43
-2091.74
-2368.61
-2670.28
-3000.56
-3363.48
-3762.87
-4201.72
-4681.31
-5200.42
-5754.58
-6335.45
-6930.6
-7524.34
6008.04
5511.98
5020.97
4551.64
4115.47
3718.53
3362.56
3046.42
2767.35
2521.91
2306.51
2117.79
1952.73
1808.73
1683.59
1575.52
1483.06
1405.1
1340.81
1289.61
1251.16
1225.35
1212.19
1211.8
1224.2
1249.15
1285.78
1332.11
1384.55
1437.54
1483.85
1515.98
1529.03
1523.48
1505.13
1482.13
1461.9
1449.31
1445.95
1449.91
1455.93
1456.19
1442.15
1407.78
1352.68
1282.14
1204.17
1126.44
1054.72
992.379
940.592
898.554
863.64
831.527
796.598
753.004
696.557
626.584
545.933
459.136
370.57
283.467
199.674
119.758
43.1618
-31.7352
-107.665
-188.518
-279.143
-384.616
-508.858
-653.278
-816.795
-997.276
-1192.96
-1403.26
-1628.96
-1872.21
-2136.36
-2425.91
-2746.4
-3104.19
-3505.95
-3957.67
-4463.37
-5023.9
-5635.64
-6289.1
-6967.69
-7648.15
6091.91
5504.23
4928.41
4390.13
3903.99
3474.91
3101.44
2778.76
2500.84
2261.6
2055.49
1877.74
1724.39
1592.2
1478.57
1381.46
1299.31
1230.97
1175.66
1132.95
1102.73
1085.19
1080.85
1090.45
1114.89
1154.93
1210.81
1281.36
1362.86
1447.72
1523.72
1575.94
1592.98
1575.81
1537.75
1495.52
1462.71
1447.5
1452.51
1474.9
1506.12
1532.01
1535.2
1501.94
1431.55
1336.43
1232.81
1134.04
1048.62
980.754
931.481
899.387
880.689
868.84
854.334
825.969
774.927
700.413
609.647
512.199
415.919
325.749
244.086
171.535
107.424
49.9146
-4.28844
-60.468
-126.178
-210.366
-320.336
-457.508
-617.469
-794.303
-983.729
-1184.07
-1396.07
-1622.38
-1867.3
-2136.72
-2438.24
-2781.29
-3176.75
-3635.5
-4166.13
-4773.25
-5456.23
-6206.15
-7001.68
-7807
6205.41
5478.99
4781.4
4153.21
3610.07
3151
2766.96
2446.49
2178.49
1953.43
1763.48
1602.44
1465.48
1348.84
1249.66
1165.77
1095.59
1037.99
992.304
958.247
935.951
925.978
929.369
947.689
983.023
1037.86
1114.65
1214.76
1336.29
1470.55
1597.78
1686.47
1706.1
1658.17
1576.32
1495.27
1438.1
1416.52
1434
1487.12
1563.92
1640.49
1680.68
1649.52
1545.98
1402.93
1254.44
1122.38
1017.21
942.344
897.622
880.924
887.872
909.978
932.026
931.594
887.101
797.653
682.998
563.593
452.491
355.799
275.401
211.186
162.209
126.839
101.974
81.3506
53.4456
1.0659
-92.5757
-228.846
-393.754
-573.093
-758.651
-947.964
-1142.38
-1345.55
-1562.76
-1801.05
-2069.97
-2382.59
-2756.03
-3209.46
-3758.34
-4412.97
-5180.01
-6057.15
-7021.15
-8015.97
6366.04
5411.87
4534.14
3793.5
3194.84
2718.81
2340.74
2038.43
1794.16
1594.55
1429.71
1292.36
1177.18
1080.24
998.636
930.276
873.66
827.797
792.134
766.548
751.37
747.46
756.337
780.369
823.022
889.112
984.861
1117.24
1291.33
1503.45
1727.23
1896.38
1916.42
1789.31
1613.66
1460.56
1362.19
1329.24
1364.13
1465.19
1621.99
1801.32
1928.85
1901.28
1717.25
1477.25
1252.37
1071.98
942.164
860.503
823.397
828.401
873.222
951.197
1042.09
1100.67
1064.02
931.2
763.199
603.044
468.327
362.405
283.432
228.917
197.425
188.666
202.16
233.691
268.353
271.962
196.625
41.1192
-149.183
-342.834
-528.058
-704.377
-875.936
-1048.31
-1227.62
-1421.02
-1638.44
-1895.92
-2219.72
-2645.53
-3197.87
-3890.4
-4744.87
-5782.65
-6995.82
-8301.72
6608.9
5234.32
4089.13
3229.08
2602.77
2145.34
1805.29
1546.65
1345.39
1185.5
1056.24
950.282
862.551
789.464
728.481
677.804
636.194
602.86
577.403
559.814
550.518
550.486
561.438
586.189
629.227
697.607
802.276
959.581
1191.54
1519.46
1935.29
2320.89
2338.52
1990.28
1618.44
1346.97
1192.01
1144.2
1198.92
1362.97
1647.57
2036.67
2400.32
2378.28
1969.08
1529.76
1186.2
948.728
797.756
714.488
688.525
718.536
810.825
973.813
1198.68
1406.88
1379.41
1115.42
832.107
605.875
442.711
330.216
256.258
213.513
199.927
218.469
276.398
381.547
528.007
656.572
601.31
361.241
100.271
-124.633
-310.196
-467.529
-608.169
-740.92
-871.989
-1006.09
-1148.87
-1313.34
-1536.03
-1898.9
-2435.08
-3134.16
-4045.38
-5255.22
-6836.61
-8715.92
7011.16
4726.03
3233.2
2327.86
1767.32
1402.71
1152.45
972.157
836.948
732.248
649.129
581.893
526.772
481.208
443.435
412.23
386.769
366.54
351.305
341.102
336.292
337.662
346.633
365.646
398.903
453.81
543.853
694.372
953.517
1408.79
2186.79
3275.17
3287.38
2225.1
1478.63
1065.53
867.49
811.497
876.233
1087.09
1522.63
2308.6
3427.12
3412.73
2264.22
1444.36
967.216
700.901
555.838
485.945
473.04
518.985
646.617
907.314
1379.29
2052.47
2035.4
1327.47
818.824
517.896
344.14
242.544
184.149
156.133
156.178
191.569
282.652
469.93
813.444
1305.91
1272.14
711.489
297.834
36.9737
-132.916
-254.63
-351.647
-435.794
-511.778
-578.406
-627.66
-646.417
-649.86
-902.045
-1437.15
-2072.02
-2915.51
-4192.39
-6248.02
-9368.11
7749.11
3076.47
1531.05
929.945
649.615
495.31
398.771
332.672
284.515
247.871
219.106
196.016
177.193
161.699
148.899
138.358
129.786
123.005
117.937
114.604
113.148
113.874
117.346
124.569
137.383
159.392
198.314
272.706
433.024
833.295
1991.24
5778.94
5783.32
2005.05
858.681
474.375
338.379
304.907
343.108
487.613
893.047
2101.6
6085.23
6080.2
2086.04
865.398
444.622
278.455
205.662
175.331
172.807
201.798
290.796
536.577
1270.15
3692.02
3686.23
1252.53
506.438
246.796
141.661
92.668
68.3017
58.3507
61.5398
84.4813
150.393
333.336
884.389
2713.02
2701.65
850.076
275.392
67.6159
-24.9633
-77.2361
-113.576
-142.315
-164.88
-175.499
-149.995
-0.945997
595.429
503.143
-294.936
-709.042
-1161.24
-2007.94
-4126.37
-10502.4
-7601.05
-8049.01
-8474.77
-8873.77
-9242.43
-9578.21
-9879.56
-10145.7
-10376.6
-10572.6
-10734.3
-10862.4
-10957.7
-11020.9
-11052.4
-7617.32
-8070.7
-8501.03
-8903.58
-9274.75
-9612.08
-9914.15
-10180.4
-10410.9
-10606.2
-10767.2
-10894.5
-10989.2
-11051.9
-11083.2
-7650.48
-8114.97
-8554.56
-8964.24
-9340.36
-9680.63
-9983.96
-10250.2
-10479.8
-10673.7
-10833
-10958.7
-11052.1
-11113.8
-11144.5
-7701.8
-8183.64
-8637.5
-9057.92
-9441.25
-9785.55
-10090.3
-10356
-10583.7
-10775.1
-10931.6
-11054.7
-11145.9
-11206
-11235.9
-7773.45
-8279.77
-8753.37
-9188.15
-9580.6
-9929.44
-10235.1
-10499.1
-10723.5
-10910.7
-11062.9
-11182.1
-11270
-11327.8
-11356.6
-7868.79
-8408.15
-8907.53
-9360.16
-9762.99
-10115.9
-10421
-10681.1
-10899.9
-11080.6
-11226.5
-11340.1
-11423.4
-11478.1
-11505.2
-7993.04
-8575.99
-9107.93
-9581.45
-9994.68
-10349.8
-10651.1
-10903.9
-11113.6
-11284.8
-11421.7
-11527.6
-11604.8
-11655.4
-11680.4
-8154.27
-8794.36
-9366.25
-9862.47
-10284
-10636.8
-10929.1
-11169.3
-11365
-11522.7
-11647.4
-11742.9
-11812.3
-11857.5
-11879.8
-8365.34
-9080.43
-9699.71
-10217.7
-10641.4
-10983.7
-11258.5
-11478.5
-11654
-11792.9
-11901.4
-11983.8
-12043.3
-12081.8
-12100.7
-8647.83
-9461.8
-10134
-10666.6
-11079.6
-11397.4
-11642.2
-11831.6
-11978.7
-12092.9
-12180.9
-12247
-12294.4
-12325
-12340
-9040.2
-9984.48
-10707.3
-11234.6
-11612.5
-11883.6
-12080.6
-12226.3
-12335.7
-12418.6
-12481.4
-12528.2
-12561.5
-12583
-12593.5
-9617.24
-10728.2
-11475.5
-11951.6
-12251.5
-12443.2
-12569.8
-12656.6
-12718.4
-12763.7
-12797.3
-12822.2
-12839.9
-12851.2
-12856.8
-10542.7
-11835
-12514.5
-12844.4
-12998
-13067.5
-13098.1
-13111.3
-13117
-13119.7
-13121.3
-13122.6
-13123.7
-13124.5
-13125
-12232
-13554
-13902.8
-13912.8
-13828
-13730
-13643.2
-13572.8
-13517.8
-13476
-13445
-13422.5
-13407.1
-13397.4
-13392.8
-15941
-16246
-15629.3
-15075.7
-14670.6
-14380.8
-14171.4
-14018.1
-13904.8
-13820.9
-13759.2
-13714.7
-13683.9
-13664.5
-13655.2
11033.7
11034.2
11035.7
11039.2
11046.4
11060.3
11085.4
11128.9
11202.9
11328.4
11543.8
11927.6
12669.4
14348.7
19253.6
11233.2
11235.2
11239.8
11248
11261.6
11283.7
11318.8
11374.7
11463.8
11608.1
11846.8
12253.3
12967.2
14229.5
16174.3
11430.8
11434
11440.9
11452.5
11470.5
11497.4
11537.3
11596.8
11685.9
11821.7
12032.7
12364.8
12883.4
13635.6
14453.8
11625.6
11629.7
11638.2
11652.1
11672.5
11701.4
11741.8
11797.6
11874.9
11982.6
12133.8
12346.2
12636.8
12995.3
13309.7
11816.9
11821.6
11831.3
11846.5
11868
11897
11934.9
11983
12042.3
12112.7
12191.8
12272.6
12342.3
12384.9
12392.5
12004.5
12009.6
12019.9
12035.9
12057.7
12085.9
12120.4
12159.9
12201.3
12236.2
12247.9
12206
12066.1
11798.1
11488.8
12187.9
12193.3
12204.1
12220.5
12242.5
12269.9
12301.7
12335.1
12364
12375.1
12340.8
12206.8
11878.2
11239.3
10378.9
12367
12372.6
12383.8
12400.7
12423
12450.3
12481.2
12512.8
12538.6
12545
12502.2
12342.2
11905.2
10833.7
8680
12541.6
12547.4
12559.1
12576.5
12599.4
12627.5
12659.7
12693.8
12726
12748.4
12744.3
12669.4
12372.3
11178.9
5494.05
12711.5
12717.6
12729.7
12747.8
12771.7
12801.3
12836.1
12875.6
12919.6
12969.7
13034.8
13150.2
13461.1
14642.5
20300.6
12876.7
12883
12895.5
12914.4
12939.4
12970.8
13008.7
13053.7
13108.3
13180
13289.8
13494.6
13944.8
14996.7
17113.6
13036.8
13043.4
13056.4
13076
13102.2
13135.3
13175.6
13224.4
13284.4
13363.2
13478.1
13667.9
14009.9
14610.6
15405.5
13191.8
13198.6
13212.1
13232.4
13259.7
13294.1
13336.1
13386.5
13447
13520.7
13613.7
13735
13894.6
14088.9
14258.5
13341.5
13348.5
13362.4
13383.4
13411.5
13447
13490.2
13541.1
13599.6
13664.3
13729
13774.8
13754.6
13583.8
13238.2
13485.8
13492.9
13507.2
13528.8
13557.7
13594.1
13638.2
13689.6
13747.3
13807.2
13856.7
13859.7
13718.5
13199.4
11986.9
13624.4
13631.7
13646.4
13668.4
13698
13735.2
13780.4
13833.2
13892.8
13956.6
14016
14044.1
13944.2
13295.7
9902.78
13757.4
13764.8
13779.7
13802.1
13832.3
13870.3
13916.6
13971.3
14034.9
14108.5
14196.4
14316.6
14550.4
15297.1
18730.8
13884.5
13892.1
13907.1
13929.9
13960.4
13999.1
14046.3
14102.6
14169.3
14249.8
14353.7
14509.6
14799.6
15432
16693.2
14005.8
14013.4
14028.6
14051.5
14082.3
14121.4
14169.1
14226
14293.4
14374.1
14474.2
14608.8
14810.4
15129.4
15540.6
14121.2
14128.8
14144.1
14167
14197.9
14237
14284.7
14341.5
14407.8
14484.2
14570.1
14660.7
14739
14762.3
14682.7
14230.7
14238.3
14253.5
14276.3
14307.1
14346
14393.4
14449.6
14514.5
14587.2
14662.1
14720.6
14705.1
14465.9
13778.8
14334.3
14341.8
14356.9
14379.5
14410
14448.5
14495.4
14550.9
14615.2
14687.8
14764.9
14831.1
14825.9
14479.9
12406.9
14432.1
14439.5
14454.3
14476.6
14506.6
14544.5
14590.6
14645.4
14709.6
14784.7
14874.5
14990.7
15182.7
15692.5
17858.7
14524
14531.3
14545.9
14567.8
14597.1
14634.2
14679.2
14732.7
14795.7
14870.8
14965
15097
15318.1
15754.3
16570.1
14610.2
14617.4
14631.6
14653
14681.7
14717.7
14761.2
14812.7
14872.6
14943.1
15028.7
15140.8
15303.6
15551.7
15857.2
14690.8
14697.8
14711.7
14732.6
14760.4
14795.3
14837.1
14886
14941.6
15004.1
15073.2
15148.6
15229.2
15308.9
15365.7
14766
14772.8
14786.3
14806.6
14833.6
14867.3
14907.5
14953.8
15005.2
15059.8
15112.6
15152.3
15154.9
15081.3
14923
14835.7
14842.3
14855.5
14875.3
14901.6
14934.2
14973
15017.4
15066
15116
15160.4
15181.1
15133
14911.9
14379.8
14900.1
14906.6
14919.5
14938.8
14964.3
14996.1
15033.9
15077.2
15125
15175.5
15223.8
15256.9
15230.5
14958.1
13476.7
14959.4
14965.8
14978.4
14997.2
15022.1
15053.2
15090.2
15133
15181.4
15235.6
15297.1
15373.2
15498.1
15843.2
17352.2
15013.6
15019.8
15032.2
15050.6
15075
15105.4
15141.9
15184.3
15233.1
15289.9
15359.4
15454.7
15611.9
15918.9
16489.5
15062.8
15068.9
15081
15099.1
15123
15152.9
15188.6
15230.2
15278.4
15334.6
15402.9
15492.2
15620.5
15810.3
16034.7
15107.1
15113.1
15125
15142.8
15166.3
15195.5
15230.4
15270.9
15317.2
15370.1
15430.9
15501.8
15585.1
15676.4
15747.5
15146.6
15152.5
15164.2
15181.7
15204.8
15233.5
15267.6
15306.8
15350.8
15399.2
15450.8
15501.9
15543.1
15555.3
15521.5
15181.2
15187.1
15198.7
15216
15238.8
15267
15300.4
15338.4
15380.4
15425.3
15470.2
15507.8
15520.1
15464.8
15283.8
15211.1
15217
15228.5
15245.7
15268.4
15296.3
15329.2
15366.5
15407.4
15450.6
15493.7
15530.4
15542.9
15460.4
14932
15236.2
15242.1
15253.7
15270.9
15293.6
15321.5
15354.3
15391.3
15431.9
15475.3
15520.7
15569.1
15630.7
15764.7
16308
15256.6
15262.5
15274.2
15291.5
15314.4
15342.5
15375.6
15412.9
15453.7
15497.7
15544.9
15597.9
15667.7
15784.1
15987.8
15272.1
15278.1
15290
15307.6
15330.9
15359.5
15393.1
15431.2
15472.7
15517.3
15564.2
15614.3
15671.6
15742.6
15818.8
15282.7
15288.8
15301
15319
15342.9
15372.3
15406.9
15446.2
15489
15534.4
15580.6
15625.3
15665.6
15697
15712.1
15288.4
15294.6
15307.1
15325.7
15350.3
15380.8
15416.8
15457.9
15502.9
15550.3
15597.4
15638.8
15665.1
15662.5
15625.4
15288.9
15295.4
15308.2
15327.4
15352.9
15384.6
15422.5
15466
15514.3
15565.9
15617.5
15662.1
15684.2
15651.6
15522.4
15284.2
15290.9
15304.1
15323.9
15350.4
15383.6
15423.5
15470.1
15522.7
15580.7
15641.9
15700.5
15741
15707.4
15339.1
15274.2
15281
15294.6
15315
15342.5
15377.1
15419.2
15469
15526.7
15592.7
15667.3
15750.9
15848.6
15995.2
16420
15258.6
15265.5
15279.4
15300.4
15328.7
15364.7
15408.8
15461.7
15524.3
15598.1
15685.6
15791
15921.5
16089.2
16296.3
15237.4
15244.5
15258.6
15280
15308.9
15345.9
15391.6
15446.9
15513.2
15593.2
15690.9
15813
15967.8
16155.2
16327
15210.5
15217.6
15231.8
15253.4
15282.7
15320.2
15366.9
15423.6
15492
15575.2
15678.5
15811.6
15990.9
16231.3
16487.9
15177.9
15184.9
15199.1
15220.6
15249.9
15287.5
15334.3
15391.2
15459.7
15542.5
15644.5
15777.4
15970.8
16295.6
16838.1
15139.5
15146.4
15160.3
15181.5
15210.4
15247.6
15293.8
15349.9
15416.8
15495.7
15588.4
15700.5
15858.8
16208.1
17576.3
15095.4
15102.1
15115.6
15136.2
15164.3
15200.6
15245.7
15300.2
15364.7
15438.5
15518
15590.6
15613.5
15412.5
14118.1
15045.7
15052.1
15065
15084.7
15111.7
15146.5
15190
15242.8
15305.2
15376.4
15451.4
15514.6
15522.9
15375.1
14931.6
14990.7
14996.7
15008.8
15027.3
15052.6
15085.6
15126.9
15177.7
15238.7
15310.8
15392.3
15475.7
15539.9
15542
15450.2
14930.6
14936
14947.1
14964.1
14987.4
15017.8
15056.4
15104.4
15163.8
15237.7
15330.8
15449.4
15599.1
15773.3
15918.1
14865.6
14870.5
14880.4
14895.4
14916.2
14943.5
14978.3
15022.1
15077.7
15150.4
15250.8
15400.4
15640.5
16024.2
16499.9
14796.3
14800.5
14808.9
14821.8
14839.6
14862.9
14892.8
14930.6
14978.8
15042.9
15135.4
15287.7
15581.4
16210.5
17425.7
14723.1
14726.4
14733.2
14743.7
14758.1
14776.9
14800.8
14830.7
14867.8
14914.7
14977.5
15075.9
15288.4
15989.2
19209.6
14646.4
14648.9
14654
14661.7
14672.4
14686.2
14703.6
14724.6
14748.8
14774.3
14793.8
14783.6
14655.4
14017.4
10814.1
14566.9
14568.5
14571.7
14576.6
14583.3
14592
14602.7
14615.2
14627.9
14636.7
14629.5
14572.1
14375
13825.4
12641.5
14485.2
14485.8
14487.2
14489.2
14491.8
14495.3
14499.5
14504.2
14508.4
14509.2
14498.6
14456.4
14337.9
14072.1
13664.6
14401.8
14401.6
14401
14400
14398.6
14396.9
14394.8
14392.4
14390
14388.3
14388.4
14392.1
14401.4
14415.3
14422.7
14317.5
14316.3
14313.8
14309.9
14304.5
14297.5
14289
14279.3
14269.8
14264.7
14274.2
14322.6
14460.1
14761.5
15204.3
14232.8
14230.7
14226.4
14219.7
14210.3
14198.1
14182.8
14164.7
14145.3
14129.6
14131.7
14189.7
14403.3
15007.9
16312
14148.4
14145.5
14139.5
14130.1
14116.9
14099.5
14077.3
14049.7
14016.9
13980.8
13948.9
13947.2
14073.6
14767
18343.9
14064.8
14061.1
14053.6
14041.8
14025.2
14003
13974.1
13937
13889.3
13827.6
13743.8
13614.2
13348.5
12522.2
8839.87
13982.5
13978.2
13969.4
13955.7
13936.2
13909.9
13875.4
13830.2
13770.2
13688.4
13568.9
13374.4
13011.1
12259
10836.9
13901.9
13897.2
13887.5
13872.2
13850.5
13821.3
13782.8
13732.2
13665
13573.8
13444.6
13250.2
12941.9
12459.5
11865.8
13823.3
13818.3
13808
13791.8
13768.9
13738
13697.3
13644.3
13575
13484.2
13364.1
13203.5
12992.1
12735.4
12502.1
13746.9
13741.8
13731.4
13714.9
13691.6
13660.2
13619.1
13566.2
13498.5
13413.7
13310.1
13190.7
13072
12993.3
12996
13672.8
13667.8
13657.6
13641.4
13618.5
13587.8
13547.9
13496.8
13432.6
13354.8
13265.4
13176.1
13122.5
13192.8
13511.5
13600.8
13596.2
13586.5
13571.3
13549.7
13520.7
13483
13435
13375
13302.5
13219.4
13135.1
13085.5
13218.1
14267.6
13530.9
13526.7
13518
13504.3
13484.7
13458.4
13424.1
13380.1
13324.6
13256.3
13172.7
13068.5
12920.5
12605
11420.6
13462.6
13459.1
13451.7
13440
13423.2
13400.4
13370.5
13331.7
13282
13219.2
13138.9
13031.1
12870.5
12594
12120.4
13395.5
13392.8
13387.1
13377.9
13364.6
13346.3
13321.7
13289.4
13247.3
13193.1
13122.8
13029.2
12899.7
12718.7
12509.1
13329
13327.3
13323.6
13317.5
13308.3
13295.2
13277.1
13252.6
13219.8
13176.9
13121.6
13051
12963.4
12862.1
12770
13262.5
13261.9
13260.5
13257.9
13253.4
13246.3
13235.7
13220.1
13198
13168.2
13129.7
13083.5
13035.3
12997.8
12984.5
13195.1
13195.8
13197
13198.3
13199.1
13198.8
13196.5
13190.9
13180.4
13164.2
13141.9
13116.3
13098.4
13115.5
13207.1
13126.1
13128.2
13132.1
13137.7
13144.3
13151.5
13158.4
13163.7
13165.7
13163.2
13155.1
13142.7
13135.9
13180.2
13510.5
13054.4
13057.9
13064.9
13075
13088
13103.4
13120.3
13137.4
13152.9
13164.9
13170.1
13164.2
13136.7
13045.1
12662.2
12979
12984.1
12994.2
13009.2
13028.9
13052.9
13080.7
13111
13141.6
13170
13191.8
13199.6
13181.1
13111.5
12962
12898.9
12905.5
12918.9
12938.8
12965.5
12998.8
13038.3
13082.9
13130.7
13178.7
13221.9
13252.4
13259.9
13232.6
13173.6
12813
12821.2
12837.7
12862.6
12896.4
12939.2
12991.2
13051.5
13118.6
13189.7
13259.6
13320.3
13361.9
13374.9
13359.8
12720.2
12729.8
12749.3
12779.1
12819.8
12872.3
12937
13014.1
13102.7
13200.5
13302.6
13400.6
13482.7
13535.9
13551
12619.5
12630.4
12652.6
12686.8
12734
12795.6
12873.1
12967.5
13079.2
13207.2
13347.4
13490.8
13622.8
13722.5
13768
12510.1
12522
12546.4
12584.3
12637.1
12706.9
12796.3
12907.7
13043.4
13204.5
13388.8
13588
13784.1
13945.9
14032.1
12391.2
12403.8
12429.7
12470.2
12527.1
12603.6
12703.1
12829.9
12988.9
13184.5
13418.7
13686.4
13968.4
14220.7
14371.3
12262.4
12275.3
12301.8
12343.4
12402.6
12483.1
12589.7
12728.7
12907.9
13136.7
13424.2
13773.9
14172.3
14565.1
14830.5
12123.5
12136.1
12162.1
12203.2
12262.3
12343.5
12452.8
12598.3
12791.3
13047.2
13385.4
13826.6
14379.1
14997.1
15489.1
11974.8
11986.5
12010.8
12049.5
12105.5
12183.3
12289.6
12433.9
12630
12899.4
13274
13800.8
14539.5
15515.4
16504.6
11816.8
11827.1
11848.4
11882.6
11932.4
12002.4
12099.1
12232.2
12416.8
12677.5
13055.7
13627
14533.9
16023.6
18222.2
11650.6
11658.8
11676
11703.6
11744.3
11801.8
11882.1
11993.6
12149.8
12372.8
12702.4
13219.2
14122.4
16038.3
21481.6
-26322.8
-19557.9
-17153.7
-16004.9
-15336.9
-14903.1
-14603.5
-14388.9
-14231.9
-14116.1
-14030.9
-13969.3
-13926.5
-13899.5
-13886.4
-22286.6
-19540.3
-17667.3
-16515.3
-15779.6
-15284.4
-14936.8
-14685.4
-14500.3
-14362.8
-14261.1
-14187.1
-14135.5
-14102.9
-14087
-20164.2
-18915.8
-17679.9
-16736.3
-16054.8
-15562.9
-15202.8
-14935.5
-14735
-14584.1
-14471.4
-14388.8
-14330.8
-14294
-14276.1
-18915.3
-18282.1
-17489.2
-16775
-16198.1
-15749.3
-15404
-15138.6
-14934.7
-14778.6
-14660.3
-14572.7
-14510.9
-14471.4
-14452.2
-18112.5
-17759.2
-17243.4
-16718
-16251.9
-15863.5
-15549.2
-15298.6
-15100.8
-14946.2
-14827.3
-14738.3
-14675
-14634.3
-14614.3
-17561.7
-17348.6
-17004
-16619.4
-16251.4
-15925.7
-15649.6
-15421.5
-15236.3
-15088.5
-14973
-14885.5
-14822.7
-14782.1
-14762.1
-17165.4
-17029.1
-16792.1
-16509
-16221.2
-15953.2
-15716.4
-15514
-15345.4
-15208
-15098.8
-15015.1
-14954.4
-14914.9
-14895.5
-16870.2
-16779.3
-16611.9
-16401.4
-16176.8
-15958.6
-15758.7
-15582.6
-15432.3
-15307.2
-15206.4
-15128.1
-15070.8
-15033.3
-15014.8
-16644.6
-16582.2
-16461.5
-16303.2
-16127.7
-15951
-15784
-15632.9
-15501
-15389.3
-15297.7
-15225.9
-15172.8
-15137.9
-15120.6
-16469
-16425.4
-16336.8
-16216.5
-16078.9
-15936.3
-15797.7
-15669.5
-15555.2
-15456.7
-15375
-15310
-15261.7
-15229.8
-15213.8
-16330.2
-16299.5
-16233.7
-16141.6
-16033.4
-15918.3
-15803.9
-15695.9
-15597.8
-15512
-15439.9
-15382.1
-15338.7
-15309.9
-15295.4
-16219.3
-16197.8
-16148.5
-16077.5
-15992.1
-15899.3
-15805.3
-15714.8
-15631.4
-15557.4
-15494.5
-15443.5
-15405.1
-15379.3
-15366.4
-16129.8
-16115.1
-16078.1
-16023.2
-15955.7
-15880.9
-15803.8
-15728.4
-15657.8
-15594.5
-15540.1
-15495.7
-15462
-15439.3
-15427.9
-16057.2
-16047.5
-16019.8
-15977.3
-15923.9
-15863.7
-15800.6
-15738.1
-15678.8
-15625
-15578.3
-15540
-15510.6
-15490.8
-15480.8
-15997.9
-15992
-15971.5
-15938.7
-15896.5
-15848.1
-15796.6
-15745
-15695.4
-15650
-15610.3
-15577.3
-15552
-15534.9
-15526.2
-15949.4
-15946.4
-15931.4
-15906.2
-15873
-15834.2
-15792.4
-15749.9
-15708.6
-15670.5
-15636.9
-15608.9
-15587.2
-15572.5
-15565
-15909.4
-15908.7
-15898.2
-15879
-15853
-15822
-15788.2
-15753.3
-15719.2
-15687.4
-15659.1
-15635.4
-15617
-15604.4
-15598
-15876.5
-15877.7
-15870.6
-15856.3
-15836.1
-15811.5
-15784.2
-15755.8
-15727.7
-15701.2
-15677.6
-15657.6
-15642.1
-15631.4
-15626
-15849.5
-15852
-15847.7
-15837.3
-15821.8
-15802.4
-15780.6
-15757.5
-15734.5
-15712.6
-15693
-15676.3
-15663.2
-15654.2
-15649.6
-15827.2
-15830.9
-15828.8
-15821.5
-15809.8
-15794.7
-15777.4
-15758.8
-15740
-15722
-15705.7
-15691.8
-15680.9
-15673.4
-15669.5
-15808.9
-15813.5
-15813.2
-15808.4
-15799.8
-15788.2
-15774.5
-15759.7
-15744.4
-15729.7
-15716.2
-15704.7
-15695.6
-15689.3
-15686.1
-15793.9
-15799.3
-15800.4
-15797.7
-15791.6
-15782.8
-15772.1
-15760.3
-15748
-15735.9
-15724.9
-15715.3
-15707.8
-15702.5
-15699.8
-15781.8
-15787.8
-15790
-15788.9
-15784.8
-15778.3
-15770.1
-15760.7
-15750.8
-15741
-15731.9
-15724
-15717.7
-15713.4
-15711.1
-15772.1
-15778.6
-15781.7
-15781.8
-15779.4
-15774.7
-15768.4
-15761
-15753
-15745
-15737.5
-15731
-15725.8
-15722.1
-15720.2
-15764.5
-15771.3
-15775.2
-15776.3
-15775.1
-15771.8
-15767
-15761.2
-15754.7
-15748.1
-15742
-15736.5
-15732.1
-15729
-15727.4
-15758.8
-15765.9
-15770.2
-15772.1
-15771.8
-15769.6
-15765.9
-15761.3
-15756
-15750.5
-15745.3
-15740.7
-15737
-15734.3
-15733
-15754.8
-15762
-15766.7
-15769.1
-15769.4
-15768
-15765.1
-15761.3
-15756.9
-15752.2
-15747.7
-15743.7
-15740.4
-15738.1
-15736.9
-15752.3
-15759.7
-15764.6
-15767.3
-15768
-15766.9
-15764.6
-15761.3
-15757.4
-15753.2
-15749.1
-15745.5
-15742.6
-15740.5
-15739.4
-15751.3
-15758.7
-15763.7
-15766.5
-15767.3
-15766.4
-15764.3
-15761.2
-15757.5
-15753.6
-15749.8
-15746.3
-15743.6
-15741.6
-15740.6
-15751.8
-15759.1
-15764
-15766.7