/*--------------------------------*- C++ -*----------------------------------*\
| =========                 |                                                 |
| \\      /  F ield         | OpenFOAM: The Open Source CFD Toolbox           |
|  \\    /   O peration     | Version:  5.x                                   |
|   \\  /    A nd           | Web:      www.OpenFOAM.org                      |
|    \\/     M anipulation  |                                                 |
\*---------------------------------------------------------------------------*/
FoamFile
{
    version     2.0;
    format      ascii;
    class       volScalarField;
    location    "19.2";
    object      gradTx;
}
// * * * * * * * * * * * * * * * * * * * * * * * * * * * * * * * * * * * * * //

dimensions      [0 -1 0 1 0 0 0];

internalField   nonuniform List<scalar> 
6300
(
3.5965
3.58555
3.56366
3.53084
3.48713
3.43261
3.36738
3.29165
3.20572
3.11004
3.00524
2.89219
2.77197
2.64594
2.5157
3.60731
3.59636
3.57445
3.54159
3.49782
3.44317
3.37775
3.30172
3.21534
3.11903
3.01339
2.89924
2.77767
2.65005
2.51802
3.62894
3.61797
3.59604
3.56313
3.51924
3.46438
3.3986
3.322
3.23476
3.13723
3.02992
2.91359
2.7893
2.65845
2.52278
3.66139
3.65042
3.62847
3.59551
3.55149
3.49638
3.43014
3.35277
3.26436
3.1651
3.05536
2.93579
2.80739
2.67159
2.53025
3.70466
3.69371
3.67177
3.6388
3.5947
3.53936
3.47266
3.39447
3.30469
3.20331
3.0905
2.96669
2.83277
2.69015
2.54089
3.75875
3.74784
3.72597
3.69307
3.649
3.59357
3.52654
3.44762
3.35649
3.25284
3.13651
3.0076
2.86674
2.71526
2.55543
3.8236
3.81277
3.79106
3.75837
3.71451
3.65924
3.59218
3.51286
3.42066
3.31492
3.19497
3.06036
2.91121
2.74861
2.57502
3.89913
3.88843
3.86699
3.83468
3.79131
3.73655
3.66995
3.59082
3.49826
3.3911
3.26797
3.12756
2.96904
2.79284
2.60149
3.9852
3.9747
3.95364
3.92192
3.87934
3.82557
3.76009
3.68209
3.59034
3.48311
3.35813
3.21273
3.04443
2.85211
2.63782
4.08162
4.07136
4.05079
4.01986
3.9784
3.92616
3.86263
3.78696
3.69775
3.59275
3.46859
3.32069
3.14371
2.93322
2.6892
4.18815
4.17816
4.15816
4.12816
4.08811
4.03788
3.97715
3.90524
3.82082
3.72141
3.60265
3.4576
3.27637
3.04773
2.76519
4.30452
4.29479
4.27538
4.24637
4.20785
4.15995
4.10269
4.03589
3.95875
3.86925
3.76286
3.63055
3.45629
3.21602
2.88507
4.43044
4.42095
4.40204
4.3739
4.33682
4.29121
4.23764
4.17671
4.1089
4.03384
3.94882
3.84528
3.70206
3.47487
3.0923
4.56569
4.55634
4.53777
4.51022
4.47415
4.43029
4.37977
4.32427
4.26612
4.20822
4.15311
4.09955
4.03168
3.88898
3.49962
4.71011
4.70079
4.68229
4.65489
4.61911
4.57587
4.52673
4.47431
4.42291
4.37962
4.3557
4.36796
4.436
4.54964
4.45238
2.3942
2.28319
2.17284
2.06427
1.95854
1.8566
1.75933
1.66744
1.58152
1.50204
1.42934
1.36365
1.3051
1.25372
1.2095
1.17235
1.14211
1.1186
1.10158
1.09074
1.08575
1.08621
1.09163
1.1015
1.11521
1.13207
1.15135
1.17227
1.19398
1.21565
1.23644
1.25555
1.27221
1.2857
1.29532
1.3004
1.30025
1.29416
1.28139
1.26118
1.23274
1.19534
1.1483
1.09102
1.02301
0.943854
0.853206
0.750706
0.635933
0.508354
0.367272
0.211807
0.0408969
-0.146686
-0.352301
-0.5774
-0.823495
-1.09215
-1.38497
-1.70366
-2.05002
-2.42606
-2.83401
-3.27636
-3.75594
-4.27585
-4.83951
-5.45057
-6.1129
-6.83049
-7.60739
-8.44764
-9.3552
-10.3339
-11.3873
-12.5187
-13.7309
-15.026
-16.4054
-17.8692
-19.4164
-21.044
-22.7472
-24.5191
-26.3502
-28.2288
-30.141
-32.0709
-34.001
-35.9134
2.39478
2.28214
2.17019
2.06011
1.95298
1.84982
1.7515
1.65876
1.57218
1.49222
1.41919
1.35332
1.2947
1.24337
1.19928
1.16233
1.13238
1.10922
1.09262
1.08228
1.07787
1.07899
1.08519
1.09593
1.11061
1.12854
1.14896
1.17106
1.19398
1.21685
1.2388
1.25902
1.27672
1.2912
1.3018
1.30786
1.30873
1.30371
1.29205
1.27294
1.24558
1.20916
1.16297
1.1064
1.03897
0.960335
0.870202
0.768305
0.654304
0.527728
0.387913
0.233981
0.0648392
-0.120786
-0.324309
-0.547225
-0.791072
-1.0574
-1.34779
-1.66385
-2.00734
-2.38017
-2.7845
-3.22281
-3.69789
-4.21289
-4.77127
-5.37677
-6.03335
-6.7451
-7.51617
-8.3507
-9.25276
-10.2263
-11.275
-12.4024
-13.6114
-14.9046
-16.2837
-17.7492
-19.3004
-20.935
-22.6483
-24.4337
-26.2817
-28.1804
-30.1155
-32.0702
-34.0264
-35.9649
2.39596
2.27999
2.16477
2.05159
1.94164
1.83599
1.73558
1.64113
1.55324
1.47233
1.39869
1.33247
1.27376
1.22253
1.17872
1.1422
1.11281
1.09035
1.07458
1.06523
1.06197
1.06443
1.07216
1.08464
1.10127
1.12135
1.14409
1.16862
1.19401
1.21932
1.24361
1.26603
1.2858
1.30224
1.31474
1.32273
1.32563
1.32276
1.31334
1.29653
1.27137
1.23698
1.19251
1.13734
1.07101
0.993291
0.904064
0.803255
0.690709
0.566091
0.42881
0.277982
0.112448
-0.0691839
-0.268456
-0.486976
-0.726336
-0.988074
-1.27367
-1.58462
-1.92246
-2.28895
-2.68612
-3.11634
-3.5824
-4.08749
-4.6352
-5.22945
-5.87438
-6.5743
-7.33357
-8.15652
-9.04741
-10.0104
-11.0494
-12.1684
-13.3708
-14.6596
-16.0374
-17.5057
-19.0645
-20.7124
-22.4456
-24.2579
-26.14
-28.0796
-30.0614
-32.0672
-34.0771
-36.0694
2.39784
2.27666
2.15633
2.03833
1.92401
1.81456
1.71097
1.614
1.52419
1.44193
1.36743
1.30078
1.24198
1.19096
1.14761
1.11176
1.08322
1.0618
1.04727
1.03936
1.03779
1.04222
1.05223
1.06733
1.08693
1.11029
1.1366
1.16488
1.1941
1.22318
1.25107
1.27681
1.29962
1.31888
1.3341
1.34488
1.35076
1.35114
1.34524
1.33204
1.31041
1.27921
1.2374
1.18426
1.11938
1.04274
0.95453
0.855032
0.744426
0.62262
0.489141
0.343091
0.183169
0.00775391
-0.184953
-0.396779
-0.629436
-0.884444
-1.16313
-1.46669
-1.79638
-2.15362
-2.54019
-2.95831
-3.41073
-3.90075
-4.43216
-5.00916
-5.63625
-6.31806
-7.05928
-7.86452
-8.73825
-9.6849
-10.7088
-11.8143
-13.0055
-14.2865
-15.6609
-17.1316
-18.7002
-20.3668
-22.129
-23.9814
-25.9153
-27.9178
-29.9724
-32.0585
-34.1527
-36.2298
2.40059
2.27202
2.14446
2.01968
1.89928
1.78463
1.67677
1.57646
1.48421
1.40029
1.32479
1.25771
1.19894
1.14832
1.10565
1.07073
1.04334
1.02329
1.01036
1.00432
1.00494
1.01193
1.02493
1.04351
1.06709
1.09496
1.1262
1.15974
1.19434
1.2287
1.26155
1.29176
1.31849
1.34125
1.35979
1.37401
1.38374
1.38852
1.38756
1.37962
1.36318
1.33663
1.29855
1.24799
1.18463
1.10877
1.02117
0.922735
0.814199
0.695884
0.567503
0.428108
0.276128
0.109524
-0.0739859
-0.276648
-0.500414
-0.746784
-1.0168
-1.3112
-1.63067
-1.97611
-2.34886
-2.75091
-3.18496
-3.65446
-4.16351
-4.71678
-5.31932
-5.97629
-6.69283
-7.47386
-8.3241
-9.24817
-10.2507
-11.3366
-12.5109
-13.7788
-15.1457
-16.6164
-18.1949
-19.8835
-21.6823
-23.5876
-25.5915
-27.6811
-29.8379
-32.0379
-34.2529
-36.4515
2.40446
2.26586
2.1285
1.99463
1.86623
1.74485
1.63163
1.52728
1.43218
1.34644
1.26999
1.20264
1.14412
1.09417
1.05248
1.01879
0.992865
0.974489
0.963477
0.95966
0.962871
0.972918
0.989553
1.01243
1.04105
1.07471
1.11245
1.15301
1.19487
1.23636
1.27576
1.31164
1.34304
1.36964
1.39165
1.40956
1.42375
1.43412
1.43985
1.43936
1.43042
1.41057
1.3776
1.33009
1.2678
1.19164
1.10335
1.0049
0.897987
0.783573
0.661657
0.531175
0.390079
0.235572
0.0644937
-0.126191
-0.338903
-0.57513
-0.835419
-1.11967
-1.42763
-1.7593
-2.11538
-2.49748
-2.9082
-3.35123
-3.83119
-4.35349
-4.92401
-5.54877
-6.23353
-6.98355
-7.80365
-8.69842
-9.67264
-10.7316
-11.8813
-13.1286
-14.4809
-15.9458
-17.5308
-19.2417
-21.0821
-23.0515
-25.1443
-27.3475
-29.6409
-31.9957
-34.3764
-36.7423
2.40987
2.25783
2.10742
1.96164
1.82298
1.69326
1.57365
1.46472
1.36661
1.27916
1.20203
1.13478
1.07694
1.02806
0.98774
0.955637
0.931473
0.91504
0.906192
0.904836
0.910916
0.92438
0.945145
0.973035
1.00771
1.04855
1.09457
1.14434
1.19591
1.24695
1.29499
1.33791
1.37445
1.40457
1.42934
1.4504
1.4692
1.48633
1.50105
1.51119
1.51332
1.50335
1.4775
1.43339
1.37085
1.29192
1.20008
1.09919
0.992502
0.881998
0.76808
0.64946
0.523274
0.385417
0.23114
0.0559185
-0.143594
-0.368887
-0.619581
-0.894077
-1.19047
-1.50738
-1.84449
-2.20284
-2.58497
-2.99487
-3.43795
-3.92078
-4.45063
-5.03488
-5.68025
-6.39233
-7.17566
-8.03426
-8.97253
-9.99589
-11.1112
-12.3272
-13.6538
-15.1025
-16.6852
-18.4133
-20.2958
-22.3379
-24.5377
-26.8842
-29.3552
-31.9163
-34.5209
-37.1142
2.41746
2.24738
2.0796
1.91832
1.76678
1.62707
1.50024
1.38652
1.28564
1.19699
1.11981
1.05333
0.996802
0.949585
0.911131
0.881009
0.858908
0.844628
0.838078
0.839267
0.848287
0.865288
0.890434
0.923834
0.965434
1.01487
1.07127
1.13303
1.19766
1.2618
1.32154
1.3733
1.41503
1.44713
1.47231
1.49444
1.517
1.54192
1.56876
1.59448
1.61356
1.61892
1.60361
1.56316
1.49744
1.41071
1.30977
1.20177
1.09243
0.985271
0.881211
0.778576
0.673211
0.558838
0.42788
0.27294
0.0887749
-0.126128
-0.369531
-0.637002
-0.923829
-1.22643
-1.54305
-1.87403
-2.22176
-2.59075
-2.98751
-3.42038
-3.89895
-4.433
-5.03092
-5.69855
-6.43926
-7.25539
-8.14989
-9.12769
-10.1963
-11.3663
-12.6509
-14.0662
-15.6303
-17.3622
-19.2799
-21.3971
-23.7197
-26.2413
-28.9398
-31.7738
-34.6817
-37.5855
2.4283
2.23352
2.04232
1.86089
1.69347
1.54226
1.40786
1.2898
1.18703
1.09825
1.02215
0.957492
0.903222
0.858452
0.822483
0.794796
0.775045
0.763048
0.758784
0.762385
0.77413
0.794431
0.823801
0.862784
0.911837
0.971124
1.04019
1.11753
1.20008
1.28292
1.3595
1.42308
1.46944
1.49958
1.51961
1.53777
1.56134
1.59466
1.63804
1.68726
1.73349
1.76416
1.76584
1.72923
1.65421
1.54985
1.42957
1.30616
1.18915
1.084
0.99222
0.911559
0.836054
0.756076
0.659083
0.531978
0.365336
0.157605
-0.0848879
-0.352117
-0.634536
-0.925335
-1.221
-1.52111
-1.82799
-2.14669
-2.48511
-2.85418
-3.26743
-3.73919
-4.28125
-4.89954
-5.5943
-6.36365
-7.20731
-8.12866
-9.13552
-10.2402
-11.4598
-12.8156
-14.3336
-16.0436
-17.9766
-20.1606
-22.615
-25.3436
-28.3291
-31.5247
-34.8482
-38.184
2.4442
2.21439
1.99089
1.78321
1.59672
1.43315
1.29187
1.17099
1.06821
0.981216
0.907955
0.846668
0.795928
0.754611
0.721875
0.697122
0.679983
0.670302
0.668132
0.673741
0.687617
0.710482
0.743289
0.787195
0.843466
0.913253
0.997157
1.09447
1.20204
1.31301
1.41613
1.4976
1.54714
1.56652
1.56952
1.57323
1.59159
1.63283
1.6988
1.78427
1.87574
1.95109
1.98311
1.95052
1.85312
1.71186
1.55378
1.40126
1.26871
1.16341
1.08713
1.03704
1.00527
0.977743
0.933573
0.847873
0.700988
0.49132
0.235307
-0.0454181
-0.333242
-0.617297
-0.892619
-1.15848
-1.41726
-1.67428
-1.9386
-2.2244
-2.55168
-2.94417
-3.42182
-3.99046
-4.64193
-5.36493
-6.15286
-7.00651
-7.93377
-8.94891
-10.0723
-11.3312
-12.7606
-14.4039
-16.3116
-18.5348
-21.1151
-24.076
-27.4159
-31.0913
-34.9967
-38.9543
2.46839
2.18609
1.91659
1.67496
1.46691
1.2919
1.14642
1.02606
0.926582
0.844369
0.776483
0.720624
0.67503
0.638386
0.609741
0.588454
0.574152
0.56671
0.566252
0.573164
0.588132
0.612185
0.646761
0.693768
0.755595
0.835015
0.934774
1.05658
1.19907
1.35433
1.50388
1.61803
1.66819
1.65699
1.61834
1.58754
1.58881
1.63531
1.73142
1.87255
2.04112
2.20032
2.29332
2.26503
2.11511
1.89798
1.66992
1.46754
1.30896
1.20092
1.14426
1.13607
1.1683
1.2233
1.26778
1.25179
1.12697
0.891693
0.591016
0.271449
-0.0374254
-0.321889
-0.577915
-0.806107
-1.00911
-1.19138
-1.36122
-1.53494
-1.7421
-2.02655
-2.43143
-2.96214
-3.5866
-4.27269
-5.0038
-5.77837
-6.60548
-7.50162
-8.48985
-9.60141
-10.8794
-12.3834
-14.1921
-16.3948
-19.0669
-22.2628
-26.0192
-30.3264
-35.0698
-39.9707
2.50716
2.13925
1.80211
1.51833
1.2895
1.10814
0.964805
0.851029
0.760073
0.686861
0.627664
0.579769
0.541218
0.510614
0.486987
0.469705
0.458418
0.453037
0.453732
0.460964
0.475539
0.498708
0.532308
0.578968
0.64236
0.727454
0.840597
0.988881
1.17764
1.40381
1.64254
1.83052
1.87754
1.7869
1.65581
1.5556
1.52085
1.56629
1.69912
1.92122
2.2199
2.54476
2.77808
2.7546
2.47378
2.09976
1.74903
1.47069
1.27637
1.16437
1.13155
1.17682
1.29846
1.4839
1.689
1.81234
1.71192
1.38616
0.973854
0.572861
0.223206
-0.0674633
-0.303331
-0.490046
-0.63085
-0.726445
-0.778292
-0.79736
-0.821278
-0.935565
-1.25987
-1.79888
-2.44255
-3.11566
-3.79215
-4.47455
-5.17777
-5.9217
-6.72977
-7.63198
-8.67256
-9.92411
-11.5054
-13.5787
-16.2644
-19.6424
-23.8291
-28.9334
-34.916
-41.3651
2.57361
2.04804
1.61072
1.28245
1.04361
0.869508
0.740557
0.643091
0.567974
0.509144
0.462545
0.425436
0.39594
0.372775
0.355078
0.342303
0.334161
0.330594
0.331781
0.33817
0.350552
0.370188
0.399027
0.440052
0.497844
0.579473
0.695778
0.862847
1.1023
1.43516
1.85419
2.24594
2.28505
1.97499
1.64873
1.42931
1.33734
1.37136
1.53819
1.85955
2.36087
3.02092
3.63254
3.61464
2.96657
2.26788
1.72379
1.35274
1.12516
1.01375
1.00632
1.10752
1.33667
1.7161
2.22788
2.69502
2.62124
2.0052
1.34031
0.800263
0.39882
0.107985
-0.0995798
-0.240145
-0.317735
-0.324551
-0.242618
-0.0528553
0.229613
0.457785
0.220804
-0.484965
-1.25615
-1.95382
-2.57203
-3.14076
-3.69147
-4.24941
-4.83414
-5.46327
-6.16195
-6.99005
-8.11009
-9.88063
-12.465
-15.8573
-20.3174
-26.2755
-34.0904
-43.3929
2.69752
1.82962
1.26219
0.917802
0.704494
0.565853
0.470949
0.402945
0.3524
0.31379
0.283744
0.260122
0.24153
0.227046
0.216066
0.208215
0.2033
0.201292
0.202326
0.206733
0.215102
0.228401
0.248182
0.27697
0.318983
0.381535
0.477827
0.632539
0.89243
1.34235
2.10505
3.1691
3.19526
2.18633
1.48774
1.11947
0.972337
0.985124
1.15468
1.53866
2.27316
3.56672
5.39333
5.38199
3.53211
2.21327
1.44934
1.02814
0.806608
0.713339
0.724584
0.853934
1.15842
1.75764
2.83092
4.35649
4.31131
2.69445
1.52692
0.828034
0.415125
0.163488
0.00765424
-0.0809632
-0.106571
-0.0504965
0.137734
0.558094
1.35862
2.52086
2.37644
0.923068
-0.175647
-0.906425
-1.42318
-1.83291
-2.19478
-2.53856
-2.87457
-3.1944
-3.46499
-3.63558
-3.77809
-5.01069
-7.50221
-10.5343
-14.6487
-20.9438
-31.1226
-46.5975
2.94902
1.17848
0.592494
0.364331
0.257819
0.199191
0.162584
0.137641
0.119623
0.106094
0.0956809
0.0875559
0.0811961
0.0762632
0.0725389
0.0698893
0.0682466
0.0676016
0.0680051
0.0695796
0.0725454
0.077269
0.0843557
0.0948325
0.110534
0.134994
0.175731
0.250746
0.40888
0.799093
1.92187
5.58666
5.5959
1.95067
0.851015
0.491131
0.377014
0.373099
0.462349
0.71295
1.38033
3.34478
9.80053
9.79663
3.33283
1.35947
0.681296
0.415987
0.303315
0.262394
0.272742
0.348109
0.555682
1.11645
2.78255
8.27965
8.26442
2.73655
1.03858
0.443947
0.199162
0.0810059
0.0180706
-0.01254
-0.0130574
0.0332241
0.183781
0.621556
1.96665
6.46537
6.41685
1.8203
0.374961
-0.167254
-0.428465
-0.593996
-0.724168
-0.838869
-0.938331
-0.996421
-0.912059
-0.321585
2.12359
1.67204
-1.76099
-3.65291
-5.83956
-10.0193
-20.5282
-52.1913
-37.9727
-40.1454
-42.2118
-44.1492
-45.9397
-47.5707
-49.0344
-50.3271
-51.4483
-52.3997
-53.1844
-53.8062
-54.2688
-54.5752
-54.7279
-38.0516
-40.2514
-42.3407
-44.2958
-46.0989
-47.7377
-49.2051
-50.4983
-51.6177
-52.566
-53.347
-53.9652
-54.4246
-54.7288
-54.8802
-38.2125
-40.4678
-42.6034
-44.5943
-46.4222
-48.0759
-49.5498
-50.843
-51.958
-52.8993
-53.6723
-54.2826
-54.7353
-55.0347
-55.1836
-38.4616
-40.8037
-43.0107
-45.0554
-46.9196
-48.5936
-50.0749
-51.3657
-52.4718
-53.4006
-54.1599
-54.7572
-55.1992
-55.4908
-55.6357
-38.8099
-41.2744
-43.5801
-45.6967
-47.6068
-49.3039
-50.7901
-52.0728
-53.1627
-54.071
-54.8091
-55.387
-55.8129
-56.0933
-56.2324
-39.2742
-41.9036
-44.3383
-46.5444
-48.5067
-50.2249
-51.7084
-52.9726
-54.0346
-54.9114
-55.6184
-56.1684
-56.5719
-56.8367
-56.9679
-39.8802
-42.7273
-45.3248
-47.6356
-49.6506
-51.3801
-52.8459
-54.0743
-55.0916
-55.9214
-56.5841
-57.096
-57.4694
-57.7135
-57.8341
-40.668
-43.8003
-46.5976
-49.0226
-51.0796
-52.7988
-54.2206
-55.3869
-56.3356
-57.0984
-57.7005
-58.1616
-58.4959
-58.7134
-58.8207
-41.7016
-45.2082
-48.2426
-50.7771
-52.8464
-54.5144
-55.8504
-56.9169
-57.7653
-58.4356
-58.9578
-59.3536
-59.6387
-59.8234
-59.9142
-43.088
-47.088
-50.3873
-52.9964
-55.0141
-56.5616
-57.7493
-58.6646
-59.3728
-59.9207
-60.341
-60.6562
-60.8815
-61.0269
-61.0981
-45.018
-49.6684
-53.2218
-55.8069
-57.6516
-58.9685
-59.9201
-60.619
-61.1403
-61.5331
-61.829
-62.0484
-62.204
-62.304
-62.353
-47.8633
-53.3455
-57.0243
-59.3575
-60.8166
-61.7407
-62.3432
-62.7504
-63.0359
-63.242
-63.3933
-63.5039
-63.5819
-63.6319
-63.6564
-52.4368
-58.8258
-62.1721
-63.7816
-64.5163
-64.8344
-64.9611
-65.0033
-65.0105
-65.0054
-64.998
-64.9917
-64.9874
-64.985
-64.984
-60.8032
-67.3484
-69.0563
-69.0801
-68.6321
-68.1192
-67.6634
-67.2905
-66.9968
-66.771
-66.6012
-66.4771
-66.3908
-66.3364
-66.3101
-79.2026
-80.708
-77.6244
-74.85
-72.8122
-71.3469
-70.2822
-69.498
-68.9149
-68.4802
-68.1582
-67.9244
-67.7619
-67.6593
-67.6096
4.85086
4.84146
4.82277
4.79502
4.75867
4.71458
4.66431
4.61073
4.55904
4.51881
4.50806
4.56275
4.7647
5.34839
7.20271
4.9852
4.97567
4.95665
4.92827
4.89081
4.84484
4.79155
4.7333
4.67468
4.62473
4.60101
4.63746
4.79828
5.192
5.88839
5.12604
5.11633
5.0969
5.06771
5.02873
4.98007
4.92212
4.85597
4.78416
4.71232
4.6521
4.62572
4.66993
4.82524
5.05952
5.27347
5.26362
5.24381
5.21381
5.17325
5.12162
5.05825
4.98241
4.89349
4.79171
4.67959
4.56484
4.4643
4.40352
4.39517
5.42759
5.41768
5.39766
5.36711
5.32533
5.27118
5.20291
5.11778
5.01161
4.87816
4.70881
4.49396
4.2309
3.94527
3.72688
5.58846
5.57862
5.55869
5.5281
5.48588
5.43043
5.35912
5.26759
5.14852
4.98944
4.7695
4.45643
4.01308
3.44021
2.90881
5.756
5.74642
5.72697
5.69703
5.65549
5.60054
5.5292
5.43635
5.31306
5.1429
4.8947
4.50927
3.8851
2.90622
1.72362
5.93004
5.92092
5.90241
5.87387
5.83427
5.78191
5.71403
5.62607
5.51
5.35048
5.11503
4.72776
4.00336
2.5136
-0.2809
6.11025
6.1018
6.08465
6.05827
6.02179
5.97389
5.91263
5.8351
5.73694
5.61073
5.44061
5.18023
4.65306
3.02695
-4.22406
6.29615
6.28855
6.27315
6.24954
6.21711
6.17502
6.12232
6.05824
5.98318
5.90142
5.8287
5.8178
6.06584
7.44636
14.5448
6.48717
6.48056
6.4672
6.44681
6.419
6.38336
6.33972
6.28877
6.2339
6.18575
6.17369
6.27536
6.69204
7.89475
10.5001
6.68259
6.67708
6.66596
6.64907
6.62618
6.59712
6.56199
6.52178
6.47975
6.44493
6.43951
6.51398
6.77224
7.36882
8.26719
6.88165
6.87731
6.86858
6.85535
6.8375
6.81492
6.7876
6.75578
6.7204
6.68363
6.64966
6.62476
6.61734
6.63307
6.66064
7.08354
7.08041
7.07414
7.06468
7.05196
7.03586
7.0161
6.99202
6.96178
6.9203
6.8533
6.72321
6.44621
5.88889
5.0758
7.28739
7.28551
7.28175
7.27612
7.26862
7.25916
7.2474
7.23226
7.21075
7.1746
7.10053
6.92348
6.4696
5.32213
2.9289
7.49236
7.49171
7.49047
7.48869
7.48648
7.48389
7.48081
7.47665
7.46968
7.45514
7.41904
7.31577
6.97454
5.62027
-0.877312
7.69757
7.69814
7.69936
7.70139
7.70443
7.70878
7.71473
7.72271
7.73364
7.75056
7.78396
7.87307
8.18285
9.48997
15.9433
7.90216
7.90391
7.90752
7.91321
7.92133
7.93236
7.94699
7.9664
7.99321
8.03444
8.10996
8.27689
8.69839
9.78559
12.1121
8.10532
8.10817
8.11403
8.12316
8.13603
8.15324
8.17569
8.20465
8.24252
8.29441
8.37221
8.50368
8.75143
9.22025
9.89968
8.30627
8.31014
8.31806
8.33034
8.34753
8.37031
8.39959
8.4364
8.48182
8.53628
8.59696
8.64944
8.65076
8.50835
8.16221
8.5043
8.50909
8.51884
8.53394
8.55496
8.58266
8.61798
8.66185
8.71456
8.77374
8.82712
8.83047
8.64972
7.93766
6.18757
8.69876
8.70435
8.71571
8.73324
8.75756
8.78951
8.83018
8.88082
8.94255
9.01513
9.09174
9.13906
9.01748
8.08755
3.00085
8.88911
8.89537
8.90808
8.92763
8.95467
8.99009
9.03517
9.09173
9.16271
9.25361
9.37642
9.56465
9.9464
11.1238
16.3709
9.07486
9.08167
9.09547
9.11663
9.14576
9.18375
9.2319
9.29227
9.36877
9.46982
9.61537
9.85556
10.3226
11.3336
13.3023
9.25563
9.26287
9.27751
9.29989
9.33051
9.37014
9.41983
9.48125
9.55748
9.65502
9.78831
9.98865
10.3207
10.8778
11.6047
9.43112
9.43869
9.45397
9.47721
9.50881
9.54931
9.59931
9.65958
9.73108
9.81531
9.91436
10.0299
10.1625
10.3037
10.4154
9.60108
9.60891
9.62465
9.6485
9.68074
9.72164
9.77137
9.82972
9.89552
9.9652
10.0286
10.0591
9.99798
9.74989
9.30739
9.76535
9.77336
9.78946
9.81376
9.84644
9.8876
9.93713
9.99429
10.0569
10.1193
10.1655
10.1515
9.9631
9.33072
7.8958
9.92378
9.93195
9.94832
9.97299
10.006
10.0475
10.0973
10.1547
10.2183
10.2846
10.3438
10.3648
10.2363
9.46855
5.4915
10.0763
10.0846
10.1012
10.1262
10.1596
10.2015
10.2517
10.3103
10.3774
10.4546
10.5483
10.6816
10.9533
11.8347
15.872
10.2227
10.2311
10.248
10.2733
10.3071
10.3493
10.4001
10.4596
10.5291
10.6131
10.725
10.9019
11.2466
12.0089
13.5173
10.363
10.3715
10.3886
10.4143
10.4484
10.491
10.5421
10.6016
10.6705
10.7522
10.8561
11.0052
11.2497
11.6647
12.2141
10.4971
10.5058
10.5231
10.5491
10.5837
10.6266
10.6778
10.7367
10.8027
10.8756
10.9556
11.042
11.1342
11.2268
11.2964
10.6249
10.6337
10.6513
10.6777
10.7128
10.7563
10.8078
10.8663
10.9297
10.9942
11.0501
11.0744
11.0182
10.8044
10.4313
10.7462
10.7552
10.7732
10.8001
10.8359
10.8802
10.9327
10.992
11.0557
11.1185
11.1664
11.1622
11.0114
10.4923
9.31109
10.861
10.8702
10.8886
10.9161
10.9528
10.9983
11.0524
11.1142
11.1821
11.253
11.3183
11.3516
11.2602
10.6396
7.37479
10.9691
10.9785
10.9973
11.0256
11.0632
11.1102
11.1663
11.2316
11.3061
11.3912
11.4922
11.6273
11.8762
12.6229
15.9551
11.0703
11.0799
11.0993
11.1282
11.1669
11.2154
11.2737
11.3422
11.4223
11.5184
11.6419
11.8236
12.1464
12.8101
14.0741
11.1645
11.1744
11.1942
11.2239
11.2637
11.3135
11.3735
11.4443
11.5272
11.6262
11.7509
11.9216
12.1794
12.5801
13.0753
11.2515
11.2617
11.282
11.3124
11.3531
11.4041
11.4655
11.5374
11.6205
11.7162
11.8276
11.9587
12.113
12.2841
12.4248
11.3312
11.3416
11.3624
11.3936
11.4353
11.4874
11.5498
11.6224
11.7046
11.7951
11.8904
11.9791
12.0347
12.0088
11.8763
11.4034
11.414
11.4353
11.4672
11.5098
11.5631
11.6268
11.7003
11.7825
11.8705
11.9573
12.0222
12.0128
11.8072
11.2403
11.4678
11.4787
11.5005
11.5332
11.5768
11.6313
11.6965
11.7717
11.8559
11.9468
12.0391
12.1165
12.1268
11.8562
10.215
11.5243
11.5355
11.5578
11.5913
11.636
11.6919
11.7588
11.8364
11.9242
12.022
12.1309
12.2569
12.4357
12.8565
14.5775
11.5728
11.5842
11.607
11.6413
11.6872
11.7445
11.8134
11.8935
11.9851
12.0893
12.2104
12.3604
12.5763
12.9533
13.6169
11.613
11.6247
11.648
11.6831
11.7301
11.7889
11.8596
11.9422
12.0369
12.1448
12.2694
12.4176
12.6047
12.8507
13.1217
11.6448
11.6567
11.6806
11.7165
11.7645
11.8248
11.8973
11.9821
12.0791
12.1887
12.3117
12.4473
12.5921
12.7304
12.8193
11.668
11.6801
11.7045
11.7411
11.7901
11.8518
11.9261
12.0129
12.1121
12.2232
12.3447
12.4703
12.5836
12.6439
12.5832
11.6824
11.6948
11.7195
11.7568
11.8068
11.8697
11.9457
12.0347
12.1365
12.2504
12.3744
12.5014
12.6117
12.6411
12.3097
11.6879
11.7004
11.7255
11.7634
11.8142
11.8783
11.9559
12.0472
12.152
12.2704
12.4018
12.5435
12.6959
12.8884
13.3479
11.6844
11.6971
11.7224
11.7607
11.8122
11.8773
11.9563
12.0496
12.1577
12.2814
12.4214
12.5779
12.752
12.9498
13.1727
11.6718
11.6845
11.71
11.7486
11.8005
11.8663
11.9463
12.0414
12.1523
12.2808
12.4293
12.5996
12.7913
12.9933
13.157
11.65
11.6627
11.6883
11.7269
11.779
11.845
11.9256
12.0215
12.1342
12.2662
12.4217
12.6059
12.8231
13.063
13.2597
11.6191
11.6317
11.6572
11.6956
11.7475
11.8133
11.8937
11.9896
12.1023
12.2351
12.3938
12.5889
12.839
13.1623
13.5037
11.579
11.5915
11.6167
11.6547
11.7061
11.7712
11.8507
11.9453
12.0562
12.1858
12.3403
12.5333
12.8038
13.2486
13.9896
11.5299
11.5422
11.5669
11.6044
11.6549
11.7189
11.7969
11.8893
11.9965
12.1193
12.2595
12.4234
12.6472
13.1288
14.9948
11.4719
11.4839
11.5081
11.5447
11.594
11.6565
11.7327
11.8225
11.9257
12.0406
12.1619
12.2715
12.3113
12.0471
10.3028
11.4052
11.4169
11.4403
11.4758
11.5237
11.5845
11.6585
11.7459
11.8463
11.9574
12.072
12.1677
12.1864
11.9928
11.402
11.3301
11.3413
11.3639
11.398
11.4442
11.5029
11.5746
11.6599
11.759
11.8716
11.9948
12.1169
12.2086
12.2139
12.0956
11.2469
11.2576
11.2791
11.3117
11.3558
11.412
11.481
11.5637
11.6619
11.7783
11.9179
12.0868
12.2905
12.5203
12.7117
11.1559
11.166
11.1863
11.2171
11.2588
11.3119
11.3774
11.4564
11.5516
11.6688
11.8204
12.0321
12.3541
12.853
13.4654
11.0575
11.067
11.0859
11.1146
11.1535
11.203
11.2639
11.3374
11.4258
11.5353
11.6808
11.9003
12.2947
13.1065
14.649
10.9523
10.961
10.9785
11.0049
11.0406
11.0859
11.1414
11.2074
11.285
11.3766
11.4895
11.6466
11.9451
12.8521
16.9084
10.8408
10.8486
10.8645
10.8884
10.9207
10.9616
11.0111
11.0689
11.134
11.2031
11.267
11.2942
11.1726
10.4103
6.43313
10.7234
10.7304
10.7446
10.7659
10.7947
10.8309
10.8746
10.9249
10.9797
11.0332
11.0697
11.0449
10.8448
10.2007
8.7566
10.6008
10.607
10.6193
10.638
10.6632
10.6949
10.7331
10.7773
10.8259
10.8751
10.9144
10.917
10.825
10.5463
10.0817
10.4737
10.4789
10.4894
10.5054
10.5268
10.554
10.5871
10.6261
10.6714
10.7237
10.7843
10.8543
10.9345
11.0206
11.0886
10.3425
10.3468
10.3555
10.3686
10.3863
10.4088
10.4365
10.4701
10.5116
10.5663
10.6474
10.7843
11.0398
11.5071
12.1472
10.2081
10.2114
10.2182
10.2284
10.2422
10.2598
10.2815
10.3082
10.3423
10.3906
10.4712
10.6314
10.9977
11.8731
13.6548
10.071
10.0734
10.0782
10.0855
10.0952
10.1076
10.1226
10.1407
10.1628
10.1924
10.2394
10.3349
10.6019
11.6095
16.4039
9.93185
9.93332
9.93623
9.94056
9.94625
9.95322
9.96123
9.96979
9.97772
9.9821
9.97362
9.91898
9.69153
8.71564
3.93462
9.79142
9.79196
9.793
9.79445
9.79616
9.79787
9.79913
9.79888
9.79473
9.78061
9.73949
9.62268
9.3007
8.46387
6.70171
9.65029
9.64996
9.64922
9.64792
9.64582
9.64259
9.6377
9.63023
9.61831
9.59777
9.55755
9.46848
9.26719
8.85434
8.2493
9.50908
9.50794
9.50555
9.50169
9.49604
9.4882
9.47772
9.46419
9.44752
9.42851
9.40915
9.39185
9.38039
9.3779
9.38091
9.36836
9.3665
9.36264
9.35646
9.34754
9.33538
9.3195
9.29989
9.27801
9.25941
9.25897
9.31081
9.48716
9.89726
10.5188
9.22862
9.22617
9.22106
9.21289
9.20108
9.18488
9.16353
9.1367
9.10585
9.07764
9.07213
9.14293
9.43137
10.2694
12.0924
9.09029
9.08739
9.08134
9.07162
9.05745
9.03771
9.01101
8.97587
8.93151
8.88002
8.83193
8.82357
8.9937
9.9572
14.9361
8.95366
8.95051
8.94389
8.93321
8.91746
8.89512
8.86401
8.821
8.76176
8.67998
8.56378
8.37989
8.00485
6.85616
1.75796
8.81894
8.81574
8.80902
8.79809
8.78182
8.75838
8.72492
8.67696
8.60732
8.50376
8.34231
8.06862
7.55307
6.49751
4.5268
8.68615
8.68313
8.67679
8.66646
8.65095
8.62836
8.59556
8.54754
8.4761
8.36767
8.19843
7.92495
7.47613
6.77403
5.93101
8.55516
8.55256
8.54709
8.53818
8.52479
8.50517
8.47645
8.43396
8.37024
8.27372
8.1266
7.9027
7.57489
7.14808
6.75367
8.42569
8.4237
8.41953
8.41279
8.40273
8.38806
8.36657
8.33469
8.28681
8.21484
8.10774
7.95229
7.74222
7.49929
7.30631
8.29732
8.29607
8.29351
8.28949
8.28367
8.27543
8.26359
8.2461
8.21979
8.18027
8.12211
8.03946
7.93219
7.81548
7.72878
8.16954
8.16909
8.16826
8.1672
8.16608
8.16507
8.16419
8.16322
8.1616
8.15858
8.15316
8.1434
8.1285
8.11047
8.09489
8.0418
8.0421
8.04293
8.04473
8.04822
8.05439
8.06454
8.08036
8.10404
8.13848
8.1869
8.25056
8.32677
8.4034
8.45403
7.91358
7.91449
7.91668
7.92088
7.92829
7.9407
7.96064
7.99164
8.03867
8.10857
8.20971
8.34868
8.52455
8.71404
8.85214
7.78445
7.78574
7.7888
7.79458
7.80469
7.82155
7.84873
7.89138
7.95709
8.05691
8.20592
8.42082
8.71265
9.05998
9.34998
7.65415
7.65552
7.65879
7.66506
7.67619
7.69502
7.72576
7.77471
7.85149
7.971
8.15605
8.43921
8.86197
9.44533
10.053
7.52264
7.52373
7.52646
7.53196
7.54215
7.55997
7.58981
7.63832
7.7159
7.8395
8.03773
8.3603
8.89954
9.81338
11.1819
7.39012
7.39056
7.39197
7.3954
7.40262
7.41635
7.44059
7.48136
7.54804
7.65612
7.83275
8.13057
8.67676
9.86526
13.2648
-130.78
-97.1605
-85.1949
-79.463
-76.1188
-73.9383
-72.4253
-71.3366
-70.5365
-69.9433
-69.5045
-69.1856
-68.9635
-68.823
-68.7549
-110.751
-97.0793
-87.7479
-81.9982
-78.3163
-75.8303
-74.0788
-72.8072
-71.8669
-71.1658
-70.6448
-70.2646
-69.9989
-69.8303
-69.7486
-100.22
-93.9837
-87.8135
-83.0969
-79.6831
-77.2123
-75.3985
-74.0474
-73.0306
-72.263
-71.6872
-71.2639
-70.9665
-70.7772
-70.6851
-94.024
-90.8418
-86.8692
-83.2903
-80.3948
-78.1377
-76.3967
-75.0551
-74.021
-73.2268
-72.6234
-72.1756
-71.8589
-71.6563
-71.5575
-90.0421
-88.2484
-85.6513
-83.0087
-80.6628
-78.7047
-77.1172
-75.8486
-74.8445
-74.0578
-73.4512
-72.9962
-72.6716
-72.463
-72.3609
-87.3101
-86.2126
-84.4647
-82.5206
-80.6611
-79.0141
-77.6158
-76.4581
-75.5166
-74.7635
-74.1736
-73.7258
-73.4037
-73.1954
-73.0931
-85.3444
-84.6282
-83.4142
-81.9733
-80.5116
-79.1506
-77.947
-76.9171
-76.0574
-75.3556
-74.797
-74.3679
-74.0565
-73.8539
-73.7541
-83.8805
-83.3893
-82.5208
-81.44
-80.2919
-79.1778
-78.1571
-77.2575
-76.4882
-75.8479
-75.3304
-74.928
-74.6335
-74.4407
-74.3454
-82.7619
-82.412
-81.7746
-80.953
-80.0482
-79.1401
-78.2826
-77.5071
-76.8291
-76.2546
-75.7835
-75.4131
-75.1396
-74.9595
-74.8702
-81.8907
-81.634
-81.156
-80.5233
-79.8065
-79.0671
-78.3509
-77.6884
-77.0979
-76.5892
-76.1664
-75.8305
-75.5806
-75.415
-75.3326
-81.202
-81.0095
-80.6445
-80.1515
-79.5803
-78.9777
-78.3815
-77.8192
-77.3094
-76.8637
-76.4889
-76.1881
-75.9626
-75.8125
-75.7375
-80.6513
-80.5044
-80.2216
-79.8335
-79.3757
-78.8837
-78.3883
-77.9132
-77.476
-77.0888
-76.7596
-76.4932
-76.292
-76.1575
-76.0901
-80.2069
-80.0934
-79.8717
-79.5634
-79.1945
-78.7919
-78.3806
-77.9805
-77.6075
-77.2734
-76.9866
-76.7526
-76.5749
-76.4555
-76.3956
-79.8457
-79.7571
-79.5817
-79.335
-79.0363
-78.7062
-78.3646
-78.0285
-77.7116
-77.4249
-77.1766
-76.9727
-76.817
-76.712
-76.6591
-79.5504
-79.4807
-79.341
-79.1424
-78.8995
-78.6282
-78.3446
-78.0627
-77.7942
-77.5493
-77.3357
-77.1591
-77.0236
-76.9319
-76.8856
-79.3077
-79.2528
-79.1408
-78.9802
-78.782
-78.5587
-78.3232
-78.087
-77.8602
-77.6518
-77.4688
-77.3167
-77.1995
-77.1199
-77.0797
-79.1076
-79.0641
-78.974
-78.8437
-78.6816
-78.4975
-78.3019
-78.1043
-77.9131
-77.7363
-77.5802
-77.4498
-77.3489
-77.2803
-77.2456
-78.9419
-78.9076
-78.8349
-78.7289
-78.596
-78.4442
-78.2817
-78.1165
-77.9558
-77.8062
-77.6734
-77.5621
-77.4758
-77.4168
-77.387
-78.8044
-78.7774
-78.7188
-78.6324
-78.5234
-78.398
-78.2632
-78.1252
-77.9903
-77.864
-77.7516
-77.6569
-77.5832
-77.5329
-77.5074
-78.6899
-78.6688
-78.6216
-78.5512
-78.4617
-78.3582
-78.2464
-78.1314
-78.0183
-77.9121
-77.8171
-77.7368
-77.6743
-77.6314
-77.6097
-78.5944
-78.5781
-78.5401
-78.4829
-78.4095
-78.3242
-78.2315
-78.1358
-78.0412
-77.9521
-77.872
-77.8043
-77.7513
-77.715
-77.6965
-78.5146
-78.5022
-78.4718
-78.4253
-78.3653
-78.295
-78.2184
-78.1389
-78.06
-77.9854
-77.9182
-77.8612
-77.8165
-77.7859
-77.7703
-78.4476
-78.4385
-78.4144
-78.3768
-78.3278
-78.2701
-78.2069
-78.1411
-78.0756
-78.0133
-77.957
-77.9092
-77.8717
-77.846
-77.8328
-78.3914
-78.3849
-78.366
-78.3358
-78.296
-78.2489
-78.197
-78.1427
-78.0884
-78.0367
-77.9898