/*--------------------------------*- C++ -*----------------------------------*\
| =========                 |                                                 |
| \\      /  F ield         | OpenFOAM: The Open Source CFD Toolbox           |
|  \\    /   O peration     | Version:  5.x                                   |
|   \\  /    A nd           | Web:      www.OpenFOAM.org                      |
|    \\/     M anipulation  |                                                 |
\*---------------------------------------------------------------------------*/
FoamFile
{
    version     2.0;
    format      ascii;
    class       volScalarField;
    location    "19.2";
    object      T;
}
// * * * * * * * * * * * * * * * * * * * * * * * * * * * * * * * * * * * * * //

dimensions      [0 0 0 1 0 0 0];

internalField   nonuniform List<scalar> 
6300
(
10.018
10.0539
10.0897
10.1252
10.1603
10.1949
10.229
10.2623
10.2948
10.3264
10.357
10.3865
10.4149
10.442
10.4678
10.0181
10.0541
10.09
10.1256
10.1608
10.1955
10.2297
10.2631
10.2957
10.3274
10.3581
10.3877
10.4161
10.4432
10.4691
10.0182
10.0544
10.0905
10.1263
10.1618
10.1967
10.2311
10.2647
10.2975
10.3294
10.3603
10.39
10.4185
10.4458
10.4717
10.0183
10.0549
10.0913
10.1275
10.1632
10.1985
10.2332
10.2671
10.3002
10.3324
10.3635
10.3935
10.4222
10.4497
10.4757
10.0185
10.0556
10.0924
10.129
10.1652
10.2009
10.236
10.2703
10.3039
10.3364
10.3679
10.3982
10.4273
10.4549
10.4811
10.0188
10.0564
10.0938
10.1309
10.1676
10.2039
10.2395
10.2744
10.3084
10.3415
10.3735
10.4043
10.4337
10.4616
10.488
10.0191
10.0573
10.0954
10.1332
10.1706
10.2075
10.2437
10.2793
10.314
10.3477
10.3803
10.4116
10.4415
10.4698
10.4965
10.0195
10.0585
10.0973
10.1358
10.174
10.2116
10.2487
10.285
10.3205
10.355
10.3883
10.4204
10.4509
10.4797
10.5067
10.0199
10.0598
10.0994
10.1388
10.1779
10.2164
10.2544
10.2916
10.328
10.3634
10.3977
10.4306
10.4619
10.4915
10.519
10.0204
10.0612
10.1018
10.1422
10.1822
10.2218
10.2608
10.299
10.3365
10.373
10.4084
10.4424
10.4748
10.5052
10.5334
10.021
10.0628
10.1045
10.146
10.1871
10.2277
10.2678
10.3073
10.3459
10.3837
10.4204
10.4557
10.4895
10.5213
10.5505
10.0215
10.0646
10.1074
10.1501
10.1924
10.2342
10.2756
10.3163
10.3563
10.3954
10.4337
10.4707
10.5063
10.5398
10.5706
10.0222
10.0664
10.1106
10.1545
10.1981
10.2412
10.2839
10.326
10.3674
10.4082
10.4481
10.4871
10.525
10.5612
10.5945
10.0228
10.0685
10.114
10.1592
10.2042
10.2487
10.2928
10.3363
10.3793
10.4216
10.4634
10.5047
10.5454
10.5853
10.6232
10.0236
10.0706
10.1176
10.1643
10.2107
10.2567
10.3022
10.3472
10.3917
10.4357
10.4793
10.5228
10.5666
10.6115
10.6576
10.4902
10.5097
10.5283
10.5459
10.5627
10.5786
10.5936
10.6079
10.6214
10.6343
10.6465
10.6581
10.6692
10.6798
10.6901
10.7
10.7096
10.719
10.7283
10.7374
10.7464
10.7555
10.7645
10.7737
10.7829
10.7923
10.8018
10.8114
10.8213
10.8313
10.8416
10.852
10.8625
10.8732
10.8839
10.8947
10.9056
10.9164
10.9272
10.9378
10.9482
10.9583
10.9681
10.9775
10.9863
10.9945
11.002
11.0087
11.0145
11.0193
11.023
11.0254
11.0265
11.0261
11.0241
11.0203
11.0145
11.0065
10.9963
10.9835
10.9679
10.9493
10.9274
10.902
10.8728
10.8395
10.8016
10.7588
10.7107
10.6569
10.5969
10.5301
10.4561
10.3742
10.2839
10.1844
10.0752
9.95556
9.82478
9.68214
9.52696
9.35853
9.17622
8.97941
8.76757
8.54024
8.29709
8.03789
7.76258
7.47121
10.4915
10.511
10.5296
10.5472
10.5639
10.5797
10.5947
10.6089
10.6224
10.6351
10.6473
10.6588
10.6698
10.6804
10.6905
10.7004
10.7099
10.7192
10.7284
10.7374
10.7464
10.7554
10.7644
10.7735
10.7827
10.792
10.8015
10.8112
10.821
10.8311
10.8413
10.8517
10.8623
10.873
10.8838
10.8947
10.9056
10.9165
10.9273
10.938
10.9485
10.9588
10.9687
10.9782
10.9871
10.9955
11.0031
11.01
11.0159
11.0209
11.0247
11.0274
11.0286
11.0284
11.0266
11.023
11.0175
11.0098
10.9999
10.9874
10.9721
10.9539
10.9325
10.9075
10.8788
10.8459
10.8085
10.7664
10.7189
10.6658
10.6065
10.5405
10.4673
10.3863
10.2969
10.1984
10.0902
9.97156
9.84178
9.70016
9.54596
9.37849
9.19705
9.00102
8.78982
8.56299
8.32015
8.06106
7.78564
7.49396
10.4942
10.5137
10.5322
10.5498
10.5664
10.5821
10.597
10.611
10.6243
10.6369
10.6489
10.6602
10.6711
10.6815
10.6915
10.7011
10.7105
10.7197
10.7287
10.7376
10.7464
10.7553
10.7642
10.7731
10.7822
10.7915
10.8009
10.8106
10.8204
10.8305
10.8407
10.8512
10.8618
10.8726
10.8835
10.8945
10.9056
10.9166
10.9276
10.9385
10.9492
10.9597
10.9698
10.9796
10.9888
10.9974
11.0054
11.0125
11.0187
11.024
11.0282
11.0312
11.0328
11.033
11.0317
11.0286
11.0235
11.0164
11.0071
10.9952
10.9807
10.9632
10.9425
10.9184
10.8906
10.8587
10.8225
10.7814
10.7353
10.6835
10.6257
10.5613
10.4898
10.4105
10.3229
10.2264
10.1201
10.0035
9.87581
9.73623
9.58405
9.41849
9.23884
9.0444
8.83454
8.60873
8.36655
8.10771
7.83209
7.53976
10.4982
10.5177
10.5362
10.5536
10.5701
10.5857
10.6004
10.6142
10.6273
10.6396
10.6513
10.6624
10.673
10.6831
10.6928
10.7022
10.7114
10.7203
10.7291
10.7377
10.7464
10.755
10.7637
10.7726
10.7815
10.7907
10.8
10.8096
10.8195
10.8295
10.8398
10.8504
10.8611
10.872
10.8831
10.8943
10.9055
10.9168
10.928
10.9392
10.9502
10.961
10.9716
10.9817
10.9913
11.0003
11.0087
11.0162
11.0229
11.0286
11.0333
11.0368
11.039
11.0398
11.0391
11.0368
11.0325
11.0263
11.0178
11.0069
10.9934
10.977
10.9575
10.9346
10.9082
10.8778
10.8431
10.8039
10.7597
10.71
10.6544
10.5923
10.5233
10.4467
10.3619
10.2682
10.165
10.0514
9.92685
9.79042
9.64132
9.47875
9.30188
9.10993
8.90219
8.67801
8.43689
8.17847
7.90258
7.60926
10.5037
10.5231
10.5415
10.5589
10.5752
10.5905
10.6049
10.6185
10.6312
10.6432
10.6545
10.6653
10.6755
10.6853
10.6946
10.7037
10.7125
10.7211
10.7295
10.7379
10.7463
10.7547
10.7632
10.7718
10.7805
10.7895
10.7988
10.8083
10.8181
10.8282
10.8386
10.8492
10.8601
10.8712
10.8825
10.8939
10.9054
10.9169
10.9285
10.9401
10.9515
10.9628
10.9738
10.9844
10.9946
11.0042
11.0131
11.0212
11.0285
11.0348
11.0401
11.0442
11.0472
11.0488
11.049
11.0476
11.0444
11.0393
11.032
11.0223
11.0101
10.9951
10.9772
10.956
10.9313
10.9029
10.8704
10.8335
10.7918
10.7449
10.6922
10.6333
10.5676
10.4946
10.4135
10.3237
10.2245
10.1152
9.9949
9.86278
9.71796
9.55953
9.38657
9.19816
8.99345
8.77164
8.53209
8.27434
7.99813
7.70346
10.5106
10.5301
10.5484
10.5656
10.5816
10.5967
10.6107
10.6239
10.6362
10.6477
10.6586
10.6689
10.6787
10.688
10.6969
10.7055
10.7139
10.7221
10.7301
10.7381
10.7461
10.7542
10.7623
10.7707
10.7792
10.788
10.7971
10.8066
10.8163
10.8265
10.8369
10.8477
10.8588
10.8701
10.8816
10.8933
10.9051
10.917
10.929
10.941
10.953
10.9649
10.9765
10.9878
10.9987
11.009
11.0186
11.0274
11.0353
11.0423
11.0484
11.0534
11.0572
11.0599
11.0611
11.0609
11.059
11.0553
11.0495
11.0414
11.0308
11.0176
11.0015
10.9823
10.9598
10.9338
10.904
10.87
10.8314
10.7879
10.739
10.684
10.6226
10.554
10.4776
10.3928
10.2987
10.1947
10.0799
9.95338
9.81415
9.6612
9.49346
9.30983
9.10927
8.89076
8.65347
8.39675
8.12021
7.82381
10.5193
10.5387
10.5569
10.5738
10.5896
10.6042
10.6178
10.6304
10.6422
10.6532
10.6635
10.6733
10.6825
10.6912
10.6996
10.7077
10.7155
10.7232
10.7308
10.7383
10.7458
10.7535
10.7613
10.7692
10.7775
10.786
10.7949
10.8043
10.814
10.8242
10.8348
10.8458
10.8571
10.8687
10.8805
10.8925
10.9047
10.917
10.9295
10.942
10.9546
10.9672
10.9797
10.9919
11.0036
11.0147
11.0251
11.0347
11.0434
11.0513
11.0581
11.0641
11.069
11.0728
11.0754
11.0766
11.0763
11.0742
11.0702
11.0639
11.0553
11.0441
11.0301
11.0133
10.9934
10.9702
10.9435
10.9129
10.8782
10.8388
10.7943
10.7441
10.6877
10.6245
10.5538
10.475
10.3872
10.2898
10.1818
10.0622
9.93005
9.78412
9.62316
9.44586
9.25086
9.0369
8.8028
8.54764
8.27086
7.97229
10.5297
10.5491
10.5671
10.5838
10.5991
10.6132
10.6262
10.6382
10.6493
10.6597
10.6693
10.6783
10.6868
10.6949
10.7027
10.7101
10.7174
10.7244
10.7314
10.7384
10.7454
10.7525
10.7598
10.7674
10.7752
10.7835
10.7922
10.8013
10.811
10.8213
10.8321
10.8433
10.855
10.8669
10.8791
10.8914
10.904
10.9167
10.9297
10.9429
10.9563
10.9698
10.9832
10.9965
11.0093
11.0214
11.0328
11.0433
11.0528
11.0615
11.0693
11.0762
11.0822
11.0874
11.0915
11.0945
11.0961
11.096
11.094
11.0898
11.0834
11.0744
11.0629
11.0487
11.0317
11.0117
10.9885
10.9619
10.9315
10.8969
10.8576
10.8131
10.7627
10.7058
10.6417
10.5699
10.4896
10.4
10.3002
10.1891
10.0657
9.92863
9.77636
9.6073
9.41974
9.21197
8.98239
8.72964
8.45282
8.15161
10.5421
10.5616
10.5794
10.5956
10.6104
10.6238
10.6361
10.6473
10.6576
10.6671
10.6759
10.6841
10.6918
10.6992
10.7061
10.7129
10.7194
10.7258
10.7321
10.7384
10.7448
10.7513
10.7581
10.7651
10.7724
10.7803
10.7886
10.7976
10.8072
10.8176
10.8286
10.8403
10.8523
10.8647
10.8773
10.8901
10.903
10.9161
10.9295
10.9434
10.9577
10.9723
10.9871
11.0017
11.0159
11.0293
11.0417
11.0531
11.0635
11.0729
11.0816
11.0895
11.0968
11.1034
11.1094
11.1144
11.1182
11.1205
11.1208
11.1191
11.115
11.1085
11.0996
11.0881
11.0742
11.0577
11.0384
11.0163
10.9909
10.9618
10.9285
10.8904
10.8469
10.7972
10.7408
10.6771
10.6053
10.5248
10.4347
10.3338
10.2211
10.0949
9.95368
9.79533
9.61767
9.41841
9.19528
8.94626
8.66987
8.36546
10.5569
10.5763
10.5938
10.6095
10.6235
10.6361
10.6474
10.6576
10.6669
10.6754
10.6833
10.6906
10.6974
10.7038
10.71
10.7159
10.7216
10.7272
10.7328
10.7383
10.744
10.7498
10.7558
10.7622
10.769
10.7762
10.7842
10.7929
10.8024
10.8129
10.8243
10.8365
10.8493
10.8623
10.8754
10.8884
10.9016
10.915
10.9288
10.9433
10.9585
10.9745
10.9911
11.0076
11.0236
11.0385
11.0521
11.0644
11.0755
11.0855
11.0948
11.1036
11.1121
11.1204
11.1284
11.136
11.1426
11.1476
11.1507
11.1516
11.15
11.146
11.1397
11.1311
11.1204
11.1075
11.0925
11.0752
11.0554
11.0327
11.0063
10.9756
10.9398
10.8983
10.8504
10.7957
10.7336
10.6635
10.5845
10.4956
10.3956
10.2829
10.1556
10.0111
9.84666
9.65917
9.44539
9.20224
8.92721
8.61896
10.5744
10.5938
10.6108
10.6257
10.6388
10.6502
10.6603
10.6693
10.6774
10.6847
10.6915
10.6977
10.7035
10.7089
10.7141
10.7191
10.7239
10.7287
10.7334
10.7381
10.7429
10.7479
10.7531
10.7587
10.7647
10.7713
10.7786
10.7868
10.7962
10.8068
10.8188
10.8319
10.8457
10.8597
10.8734
10.8867
10.8998
10.9132
10.9271
10.942
10.9583
10.976
10.995
11.0143
11.0327
11.0495
11.0643
11.0773
11.0888
11.0992
11.1088
11.1182
11.1278
11.1377
11.1481
11.1588
11.169
11.1776
11.1839
11.1875
11.1884
11.1868
11.183
11.1772
11.1696
11.1604
11.1497
11.1377
11.1242
11.1087
11.0904
11.0681
11.041
11.0084
10.9698
10.925
10.8735
10.8149
10.7485
10.6734
10.5884
10.4921
10.382
10.2555
10.1088
9.93774
9.73775
9.50408
9.23231
8.91959
10.5953
10.6146
10.6309
10.6447
10.6562
10.6661
10.6747
10.6822
10.6889
10.6949
10.7003
10.7054
10.71
10.7144
10.7185
10.7225
10.7263
10.7301
10.7339
10.7377
10.7416
10.7456
10.7499
10.7545
10.7595
10.7652
10.7717
10.7792
10.7882
10.7988
10.8115
10.8262
10.8421
10.8575
10.8718
10.8851
10.8978
10.9105
10.9239
10.9388
10.9559
10.9758
10.9983
11.0221
11.0442
11.0633
11.0792
11.0924
11.1037
11.1137
11.1231
11.1326
11.1427
11.1542
11.1675
11.1824
11.1977
11.2109
11.2208
11.2271
11.2303
11.2309
11.2292
11.2258
11.221
11.2153
11.2089
11.2023
11.1956
11.1886
11.18
11.1676
11.1501
11.1269
11.0981
11.0637
11.0236
10.9774
10.9249
10.8653
10.7977
10.7207
10.6323
10.529
10.406
10.2579
10.0786
9.86073
9.59636
9.2788
10.6206
10.6398
10.6548
10.6666
10.6761
10.684
10.6906
10.6964
10.7014
10.7058
10.7098
10.7135
10.7169
10.7201
10.7231
10.726
10.7289
10.7316
10.7344
10.7371
10.74
10.743
10.7462
10.7496
10.7535
10.7579
10.7632
10.7695
10.7775
10.7879
10.8015
10.8188
10.8389
10.8569
10.8718
10.8844
10.8956
10.9067
10.9185
10.9323
10.9495
10.9716
10.9998
11.0322
11.0601
11.0816
11.0979
11.1104
11.1204
11.1291
11.1373
11.1459
11.1558
11.1682
11.1844
11.2053
11.2293
11.249
11.2627
11.2713
11.276
11.278
11.2778
11.2763
11.2738
11.271
11.2684
11.267
11.2676
11.2708
11.2752
11.2745
11.2671
11.2535
11.2345
11.2107
11.1822
11.1491
11.1114
11.0686
11.0203
10.9659
10.9038
10.8307
10.7391
10.623
10.4748
10.2843
10.0369
9.71616
10.6526
10.6708
10.6831
10.6919
10.6984
10.7036
10.7079
10.7115
10.7146
10.7173
10.7198
10.7221
10.7241
10.7261
10.7279
10.7297
10.7314
10.7331
10.7348
10.7364
10.7382
10.74
10.742
10.7442
10.7466
10.7495
10.753
10.7575
10.7635
10.7723
10.7859
10.8074
10.8387
10.8607
10.8752
10.8855
10.8938
10.9017
10.9102
10.9209
10.9359
10.9588
10.9953
11.0487
11.085
11.1076
11.1219
11.1317
11.139
11.1452
11.1509
11.1572
11.1652
11.1765
11.1945
11.2237
11.2671
11.2956
11.312
11.321
11.3258
11.3279
11.3285
11.3281
11.3271
11.3263
11.3263
11.3286
11.3356
11.3512
11.3776
11.3908
11.393
11.3879
11.3779
11.3642
11.3474
11.3276
11.305
11.2797
11.2518
11.222
11.1912
11.159
11.1077
11.0339
10.9321
10.7898
10.5831
10.2711
10.697
10.7104
10.7166
10.7202
10.7227
10.7245
10.726
10.7272
10.7283
10.7292
10.7301
10.7308
10.7315
10.7322
10.7328
10.7334
10.734
10.7345
10.7351
10.7357
10.7362
10.7369
10.7375
10.7383
10.7391
10.7401
10.7414
10.743
10.7455
10.7499
10.7589
10.7819
10.852
10.8752
10.8845
10.8893
10.8927
10.8956
10.8989
10.9033
10.9108
10.9263
10.9665
11.0897
11.1298
11.1452
11.1524
11.1566
11.1594
11.1616
11.1638
11.1662
11.1696
11.1754
11.1882
11.2218
11.3262
11.3596
11.3718
11.3769
11.3792
11.3802
11.3805
11.3805
11.3803
11.3803
11.3809
11.3833
11.3912
11.4161
11.499
11.5231
11.5293
11.5293
11.5265
11.5222
11.5166
11.5101
11.5026
11.4945
11.486
11.4793
11.4807
11.5146
11.5085
11.4853
11.4477
11.388
11.2807
11.0458
7.1333
6.74248
6.33039
5.89824
5.44741
4.97944
4.49599
3.99876
3.48945
2.96979
2.44146
1.9061
1.36533
0.820728
0.27383
7.15546
6.7637
6.35043
5.91688
5.46451
4.9949
4.50976
4.0108
3.49979
2.97845
2.44847
1.91151
1.36917
0.823014
0.27459
7.20006
6.80639
6.3907
5.95432
5.49882
5.02588
4.5373
4.03488
3.52044
2.99572
2.46245
1.92228
1.3768
0.827569
0.276104
7.2677
6.87108
6.45163
6.01086
5.55052
5.07247
4.57865
4.07097
3.55133
3.02154
2.48332
1.93834
1.38818
0.834355
0.278359
7.35932
6.95855
6.53383
6.08694
5.6199
5.13481
4.63382
4.11901
3.59236
3.05575
2.51094
1.95957
1.4032
0.843313
0.281335
7.47624
7.06992
6.63817
6.18316
5.70728
5.21302
4.70279
4.17885
3.64333
3.09816
2.5451
1.98579
1.42174
0.854355
0.285002
7.62029
7.20669
6.76574
6.3002
5.81303
5.30718
4.78543
4.25026
3.70394
3.14843
2.58551
2.01675
1.44359
0.867362
0.289321
7.79388
7.37078
6.91787
6.43882
5.93742
5.41723
4.88144
4.33282
3.7737
3.20611
2.63174
2.05209
1.46851
0.882177
0.294237
8.00027
7.56462
7.0961
6.59977
6.08056
5.54284
4.99027
4.42584
3.85194
3.27053
2.68322
2.09137
1.49615
0.8986
0.299684
8.24387
7.7913
7.30211
6.78356
6.24218
5.68328
5.11095
4.52829
3.93765
3.34083
2.73924
2.13401
1.52612
0.916384
0.305579
8.53079
8.05457
7.53742
6.99013
6.42129
5.8371
5.24191
4.6387
4.02954
3.4159
2.79887
2.17932
1.55791
0.935234
0.311825
8.86975
8.35872
7.80284
7.21824
6.61569
6.0019
5.38088
4.75504
4.12587
3.49432
2.86103
2.22645
1.59095
0.954816
0.318312
9.27346
8.70767
8.09695
7.46423
6.82131
6.1739
5.52463
4.87468
4.22456
3.57447
2.92445
2.27451
1.62462
0.974761
0.324919
9.75997
9.10149
8.413
7.72037
7.0314
6.34773
5.66902
4.99446
4.32321
3.65452
2.98779
2.3225
1.65825
0.994684
0.331518
10.3473
9.52528
8.73316
7.97279
7.23616
6.51655
5.80922
5.1109
4.41926
3.73261
3.04966
2.36944
1.69117
1.01421
0.337987
10.0243
10.0728
10.1211
10.1692
10.217
10.2644
10.3113
10.3577
10.4035
10.4488
10.4939
10.539
10.5851
10.6343
10.6921
10.0249
10.0748
10.1245
10.1739
10.223
10.2717
10.3199
10.3675
10.4146
10.461
10.5071
10.5531
10.5998
10.649
10.7037
10.0256
10.0769
10.128
10.1788
10.2293
10.2794
10.3289
10.3778
10.426
10.4735
10.5203
10.5666
10.6128
10.66
10.7093
10.0264
10.0791
10.1317
10.184
10.2359
10.2874
10.3384
10.3886
10.438
10.4865
10.5338
10.5801
10.6251
10.6693
10.7132
10.0272
10.0814
10.1355
10.1894
10.2428
10.2959
10.3483
10.3999
10.4506
10.5002
10.5482
10.5943
10.6381
10.6789
10.717
10.028
10.0838
10.1395
10.195
10.2501
10.3047
10.3587
10.4119
10.464
10.5149
10.5638
10.6102
10.653
10.6905
10.7218
10.0288
10.0863
10.1437
10.2009
10.2577
10.314
10.3697
10.4246
10.4784
10.5308
10.5813
10.6287
10.6714
10.7064
10.7296
10.0297
10.0889
10.1481
10.207
10.2656
10.3237
10.3812
10.438
10.4937
10.5482
10.6007
10.6505
10.6953
10.7305
10.7456
10.0306
10.0916
10.1526
10.2133
10.2738
10.3338
10.3932
10.452
10.5099
10.5668
10.6222
10.6756
10.7258
10.7686
10.7863
10.0315
10.0944
10.1573
10.2199
10.2823
10.3442
10.4058
10.4667
10.5269
10.5863
10.6449
10.7029
10.7613
10.8242
10.9102
10.0324
10.0973
10.1621
10.2266
10.291
10.355
10.4187
10.4818
10.5444
10.6065
10.6681
10.73
10.7937
10.8638
10.9516
10.0334
10.1002
10.167
10.2336
10.2999
10.3661
10.4319
10.4973
10.5623
10.6269
10.6912
10.7557
10.8215
10.8911
10.9689
10.0344
10.1032
10.172
10.2406
10.3091
10.3773
10.4454
10.5131
10.5805
10.6475
10.7142
10.7805
10.8466
10.9128
10.9793
10.0354
10.1062
10.177
10.2477
10.3183
10.3888
10.459
10.5291
10.5989
10.6683
10.7373
10.8054
10.8718
10.9343
10.9895
10.0364
10.1093
10.1821
10.2549
10.3277
10.4003
10.4729
10.5453
10.6175
10.6895
10.761
10.8315
10.8995
10.9609
11.0059
10.0375
10.1124
10.1873
10.2622
10.3371
10.4119
10.4867
10.5615
10.6363
10.7109
10.7854
10.8593
10.9317
10.9988
11.0441
10.0385
10.1155
10.1924
10.2695
10.3465
10.4235
10.5007
10.5778
10.6551
10.7325
10.8101
10.8882
10.9676
11.0518
11.1574
10.0395
10.1185
10.1976
10.2767
10.3559
10.4351
10.5145
10.5941
10.6738
10.7539
10.8345
10.9161
11.0001
11.0901
11.1958
10.0405
10.1216
10.2027
10.2839
10.3651
10.4466
10.5282
10.6101
10.6923
10.7749
10.8582
10.9424
11.0283
11.1174
11.2127
10.0415
10.1246
10.2077
10.291
10.3743
10.4579
10.5417
10.6259
10.7105
10.7955
10.8812
10.9675
11.0542
11.1405
11.2244
10.0425
10.1276
10.2127
10.2979
10.3834
10.469
10.555
10.6414
10.7283
10.8157
10.9037
10.9922
11.0804
11.1652
11.2391
10.0435
10.1305
10.2176
10.3048
10.3922
10.48
10.568
10.6566
10.7456
10.8354
10.9259
11.0172
11.1087
11.1976
11.2705
10.0444
10.1333
10.2223
10.3115
10.4009
10.4906
10.5807
10.6713
10.7625
10.8546
10.9476
11.0421
11.1389
11.241
11.3614
10.0454
10.1361
10.227
10.318
10.4093
10.501
10.593
10.6856
10.7789
10.873
10.9682
11.0653
11.1654
11.2717
11.392
10.0463
10.1388
10.2315
10.3244
10.4175
10.511
10.6049
10.6994
10.7946
10.8906
10.9877
11.0863
11.1874
11.2927
11.405
10.0471
10.1415
10.2359
10.3306
10.4255
10.5207
10.6165
10.7127
10.8096
10.9073
11.0059
11.1056
11.2065
11.3089
11.4126
10.048
10.144
10.2402
10.3365
10.4331
10.5301
10.6276
10.7256
10.8242
10.9235
11.0235
11.124
11.2247
11.324
11.4197
10.0488
10.1465
10.2443
10.3423
10.4406
10.5392
10.6383
10.738
10.8382
10.9391
11.0406
11.1424
11.2436
11.3417
11.4302
10.0496
10.1489
10.2482
10.3478
10.4477
10.548
10.6487
10.7499
10.8518
10.9543
11.0574
11.1611
11.2647
11.3659
11.4541
10.0504
10.1512
10.2521
10.3532
10.4546
10.5564
10.6586
10.7614
10.8648
10.969
11.0739
11.1799
11.2875
11.399
11.5242
10.0511
10.1534
10.2557
10.3583
10.4612
10.5645
10.6682
10.7725
10.8774
10.983
11.0896
11.1975
11.3077
11.4225
11.5478
10.0518
10.1555
10.2592
10.3632
10.4675
10.5722
10.6773
10.783
10.8894
10.9964
11.1044
11.2136
11.3245
11.4386
11.5578
10.0525
10.1575
10.2626
10.3679
10.4736
10.5796
10.6861
10.7932
10.9008
11.0092
11.1184
11.2283
11.3392
11.451
11.5637
10.0531
10.1594
10.2658
10.3724
10.4793
10.5867
10.6945
10.8028
10.9118
11.0214
11.1317
11.2424
11.3532
11.4628
11.5693
10.0537
10.1612
10.2688
10.3767
10.4848
10.5934
10.7024
10.812
10.9223
11.0332
11.1446
11.2565
11.3679
11.4767
11.5777
10.0543
10.1629
10.2717
10.3807
10.49
10.5998
10.71
10.8208
10.9323
11.0444
11.1573
11.2708
11.3844
11.496
11.5972
10.0548
10.1645
10.2744
10.3845
10.4949
10.6058
10.7171
10.8291
10.9417
11.0552
11.1696
11.2851
11.4021
11.5226
11.6546
10.0553
10.1661
10.2769
10.3881
10.4995
10.6114
10.7238
10.8369
10.9507
11.0653
11.181
11.2981
11.4175
11.5411
11.6737
10.0558
10.1675
10.2793
10.3914
10.5038
10.6166
10.73
10.8441
10.9589
11.0747
11.1915
11.3097
11.4299
11.5533
11.6815
10.0562
10.1688
10.2815
10.3944
10.5077
10.6215
10.7358
10.8508
10.9666
11.0832
11.2009
11.3198
11.4401
11.562
11.6857
10.0566
10.17
10.2835
10.3972
10.5113
10.6259
10.7411
10.8569
10.9735
11.091
11.2094
11.3288
11.449
11.5695
11.6892
10.057
10.1711
10.2853
10.3998
10.5146
10.63
10.7459
10.8625
10.9799
11.0982
11.2173
11.3373
11.4578
11.5776
11.6939
10.0573
10.172
10.2869
10.402
10.5176
10.6336
10.7502
10.8675
10.9856
11.1046
11.2246
11.3454
11.4669
11.5879
11.704
10.0576
10.1729
10.2883
10.404
10.5201
10.6368
10.754
10.8719
10.9907
11.1104
11.2311
11.353
11.4763
11.6017
11.7334
10.0578
10.1736
10.2895
10.4057
10.5224
10.6395
10.7573
10.8758
10.9951
11.1155
11.2369
11.3597
11.4841
11.6112
11.7432
10.0581
10.1742
10.2905
10.4072
10.5242
10.6418
10.76
10.879
10.9988
11.1197
11.2417
11.3651
11.4901
11.6172
11.7471
10.0582
10.1747
10.2913
10.4083
10.5257
10.6436
10.7622
10.8815
11.0018
11.1231
11.2456
11.3693
11.4945
11.6212
11.7491
10.0583
10.175
10.2919
10.4091
10.5267
10.6449
10.7638
10.8834
11.004
11.1257
11.2485
11.3726
11.4979
11.6243
11.7508
10.0584
10.1753
10.2923
10.4096
10.5274
10.6458
10.7648
10.8847
11.0055
11.1274
11.2505
11.3749
11.5006
11.6271
11.7534
10.0584
10.1753
10.2924
10.4098
10.5277
10.6461
10.7653
10.8852
11.0062
11.1283
11.2516
11.3763
11.5025
11.6302
11.7603
10.0584
10.1753
10.2923
10.4097
10.5276
10.646
10.7651
10.8851
11.0061
11.1283
11.2517
11.3767
11.5033
11.6317
11.7623
10.0583
10.1751
10.292
10.4093
10.527
10.6453
10.7643
10.8842
11.0052
11.1273
11.2508
11.3759
11.5028
11.6317
11.7626
10.0582
10.1748
10.2915
10.4085
10.526
10.6441
10.7629
10.8826
11.0034
11.1253
11.2487
11.3737
11.5008
11.6302
11.7621
10.0581
10.1743
10.2907
10.4074
10.5246
10.6424
10.7609
10.8803
11.0007
11.1223
11.2454
11.3702
11.4972
11.627
11.7604
10.0579
10.1737
10.2897
10.406
10.5228
10.6402
10.7582
10.8772
10.9971
11.1183
11.2409
11.3651
11.4915
11.6212
11.7565
10.0576
10.173
10.2885
10.4043
10.5206
10.6374
10.7549
10.8733
10.9927
11.1133
11.2351
11.3585
11.4836
11.6114
11.7462
10.0573
10.1721
10.287
10.4023
10.5179
10.6341
10.751
10.8688
10.9875
11.1073
11.2283
11.3505
11.4737
11.5968
11.7147
10.057
10.1711
10.2853
10.3999
10.5149
10.6304
10.7466
10.8635
10.9815
11.1005
11.2206
11.3419
11.464
11.5856
11.7038
10.0566
10.17
10.2835
10.3972
10.5114
10.6261
10.7415
10.8576
10.9747
11.0928
11.2121
11.3327
11.4544
11.5769
11.6987
10.0562
10.1687
10.2814
10.3943
10.5076
10.6214
10.7358
10.851
10.9671
11.0843
11.2027
11.3226
11.4444
11.5684
11.6948
10.0558
10.1674
10.2791
10.3911
10.5034
10.6163
10.7297
10.8438
10.9588
11.0748
11.1922
11.3112
11.4328
11.5583
11.6899
10.0553
10.1659
10.2766
10.3876
10.4989
10.6107
10.723
10.8359
10.9497
11.0645
11.1804
11.2981
11.4184
11.544
11.6806
10.0548
10.1643
10.274
10.3839
10.4941
10.6047
10.7158
10.8275
10.9399
11.0532
11.1675
11.283
11.4004
11.5219
11.6574
10.0542
10.1626
10.2712
10.3799
10.4889
10.5983
10.7082
10.8185
10.9295
11.0412
11.1536
11.2666
11.3795
11.49
11.5877
10.0536
10.1609
10.2682
10.3758
10.4835
10.5916
10.7002
10.8091
10.9187
11.0287
11.1393
11.2501
11.3602
11.467
11.5642
10.053
10.159
10.2651
10.3714
10.4779
10.5847
10.6918
10.7993
10.9073
11.0159
11.1248
11.2341
11.3432
11.4506
11.5541
10.0524
10.1571
10.2619
10.3669
10.472
10.5774
10.6831
10.7892
10.8956
11.0026
11.1101
11.2183
11.3272
11.437
11.5476
10.0517
10.1551
10.2586
10.3623
10.466
10.57
10.6742
10.7787
10.8836
10.9889
11.0949
11.2019
11.3106
11.4227
11.5407
10.051
10.1531
10.2553
10.3575
10.4598
10.5623
10.665
10.768
10.8712
10.9748
11.079
11.1842
11.2916
11.4042
11.5291
10.0504
10.1511
10.2518
10.3526
10.4535
10.5545
10.6557
10.757
10.8585
10.9602
11.0623
11.165
11.269
11.3771
11.5012
10.0497
10.149
10.2483
10.3477
10.4471
10.5466
10.6462
10.7459
10.8456
10.9454
11.0452
11.1449
11.2436
11.3387
11.4179
10.049
10.1469
10.2448
10.3427
10.4407
10.5387
10.6366
10.7346
10.8326
10.9305
11.0282
11.1253
11.2207
11.3113
11.39
10.0483
10.1448
10.2413
10.3377
10.4342
10.5307
10.6271
10.7234
10.8197
10.9158
11.0116
11.1069
11.201
11.2923
11.3781
10.0475
10.1426
10.2377
10.3327
10.4277
10.5227
10.6175
10.7122
10.8068
10.9012
10.9954
11.0894
11.1832
11.277
11.3708
10.0468
10.1405
10.2342
10.3278
10.4213
10.5147
10.608
10.7011
10.794
10.8867
10.9792
11.0719
11.1654
11.2616
11.3634
10.0461
10.1384
10.2307
10.3228
10.4149
10.5069
10.5986
10.6901
10.7814
10.8723
10.9629
11.0537
11.1458
11.2423
11.3512
10.0455
10.1364
10.2272
10.318
10.4086
10.4991
10.5894
10.6793
10.7689
10.858
10.9465
11.0346
11.123
11.2145
11.3221
10.0448
10.1343
10.2238
10.3132
10.4024
10.4915
10.5803
10.6688
10.7568
10.844
10.9304
11.0153
11.098
11.1754
11.2351
10.0441
10.1323
10.2204
10.3085
10.3964
10.4841
10.5715
10.6586
10.7451
10.8307
10.9152
10.9976
11.0765
11.1486
11.2065
10.0434
10.1303
10.2171
10.3038
10.3904
10.4768
10.563
10.6488
10.7339
10.8183
10.9013
10.9822
11.0598
11.1318
11.1953
10.0428
10.1283
10.2138
10.2993
10.3846
10.4698
10.5547
10.6393
10.7234
10.8067
10.8889
10.9692
11.0469
11.1207
11.1899
10.0421
10.1264
10.2106
10.2948
10.3789
10.4628
10.5466
10.6302
10.7133
10.7959
10.8776
10.9581
11.0367
11.1129
11.1866
10.0415
10.1245
10.2074
10.2903
10.3732
10.456
10.5387
10.6213
10.7036
10.7857
10.8672
10.9481
11.028
11.1068
11.1843
10.0408
10.1225
10.2042
10.2859
10.3676
10.4492
10.5309
10.6125
10.6941
10.7757
10.8573
10.9388
11.0202
11.1014
11.1824
10.0402
10.1206
10.2011
10.2815
10.3619
10.4425
10.523
10.6037
10.6846
10.7658
10.8474
10.9296
11.0124
11.0961
11.1805
10.0396
10.1187
10.1979
10.277
10.3563
10.4356
10.5151
10.5948
10.6749
10.7556
10.8371
10.9198
11.0041
11.0903
11.1783
10.0389
10.1168
10.1946
10.2725
10.3505
10.4286
10.507
10.5856
10.6648
10.7448
10.8259
10.9089
10.9943
11.0831
11.1755
10.0383
10.1148
10.1914
10.268
10.3447
10.4215
10.4986
10.576
10.6541
10.7331
10.8135
10.8962
10.9823
11.0734
11.1712
10.0376
10.1128
10.1881
10.2634
10.3387
10.4142
10.4899
10.566
10.6427
10.7203
10.7995
10.8811
10.9667
11.0591
11.163
10.037
10.1109
10.1848
10.2587
10.3327
10.4067
10.481
10.5556
10.6306
10.7065
10.7837
10.8632
10.9464
11.0367
11.1437
10.9407
9.88628
8.99749
8.18238
7.40822
6.66
5.92946
5.2115
4.50273
3.80077
3.10386
2.41068
1.72015
1.03141
0.343691
11.1282
10.0994
9.18657
8.34444
7.54661
6.77812
6.03
5.29654
4.57386
3.8592
3.15054
2.44631
1.74525
1.04633
0.348642
11.2062
10.232
9.32653
8.47571
7.66459
6.88205
6.12034
5.37408
4.6394
3.91346
3.19414
2.47972
1.76886
1.06039
0.353312
11.2453
10.3168
9.4285
8.57938
7.76269
6.97148
6.19994
5.44355
4.69884
3.96313
3.2343
2.51066
1.79079
1.07348
0.357665
11.2682
10.3735
9.50326
8.66049
7.84308
7.04723
6.26899
5.50489
4.75202
4.008
3.27086
2.53897
1.81094
1.08554
0.361678
11.2831
10.4132
9.55889
8.72394
7.90848
7.11072
6.3282
5.5584
4.79903
4.04807
3.30376
2.5646
1.82925
1.09652
0.365339
11.2936
10.4421
9.60102
8.77383
7.96155
7.16359
6.37854
5.60465
4.84019
4.08351
3.33308
2.58757
1.84572
1.10643
0.368647
11.3012
10.4637
9.63345
8.81332
8.00465
7.20748
6.42109
5.64434
4.87594
4.11458
3.35898
2.60797
1.86042
1.1153
0.371608
11.307
10.4803
9.65879
8.84482
8.03973
7.24386
6.45692
5.67821
4.90678
4.14163
3.38169
2.62596
1.87343
1.12316
0.37424
11.3115
10.4933
9.67883
8.87014
8.06836
7.27401
6.48702
5.70699
4.93325
4.16503
3.40147
2.6417
1.88486
1.13009
0.37656
11.315
10.5035
9.69485
8.89061
8.09182
7.299
6.51227
5.73137
4.95588
4.18519
3.41861
2.65541
1.89484
1.13616
0.378594
11.3179
10.5117
9.70776
8.90727
8.11109
7.31975
6.53342
5.75199
4.97516
4.20247
3.43338
2.66728
1.90352
1.14144
0.380366
11.3201
10.5183
9.71825
8.92089
8.12698
7.337
6.55114
5.76939
4.99153
4.21724
3.44607
2.67751
1.91101
1.14601
0.381903
11.322
10.5237
9.72681
8.93207
8.14011
7.35135
6.56599
5.78406
5.00542
4.22983
3.45692
2.68629
1.91747
1.14995
0.383229
11.3235
10.5281
9.73384
8.9413
8.15099
7.36331
6.57843
5.79641
5.01718
4.24053
3.46619
2.69381
1.92301
1.15334
0.38437
11.3247
10.5317
9.73963
8.94892
8.16003
7.37328
6.58886
5.80682
5.02712
4.24961
3.47408
2.70024
1.92775
1.15625
0.385348
11.3257
10.5347
9.74442
8.95524
8.16755
7.38161
6.5976
5.81557
5.03551
4.25731
3.48079
2.70571
1.93179
1.15873
0.386184
11.3265
10.5372
9.74839
8.9605
8.17381
7.38858
6.60493
5.82294
5.0426
4.26383
3.48648
2.71036
1.93523
1.16084
0.386897
11.3272
10.5392
9.75169
8.96487
8.17905
7.39441
6.61109
5.82914
5.04858
4.26934
3.4913
2.71431
1.93816
1.16264
0.387505
11.3278
10.541
9.75445
8.96853
8.18342
7.39929
6.61626
5.83437
5.05363
4.274
3.49539
2.71766
1.94065
1.16417
0.388021
11.3283
10.5424
9.75674
8.97158
8.18708
7.40339
6.6206
5.83876
5.05789
4.27794
3.49884
2.7205
1.94276
1.16547
0.388459
11.3287
10.5436
9.75867
8.97414
8.19016
7.40684
6.62426
5.84247
5.06148
4.28127
3.50177
2.7229
1.94455
1.16657
0.388832
11.329
10.5446
9.76028
8.97629
8.19274
7.40973
6.62734
5.8456
5.06452
4.28408
3.50425
2.72494
1.94607
1.16751
0.389148
11.3293
10.5454
9.76163
8.9781
8.19492
7.41218
6.62994
5.84824
5.06709
4.28647
3.50635
2.72667
1.94736
1.1683
0.389416
11.3296
10.5461
9.76278
8.97963
8.19676
7.41424
6.63214
5.85048
5.06926
4.28849
3.50814
2.72814
1.94845
1.16898
0.389644
11.3298
10.5467
9.76375
8.98092
8.19831
7.416
6.63401
5.85238
5.07112
4.29022
3.50966
2.7294
1.94938
1.16955
0.389839
11.3299
10.5472
9.76457
8.98202
8.19964
7.41749
6.6356
5.854
5.0727
4.29169
3.51095
2.73047
1.95018
1.17005
0.390005
11.3301
10.5477
9.76528
8.98297
8.20078
7.41877
6.63697
5.85539
5.07405
4.29295
3.51207
2.73138
1.95087
1.17047
0.390148
11.3302
10.5481
9.7659
8.98379
8.20177
7.41988
6.63816
5.8566
5.07523
4.29404
3.51303
2.73218
1.95146
1.17083
0.390271
11.3303
10.5484
9.76643
8.9845
8.20263
7.42086
6.63919
5.85765
5.07625
4.29499
3.51387
2.73287
1.95197
1.17115
0.390379
11.3304
10.5487
9.76691
8.98515
8.2034
7.42172
6.64011
5.85859
5.07716
4.29584
3.51462
2.73348
1.95243
1.17143
0.390474
11.3305
10.549
9.76735
8.98573
8.20411
7.42251
6.64094
5.85943
5.07798
4.2966
3.51528
2.73403
1.95284
1.17169
0.390559
11.3306
10.5492
9.76776
8.98627
8.20476
7.42323
6.64171
5.86021
5.07873
4.29729
3.51589
2.73453
1.95321
1.17191
0.390636
11.3307
10.5495
9.76816
8.9868
8.20539
7.42393
6.64245
5.86094
5.07944
4.29794
3.51646
2.735
1.95355
1.17213
0.390707
11.3308
10.5497
9.76857
8.98733
8.20601
7.42462
6.64316
5.86166
5.08012
4.29856
3.517
2.73544
1.95388
1.17232
0.390775
11.3309
10.55
9.76899
8.98788
8.20665
7.42532
6.64389
5.86237