/*--------------------------------*- C++ -*----------------------------------*\
| =========                 |                                                 |
| \\      /  F ield         | OpenFOAM: The Open Source CFD Toolbox           |
|  \\    /   O peration     | Version:  5.x                                   |
|   \\  /    A nd           | Web:      www.OpenFOAM.org                      |
|    \\/     M anipulation  |                                                 |
\*---------------------------------------------------------------------------*/
FoamFile
{
    version     2.0;
    format      ascii;
    class       volScalarField;
    location    "4.2";
    object      gradTx;
}
// * * * * * * * * * * * * * * * * * * * * * * * * * * * * * * * * * * * * * //

dimensions      [0 -1 0 1 0 0 0];

internalField   nonuniform List<scalar> 
6300
(
2725.22
2717.42
2701.8
2678.31
2646.88
2607.45
2559.98
2504.45
2440.96
2369.67
2290.94
2205.26
2113.39
2016.26
1915.05
2732.9
2725.14
2709.57
2686.14
2654.78
2615.39
2567.92
2512.32
2448.64
2377.03
2297.78
2211.38
2118.55
2020.26
1917.71
2748.25
2740.54
2725.08
2701.79
2670.58
2631.32
2583.88
2528.18
2464.17
2391.93
2311.67
2223.83
2129.1
2028.44
1923.15
2771.19
2763.58
2748.3
2725.27
2694.33
2655.31
2608
2552.23
2487.83
2414.74
2333.06
2243.09
2145.47
2041.19
1931.62
2801.62
2794.16
2779.18
2756.54
2726.05
2687.47
2640.49
2584.8
2520.07
2446.05
2362.63
2269.92
2168.42
2059.13
1943.56
2839.41
2832.16
2817.59
2795.54
2765.76
2727.92
2681.59
2626.31
2561.51
2486.68
2401.38
2305.43
2199.09
2083.26
1959.65
2884.32
2877.37
2863.38
2842.16
2813.41
2776.73
2731.55
2677.21
2612.88
2537.67
2450.68
2351.24
2239.16
2115.09
1980.92
2936.06
2929.5
2916.28
2896.19
2868.9
2833.92
2790.57
2737.99
2675.03
2600.32
2512.34
2409.6
2291.11
2156.94
2009.03
2994.24
2988.17
2975.93
2957.31
2931.95
2899.35
2858.73
2809.03
2748.81
2676.14
2588.64
2483.62
2358.63
2212.45
2046.62
3058.38
3052.9
3041.85
3025.04
3002.15
2972.67
2935.83
2890.49
2834.93
2766.69
2682.36
2577.52
2447.24
2287.52
2098.23
3127.87
3123.07
3113.4
3098.73
3078.8
3053.23
3021.33
2982.04
2933.61
2873.22
2796.46
2696.74
2565.18
2392.09
2172.04
3202.04
3197.98
3189.83
3177.54
3160.99
3139.98
3114.1
3082.61
3044.13
2996.01
2933.41
2847.7
2724.56
2543.51
2284.28
3280.14
3276.84
3270.28
3260.49
3247.52
3231.46
3212.34
3190.06
3164.15
3133.16
3093.36
3035.97
2941.76
2772.99
2471.1
3361.4
3358.85
3353.83
3346.47
3337.02
3325.88
3313.6
3301
3289.11
3278.98
3270.79
3260.94
3233.37
3135.48
2825.41
3445.07
3443.2
3439.57
3434.4
3428.08
3421.28
3415.05
3411.1
3412.19
3422.74
3449.73
3503.49
3595.18
3710
3630.08
1819.92
1732.32
1644.63
1557.7
1472.36
1389.37
1309.39
1232.99
1160.63
1092.66
1029.34
970.825
917.2
868.48
824.621
785.537
751.098
721.143
695.484
673.903
656.158
641.98
631.074
623.117
617.757
614.621
613.312
613.422
614.543
616.274
618.244
620.116
621.601
622.459
622.498
621.564
619.533
616.297
611.758
605.82
598.398
589.418
578.833
566.625
552.815
537.458
520.637
502.449
482.989
462.337
440.544
417.624
393.557
368.289
341.745
313.833
284.46
253.532
220.96
186.657
150.529
112.467
72.3377
29.978
-14.8124
-62.2702
-112.664
-166.29
-223.458
-284.483
-349.677
-419.335
-493.732
-573.117
-657.711
-747.701
-843.24
-944.432
-1051.33
-1163.9
-1282.04
-1405.51
-1533.96
-1666.88
-1803.6
-1943.29
-2084.96
-2227.49
-2369.66
-2510.21
1821.25
1732.4
1643.46
1555.35
1468.92
1384.97
1304.18
1227.12
1154.26
1085.93
1022.38
963.745
910.101
861.443
817.715
778.816
744.61
714.931
689.584
668.353
650.996
637.245
626.805
619.352
614.534
611.967
611.246
611.946
613.64
615.91
618.364
620.653
622.483
623.618
623.877
623.123
621.247
618.155
613.751
607.939
600.621
591.712
581.151
568.914
555.025
539.55
522.59
504.264
484.692
463.968
442.153
419.264
395.274
370.118
343.704
315.93
286.691
255.892
223.448
189.282
153.311
115.441
75.5502
33.4801
-10.9683
-58.0367
-108.005
-161.181
-217.892
-278.468
-343.234
-412.493
-486.528
-565.593
-649.913
-739.683
-835.066
-936.184
-1043.11
-1155.84
-1274.3
-1398.29
-1527.47
-1661.34
-1799.26
-1940.36
-2083.64
-2227.92
-2371.92
-2514.3
1823.95
1732.52
1641.04
1550.51
1461.87
1375.97
1293.54
1215.17
1141.31
1072.28
1008.28
949.444
895.784
847.271
803.82
765.305
731.575
702.45
677.731
657.199
640.616
627.716
618.209
611.772
608.045
606.634
607.11
609.017
611.887
615.258
618.698
621.829
624.344
626.017
626.693
626.276
624.693
621.88
617.753
612.205
605.116
596.366
585.862
573.566
559.502
543.762
526.492
507.861
488.037
467.155
445.296
422.478
398.66
373.747
347.614
320.127
291.161
260.614
228.412
194.5
158.826
121.325
81.9007
40.4088
-3.34806
-49.6229
-98.718
-150.973
-206.749
-266.409
-330.303
-398.757
-472.062
-550.479
-634.239
-723.551
-818.598
-919.536
-1026.48
-1139.5
-1258.56
-1383.53
-1514.14
-1649.93
-1790.25
-1934.23
-2080.8
-2228.67
-2376.43
-2522.57
1828.14
1732.67
1637.19
1542.87
1450.8
1361.92
1277.01
1196.68
1121.35
1051.32
986.734
927.644
874.021
825.777
782.782
744.876
711.879
683.596
659.821
640.336
624.907
613.279
605.171
600.265
598.199
598.562
600.891
604.68
609.391
614.485
619.456
623.869
627.397
629.828
631.065
631.084
629.891
627.477
623.779
618.672
611.984
603.525
593.138
580.745
566.373
550.162
532.336
513.161
492.892
471.734
449.805
427.122
403.611
379.122
353.465
326.445
297.899
267.713
235.834
202.251
166.968
129.978
91.2278
50.6003
7.90091
-37.1433
-84.8748
-135.688
-190.002
-248.24
-310.794
-378.017
-450.214
-527.646
-610.547
-699.132
-793.615
-894.201
-1001.08
-1114.4
-1234.25
-1360.61
-1493.3
-1631.94
-1775.91
-1924.32
-2075.99
-2229.49
-2383.18
-2535.27
1833.99
1732.76
1631.6
1531.94
1435.07
1342.09
1253.84
1170.92
1093.74
1022.48
957.23
897.934
844.477
796.693
754.386
717.349
685.366
658.223
635.708
617.607
603.699
593.75
587.499
584.646
584.833
587.636
592.55
598.993
606.322
613.868
620.994
627.164
632.005
635.339
637.169
637.615
636.828
634.901
631.811
627.397
621.382
613.441
603.284
590.753
575.875
558.871
540.107
520.018
499.014
477.411
455.384
432.945
409.957
386.169
361.269
334.954
306.989
277.244
245.705
212.444
177.566
141.163
103.258
63.7764
22.529
-20.79
-66.5888
-115.351
-167.598
-223.842
-284.547
-350.1
-420.809
-496.918
-578.641
-666.194
-759.813
-859.769
-966.353
-1079.86
-1200.53
-1328.52
-1463.83
-1606.2
-1755.1
-1909.62
-2068.47
-2229.97
-2392.13
-2552.74
1841.79
1732.68
1623.78
1516.92
1413.7
1315.4
1222.93
1136.87
1057.52
984.964
919.111
859.781
806.731
759.688
718.373
682.515
651.856
626.162
605.215
588.815
576.767
568.873
564.914
564.626
567.679
573.648
581.984
592.01
602.92
613.835
623.888
632.351
638.761
642.995
645.245
645.901
645.384
643.978
641.73
638.406
633.535
626.525
616.83
604.123
588.422
570.096
549.771
528.176
505.981
483.685
461.544
439.547
417.445
394.804
371.1
345.831
318.633
289.352
258.052
224.958
190.358
154.509
117.557
79.4954
40.1417
-0.862335
-44.0301
-89.9907
-139.429
-193.01
-251.305
-314.743
-383.609
-458.084
-538.319
-624.492
-716.856
-815.757
-921.626
-1034.95
-1156.22
-1285.86
-1424.12
-1571.01
-1726.14
-1888.63
-2057.05
-2229.42
-2403.2
-2575.56
1851.97
1732.23
1612.95
1496.59
1385.18
1280.25
1182.73
1093.11
1011.49
937.745
871.558
812.549
760.302
714.406
674.476
640.165
611.172
587.239
568.151
553.733
543.832
538.31
537.02
539.774
546.307
556.228
568.967
583.73
599.489
615.02
629.048
640.471
648.629
653.484
655.592
655.857
655.196
654.247
653.176
651.62
648.747
643.457
634.691
621.785
604.73
584.18
561.248
537.179
513.078
489.723
467.479
446.287
425.696
404.96
383.174
359.477
333.269
304.358
272.975
239.635
204.946
169.439
133.451
97.0749
60.1318
22.1835
-17.4457
-59.6167
-105.287
-155.38
-210.646
-271.558
-338.314
-410.939
-489.424
-573.849
-664.457
-761.679
-866.129
-978.562
-1099.81
-1230.71
-1371.94
-1523.9
-1686.5
-1859.01
-2039.89
-2226.73
-2416.25
-2604.58
1865.19
1731.06
1597.86
1469.04
1347.3
1234.36
1131.11
1037.77
954.098
879.595
813.632
755.545
704.696
660.504
622.46
590.134
563.177
541.315
524.343
512.124
504.57
501.634
503.282
509.46
520.036
534.731
553.013
573.998
596.362
618.348
637.938
653.272
663.229
667.905
668.571
667.123
665.402
664.667
665.3
666.71
667.419
665.372
658.49
645.405
626.048
601.678
574.344
546.213
519.086
494.145
471.887
452.145
434.145
416.615
397.987
376.73
351.787
322.918
290.709
256.248
220.708
185.056
149.905
115.469
81.5696
47.6511
12.8017
-24.1999
-64.7683
-110.293
-161.847
-219.944
-284.553
-355.337
-431.955
-514.28
-602.506
-697.164
-799.102
-909.436
-1029.48
-1160.64
-1304.27
-1461.41
-1632.53
-1817.27
-2014.08
-2220.08
-2430.92
-2641.08
1882.48
1728.49
1576.38
1431.27
1296.68
1174.48
1065.19
968.469
883.462
809.113
744.329
688.087
639.476
597.722
562.184
532.349
507.825
488.326
473.672
463.777
458.639
458.337
463.003
472.792
487.817
508.047
533.146
562.258
593.76
625.104
652.936
673.79
685.412
688.079
684.571
678.76
674.165
673.096
676.285
682.786
690.038
694.228
691.201
678.035
654.566
623.426
588.567
553.786
521.931
494.688
472.66
455.483
441.903
429.838
416.573
399.282
375.95
346.276
311.681
274.408
236.625
199.949
165.327
133.09
103.034
74.46
46.15
16.3561
-17.1075
-56.52
-103.615
-158.944
-221.889
-291.319
-366.248
-446.194
-531.269
-622.138
-719.955
-826.292
-943.094
-1072.58
-1217.08
-1378.71
-1558.91
-1758.06
-1974.97
-2206.37
-2446.46
-2687.05
1905.53
1723.15
1544.76
1378.27
1228.17
1095.94
981.136
882.259
797.447
724.827
662.7
609.612
564.357
525.965
493.673
466.898
445.215
428.343
416.132
408.559
405.729
407.869
415.33
428.566
448.084
474.333
507.483
547.055
591.367
636.894
677.957
707.581
720.465
717.122
703.866
688.62
677.828
675.371
682.479
697.756
717.047
733.452
738.492
725.477
694.111
650.511
602.658
557.129
518.117
487.708
466.433
453.628
447.467
444.778
440.944
430.523
409.234
376.712
336.502
293.294
250.941
211.88
177.311
147.566
122.366
100.888
81.6357
62.1985
39.1227
8.32079
-33.5199
-86.9698
-149.876
-219.368
-293.302
-370.705
-451.665
-537.085
-628.509
-728.049
-838.402
-962.863
-1105.2
-1269.2
-1457.95
-1673.2
-1914.92
-2180.07
-2461.18
-2745.64
1937.25
1711.98
1495.95
1301.64
1133.86
992.276
874.09
775.751
693.836
625.395
568.027
519.83
479.332
445.404
417.198
394.094
375.66
361.63
351.896
346.499
345.645
349.722
359.325
375.279
398.644
430.663
472.552
525.008
587.201
655.089
719.427
765.453
778.858
760.413
726.004
692.042
669.464
663.851
676.883
706.925
748.186
789.017
811.757
799.322
751.252
683.699
613.386
551.07
501.897
467.557
447.995
442.19
448.019
461.353
474.788
477.4
458.681
418.21
365.632
310.94
260.511
217.337
182.345
155.493
136.334
124.11
117.387
113.28
106.48
89.0595
53.2959
-1.37257
-68.3723
-141.01
-215.349
-290.081
-365.619
-443.365
-525.352
-614.208
-713.362
-827.367
-962.071
-1124.02
-1318.74
-1550.19
-1821.05
-2130.69
-2470.99
-2822.13
1982.99
1687.43
1415.78
1186.74
1001.78
854.889
738.443
645.568
570.797
509.998
460.123
418.942
384.825
356.584
333.361
314.55
299.747
288.72
281.4
277.882
278.447
283.606
294.161
311.304
336.73
372.764
422.386
488.922
574.815
678.372
787.241
870.274
883.087
826.667
747.471
679.047
636.651
625.459
646.771
699.917
779.918
870.61
935.648
924.455
836.421
720.837
612.579
526.068
464.304
426.111
409.737
413.987
437.747
477.773
524.201
554.981
539.439
477.129
397.797
322.437
259.629
211.006
175.656
152.338
140.315
139.407
149.368
168.24
189.127
196.212
167.335
101.983
21.2545
-60.1961
-136.818
-208.282
-276.379
-343.522
-412.284
-485.516
-566.908
-662.036
-779.669
-931.615
-1126.6
-1370.37
-1671.27
-2037.1
-2465.08
-2925.91
2053.59
1628.36
1274.22
1008.34
814.823
673.622
568.815
489.289
427.613
378.848
339.683
307.866
281.841
260.524
243.158
229.222
218.384
210.461
205.419
203.374
204.625
209.708
219.502
235.388
259.528
295.285
347.849
424.946
536.972
693.981
892.231
1076.18
1086.98
925.687
753.402
628.546
558.881
540.239
570.795
654.215
796.231
989.115
1169.28
1160.21
961.237
747.406
580.435
465.415
392.751
353.234
341.765
357.679
404.042
484.958
596.13
699.252
687.526
560.544
424.233
315.851
238.313
185.557
151.634
132.912
128.289
139.051
168.515
220.293
291.646
355.144
333.895
227.481
111.922
13.6692
-65.7102
-131.325
-188.501
-241.333
-292.763
-345.054
-400.655
-464.272
-547.827
-677.199
-864.158
-1108.23
-1427.94
-1853.93
-2411.77
-3075.15
2173.06
1466.87
1005.49
725.688
552.501
439.926
362.759
307.286
265.819
233.858
208.647
188.435
172.067
158.765
148.003
139.427
132.813
128.047
125.115
124.114
125.275
129.02
136.059
147.579
165.587
193.594
237.97
310.658
434.332
650.179
1017.79
1531.37
1538.66
1040.5
691.009
498.55
407.618
384.159
418.675
524.114
739.265
1125.91
1675.37
1669.39
1107.42
706.47
473.463
343.757
273.452
239.959
234.353
257.513
320.566
448.56
679.636
1008.88
1001.56
657.38
410.437
264.84
181.304
132.983
105.718
93.1829
94.1053
111.759
155.524
244.152
405.468
636.1
623.084
366.144
177.665
60.3584
-14.4192
-66.5139
-106.87
-141.154
-171.991
-199.814
-222.844
-237.782
-249.989
-339.836
-519.445
-737.133
-1031.5
-1480.83
-2206.4
-3308.69
2396.69
952.805
475.24
289.487
202.873
155.224
125.448
105.103
90.3278
79.1358
70.4066
63.4616
57.8688
53.3436
49.6957
46.7992
44.5756
42.9855
42.0262
41.7347
42.1993
43.5817
46.161
50.4222
57.2426
68.3257
87.3118
122.939
198.95
387.816
933.107
2715.55
2718.14
941.192
402.466
222.335
159.181
144.581
164.41
236.012
435.33
1028.2
2981.24
2979.14
1021.69
423.678
217.721
136.55
101.135
86.5183
85.5086
99.8951
143.566
263.713
621.755
1803.14
1800.65
614.171
250.691
124.455
73.5791
50.0863
38.5896
34.0717
35.8256
46.8647
77.9271
163.333
419.463
1267.89
1263.51
406.211
140.914
45.8056
4.20965
-18.6027
-33.98
-45.9324
-55.5525
-61.4676
-56.6794
-15.2196
159.658
126.794
-119.883
-255.589
-411.87
-709.888
-1458.47
-3713.27
-2661.23
-2820.29
-2971.34
-3112.79
-3243.4
-3362.28
-3468.92
-3563.06
-3644.69
-3713.95
-3771.07
-3816.33
-3850
-3872.31
-3883.42
-2667.24
-2828.19
-2980.84
-3123.52
-3254.99
-3374.41
-3481.28
-3575.44
-3656.93
-3725.95
-3782.79
-3827.78
-3861.22
-3883.36
-3894.38
-2679.47
-2844.31
-3000.18
-3145.34
-3278.53
-3398.95
-3506.24
-3600.36
-3681.49
-3749.99
-3806.23
-3850.64
-3883.59
-3905.38
-3916.21
-2698.37
-2869.28
-3030.13
-3179.02
-3314.7
-3436.49
-3544.23
-3638.12
-3718.57
-3786.13
-3841.36
-3884.82
-3916.97
-3938.19
-3948.74
-2724.72
-2904.19
-3071.92
-3225.81
-3364.62
-3487.95
-3595.95
-3689.18
-3768.4
-3834.45
-3888.13
-3930.16
-3961.14
-3981.54
-3991.66
-2759.71
-2950.72
-3127.45
-3287.53
-3429.91
-3554.6
-3662.29
-3754.1
-3831.26
-3894.99
-3946.39
-3986.39
-4015.75
-4035.02
-4044.56
-2805.15
-3011.41
-3199.5
-3366.83
-3512.77
-3638.1
-3744.38
-3833.52
-3907.4
-3967.71
-4015.9
-4053.13
-4080.31
-4098.07
-4106.85
-2863.89
-3090.16
-3292.2
-3467.4
-3616.11
-3740.5
-3843.49
-3928.07
-3996.95
-4052.39
-4096.2
-4129.77
-4154.11
-4169.96
-4177.78
-2940.48
-3193.04
-3411.62
-3594.31
-3743.63
-3864.17
-3960.86
-4038.17
-4099.79
-4148.55
-4186.59
-4215.46
-4236.26
-4249.74
-4256.37
-3042.52
-3329.76
-3566.8
-3754.46
-3899.81
-4011.52
-4097.45
-4163.84
-4215.34
-4255.28
-4285.99
-4309.06
-4325.56
-4336.21
-4341.43
-3183.55
-3516.56
-3771.22
-3956.76
-4089.47
-4184.51
-4253.42
-4304.22
-4342.28
-4371.09
-4392.87
-4409.05
-4420.55
-4427.94
-4431.56
-3390
-3781.58
-4044.6
-4211.75
-4316.66
-4383.46
-4427.32
-4457.19
-4478.34
-4493.75
-4505.16
-4513.55
-4519.48
-4523.29
-4525.15
-3719.73
-4175.02
-4413.7
-4528.83
-4581.8
-4605.21
-4615
-4618.74
-4619.96
-4620.26
-4620.3
-4620.32
-4620.36
-4620.41
-4620.45
-4319.75
-4784.93
-4906.15
-4907.9
-4876.34
-4840.38
-4808.55
-4782.62
-4762.34
-4746.85
-4735.29
-4726.88
-4721.05
-4717.38
-4715.61
-5634.52
-5738.63
-5517.89
-5320.05
-5175.13
-5071.24
-4995.98
-4940.69
-4899.75
-4869.35
-4846.93
-4830.68
-4819.4
-4812.28
-4808.84
3523.36
3522.02
3519.46
3515.92
3511.87
3508.08
3505.82
3507.29
3516.23
3539.32
3589.07
3690.93
3905.5
4415.05
5931.44
3595.37
3594.43
3592.66
3590.3
3587.77
3585.81
3585.66
3589.43
3600.87
3626.71
3679.46
3782.96
3982.65
4356.68
4950.62
3667.93
3667.32
3666.17
3664.68
3663.17
3662.19
3662.67
3666.16
3675.41
3695.29
3734.5
3808.07
3938.6
4145.48
4383.73
3740.82
3740.47
3739.82
3738.97
3738.09
3737.46
3737.48
3738.8
3742.48
3750.34
3765.57
3793.52
3841.44
3912.36
3983.76
3813.86
3813.74
3813.5
3813.17
3812.74
3812.16
3811.28
3809.69
3806.54
3800.15
3787.68
3765.01
3728.19
3678.81
3634.85
3886.88
3886.98
3887.15
3887.33
3887.37
3886.96
3885.46
3881.57
3872.73
3854.08
3816.77
3746.23
3623.54
3441.38
3256.92
3959.73
3960.07
3960.69
3961.48
3962.21
3962.41
3961.19
3956.77
3945.64
3920.86
3868.83
3763.56
3560.09
3205.44
2752.41
4032.25
4032.85
4033.99
4035.55
4037.29
4038.74
4039.05
4036.53
4027.9
4006.44
3957.76
3848.96
3601.51
3037.74
1934.8
4104.25
4105.14
4106.89
4109.39
4112.45
4115.76
4118.75
4120.43
4118.95
4110.81
4088.33
4030.54
3862.5
3244.37
352.805
4175.52
4176.74
4179.15
4182.71
4187.33
4192.89
4199.27
4206.39
4214.51
4225.02
4243.31
4288.57
4435.96
5029.67
7901.92
4245.84
4247.39
4250.5
4255.17
4261.42
4269.33
4279.15
4291.57
4308.28
4333.71
4379.44
4475.53
4699.36
5232.5
6309.75
4314.97
4316.86
4320.66
4326.41
4334.23
4344.32
4357.14
4373.64
4395.85
4428.19
4480.49
4573.65
4747.84
5057.33
5467.37
4382.67
4384.88
4389.33
4396.1
4405.33
4417.3
4432.46
4451.64
4476.24
4508.68
4553.04
4615.38
4702.23
4812.19
4911.47
4448.74
4451.23
4456.27
4463.95
4474.41
4487.92
4504.87
4525.75
4551.06
4580.77
4612.99
4639.96
4640.44
4574.33
4426.25
4512.95
4515.71
4521.26
4529.72
4541.24
4556.05
4574.44
4596.68
4622.67
4651.01
4676.46
4682.79
4624.77
4393.26
3839.93
4575.14
4578.12
4584.12
4593.24
4605.64
4621.55
4641.22
4664.89
4692.52
4723.11
4753.08
4770.17
4729.47
4435.55
2871.12
4635.15
4638.31
4644.68
4654.35
4667.48
4684.3
4705.1
4730.24
4760.15
4795.53
4838.54
4897.53
5009.89
5360.01
6953.25
4692.86
4696.16
4702.81
4712.92
4726.63
4744.17
4765.85
4792.16
4823.83
4862.52
4912.76
4987.69
5125.07
5421.04
6008.04
4748.15
4751.56
4758.43
4768.85
4782.97
4801.01
4823.28
4850.22
4882.5
4921.36
4969.71
5034.33
5130
5279.82
5472.32
4800.95
4804.43
4811.45
4822.08
4836.46
4854.79
4877.35
4904.46
4936.44
4973.48
5015.23
5059.26
5097.21
5108.8
5072.14
4851.21
4854.73
4861.82
4872.56
4887.06
4905.51
4928.14
4955.19
4986.73
5022.19
5059.03
5088.27
5082.58
4971.15
4648.35
4898.9
4902.43
4909.54
4920.28
4934.77
4953.18
4975.73
5002.67
5034.13
5069.82
5107.99
5141.4
5141.25
4980.15
4002.28
4944.02
4947.53
4954.59
4965.25
4979.62
4997.85
5020.16
5046.88
5078.44
5115.59
5160.12
5217.68
5311.55
5556.22
6584.96
4986.57
4990.04
4997
5007.51
5021.65
5039.54
5061.41
5087.6
5118.73
5156.09
5203.06
5268.61
5377.01
5587.66
5977.99
5026.59
5030
5036.83
5047.11
5060.91
5078.33
5099.52
5124.77
5154.53
5189.79
5232.96
5289.63
5371.31
5494.16
5644.01
5064.13
5067.45
5074.11
5084.12
5097.52
5114.35
5134.71
5158.68
5186.36
5217.85
5253.36
5293.13
5336.89
5381.77
5416.03
5099.23
5102.46
5108.93
5118.64
5131.59
5147.8
5167.25
5189.88
5215.39
5242.97
5270.68
5293.72
5301.56
5276.62
5213.77
5131.95
5135.09
5141.36
5150.75
5163.26
5178.84
5197.46
5218.95
5242.83
5267.87
5291.09
5304.71
5288.86
5197.65
4969.8
5162.37
5165.41
5171.48
5180.56
5192.63
5207.65
5225.55
5246.22
5269.29
5293.9
5318.05
5336
5328.37
5213.43
4569.55
5190.56
5193.5
5199.37
5208.15
5219.8
5234.3
5251.61
5271.7
5294.52
5320.12
5349.17
5384.9
5442.28
5596.38
6260.28
5216.57
5219.42
5225.1
5233.59
5244.85
5258.85
5275.6
5295.14
5317.67
5343.79
5375.52
5418.61
5488.89
5625.16
5877.86
5240.48
5243.24
5248.74
5256.95
5267.84
5281.36
5297.52
5316.38
5338.16
5363.42
5393.85
5433.3
5489.52
5572.94
5672.92
5262.34
5265.02
5270.35
5278.31
5288.84
5301.89
5317.43
5335.47
5356.06
5379.34
5405.79
5436.17
5471.14
5509.06
5539.42
5282.22
5284.82
5290.01
5297.73
5307.93
5320.54
5335.48
5352.67
5371.93
5392.91
5414.84
5435.71
5450.58
5450.28
5428.99
5300.15
5302.69
5307.75
5315.28
5325.2
5337.42
5351.83
5368.28
5386.45
5405.67
5424.51
5439.26
5440.41
5405.93
5305.79
5316.19
5318.68
5323.64
5331.01
5340.71
5352.63
5366.64
5382.56
5400.07
5418.55
5436.88
5452.11
5454.85
5407.02
5115.07
5330.35
5332.82
5337.71
5344.98
5354.53
5366.25
5380
5395.61
5412.85
5431.4
5451.27
5473.46
5504.29
5577.51
5881.21
5342.68
5345.12
5349.99
5357.2
5366.68
5378.3
5391.93
5407.4
5424.53
5443.21
5463.89
5488.66
5524.15
5587.78
5702.69
5353.17
5355.62
5360.48
5367.7
5377.18
5388.81
5402.44
5417.91
5434.98
5453.47
5473.55
5496.24
5524.34
5562.3
5606.02
5361.83
5364.29
5369.19
5376.47
5386.04
5397.78
5411.55
5427.16
5444.28
5462.48
5481.25
5499.92
5517.56
5532.65
5541.78
5368.63
5371.13
5376.1
5383.49
5393.22
5405.19
5419.25
5435.21
5452.67
5470.95
5488.88
5504.16
5512.41
5506.98
5485.94
5373.57
5376.11
5381.18
5388.73
5398.69
5410.99
5425.51
5442.08
5460.33
5479.52
5498.22
5513.13
5516.61
5492.02
5417.55
5376.6
5379.2
5384.38
5392.12
5402.37
5415.09
5430.21
5447.64
5467.16
5488.28
5510.03
5529.88
5540.18
5511.57
5299.51
5377.69
5380.35
5385.66
5393.61
5404.18
5417.36
5433.16
5451.61
5472.71
5496.46
5523.03
5553.11
5590.62
5658.36
5891.24
5376.79
5379.52
5384.96
5393.13
5404.02
5417.66
5434.14
5453.59
5476.25
5502.54
5533.44
5571.01
5619.92
5690.33
5791.88
5373.86
5376.65
5382.22
5390.58
5401.77
5415.84
5432.91
5453.21
5477.1
5505.26
5539.06
5580.88
5634.15
5700.49
5765.2
5368.86
5371.69
5377.37
5385.92
5397.36
5411.77
5429.29
5450.18
5474.82
5503.92
5538.97
5582.64
5639.14
5711.63
5785.61
5361.74
5364.62
5370.39
5379.08
5390.71
5405.38
5423.2
5444.4
5469.26
5498.3
5532.74
5575.32
5632.9
5721.56
5859.57
5352.47
5355.38
5361.23
5370.02
5381.8
5396.64
5414.64
5435.93
5460.62
5488.78
5520.7
5557.43
5604.92
5697.08
6031.54
5341.03
5343.97
5349.85
5358.71
5370.59
5385.54
5403.64
5424.95
5449.39
5476.51
5505.16
5531.9
5545.78
5504.18
5197.13
5327.41
5330.36
5336.26
5345.15
5357.07
5372.09
5390.27
5411.66
5436.11
5463.02
5490.8
5515.14
5525.02
5495.46
5392.52
5311.6
5314.54
5320.43
5329.31
5341.23
5356.27
5374.53
5396.1
5420.95
5448.77
5478.69
5508.25
5531.5
5537.55
5518.63
5293.6
5296.51
5302.36
5311.18
5323.05
5338.05
5356.34
5378.1
5403.54
5432.9
5466.69
5505.56
5549.78
5596.82
5633.84
5273.42
5276.29
5282.06
5290.77
5302.51
5317.39
5335.6
5357.41
5383.22
5413.8
5451.02
5498.99
5565.97
5662.9
5776.99
5251.1
5253.91
5259.55
5268.09
5279.61
5294.25
5312.2
5333.78
5359.4
5389.93
5427.72
5479.06
5561.22
5716.91
6001.61
5226.67
5229.39
5234.87
5243.16
5254.37
5268.63
5286.15
5307.18
5331.98
5360.87
5394.86
5437.54
5505.28
5681.19
6426.2
5200.2
5202.81
5208.06
5216.03
5226.81
5240.57
5257.51
5277.82
5301.51
5328.11
5355.81
5378.44
5374.06
5250.12
4532.86
5171.76
5174.23
5179.2
5186.76
5197.01
5210.14
5226.37
5245.93
5268.85
5294.42
5320.12
5337.91
5325.72
5230.88
4981.43
5141.44
5143.74
5148.38
5155.43
5165.03
5177.37
5192.76
5211.57
5234.13
5260.48
5289.74
5318.02
5334.6
5318.8
5259.22
5109.37
5111.47
5115.71
5122.15
5130.95
5142.32
5156.62
5174.43
5196.58
5224.35
5259.86
5306.06
5365.79
5436.94
5498.1
5075.69
5077.56
5081.32
5087.06
5094.89
5105.04
5117.89
5134.12
5154.93
5182.68
5222.39
5284.51
5388.89
5561.82
5781.93
5040.54
5042.15
5045.4
5050.33
5057.04
5065.7
5076.65
5090.46
5108.27
5132.51
5169.19
5233.43
5364.21
5653.74
6221.12
5004.1
5005.44
5008.12
5012.17
5017.64
5024.6
5033.24
5043.86
5056.93
5073.53
5096.66
5135.95
5229.11
5552.54
7056.82
4966.58
4967.63
4969.72
4972.84
4976.99
4982.15
4988.31
4995.37
5002.94
5009.83
5012.74
5000.87
4933.93
4631.11
3135.72
4928.16
4928.92
4930.41
4932.61
4935.45
4938.82
4942.58
4946.36
4949.21
4948.72
4938.89
4903.83
4802.37
4537.65
3982.74
4889.04
4889.52
4890.44
4891.75
4893.33
4895.04
4896.67
4897.82
4897.58
4893.93
4882.37
4852.7
4784
4645.49
4447.04
4849.43
4849.64
4850.02
4850.49
4850.91
4851.12
4850.93
4850.06
4848.11
4844.43
4838.26
4828.47
4813.92
4794.77
4776.15
4809.5
4809.47
4809.36
4809.07
4808.44
4807.3
4805.48
4802.89
4799.62
4796.49
4796.46
4807.35
4846.84
4943.47
5094.99
4769.42
4769.18
4768.64
4767.68
4766.12
4763.76
4760.41
4756
4750.81
4746.21
4746.88
4766.15
4839.9
5053.85
5521.71
4729.33
4728.92
4728.03
4726.51
4724.16
4720.71
4715.89
4709.48
4701.38
4692.09
4684.2
4686.92
4735.42
4987.71
6275.99
4689.35
4688.81
4687.66
4685.72
4682.75
4678.41
4672.31
4663.95
4652.55
4636.8
4613.97
4575.67
4489.24
4201.93
2888.79
4649.57
4648.96
4647.65
4645.45
4642.08
4637.14
4630.14
4620.34
4606.51
4586.23
4554.3
4497.63
4382.38
4128.33
3631.21
4610.03
4609.41
4608.06
4605.79
4602.28
4597.11
4589.73
4579.36
4564.72
4543.56
4511.63
4460.05
4371.7
4223.3
4031.16
4570.76
4570.18
4568.93
4566.78
4563.42
4558.42
4551.23
4541.15
4527.24
4508.19
4482.4
4447.8
4402.54
4348.45
4300.42
4531.71
4531.25
4530.22
4528.41
4525.5
4521.05
4514.55
4505.43
4493.1
4477.3
4459.1
4442.73
4439.32
4469.17
4539.08
4492.8
4492.52
4491.86
4490.61
4488.43
4484.9
4479.52
4471.74
4461.14
4447.89
4434.33
4428.45
4452.81
4561.85
4829.06
4453.91
4453.89
4453.73
4453.24
4452.09
4449.84
4445.97
4439.84
4430.8
4418.49
4404.03
4392.93
4407.32
4544.48
5307.36
4414.87
4415.15
4415.63
4416.12
4416.29
4415.71
4413.8
4409.77
4402.49
4390.4
4371.19
4339.51
4276.38
4092.38
3296.41
4375.45
4376.11
4377.35
4379
4380.8
4382.31
4382.94
4381.76
4377.29
4367.07
4346.83
4307.69
4229.19
4065.03
3757.3
4335.39
4336.47
4338.58
4341.59
4345.29
4349.33
4353.15
4355.85
4355.85
4350.49
4335.38
4302.99
4241.27
4137.16
4007.31
4294.41
4295.94
4298.99
4303.49
4309.33
4316.29
4323.96
4331.62
4337.91
4340.48
4335.74
4318.43
4282.6
4226.95
4169.96
4252.19
4254.18
4258.2
4264.26
4272.39
4282.55
4294.61
4308.17
4322.32
4335.34
4344.62
4346.52
4337.47
4317.46
4295.84
4208.4
4210.84
4215.79
4223.39
4233.81
4247.29
4264.03
4284.12
4307.28
4332.6
4358.43
4381.99
4399.74
4408.87
4409.53
4162.75
4165.58
4171.36
4180.35
4192.91
4209.57
4230.96
4257.75
4290.5
4329.31
4373.6
4421.26
4467.79
4505.94
4526.49
4114.95
4118.08
4124.51
4134.61
4148.96
4168.37
4193.94
4227.07
4269.28
4322.01
4386.25
4461.09
4541.46
4615
4660.53
4064.82
4068.11
4074.93
4085.73
4101.28
4122.68
4151.52
4189.9
4240.51
4306.52
4391.33
4496.85
4619.65
4743.28
4829.01
4012.22
4015.52
4022.38
4033.35
4049.32
4071.64
4102.29
4144.06
4200.82
4277.77
4381.81
4520.39
4697.05
4897.64
5059.82
3957.17
3960.29
3966.8
3977.3
3992.75
4014.62
4045.16
4087.64
4146.87
4230.02
4348.12
4517.24
4757.63
5078.45
5406.05
3899.78
3902.52
3908.27
3917.62
3931.5
3951.4
3979.58
4019.41
4076.07
4157.81
4278.79
4464.38
4762.13
5254.28
5982.56
3840.32
3842.49
3847.07
3854.58
3865.87
3882.25
3905.73
3939.33
3987.64
4058.17
4164.38
4333.4
4631.43
5265.89
7067.56
-9307.19
-6910.44
-6057.46
-5649.16
-5411.26
-5256.45
-5149.27
-5072.29
-5015.88
-4974.18
-4943.42
-4921.1
-4905.56
-4895.74
-4890.98
-7876.88
-6903.47
-6239.03
-5829.84
-5568.09
-5391.62
-5267.48
-5177.51
-5111.12
-5061.75
-5025.13
-4998.44
-4979.8
-4967.98
-4962.24
-7124.56
-6681.76
-6243.17
-5907.97
-5665.55
-5490.3
-5361.81
-5266.22
-5194.42
-5140.33
-5099.82
-5070.06
-5049.16
-5035.86
-5029.39
-6681.74
-6456.94
-6175.34
-5921.51
-5716.23
-5556.35
-5433.14
-5338.29
-5265.3
-5209.34
-5166.88
-5135.39
-5113.12
-5098.87
-5091.92
-6397.07
-6271.4
-6088.07
-5901.18
-5735.23
-5596.79
-5484.62
-5395.04
-5324.23
-5268.84
-5226.17
-5194.18
-5171.36
-5156.69
-5149.51
-6201.69
-6125.75
-6003.09
-5866.14
-5735
-5618.84
-5520.23
-5438.62
-5372.32
-5319.36
-5277.91
-5246.45
-5223.82
-5209.17
-5201.98
-6061.09
-6012.39
-5927.87
-5826.9
-5724.22
-5628.54
-5543.88
-5471.44
-5411.02
-5361.74
-5322.55
-5292.44
-5270.58
-5256.35
-5249.34
-5956.36
-5923.73
-5863.92
-5788.7
-5708.45
-5630.44
-5558.88
-5495.78
-5441.84
-5396.98
-5360.74
-5332.56
-5311.91
-5298.39
-5291.7
-5876.33
-5853.8
-5810.5
-5753.82
-5690.98
-5627.71
-5567.84
-5513.62
-5466.23
-5426.09
-5393.18
-5367.29
-5348.15
-5335.54
-5329.28
-5814
-5798.13
-5766.23
-5723.05
-5673.66
-5622.46
-5572.71
-5526.59
-5485.46
-5450.03
-5420.59
-5397.17
-5379.72
-5368.16
-5362.39
-5764.73
-5753.45
-5729.63
-5696.45
-5657.47
-5616.06
-5574.9
-5535.95
-5500.59
-5469.68
-5443.66
-5422.76
-5407.06
-5396.6
-5391.37
-5725.35
-5717.33
-5699.39
-5673.7
-5642.83
-5609.33
-5575.38
-5542.67
-5512.51
-5485.78
-5463.03
-5444.58
-5430.63
-5421.28
-5416.59
-5693.58
-5687.95
-5674.38
-5654.39
-5629.87
-5602.77
-5574.83
-5547.48
-5521.91
-5498.98
-5479.26
-5463.13
-5450.85
-5442.58
-5438.43
-5667.78
-5663.93
-5653.66
-5638.08
-5618.58
-5596.65
-5573.69
-5550.91
-5529.34
-5509.8
-5492.83
-5478.85
-5468.14
-5460.9
-5457.24
-5646.71
-5644.21
-5636.49
-5624.34
-5608.82
-5591.09
-5572.27
-5553.35
-5535.25
-5518.68
-5504.18
-5492.14
-5482.87
-5476.58
-5473.4
-5629.42
-5627.97
-5622.23
-5612.79
-5600.46
-5586.15
-5570.75
-5555.09
-5539.95
-5525.98
-5513.66
-5503.36
-5495.39
-5489.96
-5487.21
-5615.2
-5614.57
-5610.38
-5603.1
-5593.33
-5581.81
-5569.25
-5556.32
-5543.72
-5531.99
-5521.57
-5512.81
-5506
-5501.34
-5498.98
-5603.47
-5603.49
-5600.54
-5594.98
-5587.28
-5578.04
-5567.83
-5557.2
-5546.74
-5536.93
-5528.17
-5520.76
-5514.97
-5511
-5508.98
-5593.78
-5594.32
-5592.36
-5588.19
-5582.17
-5574.8
-5566.53
-5557.82
-5549.17
-5541.01
-5533.67
-5527.43
-5522.53
-5519.16
-5517.44
-5585.78
-5586.73
-5585.57
-5582.52
-5577.87
-5572.03
-5565.37
-5558.26
-5551.14
-5544.37
-5538.24
-5533.01
-5528.88
-5526.03
-5524.57
-5579.18
-5580.46
-5579.94
-5577.8
-5574.27
-5569.68
-5564.35
-5558.57
-5552.73
-5547.14
-5542.04
-5537.66
-5534.2
-5531.79
-5530.57
-5573.74
-5575.29
-5575.29
-5573.88
-5571.26
-5567.71
-5563.46
-5558.79
-5554.02
-5549.41
-5545.18
-5541.53
-5538.63
-5536.61
-5535.57
-5569.29
-5571.05
-5571.47
-5570.66
-5568.78
-5566.05
-5562.71
-5558.95
-5555.05
-5551.26
-5547.77
-5544.72
-5542.29
-5540.6
-5539.72
-5565.66
-5567.6
-5568.35
-5568.02
-5566.73
-5564.69
-5562.07
-5559.05
-5555.88
-5552.77
-5549.88
-5547.34
-5545.3
-5543.88
-5543.14
-5562.75
-5564.82
-5565.84
-5565.89
-5565.08
-5563.58
-5561.55
-5559.13
-5556.54
-5553.98
-5551.58
-5549.45
-5547.74
-5546.53
-5545.91
-5560.45
-5562.63
-5563.86
-5564.2
-5563.76
-5562.69
-5561.12
-5559.18
-5557.06
-5554.93
-5552.92
-5551.13
-5549.68
-5548.65
-5548.12
-5558.69
-5560.95
-5562.34
-5562.91
-5562.75
-5562
-5560.78
-5559.2
-5557.45
-5555.66
-5553.95
-5552.42
-5551.17
-5550.28
-5549.82
-5557.42
-5559.74
-5561.24
-5561.97
-5562.01
-5561.5
-5560.53
-5559.22
-5557.72
-5556.18
-5554.7
-5553.36
-5552.26
-5551.47