/*--------------------------------*- C++ -*----------------------------------*\
| =========                 |                                                 |
| \\      /  F ield         | OpenFOAM: The Open Source CFD Toolbox           |
|  \\    /   O peration     | Version:  5.x                                   |
|   \\  /    A nd           | Web:      www.OpenFOAM.org                      |
|    \\/     M anipulation  |                                                 |
\*---------------------------------------------------------------------------*/
FoamFile
{
    version     2.0;
    format      ascii;
    class       volScalarField;
    location    "10.1";
    object      T;
}
// * * * * * * * * * * * * * * * * * * * * * * * * * * * * * * * * * * * * * //

dimensions      [0 0 0 1 0 0 0];

internalField   nonuniform List<scalar> 
6300
(
10.8522
12.5541
14.2484
15.9302
17.5943
19.2358
20.8495
22.4305
23.9739
25.4749
26.9289
28.3316
29.6792
30.9685
32.1968
10.8547
12.5615
14.2608
15.9475
17.6166
19.263
20.8817
22.4676
24.0157
25.5212
26.9793
28.3858
29.7366
31.0284
32.2584
10.8596
12.5763
14.2855
15.9822
17.6613
19.3176
20.9462
22.5418
24.0994
25.614
27.0806
28.4947
29.8521
31.149
32.3826
10.867
12.5986
14.3226
16.0342
17.7282
19.3995
21.043
22.6534
24.2255
25.754
27.2337
28.6596
30.027
31.332
32.571
10.8769
12.6282
14.372
16.1035
17.8175
19.5088
21.1724
22.8028
24.3945
25.942
27.4397
28.8819
30.2636
31.5798
32.8266
10.8892
12.665
14.4336
16.1899
17.9289
19.6455
21.3345
22.9902
24.6071
26.1791
27.7002
29.164
30.5646
31.896
33.1533
10.9038
12.7091
14.5072
16.2933
18.0624
19.8095
21.5292
23.2159
24.8637
26.4664
28.017
29.5086
30.9337
32.2851
33.5566
10.9208
12.7602
14.5926
16.4134
18.2176
20.0003
21.7562
23.4798
25.1649
26.8048
28.3922
29.9187
31.3754
32.7532
34.0435
10.9401
12.8182
14.6895
16.5496
18.3939
20.2174
22.0151
23.7816
25.5105
27.1951
28.8273
30.3975
31.8951
33.3078
34.6236
10.9616
12.8827
14.7974
16.7015
18.5905
20.4599
22.3048
24.1201
25.8998
27.637
29.3233
30.9482
32.4984
33.9581
35.3095
10.9851
12.9534
14.9157
16.868
18.8063
20.7262
22.6236
24.4935
26.3307
28.1289
29.8798
31.5724
33.1913
34.7155
36.1185
11.0106
13.03
15.0438
17.0483
19.0399
21.0147
22.9691
24.8989
26.8
28.6672
30.4937
32.2693
33.9778
35.593
37.0748
11.0379
13.112
15.1809
17.2413
19.2898
21.3232
23.3384
25.3324
27.3024
29.2453
31.1574
33.0322
34.8566
36.6027
38.2135
11.0669
13.199
15.3263
17.4458
19.5544
21.6494
23.7283
25.7892
27.831
29.8534
31.8574
33.8443
35.8125
37.7463
39.5836
11.0974
13.2906
15.4794
17.6608
19.8322
21.9911
24.1356
26.2645
28.378
30.4789
32.5734
34.674
36.8015
38.985
41.2323
33.2654
34.1927
35.0759
35.9153
36.7119
37.4668
38.1817
38.8585
39.4994
40.1068
40.6833
41.2317
41.7546
42.2548
42.7353
43.1987
43.6478
44.0852
44.5136
44.9355
45.3532
45.7689
46.1848
46.6028
47.0245
47.4515
47.8851
48.3261
48.7753
49.2333
49.7001
50.1757
50.6599
51.1521
51.6517
52.158
52.6699
53.1865
53.7066
54.2288
54.7519
55.2743
55.7944
56.3106
56.8212
57.3246
57.8193
58.3037
58.7766
59.2366
59.6825
60.1131
60.5273
60.9239
61.3016
61.6591
61.9949
62.3078
62.5962
62.8585
63.0933
63.2989
63.4737
63.616
63.724
63.7956
63.8287
63.8211
63.77
63.6727
63.5262
63.3271
63.0719
62.757
62.3787
61.9328
61.4154
60.8223
60.1493
59.3923
58.5471
57.6098
56.5765
55.4438
54.2088
52.8689
51.4224
49.8683
48.2065
46.4379
33.3277
34.2551
35.1377
35.9759
36.7706
37.5231
38.2352
38.9088
39.5462
40.1498
40.7225
41.2668
41.7856
42.2819
42.7583
43.2177
43.6629
44.0966
44.5214
44.9398
45.3543
45.767
46.1801
46.5956
47.0152
47.4404
47.8725
48.3124
48.761
49.2187
49.6855
50.1616
50.6464
51.1395
51.6403
52.1478
52.6612
53.1794
53.7013
54.2256
54.7508
55.2755
55.7979
56.3164
56.8294
57.335
57.8318
58.3182
58.7929
59.2546
59.7022
60.1345
60.5504
60.9488
61.3283
61.6878
62.0257
62.3407
62.6312
62.8958
63.1329
63.3408
63.5181
63.663
63.7738
63.8485
63.8851
63.8811
63.8341
63.7412
63.5994
63.4053
63.1554
62.8461
62.4734
62.0334
61.522
60.9349
60.268
59.5169
58.6775
57.7457
56.7174
55.5891
54.3577
53.0204
51.5753
50.0214
48.3585
46.5873
33.4534
34.3808
35.2621
36.0978
36.8887
37.6365
38.3427
39.0098
39.6401
40.2362
40.8009
41.3371
41.8478
42.3358
42.8041
43.2556
43.693
44.1192
44.5367
44.9482
45.3561
45.7628
46.1703
46.5808
46.996
47.4175
47.8467
48.2845
48.7318
49.1889
49.6559
50.1328
50.619
51.114
51.617
52.1272
52.6435
53.1651
53.6906
54.2189
54.7484
55.2777
55.8049
56.3282
56.8458
57.3559
57.8569
58.3472
58.8255
59.2906
59.7415
60.1771
60.5964
60.9983
61.3816
61.745
62.0871
62.4063
62.7012
62.9702
63.2118
63.4244
63.6066
63.7566
63.873
63.9538
63.9971
64.0006
63.9618
63.8777
63.7453
63.5613
63.3221
63.0238
62.6626
62.2344
61.735
61.1601
60.5054
59.7665
58.9388
58.0181
57.0001
55.8808
54.6568
53.3249
51.8829
50.3296
48.6644
46.8882
33.6442
34.5718
35.4511
36.2828
37.0679
37.8081
38.5055
39.1624
39.7817
40.3662
40.9189
41.4428
41.941
42.4166
42.8727
43.3121
43.7378
44.1526
44.5591
44.9601
45.3581
45.7555
46.1546
46.5574
46.9659
47.3818
47.8066
48.2412
48.6865
49.1429
49.6103
50.0886
50.577
51.075
51.5815
52.0956
52.6164
53.1429
53.6739
54.2083
54.7444
55.2807
55.8152
56.346
56.8709
57.3879
57.8952
58.3913
58.8749
59.3449
59.8005
60.2409
60.6651
61.0722
61.4611
61.8305
62.1789
62.5046
62.8061
63.0817
63.33
63.5495
63.7387
63.8964
64.0209
64.1108
64.1641
64.1786
64.152
64.0812
63.9632
63.7945
63.5713
63.2898
62.9459
62.5355
62.0544
61.498
60.8619
60.1414
59.3318
58.4284
57.4264
56.3213
55.109
53.7858
52.349
50.7968
49.1283
47.3444
33.9033
34.831
35.7075
36.5335
37.3104
38.0401
38.725
39.368
39.9721
40.5406
41.0767
41.5839
42.0653
42.5241
42.9636
43.3868
43.7967
44.1961
44.5879
44.9747
45.3593
45.7441
46.1316
46.524
46.9234
47.3317
47.7504
48.1807
48.6235
49.079
49.5473
50.0277
50.5195
51.0216
51.5329
52.0524
52.5791
53.1121
53.6504
54.1929
54.7381
55.2841
55.8289
56.37
56.905
57.4315
57.9474
58.4511
58.9415
59.4177
59.8792
60.3255
60.756
61.17
61.5664
61.9439
62.3008
62.6354
62.9457
63.2302
63.4872
63.7155
63.9139
64.0812
64.2163
64.3179
64.3843
64.4135
64.4031
64.3503
64.2516
64.1034
63.9019
63.643
63.3225
62.9361
62.4795
61.9482
61.3374
60.6422
59.8576
58.9783
57.9988
56.9139
55.7186
54.4083
52.9794
51.4292
49.7567
47.9622
34.2347
35.1627
36.0354
36.8538
37.6196
38.3351
39.0035
39.628
40.2123
40.7601
41.2749
41.7605
42.2204
42.6579
43.0764
43.4791
43.8689
44.2489
44.622
44.9909
45.3584
45.7272
46.0999
46.4788
46.8664
47.2648
47.6756
48.1005
48.5402
48.9951
49.4649
49.9487
50.4452
50.953
51.4706
51.9969
52.5308
53.0717
53.6189
54.1715
54.7283
55.2872
55.8457
56.4008
56.9492
57.4881
58.0149
58.5279
59.0262
59.5094
59.9774
60.4304
60.8683
61.2907
61.6966
62.0846
62.4526
62.7985
63.1202
63.4156
63.6833
63.9221
64.1312
64.3099
64.4574
64.573
64.6554
64.7029
64.713
64.6828
64.6087
64.4867
64.3128
64.0824
63.7914
63.4354
63.0099
62.5103
61.9319
61.2695
60.5175
59.67
58.7208
57.6634
56.4916
55.1995
53.7821
52.2359
50.5587
48.7508
34.6443
35.5726
36.4404
37.2486
37.9997
38.6968
39.3437
39.9446
40.5037
41.0254
41.5137
41.9727
42.4061
42.8175
43.2105
43.5881
43.9537
44.3101
44.6604
45.0074
45.354
45.703
46.0573
46.4194
46.7922
47.178
47.579
47.997
48.4331
48.8878
49.3603
49.8493
50.3528
50.8683
51.394
51.9282
52.4703
53.02
53.5774
54.1422
54.7133
55.2887
55.8653
56.4389
57.005
57.5597
58.0999
58.6236
59.1304
59.6205
60.0949
60.5547
61.0006
61.4327
61.8502
62.2514
62.6337
62.9941
63.3298
63.6385
63.9185
64.1691
64.3898
64.5807
64.742
64.8735
64.9744
65.0434
65.0783
65.0759
65.0321
64.9424
64.8022
64.6067
64.3515
64.0321
63.6443
63.1835
62.645
62.0233
61.3126
60.5059
59.5961
58.5753
57.4355
56.1688
54.7684
53.2289
51.547
49.7223
35.1398
36.0687
36.9297
37.7244
38.4561
39.1292
39.7487
40.3198
40.8476
41.3372
41.7932
42.2201
42.6218
43.0022
43.3649
43.713
44.0499
44.3785
44.7018
45.0228
45.3444
45.6696
46.0015
46.343
46.6973
47.0674
47.456
47.8656
48.2976
48.7528
49.2301
49.7273
50.2409
50.7672
51.3029
51.8462
52.3968
52.9554
53.5233
54.1015
54.6899
55.2865
55.8869
56.4854
57.0751
57.6501
58.2062
58.7415
59.2562
59.7519
60.2312
60.6966
61.1502
61.5932
62.0249
62.443
62.8438
63.2228
63.576
63.9001
64.1937
64.4564
64.6887
64.8918
65.067
65.2152
65.3367
65.4306
65.4948
65.5259
65.5189
65.4684
65.3686
65.2145
65.0013
64.7248
64.3812
63.9662
63.4753
62.9031
62.2431
61.488
60.629
59.6564
58.5597
57.3284
55.9528
54.4248
52.739
50.8939
35.7317
36.6613
37.513
38.2895
38.9956
39.6376
40.2221
40.7558
41.2451
41.6958
42.1132
42.5021
42.8667
43.211
43.5385
43.8526
44.1563
44.4528
44.7449
45.0356
45.328
45.625
45.93
46.2465
46.578
46.9284
47.3012
47.6999
48.1271
48.584
49.0693
49.5797
50.109
50.6506
51.199
51.7519
52.3097
52.8752
53.4522
54.0442
54.6527
55.2764
55.9094
56.5424
57.1642
57.7655
58.3403
58.8869
59.4071
59.9047
60.385
60.853
61.313
61.7676
62.2167
62.6571
63.0828
63.4864
63.8613
64.2033
64.5109
64.7848
65.0271
65.2406
65.4284
65.593
65.7361
65.8579
65.9566
66.0281
66.0659
66.0626
66.0109
65.9047
65.7396
65.5118
65.2183
64.8558
64.4202
63.9066
63.3083
62.6173
61.8231
60.9137
59.8754
58.6937
57.3546
55.8457
54.1582
52.2885
36.4344
37.3649
38.2034
38.9545
39.6261
40.2272
40.7671
41.2544
41.6967
42.1009
42.4728
42.8174
43.1393
43.4423
43.7299
44.0054
44.2717
44.5318
44.7884
45.0445
45.303
45.5672
45.8404
46.1265
46.4299
46.7551
47.1073
47.4915
47.9122
48.3722
48.8708
49.4028
49.9576
50.522
51.0868
51.6485
52.2095
52.7764
53.3575
53.9608
54.5918
55.2506
55.9297
56.6132
57.2809
57.9167
58.5126
59.068
59.588
60.0803
60.5542
61.0185
61.4812
61.9475
62.4186
62.89
63.3513
63.7888
64.1915
64.5535
64.8742
65.1563
65.4044
65.624
65.8206
65.9991
66.1636
66.3159
66.4551
66.5761
66.6696
66.724
66.7289
66.6773
66.5654
66.3909
66.1524
65.848
65.475
65.0294
64.5048
63.8925
63.1808
62.3543
61.3951
60.2833
58.9985
57.5217
55.8377
53.9386
37.2683
38.1997
39.0182
39.7328
40.3567
40.9036
41.3864
41.8161
42.2017
42.5509
42.8699
43.164
43.4374
43.694
43.9371
44.1697
44.3944
44.614
44.831
45.0481
45.2682
45.4945
45.7304
45.9801
46.2484
46.5413
46.8655
47.2287
47.6389
48.1027
48.6225
49.1914
49.7901
50.3912
50.977
51.5439
52.0989
52.6552
53.2287
53.8355
54.4886
55.1936
55.9415
56.7045
57.4412
58.1231
58.7407
59.298
59.8064
60.2802
60.7346
61.184
61.6417
62.118
62.6176
63.135
63.6515
64.1389
64.5776
64.9607
65.2905
65.574
65.8201
66.0378
66.236
66.423
66.606
66.7902
66.9771
67.161
67.3271
67.4539
67.5254
67.5343
67.4787
67.3596
67.1785
66.9362
66.632
66.2632
65.8248
65.3084
64.701
63.9837
63.1322
62.1195
60.9166
59.4939
57.8244
55.8909
38.2648
39.1958
39.9811
40.6402
41.1965
41.6709
42.0808
42.4396
42.7576
43.0428
43.3015
43.5386
43.7582
43.9637
44.1579
44.3435
44.5229
44.6982
44.8717
45.0458
45.223
45.4062
45.5988
45.805
46.03
46.2807
46.5657
46.8964
47.2865
47.7511
48.3016
48.935
49.6173
50.2805
50.8925
51.4544
51.9844
52.5071
53.05
53.6414
54.3088
55.0724
55.9296
56.8313
57.6781
58.4201
59.0534
59.596
60.0721
60.5059
60.9198
61.3352
61.7729
62.2526
62.7884
63.379
63.991
64.5565
65.0413
65.4422
65.7709
66.0431
66.274
66.4772
66.6652
66.8501
67.0439
67.2581
67.5007
67.7691
68.0386
68.2606
68.4097
68.4814
68.4807
68.4149
68.2903
68.1111
67.8793
67.5947
67.2547
66.8529
66.3769
65.8038
65.0991
64.2271
63.1487
61.8191
60.189
58.2177
39.4769
40.4006
41.1241
41.6943
42.1526
42.5297
42.8473
43.1203
43.3591
43.5713
43.7624
43.9368
44.0977
44.2479
44.3896
44.5248
44.6555
44.7832
44.9099
45.0373
45.1674
45.3026
45.4459
45.601
45.773
45.9687
46.1984
46.4767
46.8251
47.2738
47.8593
48.6064
49.4701
50.2417
50.8783
51.409
51.8782
52.3281
52.7994
53.3358
53.9884
54.8143
55.8514
57.0351
58.0636
58.8713
59.4946
59.9875
60.3965
60.7578
61.1005
61.4519
61.8414
62.3038
62.8779
63.5897
64.3951
65.0878
65.623
66.0251
66.3302
66.5692
66.7651
66.9358
67.0962
67.2617
67.4497
67.6824
67.9847
68.3729
68.8156
69.1697
69.4029
69.53
69.5737
69.5522
69.478
69.359
69.1999
69.0033
68.7708
68.5018
68.1898
67.8109
67.3045
66.6291
65.7403
64.5746
63.0426
61.0419
41.0112
41.892
42.4867
42.908
43.2239
43.4727
43.6764
43.8485
43.9973
44.1285
44.246
44.3528
44.451
44.5425
44.6288
44.7111
44.7905
44.8683
44.9454
45.0231
45.1027
45.1858
45.2744
45.3712
45.4799
45.6063
45.7594
45.9542
46.2175
46.5979
47.1826
48.1082
49.4536
50.3954
51.0143
51.4504
51.7977
52.1162
52.4532
52.8607
53.4163
54.2499
55.5599
57.4604
58.7646
59.5858
60.121
60.4974
60.7874
61.0339
61.2663
61.5115
61.8026
62.1915
62.7666
63.6631
64.9589
65.8434
66.3941
66.7449
66.9822
67.1546
67.2901
67.4064
67.5174
67.638
67.7888
68.0037
68.3421
68.8959
69.7173
70.25
70.5461
70.6961
70.7577
70.7626
70.7276
70.662
70.5716
70.4611
70.3368
70.2097
70.0963
69.9988
69.7506
69.3357
68.728
67.855
66.5685
64.6123
43.1444
43.7941
44.0971
44.272
44.3902
44.4788
44.5496
44.6086
44.6593
44.7037
44.7434
44.7793
44.8124
44.8431
44.8721
44.8997
44.9264
44.9525
44.9784
45.0045
45.0313
45.0594
45.0894
45.1223
45.1597
45.2037
45.2584
45.3315
45.4397
45.6258
46.0133
47.0034
50.0163
51.0122
51.4118
51.6178
51.7565
51.8759
52.0033
52.1703
52.4417
52.9974
54.4158
58.7423
60.1587
60.7099
60.9739
61.1294
61.2386
61.3277
61.4114
61.5025
61.6204
61.8089
62.1901
63.1592
66.1123
67.0773
67.4502
67.6255
67.7249
67.7907
67.8401
67.8818
67.9223
67.9684
68.0327
68.1444
68.387
69.0306
71.0319
71.6686
71.8968
71.9866
72.0207
72.0277
72.0184
71.998
71.9694
71.9358
71.9042
71.895
71.9773
72.401
72.434
72.3172
72.0953
71.728
71.0565
69.575
44.3768
41.9815
39.4458
36.7778
33.9869
31.0834
28.0782
24.9826
21.8079
18.5654
15.266
11.9206
8.53984
5.1339
1.71296
44.522
42.1202
39.5765
36.8992
34.0981
31.1838
28.1676
25.0608
21.8749
18.6214
15.3114
11.9556
8.56463
5.1487
1.71788
44.8142
42.3993
39.8392
37.143
34.3212
31.385
28.3463
25.2169
22.0087
18.7333
15.4019
12.0253
8.61403
5.17817
1.72768
45.2571
42.8218
40.2364
37.5111
34.6573
31.6876
28.6146
25.4509
22.2089
18.9005
15.537
12.1293
8.68764
5.22207
1.74226
45.8565
43.3928
40.772
38.006
35.1081
32.0922
28.9724
25.7622
22.4747
19.122
15.7158
12.2666
8.78483
5.28
1.76151
46.6207
44.1191
41.4512
38.6314
35.6754
32.5995
29.4193
26.1498
22.8047
19.3965
15.9368
12.4362
8.90468
5.35139
1.78522
47.5609
45.0099
42.2807
39.3913
36.3613
33.2097
29.9545
26.612
23.1968
19.7216
16.198
12.6364
9.04593
5.43545
1.81312
48.6923
46.0771
43.2686
40.2904
37.1673
33.9222
30.5758
27.146
23.6478
20.0944
16.4968
12.8647
9.20689
5.53116
1.84488
50.0352
47.336
44.4243
41.333
38.0937
34.7347
31.2794
27.7471
24.1533
20.5105
16.8293
13.1184
9.38541
5.6372
1.88005
51.6172
48.8055
45.7581
42.5218
39.1384
35.642
32.0588
28.4087
24.7067
20.9644
17.1909
13.3936
9.57879
5.75196
1.91809
53.4765
50.5087
47.2789
43.8559
40.2947
36.6348
32.9039
29.121
25.2994
21.4486
17.5755
13.6858
9.78384
5.87355
1.95838
55.6674
52.472
48.9909
45.3267
41.5479
37.6971
33.7996
29.8709
25.9204
21.9541
17.9762
13.9897
9.99686
5.99978
2.0002
58.2694
54.719
50.8841
46.9101
42.8716
38.8045
34.7253
30.6414
26.5561
22.4704
18.3848
14.2993
10.2138
6.12829
2.04277
61.3948
57.2483
52.9145
48.5562
44.2223
39.9225
35.6542
31.4122
27.191
22.9858
18.7926
14.6083
10.4303
6.25659
2.08527
65.1542
59.9628
54.9672
50.1761
45.5372
41.0072
36.5555
32.161
27.8089
23.4882
19.1907
14.9104
10.6423
6.38224
2.1269
11.1266
13.3785
15.6261
17.8668
20.0979
22.3171
24.5225
26.7134
28.8903
31.0572
33.2233
35.4087
37.6557
40.0608
42.8901
11.1542
13.4612
15.7642
18.0604
20.3473
22.6225
24.884
27.1306
29.3625
31.5827
33.7999
36.0329
38.3214
40.7433
43.4389
11.1827
13.5467
15.9068
18.2603
20.6045
22.937
25.2553
27.5574
29.842
32.1097
34.3646
36.6179
38.8935
41.2347
43.6987
11.212
13.6348
16.0537
18.4662
20.8696
23.261
25.6375
27.9958
30.3327
32.6449
34.9297
37.1864
39.419
41.6399
43.8696
11.2422
13.7254
16.205
18.6783
21.1426
23.5949
26.0316
28.4484
30.8398
33.1983
35.5134
37.7708
39.9517
42.0379
44.0264
11.2732
13.8185
16.3603
18.8963
21.4236
23.9392
26.4391
28.9181
31.3691
33.781
36.1365
38.4073
40.5493
42.5025
44.2192
11.305
13.9138
16.5196
19.12
21.7125
24.2939
26.8605
29.4067
31.9248
34.4022
36.8174
39.1323
41.277
43.1303
44.5271
11.3374
14.0112
16.6824
19.3489
22.0085
24.6585
27.2954
29.9143
32.5081
35.0657
37.5672
39.9744
42.2059
44.0741
45.1555
11.3704
14.1104
16.8482
19.5823
22.3109
25.0318
27.7421
30.4385
33.1159
35.7674
38.3815
40.9376
43.3861
45.5633
46.758
11.4038
14.2109
17.0164
19.8193
22.6182
25.4118
28.1981
30.9752
33.741
36.494
39.2352
41.9746
44.7534
47.7336
51.6393
11.4375
14.3123
17.1862
20.0587
22.9289
25.7962
28.6598
31.5191
34.3743
37.228
40.0891
42.9832
45.9798
49.2599
53.2568
11.4714
14.4142
17.3568
20.2992
23.2413
26.1828
29.1239
32.0651
35.0078
37.956
40.9191
43.9197
47.008
50.287
53.9206
11.5053
14.5161
17.5274
20.5397
23.5535
26.5691
29.5874
32.6093
35.6367
38.6726
41.7221
44.7941
47.9026
51.0666
54.3003
11.539
14.6174
17.6971
20.7789
23.8639
26.9531
30.0477
33.1491
36.259
39.3788
42.5084
45.642
48.7576
51.7964
54.6452
11.5724
14.7177
17.865
21.0156
24.171
27.3327
30.5025
33.6822
36.8735
40.0773
43.2909
46.5011
49.6645
52.6567
55.1674
11.6052
14.8165
18.0304
21.2487
24.4733
27.7062
30.9498
34.2064
37.4785
40.768
44.0747
47.3917
50.6891
53.8501
56.3571
11.6374
14.9134
18.1925
21.477
24.7693
28.0718
31.3874
34.7191
38.0705
41.4457
44.8503
48.2946
51.807
55.4963
59.8641
11.6689
15.0078
18.3505
21.6996
25.0576
28.4277
31.813
35.2173
38.645
42.102
45.5972
49.1488
52.8009
56.6699
61.0477
11.6994
15.0996
18.504
21.9155
25.3372
28.7724
32.2248
35.6985
39.1984
42.7306
46.3038
49.9321
53.6426
57.4888
61.5586
11.7289
15.1882
18.6522
22.124
25.6069
29.1046
32.621
36.1606
39.7283
43.3298
46.9709
50.6571
54.3887
58.1507
61.8927
11.7573
15.2735
18.7947
22.3243
25.8659
29.4232
33.0005
36.6024
40.2339
43.9003
47.6056
51.3491
55.1124
58.8249
62.2861
11.7845
15.3552
18.9312
22.516
26.1133
29.7273
33.3621
37.0227
40.7144
44.4426
48.2126
52.026
55.8699
59.6722
63.0901
11.8104
15.4331
19.0612
22.6985
26.3488
30.0162
33.7052
37.4207
41.1684
44.9549
48.7882
52.6804
56.6549
60.7849
65.3917
11.8351
15.5071
19.1847
22.8716
26.5718
30.2894
34.029
37.7955
41.5946
45.4334
49.3218
53.2762
57.3304
61.5648
66.1672
11.8584
15.577
19.3013
23.0351
26.7822
30.5468
34.3334
38.1467
41.9922
45.8764
49.8082
53.8012
57.8794
62.0874
66.4907
11.8804
15.6429
19.4111
23.1888
26.9799
30.7883
34.6184
38.4746
42.3618
46.2853
50.2509
54.2655
58.3369
62.4726
66.6733
11.901
15.7047
19.5141
23.3329
27.1649
31.0141
34.8845
38.7801
42.7053
46.6638
50.6584
54.6891
58.7481
62.8111
66.8279
11.9202
15.7625
19.6103
23.4674
27.3375
31.2245
35.1322
39.0643
43.0245
47.0159
51.0395
55.0915
59.1551
63.18
67.0414
11.9381
15.8162
19.6997
23.5924
27.4979
31.4199
35.3621
39.328
43.3212
47.3445
51.3995
55.4844
59.5872
63.6609
67.5024
11.9547
15.8659
19.7825
23.7081
27.6462
31.6006
35.5746
39.5719
43.5959
47.6499
51.7375
55.8634
60.0382
64.3012
68.8373
11.97
15.9117
19.8587
23.8146
27.7828
31.7669
35.7702
39.7963
43.8486
47.9308
52.0476
56.2069
60.4263
64.7501
69.2863
11.984
15.9536
19.9285
23.9121
27.9078
31.9191
35.9492
40.0016
44.0795
48.1864
52.3268
56.5073
60.7402
65.0498
69.4728
11.9967
15.9917
19.992
24.0008
28.0215
32.0575
36.112
40.1881
44.2891
48.4177
52.5769
56.7697
60.9994
65.269
69.5772
12.0081
16.0261
20.0492
24.0807
28.124
32.1823
36.2589
40.3566
44.4783
48.6264
52.8022
57.005
61.2293
65.4595
69.6648
12.0184
16.0567
20.1002
24.152
28.2155
32.2938
36.3901
40.5074
44.6483
48.8147
53.0075
57.2239
61.4535
65.6656
69.7858
12.0273
16.0837
20.1451
24.2148
28.2961
32.3921
36.5061
40.6409
44.7993
48.9836
53.1949
57.4323
61.6881
65.9338
70.0493
12.0351
16.107
20.1839
24.2691
28.3658
32.4773
36.6066
40.757
44.9313
49.1323
53.3629
57.6262
61.9282
66.2907
70.8179
12.0417
16.1267
20.2167
24.315
28.4248
32.5493
36.6918
40.8555
45.0435
49.2594
53.5068
57.7917
62.1247
66.5313
71.071
12.047
16.1427
20.2434
24.3524
28.4729
32.6081
36.7614
40.9361
45.1354
49.3631
53.6234
57.9222
62.2685
66.6776
71.1687
12.0512
16.1552
20.2641
24.3813
28.5101
32.6537
36.8154
40.9985
45.2065
49.443
53.7119
58.0181
62.3671
66.7651
71.2129
12.0541
16.1639
20.2788
24.4018
28.5365
32.686
36.8536
41.0427
45.2568
49.4991
53.7733
58.0826
62.4301
66.8161
71.235
12.0558
16.1691
20.2874
24.4139
28.552
32.7049
36.8761
41.0687
45.2862
49.5319
53.8087
58.1193
62.4646
66.8425
71.2454
12.0563
16.1706
20.2899
24.4174
28.5565
32.7105
36.8827
41.0764
45.295
49.5417
53.8194
58.1302
62.4747
66.8499
71.2477
12.0556
16.1685
20.2864
24.4125
28.5502
32.7028
36.8735
41.0658
45.2831
49.5287
53.8056
58.1164
62.4618
66.8397
71.2415
12.0537
16.1628
20.2768
24.3991
28.5329
32.6816
36.8485
41.037
45.2506
49.4927
53.767
58.0768
62.4247
66.8111
71.2295
12.0506
16.1535
20.2613
24.3773
28.5048
32.6471
36.8076
40.9897
45.197
49.4332
53.7023
58.0092
62.3593
66.7584
71.2067
12.0463
16.1405
20.2397
24.347
28.4657
32.5992
36.7509
40.924
45.1223
49.3495
53.6101
57.9101
62.2583
66.6695
71.1622
12.0408
16.124
20.2121
24.3083
28.4159
32.5381
36.6783
40.8399
45.0263
49.2414
53.4892
57.7758
62.112
66.5224
71.065
12.0341
16.1039
20.1786
24.2613
28.3553
32.4637
36.59
40.7375
44.9094
49.1092
53.34
57.6056
61.9124
66.2815
70.8149
12.0263
16.0803
20.1392
24.206
28.284
32.3763
36.4863
40.6171
44.7721
48.9541
53.1652
57.4053
61.6678
65.9249
70.0578
12.0172
16.0533
20.094
24.1426
28.2021
32.2759
36.3671
40.479
44.6149
48.7776
52.969
57.1879
61.4255
65.6527
69.7956
12.0071
16.0227
20.043
24.071
28.1098
32.1627
36.2327
40.3234
44.438
48.58
52.7522
56.9561
61.1887
65.4371
69.6715
11.9958
15.9888
19.9864
23.9915
28.0073
32.0368
36.0832
40.1501
44.2411
48.3602
52.5122
56.7028
60.9393
65.2296
69.5763
11.9834
15.9516
19.9243
23.9043
27.8946
31.8983
35.9187
39.9591
44.0235
48.1164
52.2439
56.4161
60.6509
64.9813
69.4558
11.9699
15.9112
19.8567
23.8094
27.772
31.7477
35.7394
39.7506
43.7851
47.8472
51.9433
56.0845
60.2944
64.6311
69.2317
11.9554
15.8677
19.784
23.7071
27.6399
31.5851
35.5458
39.5251
43.5264
47.5533
51.6102
55.7036
59.8484
64.0958
68.6799
11.9399
15.8211
19.7062
23.5978
27.4985
31.4111
35.3384
39.2833
43.2488
47.2373
51.2503
55.2857
59.3295
63.3251
67.023
11.9235
15.7717
19.6236
23.4816
27.3483
31.2262
35.118
39.0264
42.9541
46.9032
50.8737
54.8604
58.8425
62.7594
66.4596
11.9062
15.7196
19.5365
23.3591
27.1898
31.031
34.8852
38.7552
42.6436
46.5529
50.4846
54.4368
58.3994
62.3427
66.2088
11.888
15.665
19.4451
23.2305
27.0234
30.826
34.6408
38.4703
42.3175
46.186
50.0799
54.0048
57.968
61.9778
66.0379
11.869
15.608
19.3498
23.0964
26.8498
30.612
34.3853
38.1722
41.9757
45.8002
49.6523
53.5447
57.5027
61.5764
65.8438
11.8493
15.5488
19.2509
22.9571
26.6695
30.3896
34.1196
37.8616
41.6184
45.3942
49.1957
53.0377
56.9555
61.0388
65.5013
11.829
15.4877
19.1487
22.8133
26.4832
30.1597
33.8447
37.5398
41.2471
44.9691
48.7096
52.4766
56.2921
60.2363
64.67
11.8081
15.425
19.0437
22.6655
26.2917
29.9234
33.562
37.2087
40.8645
44.53
48.204
51.8805
55.5377
59.0923
62.1752
11.7868
15.3608
18.9363
22.5143
26.0958
29.6817
33.273
36.8704
40.4743
44.084
47.6954
51.2965
54.8532
58.2742
61.338
11.765
15.2954
18.8269
22.3603
25.8964
29.4357
32.979
36.5268
40.0792
43.6356
47.1927
50.742
54.2615
57.7026
60.9819
11.7429
15.229
18.7159
22.2041
25.6941
29.1863
32.6812
36.1791
39.6805
43.1855
46.6944
50.207
53.723
57.2418
60.7623
11.7206
15.162
18.6038
22.0463
25.4898
28.9345
32.3805
35.8282
39.2782
42.7318
46.1923
49.6683
53.1812
56.7785
60.5414
11.6982
15.0945
18.4909
21.8875
25.2842
28.681
32.0779
35.475
38.8726
42.2723
45.6783
49.1027
52.5793
56.1986
60.181
11.6756
15.0268
18.3777
21.7282
25.0781
28.427
31.7746
35.1205
38.4647
41.8074
45.1503
48.4997
51.8771
55.3651
59.3329
11.6531
14.9591
18.2645
21.5691
24.8721
28.1732
31.4716
34.7666
38.057
41.3414
44.6168
47.876
51.0968
54.1971
56.809
11.6306
14.8916
18.1518
21.4105
24.6671
27.9208
31.1704
34.4149
37.6526
40.8807
44.0934
47.2777
50.3989
53.3668
55.9621
11.6083
14.8246
18.0398
21.2532
24.4637
27.6705
30.8722
34.0673
37.254
40.4295
43.5889
46.722
49.8063
52.7938
55.6044
11.5862
14.7582
17.9289
21.0974
24.2625
27.4232
30.5778
33.7248
36.8624
39.9887
43.1015
46.199
49.2796
52.3424
55.3886
11.5643
14.6925
17.8193
20.9436
24.0641
27.1795
30.2881
33.3881
36.4779
39.5562
42.6237
45.6867
48.7641
51.9013
55.1784
11.5428
14.6278
17.7112
20.792
23.8688
26.9399
30.0037
33.0579
36.1006
39.1303
42.1482
45.1633
48.2059
51.3619
54.8422
11.5215
14.5639
17.6048
20.6429
23.6769
26.705
29.7252
32.735
35.7315
38.7117
41.6735
44.6196
47.5677
50.5959
54.0544
11.5005
14.501
17.5
20.4964
23.4886
26.4751
29.4534
32.4207
35.3729
38.3049
41.209
44.0734
46.8729
49.5297
51.7056
11.4798
14.4391
17.3969
20.3524
23.3041
26.2503
29.1887
32.116
35.0277
37.9165
40.7711
43.5711
46.2762
48.7964
50.9308
11.4594
14.3779
17.2953
20.2107
23.1229
26.0304
28.931
31.8217
34.6976
37.5511
40.3701
43.1338
45.8067
48.3297
50.6249
11.4392
14.3174
17.1949
20.0708
22.9445
25.8148
28.6798
31.537
34.3822
37.2089
40.0065
42.7585
45.4403
48.02
50.475
11.4192
14.2574
17.0952
19.9323
22.7682
25.6023
28.4334
31.2599
34.0789
36.886
39.6737
42.4311
45.1436
47.7958
50.3836
11.3992
14.1975
16.9959
19.7943
22.5928
25.3913
28.1897
30.9873
33.7833
36.5757
39.361
42.134
44.8876
47.6152
50.3161
11.3791
14.1374
16.8963
19.656
22.417
25.18
27.9458
30.7153
33.4895
36.2696
39.0561
41.8494
44.6486
47.4521
50.2573
11.3589
14.0769
16.7959
19.5164
22.2395
24.9664
27.6989
30.4394
33.191
35.9581
38.7456
41.5596
44.4057
47.2867
50.1978
11.3385
14.0157
16.6942
19.3748
22.0589
24.7484
27.4459
30.155
32.8812
35.6315
38.4158
41.2465
44.1375
47.0994
50.1287
11.3177
13.9536
16.5908
19.2305
21.8743
24.5244
27.1842
29.8583
32.5538
35.2807
38.053
40.8907
43.8189
46.8641
50.0359
11.2967
13.8904
16.4855
19.0831
21.6849
24.2933
26.9119
29.5462
32.204
34.8974
37.6441
40.471
43.4181
46.5399
49.8898
11.2753
13.8262
16.3782
18.9325
21.4905
24.0546
26.6284
29.2171
31.8289
34.4763
37.1785
39.967
42.8949
46.0561
49.611
11.2536
13.7611
16.2693
18.779
21.2916
23.8088
26.3339
28.8714
31.4286
34.0164
36.6523
39.3653
42.2087
45.298
48.9545
68.9358
62.2695
56.6593
51.5195
46.6412
41.9283
37.3279
32.8075
28.3455
23.9265
19.5394
15.1757
10.8287
6.49292
2.1636
70.1314
63.6313
57.8694
52.5579
47.5287
42.6863
37.9735
33.3538
28.8026
24.3021
19.8395
15.4048
10.9901
6.58889
2.19545
70.6295
64.4788
58.7651
53.3988
48.2851
43.3531
38.5534
33.8518
29.2236
24.6508
20.1197
15.6196
11.1419
6.67929
2.22547
70.8796
65.021
59.4178
54.0629
48.914
43.9268
39.0643
34.2978
29.6054
24.9698
20.3778
15.8184
11.2828
6.76345
2.25346
71.0259
65.3841
59.8964
54.5826
49.4293
44.4126
39.5073
34.6915
29.9468
25.258
20.6126
16.0003
11.4123
6.84092
2.27924
71.1214
65.6384
60.2527
54.9891
49.8485
44.8197
39.8871
35.035
30.2486
25.5153
20.8239
16.1649
11.5299
6.91148
2.30276
71.1882
65.8233
60.5226
55.3088
50.1887
45.1588
40.2101
35.3317
30.5128
25.7428
21.0121
16.3123
11.6357
6.97512
2.324
71.2372
65.9618
60.7303
55.5619
50.465
45.4402
40.483
35.5863
30.7421
25.9421
21.1784
16.4433
11.73
7.03202
2.34301
71.2743
66.068
60.8927
55.7638
50.6898
45.6734
40.7127
35.8035
30.94
26.1157
21.324
16.5587
11.8135
7.08249
2.3599
71.3031
66.1509
61.0211
55.926
50.8734
45.8666
40.9057
35.988
31.1097
26.2658
21.4509
16.6597
11.8868
7.12692
2.37478
71.3257
66.2165
61.1237
56.0571
51.0236
46.0268
41.0674
36.1443
31.2547
26.3949
21.5607
16.7475
11.9508
7.16579
2.38782
71.3437
66.269
61.2064
56.1638
51.147
46.1596
41.2029
36.2763
31.3781
26.5056
21.6553
16.8235
12.0063
7.1996
2.39916
71.3582
66.3114
61.2734
56.2509
51.2487
46.27
41.3162
36.3876
31.4829
26.6001
21.7364
16.889
12.0543
7.22885
2.40899
71.3699
66.3458
61.3282
56.3223
51.3325
46.3616
41.4111
36.4813
31.5716
26.6805
21.8058
16.9451
12.0955
7.25403
2.41746
71.3795
66.3739
61.373
56.3811
51.4019
46.4379
41.4904
36.5601
31.6465
26.7487
21.8648
16.993
12.1308
7.27563
2.42473
71.3873
66.3969
61.4098
56.4296
51.4594
46.5013
41.5567
36.6262
31.7097
26.8064
21.915
17.0338
12.1609
7.29408
2.43094
71.3938
66.4159
61.4402
56.4697
51.507
46.554
41.612
36.6816
31.7628
26.8551
21.9574
17.0684
12.1865
7.30976
2.43623
71.399
66.4314
61.4652
56.5028
51.5465
46.5979
41.6582
36.728
31.8074
26.8961
21.9932
17.0977
12.2081
7.32306
2.44071
71.4034
66.4443
61.4858
56.5301
51.5791
46.6343
41.6966
36.7667
31.8447
26.9304
22.0233
17.1223
12.2264
7.33427
2.44449
71.407
66.4548
61.5028
56.5527
51.6061
46.6644
41.7285
36.7989
31.8758
26.9591
22.0484
17.1429
12.2417
7.34369
2.44767
71.4099
66.4635
61.5167
56.5712
51.6283
46.6893
41.7548
36.8255
31.9016
26.983
22.0693
17.1601
12.2544
7.35154
2.45032
71.4123
66.4705
61.5281
56.5863
51.6465
46.7096
41.7764
36.8474
31.9228
27.0026
22.0866
17.1743
12.265
7.35804
2.45252
71.4142
66.4763
61.5373
56.5986
51.6613
46.7262
41.794
36.8652
31.9401
27.0187
22.1007
17.1859
12.2736
7.36335
2.45431
71.4158
66.4808
61.5446
56.6084
51.673
46.7394
41.808
36.8795
31.954
27.0315
22.112
17.1952
12.2806
7.36763
2.45576
71.417
66.4843
61.5503
56.616
51.6822
46.7497
41.819
36.8906
31.9648
27.0416
22.1209
17.2025
12.286
7.371
2.45689
71.4179
66.487
61.5546
56.6217
51.6891
46.7574
41.8272
36.899
31.973
27.0492
22.1276
17.208
12.2901
7.37354
2.45775
71.4185
66.4888
61.5576
56.6256
51.6938
46.7628
41.833
36.9049
31.9787
27.0545
22.1323
17.2119
12.293
7.37533
2.45836
71.4189
66.4899
61.5593
56.628
51.6967
46.766
41.8364
36.9084
31.9821
27.0578
22.1352
17.2143
12.2948
7.37642
2.45873
71.419
66.4902
61.5599
56.6288
51.6976
46.7671
41.8376
36.9097
31.9834
27.059
22.1363
17.2152
12.2955
7.37685
2.45887
71.4189
66.4899
61.5593
56.628
51.6968
46.7662
41.8367
36.9087
31.9826
27.0582
22.1356
17.2147
12.2951
7.37663
2.4588
71.4185
66.4888
61.5576
56.6257
51.6941
46.7632
41.8335
36.9056
31.9796
27.0555
22.1333
17.2128
12.2937
7.37576
2.45851
71.4179
66.4869
61.5546
56.6218
51.6894
46.758
41.8281
36.9002
31.9744
27.0507
22.1291
17.2094
12.2912
7.37423
2.45799
71.4169
66.4842
61.5502
56.6161
51.6825
46.7504
41.8202
36.8922
31.9668
27.0438
22.1231
17.2044
12.2876
7.37199
2.45724
71.4157
66.4805
61.5444
56.6083
51.6733
46.7402
41.8095
36.8816
31.9566
27.0344
22.115
17.1978
12.2827
7.369
2.45623
71.414
66.4757
61.5367
56.5982
51.6614
46.7271
41.7958
36.8679
31.9435
27.0225
22.1046
17.1894
12.2765
7.3652
2.45495
71.412
66.4696
61.527
56.5855
51.6464
46.7106
41.7786
36.8508
31.9273
27.0077
22.0918
17.179
12.2688
7.36049
2.45336
71.4093
66.4619
61.5147
56.5695
51.6276
46.6901