/*--------------------------------*- C++ -*----------------------------------*\
| =========                 |                                                 |
| \\      /  F ield         | OpenFOAM: The Open Source CFD Toolbox           |
|  \\    /   O peration     | Version:  5.x                                   |
|   \\  /    A nd           | Web:      www.OpenFOAM.org                      |
|    \\/     M anipulation  |                                                 |
\*---------------------------------------------------------------------------*/
FoamFile
{
    version     2.0;
    format      ascii;
    class       volScalarField;
    location    "8";
    object      gradTx;
}
// * * * * * * * * * * * * * * * * * * * * * * * * * * * * * * * * * * * * * //

dimensions      [0 -1 0 1 0 0 0];

internalField   nonuniform List<scalar> 
6300
(
412.944
411.738
409.325
405.7
400.859
394.8
387.523
379.039
369.369
358.549
346.639
333.728
319.931
305.398
290.31
414.136
412.932
410.522
406.902
402.063
396.003
388.718
380.213
370.505
359.626
347.63
334.601
320.655
305.943
290.65
416.516
415.318
412.917
409.306
404.477
398.417
391.119
382.578
372.8
361.806
349.642
336.381
322.135
307.058
291.347
420.081
418.892
416.507
412.917
408.106
402.056
394.749
386.166
376.297
365.146
352.739
339.134
324.435
308.798
292.436
424.821
423.646
421.288
417.733
412.96
406.94
399.641
391.026
381.064
369.73
357.02
342.969
327.662
311.253
293.977
430.722
429.568
427.252
423.754
419.046
413.089
405.834
397.222
387.19
375.675
362.632
348.049
331.978
314.564
296.067
437.761
436.639
434.383
430.971
426.367
420.523
413.37
404.824
394.784
383.137
369.77
354.604
337.626
318.947
298.853
445.909
444.828
442.654
439.364
434.915
429.25
422.284
413.907
403.973
392.303
378.696
362.959
344.962
324.735
302.569
455.121
454.094
452.029
448.899
444.665
439.262
432.596
424.533
414.883
403.393
389.74
373.56
354.516
332.45
307.595
465.345
464.384
462.451
459.525
455.569
450.522
444.291
436.73
427.619
416.63
403.298
387.012
367.082
342.941
314.579
476.515
475.629
473.851
471.165
467.547
462.95
457.299
450.463
442.219
432.196
419.794
404.096
383.844
357.643
324.706
488.555
487.751
486.141
483.722
480.487
476.418
471.478
465.587
458.581
450.126
439.571
425.721
406.542
379.069
340.335
501.383
500.662
499.224
497.08
494.244
490.739
486.59
481.811
476.377
470.138
462.63
452.662
437.518
411.743
366.742
514.915
514.272
512.997
511.111
508.654
505.689
502.314
498.673
494.962
491.405
488.133
484.762
479.111
463.625
417.541
529.073
528.498
527.363
525.696
523.554
521.03
518.286
515.587
513.376
512.369
513.716
519.127
530.519
546.091
534.277
276.177
263.211
250.274
237.497
225.005
212.911
201.316
190.305
179.949
170.303
161.405
153.282
145.948
139.409
133.661
128.692
124.486
121.02
118.267
116.195
114.768
113.942
113.671
113.901
114.573
115.622
116.978
118.568
120.319
122.158
124.015
125.826
127.537
129.099
130.473
131.624
132.523
133.142
133.453
133.43
133.048
132.287
131.131
129.575
127.622
125.285
122.585
119.544
116.188
112.536
108.603
104.395
99.9088
95.1359
90.0622
84.6718
78.9488
72.8794
66.4517
59.6557
52.4807
44.9135
36.936
28.5226
19.6398
10.2454
0.289809
-10.2826
-21.5308
-33.5147
-46.2923
-59.9182
-74.4416
-89.9058
-106.348
-123.799
-142.282
-161.812
-182.395
-204.023
-226.673
-250.3
-274.836
-300.185
-326.221
-352.787
-379.699
-406.746
-433.699
-460.32
276.315
263.159
250.035
237.08
224.424
212.185
200.467
189.356
178.922
169.219
160.283
152.139
144.8
138.266
132.534
127.59
123.416
119.989
117.283
115.264
113.897
113.141
112.946
113.262
114.027
115.175
116.636
118.334
120.19
122.128
124.076
125.968
127.747
129.367
130.79
131.984
132.923
133.581
133.931
133.943
133.592
132.851
131.704
130.143
128.172
125.806
123.071
119.996
116.611
112.939
108.998
104.792
100.32
95.5668
90.5164
85.1489
79.4462
73.3938
66.981
60.2003
53.0445
45.504
37.5632
29.1985
20.3766
11.054
1.17867
-9.30846
-20.4702
-32.37
-45.0689
-58.6234
-73.084
-88.4943
-104.892
-122.308
-140.768
-160.291
-180.884
-202.546
-225.259
-248.984
-273.658
-299.187
-325.448
-352.28
-379.493
-406.868
-434.164
-461.128
276.597
263.052
249.544
236.224
223.235
210.703
198.736
187.425
176.837
167.023
158.016
149.834
142.485
135.966
130.267
125.374
121.265
117.918
115.303
113.391
112.145
111.525
111.484
111.971
112.924
114.276
115.951
117.867
119.938
122.081
124.215
126.269
128.184
129.915
131.431
132.708
133.725
134.461
134.889
134.978
134.692
133.997
132.87
131.297
129.285
126.856
124.044
120.893
117.442
113.727
109.769
105.573
101.131
96.4242
91.4252
86.1068
80.4455
74.4255
68.0389
61.284
54.1617
46.6701
38.8004
30.5327
21.8343
12.6591
2.94921
-7.36189
-18.3454
-30.0728
-42.6114
-56.0216
-70.3557
-85.6578
-101.965
-119.311
-137.721
-157.221
-177.828
-199.55
-222.38
-246.294
-271.238
-297.128
-323.84
-351.214
-379.044
-407.093
-435.094
-462.764
277.037
262.882
248.773
234.885
221.379
208.398
196.056
184.446
173.633
163.661
154.555
146.324
138.969
132.479
126.837
122.023
118.015
114.786
112.309
110.554
109.487
109.07
109.26
110.005
111.245
112.909
114.915
117.171
119.581
122.044
124.466
126.765
128.88
130.77
132.414
133.802
134.928
135.78
136.333
136.548
136.375
135.764
134.673
133.082
130.997
128.453
125.504
122.216
118.652
114.864
110.879
106.705
102.323
97.6999
92.792
87.5565
81.9599
75.9838
69.6257
62.8958
55.8096
48.3802
40.6103
32.4871
23.9788
15.0344
5.58614
-4.44606
-15.1484
-26.606
-38.8968
-52.0872
-66.2309
-81.3704
-97.541
-114.774
-133.101
-152.553
-173.161
-194.95
-217.935
-242.112
-267.448
-293.874
-321.273
-349.478
-378.269
-407.375
-436.487
-465.271
277.659
262.638
247.676
232.987
218.762
205.163
192.317
180.313
169.212
159.046
149.827
141.551
134.204
127.765
122.209
117.509
113.638
110.569
108.273
106.723
105.889
105.739
106.233
107.323
108.952
111.045
113.514
116.253
119.143
122.062
124.888
127.524
129.897
131.977
133.76
135.268
136.522
137.526
138.261
138.673
138.687
138.218
137.193
135.574
133.368
130.629
127.448
123.933
120.184
116.279
112.261
108.132
103.86
99.3836
94.6286
89.5243
84.0191
78.0905
71.7467
65.0195
57.951
50.5798
42.9286
34.9958
26.7512
18.1355
9.06458
-0.564399
-10.8625
-21.9378
-33.8849
-46.7778
-60.6694
-75.5954
-91.583
-108.659
-126.856
-146.215
-166.787
-188.621
-211.767
-236.253
-262.082
-289.209
-317.535
-346.889
-377.029
-407.637
-438.338
-468.72
278.501
262.298
246.178
230.412
215.236
200.838
187.356
174.874
163.438
153.062
143.735
135.434
128.127
121.776
116.345
111.798
108.104
105.233
103.159
101.857
101.305
101.477
102.343
103.864
105.986
108.638
111.721
115.112
118.663
122.207
125.584
128.655
131.335
133.604
135.501
137.098
138.469
139.657
140.649
141.368
141.691
141.468
140.566
138.908
136.501
133.437
129.872
125.984
121.937
117.855
113.798
109.764
105.689
101.466
96.9661
92.0677
86.6863
80.7935
74.4186
67.6334
60.5272
53.1817
45.6518
37.9533
30.0577
21.8926
13.347
4.28153
-5.45638
-16.0129
-27.5092
-40.0284
-53.6158
-68.2887
-84.0543
-100.926
-118.933
-138.128
-158.587
-180.4
-203.66
-228.454
-254.836
-282.811
-312.307
-343.161
-375.102
-407.752
-440.638
-473.221
279.622
261.83
244.162
226.978
210.58
195.19
180.947
167.922
156.133
145.56
136.161
127.883
120.667
114.458
109.202
104.856
101.381
98.7466
96.9285
95.9089
95.6742
96.2118
97.5063
99.5342
102.255
105.605
109.481
113.739
118.187
122.592
126.714
130.345
133.362
135.765
137.668
139.248
140.678
142.068
143.423
144.63
145.477
145.693
145.024
143.318
140.576
136.965
132.757
128.259
123.74
119.391
115.3
111.451
107.729
103.945
99.8753
95.3045
90.0882
84.1891
77.6798
70.7083
63.4468
56.0485
48.6173
41.1941
33.7519
26.1976
18.3785
10.0964
1.1295
-8.73372
-19.6588
-31.7392
-44.9966
-59.4058
-74.9304
-91.5529
-109.294
-128.218
-148.434
-170.087
-193.34
-218.361
-245.291
-274.212
-305.114
-337.855
-372.143
-407.517
-443.359
-478.938
281.111
261.177
241.438
222.404
204.467
187.882
172.777
159.185
147.071
136.363
126.97
118.797
111.755
105.761
100.748
96.6569
93.4452
91.0812
89.545
88.8275
88.9284
89.8537
91.6111
94.2032
97.6171
101.81
106.688
112.09
117.767
123.382
128.549
132.915
136.269
138.643
140.296
141.609
142.941
144.527
146.406
148.409
150.167
151.186
150.974
149.214
145.9
141.347
136.057
130.56
125.295
120.553
116.453
112.952
109.853
106.836
103.503
99.469
94.4714
88.4614
81.6054
74.1992
66.5626
58.9616
51.5706
44.4619
37.6075
30.8837
24.0772
16.8975
9.00685
0.0755296
-10.1433
-21.7534
-34.7167
-48.9145
-64.2227
-80.5667
-97.9464
-116.442
-136.209
-157.463
-180.468
-205.512
-232.87
-262.754
-295.261
-330.313
-367.61
-406.596
-446.446
-486.121
283.113
260.232
237.692
216.244
196.401
178.436
162.425
148.314
135.98
125.266
116.016
108.08
101.328
95.6506
90.9603
87.1883
84.2854
82.2207
80.9797
80.5647
80.9928
82.2947
84.5111
87.6859
91.8546
97.0234
103.139
110.044
117.431
124.812
131.536
136.937
140.584
142.553
143.411
143.937
144.837
146.557
149.209
152.535
155.917
158.448
159.15
157.342
153.005
146.787
139.651
132.523
126.096
120.786
116.741
113.87
111.858
110.178
108.138
105.019
100.311
93.9504
86.3214
78.0207
69.626
61.5714
54.1167
47.3631
41.2746
35.6887
30.3132
24.7227
18.3833
10.7395
1.37686
-9.81768
-22.6575
-36.8218
-52.0211
-68.0857
-84.9883
-102.833
-121.836
-142.312
-164.655
-189.326
-216.802
-247.512
-281.736
-319.527
-360.634
-404.418
-449.773
-495.156
285.864
258.787
232.368
207.763
185.625
166.171
149.33
134.881
122.549
112.06
103.166
95.653
89.3493
84.1162
79.8475
76.4651
73.9162
72.1711
71.2226
71.0852
71.7963
73.4163
76.0283
79.7349
84.6489
90.8713
98.4484
107.299
117.104
127.181
136.426
143.479
147.313
148.06
146.997
145.726
145.547
147.242
151.035
156.578
162.887
168.339
170.936
169.109
162.816
153.545
143.232
133.471
125.287
119.195
115.335
113.549
113.384
114.036
114.325
112.854
108.527
101.265
92.003
81.9759
72.1985
63.3161
55.6525
49.3058
44.2175
40.1905
36.8587
33.6266
29.6381
23.8794
15.5357
4.48834
-8.68931
-23.237
-38.5713
-54.3955
-70.6705
-87.5514
-105.34
-124.465
-145.486
-169.092
-196.072
-227.202
-263.067
-303.955
-349.793
-399.966
-453.045
-506.657
289.779
256.384
224.423
195.721
170.977
150.136
132.783
118.393
106.461
96.5547
88.3209
81.4825
75.826
71.1901
67.4558
64.5393
62.387
60.9723
60.295
60.3817
61.2888
63.1071
65.9668
70.0429
75.5568
82.7655
91.9217
103.176
116.379
130.747
144.47
154.65
158.485
156.166
150.882
145.936
143.554
144.9
150.339
159.512
171.087
182.337
189.088
187.302
176.908
161.802
146.014
132.147
121.46
114.386
110.94
110.892
113.73
118.413
123.043
124.8
120.969
111.455
98.7849
85.5699
73.4808
63.3046
55.2909
49.4357
45.6313
43.691
43.2601
43.6198
43.442
40.7417
33.5882
21.8628
7.25281
-8.51807
-24.4142
-40.0539
-55.4776
-70.9596
-86.9149
-103.886
-122.589
-143.995
-169.36
-200.065
-237.156
-281.245
-332.7
-391.317
-455.537
-521.646
295.629
251.907
211.778
177.974
150.703
129.076
111.966
98.3609
87.4536
78.6371
71.4638
65.6073
60.8307
56.9633
53.8841
51.511
49.7936
48.7099
48.2653
48.4946
49.4674
51.2965
54.1515
58.2781
64.0219
71.8526
82.3705
96.2454
113.974
135.237
157.61
174.953
178.516
168.538
154.275
142.449
136.19
136.658
144.264
158.984
179.753
202.806
219.53
217.888
197.781
171.035
146.027
126.24
112.427
104.353
101.647
104.077
111.416
122.865
135.895
144.791
141.59
126.19
106.349
87.5409
72.007
60.1782
51.8203
46.6118
44.3603
45.0173
48.5224
54.3866
60.8782
64.0165
58.2242
43.3912
24.8673
6.38224
-10.6247
-26.0216
-40.1981
-53.6837
-67.0244
-80.8071
-95.7957
-113.191
-134.953
-163.727
-201.16
-247.92
-305.283
-374.589
-455.297
-541.937
304.999
242.248
190.016
150.814
122.295
101.506
86.0994
74.4397
65.4324
58.3506
52.7081
48.1747
44.524
41.5995
39.2939
37.5367
36.286
35.5255
35.2635
35.5356
36.4115
38.0068
40.5035
44.1828
49.4799
57.0682
67.9828
83.7624
106.475
138.125
177.989
215.095
218.04
187.074
154.154
130.943
119.133
118.136
127.94
149.741
185.124
232.385
276.411
275.056
228.207
177.764
138.518
111.725
95.129
86.5861
84.9556
90.1922
103.179
125.04
154.696
182.2
179.772
147.318
112.424
84.7951
65.1966
52.0525
43.8135
39.5291
38.9004
42.2419
50.3872
64.2494
83.1422
100.151
95.8782
70.2343
42.426
19.1547
0.847148
-13.7451
-25.912
-36.6142
-46.4947
-55.9891
-65.5341
-76.0933
-90.4431
-114.915
-151.725
-199.321
-260.658
-341.43
-446.501
-571.017
321.434
217.438
149.481
108.264
82.7536
66.1804
54.8343
46.6967
40.6359
35.9897
32.3532
29.4695
27.1702
25.3429
23.9128
22.8316
22.0715
21.6223
21.4914
21.7059
22.3183
23.4181
25.1511
27.7567
31.6371
37.492
46.5873
61.2931
86.1043
129.181
202.331
304.425
306.387
208.419
140.046
103.016
86.5028
84.0564
94.3375
120.934
173.387
266.616
398.635
397.73
263.805
168.361
113.077
82.5213
66.2325
58.8636
58.374
65.1453
82.1595
115.988
176.591
262.71
261.188
171.958
108.032
70.4846
49.0906
36.8625
30.1112
27.1814
27.723
32.5482
44.0188
66.867
108.119
166.928
164.306
100.193
53.4512
24.7797
6.96959
-4.96028
-13.7339
-20.7263
-26.5191
-31.0958
-33.8094
-33.5342
-31.3533
-48.3329
-86.7508
-130.929
-188.038
-273.272
-409.692
-616.269
353.17
140.721
70.438
43.0927
30.3396
23.3255
18.947
15.9617
13.8012
12.1733
10.9134
9.92184
9.13562
8.51354
8.02857
7.66346
7.40845
7.26012
7.22136
7.30233
7.5228
7.91677
8.54129
9.49397
10.9501
13.2485
17.1114
24.2704
39.4274
76.9293
184.99
537.933
538.625
187.143
80.8013
45.5401
33.6145
31.647
37.2375
54.8933
102.927
244.981
712.26
711.94
243.984
101.124
52.0219
32.772
24.4899
21.2334
21.3351
25.3473
36.9261
68.3785
161.738
469.416
468.897
160.156
65.6548
32.9112
19.7846
13.7851
10.9054
9.83467
10.3767
13.2847
21.266
42.9828
107.811
322.162
321.278
105.138
38.4541
14.7642
4.6247
-0.719963
-4.11979
-6.56491
-8.29345
-8.88368
-6.38694
6.28296
55.3308
49.1238
-13.4779
-43.9138
-74.9124
-131.395
-271.845
-694.125
-488.901
-518.982
-547.527
-574.239
-598.889
-621.316
-641.423
-659.166
-674.547
-687.592
-698.348
-706.869
-713.207
-717.405
-719.496
-490.069
-520.503
-549.344
-576.285
-601.095
-623.619
-643.768
-661.512
-676.863
-689.861
-700.564
-709.033
-715.326
-719.493
-721.567
-492.443
-523.603
-553.046
-580.446
-605.572
-628.278
-648.499
-666.231
-681.512
-694.408
-704.995
-713.353
-719.552
-723.651
-725.691
-496.113
-528.404
-558.774
-586.867
-612.45
-635.404
-655.702
-673.383
-688.528
-701.243
-711.635
-719.811
-725.859
-729.85
-731.833
-501.223
-535.112
-566.762
-595.779
-621.94
-645.17
-665.504
-683.05
-697.956
-710.379
-720.474
-728.376
-734.201
-738.036
-739.938
-507.999
-544.043
-577.367
-607.531
-634.344
-657.812
-678.073
-695.339
-709.846
-721.824
-731.483
-738.999
-744.514
-748.133
-749.926
-516.789
-555.68
-591.115
-622.616
-650.074
-673.641
-693.619
-710.367
-724.243
-735.568
-744.614
-751.603
-756.703
-760.037
-761.685
-528.134
-570.757
-608.78
-641.727
-669.676
-693.041
-712.376
-728.249
-741.17
-751.568
-759.781
-766.073
-770.636
-773.607
-775.072
-542.897
-590.417
-631.505
-665.818
-693.843
-716.451
-734.576
-749.062
-760.601
-769.73
-776.848
-782.249
-786.14
-788.662
-789.902
-562.517
-616.495
-660.987
-696.177
-723.409
-744.321
-760.394
-772.802
-782.423
-789.88
-795.61
-799.913
-802.991
-804.977
-805.951
-589.557
-652.039
-699.753
-734.474
-759.274
-777.009
-789.852
-799.309
-806.386
-811.735
-815.777
-818.778
-820.911
-822.282
-822.953
-629
-702.332
-751.494
-782.669
-802.183
-814.57
-822.673
-828.174
-832.055
-834.876
-836.959
-838.488
-839.57
-840.264
-840.603
-691.72
-776.775
-821.201
-842.504
-852.198
-856.392
-858.068
-858.639
-858.761
-858.732
-858.671
-858.622
-858.592
-858.577
-858.572
-805.298
-891.825
-914.006
-913.922
-907.693
-900.706
-894.543
-889.527
-885.599
-882.595
-880.347
-878.71
-877.574
-876.858
-876.512
-1053.03
-1071.2
-1029.05
-991.458
-963.925
-944.17
-929.841
-919.304
-911.488
-905.679
-901.386
-898.273
-896.11
-894.745
-894.084
542.561
542.037
541.002
539.486
537.545
535.279
532.868
530.63
529.134
529.414
533.425
545.129
573.795
646.771
869.547
555.174
554.687
553.723
552.305
550.476
548.32
545.992
543.778
542.213
542.306
545.987
556.972
582.353
634.254
720.081
568.113
567.657
566.747
565.395
563.621
561.468
559.024
556.462
554.127
552.694
553.463
558.806
572.479
598.162
630.406
581.356
580.927
580.066
578.765
577.015
574.804
572.124
568.976
565.402
561.539
557.749
554.842
554.249
557.5
563.311
594.884
594.485
593.675
592.432
590.714
588.452
585.534
581.774
576.865
570.317
561.409
549.257
533.338
515.044
500.443
608.677
608.314
607.573
606.416
604.777
602.542
599.516
595.356
589.451
580.721
567.306
546.275
514.062
470.012
427.627
622.707
622.393
621.744
620.719
619.238
617.167
614.272
610.135
603.985
594.364
578.478
551.046
502.993
423.81
325.571
636.943
636.689
636.164
635.323
634.094
632.35
629.877
626.298
620.914
612.342
597.655
570.124
513.53
390.831
155.49
651.341
651.161
650.786
650.182
649.292
648.024
646.236
643.701
640.04
634.554
625.736
609.37
569.961
436.065
-177.824
665.849
665.754
665.553
665.225
664.736
664.043
663.098
661.873
660.417
659.065
659.043
664.602
691.994
814.614
1421.09
680.409
680.405
680.393
680.363
680.306
680.222
680.142
680.188
680.706
682.636
688.46
704.655
747.881
857.136
1083.05
694.957
695.048
695.229
695.503
695.878
696.381
697.085
698.16
699.997
703.487
710.66
725.921
757.896
818.624
902.128
709.428
709.613
709.985
710.555
711.343
712.385
713.756
715.588
718.12
721.765
727.228
735.56
747.928
764.275
779.425
723.756
724.031
724.588
725.44
726.613
728.145
730.091
732.516
735.452
738.763
741.786
742.379
735.179
710.739
667.476
737.878
738.239
738.968
740.085
741.616
743.599
746.078
749.073
752.503
755.946
758.015
754.59
734.386
670.257
525.719
751.734
752.174
753.064
754.425
756.287
758.692
761.69
765.313
769.525
774.067
778.043
778.436
764.079
685.599
283.826
765.269
765.781
766.816
768.398
770.562
773.357
776.852
781.128
786.297
792.565
800.541
812.506
838.285
925.432
1331.46
778.432
779.008
780.172
781.949
784.379
787.52
791.454
796.306
802.286
809.858
820.253
836.963
869.856
943.8
1093.01
791.18
791.81
793.084
795.028
797.684
801.113
805.404
810.683
817.149
825.172
835.562
850.161
872.9
909.879
958.437
803.474
804.149
805.513
807.593
810.432
814.09
818.651
824.219
830.911
838.824
847.93
857.686
866.038
867.895
857.84
815.282
815.993
817.427
819.613
822.591
826.422
831.182
836.958
843.805
851.629
859.83
866.164
863.668
834.164
750.517
826.581
827.317
828.802
831.063
834.139
838.09
842.992
848.936
855.998
864.153
873.007
880.755
880.034
838.013
585.365
837.352
838.104
839.621
841.926
845.06
849.078
854.061
860.121
867.411
876.174
886.933
901.207
925.063
988.112
1253.94
847.583
848.343
849.873
852.196
855.346
859.376
864.366
870.433
877.778
886.791
898.4
914.983
942.856
997.37
1098.47
857.27
858.029
859.557
861.871
865.001
868.99
873.904
879.841
886.965
895.586
906.394
920.897
942.129
974.255
1013.47
866.412
867.164
868.676
870.96
874.039
877.943
882.714
888.408
895.09
902.845
911.803
922.116
933.818
946.197
955.978
875.014
875.754
877.239
879.477
882.483
886.274
890.867
896.27
902.447
909.249
916.253
922.35
925.017
919.921
905.546
883.086
883.81
885.26
887.442
890.362
894.027
898.439
903.577
909.349
915.494
921.312
924.945
921.589
900.068
845.402
890.637
891.342
892.753
894.873
897.703
901.243
905.491
910.424
915.971
921.945
927.871
932.371
930.758
903.212
747.566
897.682
898.367
899.736
901.791
904.529
907.948
912.048
916.826
922.275
928.411
935.401
944.022
957.917
995.293
1156.27
904.233
904.897
906.225
908.214
910.86
914.161
918.118
922.744
928.078
934.265
941.777
951.99
968.75
1001.52
1062.68
910.305
910.949
912.235
914.159
916.716
919.899
923.707
928.15
933.267
939.181
946.259
955.391
968.444
988.016
1011.83
915.912
916.537
917.783
919.645
922.115
925.182
928.837
933.071
937.88
943.269
949.294
956.048
963.593
971.54
977.807
921.068
921.674
922.884
924.689
927.079
930.037
933.546
937.575
942.067
946.898
951.802
956.135
958.443
956.21
948.406
925.784
926.375
927.552
929.306
931.626
934.491
937.876
941.74
945.996
950.455
954.689
957.606
956.428
944.727
913.863
930.073
930.649
931.798
933.511
935.772
938.563
941.857
945.614
949.761
954.15
958.472
961.899
961.702
946.531
858.161
933.943
934.508
935.635
937.313
939.53
942.265
945.498
949.2
953.335
957.871
962.859
968.686
977.355
999.149
1090.95
937.402
937.959
939.068
940.722
942.905
945.602
948.794
952.466
956.608
961.26
966.643
973.479
983.876
1003.13
1038.18
940.456
941.007
942.105
943.741
945.903
948.575
951.741
955.387
959.504
964.122
969.4
975.777
984.228
996.122
1010.03
943.109
943.657
944.747
946.374
948.524
951.184
954.337
957.962
962.03
966.506
971.373
976.615
982.172
987.695
991.809
945.365
945.91
946.998
948.622
950.771
953.432
956.587
960.21
964.249
968.6
973.067
977.214
980.119
980.229
976.723
947.223
947.769
948.857
950.484
952.64
955.315
958.494
962.152
966.229
970.594
974.965
978.653
979.988
975.253
959.478
948.684
949.231
950.323
951.957
954.127
956.828
960.052
963.784
967.986
972.564
977.319
981.705
984.055
977.925
931.556
949.747
950.296
951.393
953.036
955.224
957.957
961.238
965.071
969.458
974.394
979.909
986.149
993.992
1008.52
1059.54
950.411
950.962
952.063
953.716
955.922
958.686
962.023
965.956
970.524
975.803
981.976
989.459
999.269
1013.75
1035.41
950.674
951.226
952.33
953.99
956.209
958.997
962.376
966.381
971.075
976.572
983.114
991.131
1001.28
1013.98
1026.59
950.535
951.087
952.192
953.854
956.079
958.878
962.275
966.309
971.045
976.598
983.207
991.299
1001.52
1014.23
1026.82
949.994
950.545
951.647
953.306
955.528
958.323
961.714
965.732
970.424
975.87
982.253
989.969
999.991
1014.56
1036.07
949.052
949.6
950.696
952.346
954.556
957.334
960.698
964.667
969.256
974.474
980.352
987.018
995.286
1010.06
1060.53
947.711
948.254
949.341
950.976
953.166
955.919
959.245
963.153
967.628
972.6
977.885
982.933
986.045
980.744
935.592
945.975
946.511
947.584
949.2
951.364
954.083
957.369
961.226
965.631
970.491
975.562
980.173
982.626
979.084
964.312
943.847
944.374
945.431
947.022
949.153
951.834
955.079
958.9
963.294
968.216
973.54
978.889
983.351
985.202
983.058
941.334
941.851
942.887
944.446
946.538
949.173
952.37
956.158
960.566
965.643
971.48
978.2
985.872
994.075
1000.6
938.444
938.948
939.958
941.48
943.522
946.099
949.234
952.964
957.352
962.523
968.788
976.829
988.006
1004.09
1022.95
935.184
935.673
936.653
938.13
940.113
942.617
945.665
949.295
953.569
958.625
964.843
973.259
986.711
1012.17
1058.69
931.566
932.037
932.982
934.406
936.32
938.735
941.673
945.159
949.22
953.899
959.352
966.172
977.057
1005.61
1127.01
927.601
928.052
928.956
930.321
932.154
934.47
937.283
940.605
944.417
948.617
952.893
956.239
955.119
934.541
817.457
923.303
923.731
924.591
925.888
927.632
929.836
932.519
935.691
939.32
943.261
947.059
949.386
946.673
930.474
889.359
918.688
919.091
919.9
921.121
922.766
924.85
927.398
930.438
933.984
937.985
942.228
946.012
947.572
943.687
933.005
913.773
914.148
914.901
916.039
917.571
919.519
921.915
924.816
928.306
932.52
937.694
944.159
952.232
961.599
969.53
908.577
908.922
909.615
910.659
912.065
913.854
916.062
918.764
922.101
926.369
932.243
941.169
955.973
980.488
1011.86
903.122
903.435
904.061
905.005
906.271
907.874
909.847
912.252
915.224
919.082
924.651
934.075
952.949
994.595
1076.28
897.43
897.709
898.266
899.103
900.218
901.617
903.311
905.324
907.707
910.586
914.363
920.395
934.094
980.875
1197.73
891.523
891.767
892.256
892.983
893.945
895.132
896.533
898.12
899.822
901.445
902.488
901.367
892.244
849.032
633.858
885.425
885.636
886.056
886.678
887.49
888.475
889.604
890.817
891.964
892.686
892.094
887.873
874.046
836.584
757.086
879.159
879.339
879.694
880.216
880.89
881.695
882.598
883.537
884.377
884.817
884.198
881.025
872.24
853.305
825.422
872.748
872.898
873.194
873.625
874.175
874.825
875.547
876.305
877.041
877.663
878.055
878.05
877.461
876.215
874.713
866.21
866.334
866.576
866.926
867.367
867.88
868.449
869.067
869.758
870.646
872.164
875.458
883.117
899.28
923.281
859.566
859.666
859.861
860.139
860.482
860.872
861.296
861.757
862.311
863.17
865.019
869.811
882.845
916.879
988.839
852.829
852.911
853.066
853.282
853.54
853.818
854.095
854.36
854.626
854.983
855.807
858.416
867.97
908.12
1104.69
846.015
846.081
846.205
846.371
846.559
846.739
846.88
846.942
846.851
846.448
845.332
842.172
831.825
790.713
593.102
839.133
839.188
839.29
839.421
839.556
839.662
839.699
839.607
839.264
838.386
836.254
830.894
817.021
781.958
708.901
832.19
832.24
832.331
832.443
832.547
832.609
832.586
832.423
832.021
831.171
829.392
825.502
816.909
799.56
774.311
825.19
825.241
825.333
825.443
825.541
825.589
825.548
825.381
825.061
824.576
823.973
823.349
822.854
822.62
822.533
818.132
818.191
818.298
818.427
818.544
818.606
818.573
818.424
818.187
818.04
818.542
821.08
828.593
845.554
871.043
811.009
811.085
811.222
811.393
811.558
811.663
811.658
811.503
811.223
811.027
811.674
815.329
827.746
862.539
937.603
803.812
803.913
804.098
804.338
804.585
804.772
804.822
804.647
804.17
803.403
802.693
803.465
811.337
851.535
1056.64
796.523
796.658
796.912
797.252
797.625
797.951
798.119
797.975
797.289
795.715
792.656
786.641
772.454
725.982
516.378
789.116
789.296
789.641
790.117
790.67
791.213
791.611
791.655
790.996
789.032
784.646
775.464
755.966
713.685
633.024
781.562
781.796
782.253
782.903
783.696
784.549
785.325
785.798
785.579
784.004
779.94
771.421
755.27
728.008
694.028
773.822
774.119
774.705
775.561
776.652
777.911
779.226
780.397
781.075
780.677
778.302
772.646
762.262
746.965
731.811
765.853
766.217
766.944
768.031
769.463
771.209
773.204
775.313
777.286
778.696
778.914
777.125
772.637
765.793
759.445
757.609
758.04
758.909
760.233
762.027
764.309
767.078
770.299
773.858
777.516
780.894
783.448
784.62
784.244
783.049
749.042
749.533
750.534
752.08
754.226
757.043
760.614
765.025
770.329
776.505
783.418
790.698
797.651
803.233
806.199
740.112
740.65
741.755
743.485
745.932
749.226
753.544
759.107
766.163
774.957
785.659
798.145
811.606
824.007
831.785
730.784
731.349
732.516
734.364
737.02
740.672
745.587
752.127
760.76
772.056
786.634
804.883
826.267
847.96
863.149
721.043
721.607
722.78
724.656
727.39
731.216
736.478
743.669
753.478
766.848
785.033
809.411
840.686
876.398
905.437
710.886
711.419
712.531
714.326
716.974
720.736
726.007
733.37
743.69
758.27
779.105
809.119
851.995
909.436
968.266
700.338
700.804
701.784
703.378
705.757
709.184
714.06
720.993
730.915
745.323
766.776
799.863
853.16
941.475
1072.32
689.445
689.81
690.584
691.859
693.785
696.601
700.664
706.516
714.994
727.456
746.341
776.54
829.981
943.941
1267.61
-1741.17
-1290.88
-1130.31
-1053.28
-1008.32
-979.014
-958.693
-944.082
-933.361
-925.426
-919.565
-915.31
-912.347
-910.473
-909.565
-1472.39
-1289.38
-1164.32
-1087.2
-1037.79
-1004.43
-980.936
-963.888
-951.294
-941.918
-934.958
-929.882
-926.334
-924.084
-922.991
-1330.97
-1247.62
-1165.02
-1101.84
-1056.09
-1022.98
-998.681
-980.584
-966.976
-956.715
-949.024
-943.373
-939.401
-936.873
-935.642
-1247.71
-1205.31
-1152.22
-1104.35
-1065.6
-1035.39
-1012.1
-994.144
-980.318
-969.709
-961.653
-955.677
-951.448
-948.743
-947.423
-1194.17
-1170.4
-1135.78
-1100.5
-1069.16
-1042.99
-1021.77
-1004.82
-991.409
-980.91
-972.818
-966.748
-962.419
-959.634
-958.27
-1157.42
-1142.99
-1119.78
-1093.89
-1069.1
-1047.13
-1028.47
-1013.02
-1000.46
-990.42
-982.559
-976.592
-972.297
-969.519
-968.154
-1130.97
-1121.66
-1105.62
-1086.5
-1067.06
-1048.95
-1032.91
-1019.19
-1007.74
-998.399
-990.965
-985.252
-981.104
-978.404
-977.073
-1111.26
-1104.97
-1093.58
-1079.3
-1064.08
-1049.3
-1035.73
-1023.77
-1013.54
-1005.03
-998.154
-992.806
-988.887
-986.321
-985.051
-1096.2
-1091.81
-1083.53
-1072.73
-1060.79
-1048.78
-1037.42
-1027.13
-1018.13
-1010.51
-1004.26
-999.345
-995.712
-993.318
-992.13
-1084.47
-1081.34
-1075.19
-1066.94
-1057.53
-1047.79
-1038.33
-1029.56
-1021.75
-1015.02
-1009.42
-1004.97
-1001.66
-999.46
-998.365
-1075.2
-1072.92
-1068.3
-1061.93
-1054.48
-1046.58
-1038.74
-1031.32
-1024.6
-1018.72
-1013.77
-1009.79
-1006.81
-1004.82
-1003.82
-1067.78
-1066.12
-1062.61
-1057.65
-1051.72
-1045.31
-1038.83
-1032.59
-1026.84
-1021.75
-1017.41
-1013.9
-1011.24
-1009.47
-1008.57
-1061.8
-1060.59
-1057.9
-1054.01
-1049.28
-1044.07
-1038.72
-1033.49
-1028.61
-1024.23
-1020.47
-1017.39
-1015.05
-1013.48
-1012.69
-1056.94
-1056.07
-1054
-1050.94
-1047.15
-1042.92
-1038.51
-1034.14
-1030.01
-1026.27
-1023.03
-1020.36
-1018.31
-1016.93
-1016.23
-1052.97
-1052.35
-1050.76
-1048.35
-1045.31
-1041.87
-1038.24
-1034.6
-1031.12
-1027.94
-1025.16
-1022.86
-1021.09
-1019.89
-1019.28
-1049.72
-1049.29
-1048.07
-1046.17
-1043.74
-1040.94
-1037.95
-1034.92
-1032.01
-1029.32
-1026.95
-1024.98
-1023.45
-1022.41
-1021.88
-1047.03
-1046.76
-1045.84
-1044.34
-1042.39
-1040.12
-1037.67
-1035.16
-1032.72
-1030.45
-1028.44
-1026.76
-1025.45
-1024.56
-1024.11
-1044.82
-1044.67
-1043.98
-1042.81
-1041.25
-1039.41
-1037.4
-1035.32
-1033.29
-1031.39
-1029.69
-1028.26
-1027.15
-1026.38
-1025.99
-1042.99
-1042.94
-1042.43
-1041.52
-1040.28
-1038.79
-1037.15
-1035.44
-1033.75
-1032.16
-1030.73
-1029.52
-1028.58
-1027.93
-1027.6
-1041.47
-1041.5
-1041.14
-1040.45
-1039.46
-1038.27
-1036.93
-1035.52
-1034.12
-1032.79
-1031.6
-1030.58
-1029.78
-1029.23
-1028.95
-1040.21
-1040.31
-1040.07
-1039.55
-1038.78
-1037.82
-1036.74
-1035.58
-1034.42
-1033.32
-1032.32
-1031.47
-1030.79
-1030.33
-1030.09
-1039.18
-1039.32
-1039.18
-1038.8
-1038.2
-1037.44
-1036.57
-1035.62
-1034.67
-1033.75
-1032.92
-1032.21
-1031.64
-1031.25
-1031.05
-1038.32
-1038.5
-1038.45
-1038.18
-1037.73
-1037.13
-1036.42
-1035.65
-1034.87
-1034.11
-1033.42
-1032.82
-1032.35
-1032.02
-1031.85
-1037.61
-1037.83
-1037.84
-1037.67
-1037.33
-1036.86
-1036.3
-1035.67
-1035.03
-1034.4
-1033.83
-1033.33
-1032.93
-1032.65
-1032.51
-1037.04
-1037.28
-1037.35
-1037.25
-1037
-1036.64
-1036.19
-1035.69
-1035.16
-1034.64
-1034.16
-1033.75
-1033.41
-1033.18
-1033.06
-1036.57
-1036.84
-1036.95
-1036.91
-1036.74
-1036.46
-1036.11
-1035.7
-1035.26
-1034.83
-1034.44
-1034.08
-1033.8
-1033.6
-1033.5
-1036.21
-1036.49
-1036.63
-1036.64
-1036.52
-1036.32
-1036.04
-1035.7
-1035.34
-1034.99
-1034.65
-1034.35
-1034.11
-1033.95
-1033.86
-1035.92
-1036.22
-1036.38
-1036.43
-1036.36
-1036.21
-1035.98
-1035.71
-1035.41
-1035.1
-1034.82
-1034.56
-1034.36
-1034.21