/*--------------------------------*- C++ -*----------------------------------*\
| =========                 |                                                 |
| \\      /  F ield         | OpenFOAM: The Open Source CFD Toolbox           |
|  \\    /   O peration     | Version:  5.x                                   |
|   \\  /    A nd           | Web:      www.OpenFOAM.org                      |
|    \\/     M anipulation  |                                                 |
\*---------------------------------------------------------------------------*/
FoamFile
{
    version     2.0;
    format      ascii;
    class       volScalarField;
    location    "8";
    object      gradTy;
}
// * * * * * * * * * * * * * * * * * * * * * * * * * * * * * * * * * * * * * //

dimensions      [0 -1 0 1 0 0 0];

internalField   nonuniform List<scalar> 
6300
(
1206.92
1620.16
2031.59
2440.01
2844.19
3242.93
3634.99
4019.17
4394.25
4759.04
5112.42
5453.31
5780.75
6093.9
6392.09
0.892581
2.67963
4.47196
6.27171
8.07875
9.88961
11.6963
13.4849
15.2346
16.9161
18.4924
19.9187
21.1457
22.1231
22.8058
1.48549
4.46012
7.44497
10.4446
13.4602
16.4871
19.5137
22.518
25.4663
28.3102
30.9867
33.4188
35.5192
37.1984
38.3741
2.07472
6.2302
10.4029
14.6014
18.8297
23.0846
27.3527
31.6067
35.8015
39.8709
43.7246
47.2492
50.3128
52.7757
54.5075
2.65788
7.98288
13.3347
18.7279
24.1721
29.6682
35.2049
40.7534
46.2611
51.6459
56.7902
61.5392
65.7051
69.0821
71.4711
3.23171
9.7085
16.2246
22.803
29.4619
36.2104
43.0444
49.9395
56.8422
63.6598
70.2493
76.4099
81.8843
86.3742
89.5786
3.79207
11.3946
19.0515
26.797
34.661
42.6659
50.8214
59.1163
67.5066
75.8995
84.1345
91.9642
99.0446
104.948
109.215
4.33397
13.0259
21.7894
30.6718
39.7182
48.9695
58.4575
68.1959
78.1661
88.2946
98.4221
108.264
117.378
125.155
130.88
4.8518
14.5851
24.4079
34.3816
44.5692
55.0349
65.8413
77.0414
88.6643
100.688
112.991
125.289
137.045
147.408
155.251
5.3398
16.0543
26.8748
37.8763
49.1406
60.758
72.829
85.4612
98.759
112.797
127.562
142.851
158.098
172.178
183.292
5.79276
17.4171
29.1598
41.1072
53.3572
66.0256
79.2532
93.2125
108.11
124.174
141.606
160.448
180.315
199.908
216.443
6.20677
18.6609
31.2393
44.0344
57.1539
70.7318
84.9428
100.022
116.291
134.181
154.234
177.017
202.799
230.691
256.899
6.58003
19.7798
33.1014
46.6356
60.4902
74.8027
89.7612
105.639
122.847
142.019
164.126
190.58
223.167
263.149
307.723
6.91338
20.7764
34.75
48.9152
63.3667
78.2249
93.6577
109.921
127.434
146.919
169.665
198.006
236.131
291.007
370.479
7.21032
21.6617
36.2059
50.907
65.8346
81.0699
96.7203
112.95
130.045
148.555
169.604
195.639
232.334
294.258
424.633
6651.3
6876.07
7089.94
7292.99
7485.42
7667.51
7839.66
8002.33
8156.05
8301.39
8438.98
8569.47
8693.5
8811.76
8924.9
9033.59
9138.47
9240.17
9339.31
9436.46
9532.19
9627.02
9721.43
9815.86
9910.73
10006.4
10103.1
10201
10300.5
10401.5
10504
10608.2
10713.9
10820.9
10929.3
11038.7
11148.9
11259.9
11371.2
11482.7
11594
11704.9
11815
11923.9
12031.4
12137.1
12240.6
12341.8
12440.3
12535.8
12628.2
12717.1
12802.5
12884
12961.4
13034.5
13102.9
13166.5
13224.8
13277.7
13324.7
13365.6
13400
13427.7
13448.1
13461
13465.9
13462.2
13449.6
13427.2
13394.7
13351.1
13295.9
13228.2
13147.2
13052.1
12942.1
12816.3
12673.7
12513.5
12334.9
12136.9
11918.8
11679.8
11419.3
11136.8
10831.8
10504.1
10153.8
9780.91
23.1301
23.1847
22.9976
22.5764
21.9368
21.1012
20.0966
18.9519
17.6967
16.3588
14.964
13.5348
12.0908
10.6483
9.22095
7.82011
6.45561
5.13622
3.8703
2.66629
1.53307
0.480273
-0.481768
-1.34221
-2.09025
-2.71596
-3.21135
-3.57158
-3.79603
-3.88907
-3.86
-3.72223
-3.4915
-3.1835
-2.81158
-2.38505
-1.90869
-1.38367
-0.809546
-0.186914
0.480143
1.18246
1.90567
2.63163
3.34125
4.01782
4.65006
5.23402
5.77356
6.27921
6.76594
7.25031
7.74751
8.269
8.82111
9.40481
10.0169
10.6521
11.3054
11.9747
12.6623
13.3755
14.1261
14.9292
15.8012
16.758
17.8126
18.9742
20.2466
21.6286
23.1148
24.6961
26.3619
28.1009
29.9019
31.7531
33.642
35.5533
37.4675
39.3592
41.1958
42.9368
44.5347
45.9357
47.0828
47.9196
48.3945
48.4656
48.1052
47.3032
38.9328
39.0261
38.7021
37.9747
36.873
35.4376
33.7168
31.7622
29.6253
27.3546
24.9937
22.5808
20.148
17.722
15.3248
12.9744
10.6861
8.47379
6.35044
4.32951
2.42546
0.654281
-0.966403
-2.41768
-3.68022
-4.73575
-5.56907
-6.17036
-6.53751
-6.67774
-6.60798
-6.35337
-5.94386
-5.40931
-4.77461
-4.05602
-3.26012
-2.38563
-1.42768
-0.383354
0.743046
1.93646
3.1706
4.41085
5.62006
6.76558
7.82553
8.7927
9.67521
10.4942
11.2791
12.0622
12.8726
13.7317
14.6502
15.628
16.6565
17.7228
18.8149
19.9267
21.0611
22.2309
23.458
24.7702
26.1985
27.7721
29.5154
31.445
33.5674
35.8798
38.3708
41.0233
43.8176
46.7342
49.7542
52.86
56.0327
59.2495
62.4806
65.6856
68.811
71.789
74.5378
76.9636
78.9656
80.4425
81.3005
81.4629
80.8783
79.5275
55.3316
55.4678
54.9866
53.9113
52.2888
50.1841
47.6727
44.8342
41.7459
38.4794
35.0979
31.655
28.1951
24.7543
21.3613
18.0393
14.8077
11.6836
8.6836
5.825
3.12717
0.612309
-1.69419
-3.76407
-5.56736
-7.07458
-8.25991
-9.1053
-9.6047
-9.76773
-9.62105
-9.20652
-8.5752
-7.7783
-6.85742
-5.83732
-4.72374
-3.50683
-2.16931
-0.697106
0.910278
2.63263
4.42752
6.23554
7.99134
9.63728
11.1353
12.474
13.669
14.7588
15.7955
16.8354
17.9282
19.1093
20.3944
21.7788
23.2423
24.7568
26.2965
27.8467
29.4094
31.0044
32.6674
34.4446
36.3866
38.5419
40.9503
43.6381
46.6149
49.8739
53.3941
57.146
61.0973
65.218
69.4827
73.87
78.359
82.9244
87.5304
92.1255
96.6373
100.97
105.005
108.6
111.603
113.855
115.207
115.534
114.753
112.83
72.6102
72.7953
72.1237
70.6327
68.3959
65.5128
62.0965
58.2623
54.1196
49.7664
45.2869
40.7502
36.2116
31.7146
27.2925
22.9712
18.7717
14.7122
10.8106
7.08655
3.56305
0.268024
-2.76492
-5.49649
-7.88295
-9.87897
-11.4423
-12.5404
-13.1583
-13.3057
-13.0219
-12.3739
-11.4471
-10.328
-9.08532
-7.75553
-6.33851
-4.80412
-3.10735
-1.20808
0.909291
3.2216
5.66272
8.13252
10.5179
12.7189
14.6716
16.3589
17.8113
19.0964
20.3041
21.5289
22.8533
24.3338
25.9918
27.8123
29.7512
31.7509
33.7593
35.745
37.7072
39.6763
41.7085
43.8775
46.2637
48.9433
51.9788
55.4107
59.2518
63.4873
68.0794
72.977
78.1283
83.4896
89.0298
94.7285
100.57
106.535
112.591
118.68
124.716
130.575
136.097
141.085
145.316
148.557
150.581
151.196
150.267
147.737
91.1109
91.3537
90.4381
88.425
85.4307
81.6068
77.1194
72.1319
66.7935
61.2328
55.5555
49.8452
44.1657
38.5646
33.0763
27.7257
22.5321
17.5115
12.6803
8.05779
3.66854
-0.454946
-4.27081
-7.72695
-10.7618
-13.3074
-15.2955
-16.6681
-17.3902
-17.4655
-16.948
-15.9438
-14.5968
-13.0566
-11.4397
-9.80041
-8.12342
-6.33642
-4.33821
-2.03444
0.626189
3.62356
6.85496
10.1494
13.308
16.1565
18.5878
20.5803
22.1925
23.5436
24.7859
26.0767
27.5514
29.3005
31.353
33.6727
36.1698
38.7303
41.252
43.6745
45.9926
48.2544
50.5499
52.995
55.7152
58.829
62.4335
66.5906
71.3175
76.584
82.3209
88.439
94.8531
101.5
108.344
115.377
122.599
130.012
137.597
145.306
153.043
160.661
167.953
174.653
180.45
185.005
187.979
189.076
188.078
184.892
111.264
111.576
110.329
107.626
103.656
98.6528
92.8594
86.5042
79.7853
72.8648
65.8693
58.8935
52.005
45.2503
38.6597
32.2527
26.0418
20.0369
14.2486
8.69209
3.39054
-1.62158
-6.29526
-10.5645
-14.3455
-17.5387
-20.0355
-21.7325
-22.5536
-22.4792
-21.5751
-20.0076
-18.0251
-15.8962
-13.8266
-11.9001
-10.0673
-8.17345
-6.00966
-3.37533
-0.142543
3.6877
7.95545
12.3608
16.5433
20.1935
23.1348
25.3477
26.9483
28.146
29.1965
30.3583
31.8531
33.8285
36.3278
39.2759
42.4956
45.7635
48.8855
51.7525
54.3571
56.782
59.1737
61.7143
64.5975
68.0058
72.0901
76.9476
82.6034
89.0003
96.0104
103.472
111.24
119.221
127.385
135.747
144.351
153.236
162.422
171.885
181.537
191.212
200.655
209.517
217.368
223.722
228.075
229.965
229.038
225.124
133.645
134.041
132.313
128.649
123.367
116.834
109.406
101.399
93.0664
84.6044
76.1551
67.8165
59.6522
51.7002
43.9798
36.4984
29.2563
22.2517
15.4846
8.96113
2.6978
-3.27336
-8.89974
-14.1027
-18.7733
-22.7701
-25.9244
-28.0555
-29.004
-28.6847
-27.1545
-24.6665
-21.6614
-18.6479
-16.0048
-13.8622
-12.0967
-10.3967
-8.35626
-5.57553
-1.76917
3.12423
8.86004
14.8955
20.5472
25.2532
28.7328
30.9987
32.2862
32.9623
33.4487
34.1626
35.4648
37.6041
40.6586
44.4897
48.7537
53.0085
56.8882
60.2098
62.9819
65.3591
67.5843
69.9419
72.7251
76.2108
80.6343
86.1563
92.823
100.534
109.051
118.064
127.319
136.68
146.139
155.771
165.695
176.026
186.849
198.191
209.995
222.095
234.191
245.835
256.441
265.316
271.715
274.907
274.297
269.563
159.071
159.559
157.079
152
144.878
136.298
126.785
116.758
106.532
96.3239
86.2798
76.4873
66.9932
57.8161
48.9556
40.3994
32.1292
24.1252
16.3708
8.85654
1.58556
-5.42022
-12.1123
-18.4059
-24.1692
-29.2127
-33.2845
-36.0793
-37.2776
-36.6319
-34.1112
-30.0679
-25.3079
-20.8642
-17.4603
-15.2797
-14.0297
-13.1087
-11.7673
-9.25119
-4.95969
1.34905
9.3345
17.9839
25.9138
32.0801
36.0792
38.0596
38.5055
38.0523
37.3738
37.1207
37.8717
40.0628
43.8716
49.081
55.0259
60.7941
65.6952
69.4588
72.1757
74.1553
75.8045
77.5569
79.8411
83.0652
87.5968
93.7165
101.538
110.909
121.374
132.308
143.242
153.998
164.64
175.374
186.45
198.104
210.525
223.828
238.023
252.98
268.373
283.644
298
310.473
319.966
325.321
325.491
319.822
188.789
189.346
185.583
178.289
168.481
157.102
144.897
132.4
119.963
107.802
96.0364
84.7225
73.8722
63.4712
53.4884
43.8841
34.6143
25.6354
16.9074
8.39809
0.0881722
-8.02187
-15.9015
-23.4755
-30.6041
-37.057
-42.4856
-46.4044
-48.2085
-47.2813
-43.2624
-36.5035
-28.5014
-21.5859
-17.1571
-15.3599
-15.4919
-16.4291
-16.8731
-15.4867
-11.0585
-2.84429
8.84894
22.1043
33.8158
42.0233
46.328
47.3256
46.0147
43.4619
40.6816
38.6274
38.1997
40.1869
45.0624
52.6077
61.5469
69.8227
76.1344
80.209
82.4254
83.4213
83.8697
84.3998
85.5969
88.0304
92.2655
98.8195
108.013
119.702
133.015
146.545
159.415
171.47
183.002
194.476
206.362
219.068
232.923
248.169
264.944
283.224
302.72
322.76
342.259
359.91
374.161
383.189
385.078
378.385
224.896
225.349
219.163
208.19
194.339
179.088
163.427
147.952
132.994
118.706
105.141
92.2878
80.1026
68.5223
57.4752
46.8862
36.6801
26.784
17.129
7.6529
-1.69645
-10.9545
-20.1296
-29.1852
-38.0103
-46.3744
-53.8592
-59.7726
-63.0703
-62.3807
-56.3573
-44.7276
-30.1285
-18.7256
-13.0636
-12.6612
-15.794
-20.4586
-24.6133
-26.1014
-22.6083
-12.0465
6.11442
28.4482
46.7633
57.5858
61.3383
59.9148
55.3118
49.1987
42.9435
37.7919
35.0502
36.1518
42.4083
54.1269
69.0226
81.6789
89.7938
93.6339
94.4313
93.4744
91.8164
90.2809
89.5714
90.3999
93.5937
100.12
110.894
126.153
144.341
161.727
176.76
189.691
201.443
212.98
225.088
238.373
253.311
270.303
289.693
311.711
336.278
362.644
389.173
414.233
435.869
451.325
457.016
449.449
271.409
270.901
259.629
242.228
222.206
201.66
181.681
162.757
145.053
128.566
113.216
98.8891
85.4599
72.804
60.801
49.3358
38.2988
27.585
17.0932
6.72543
-3.61192
-14.0057
-24.5289
-35.2251
-46.0789
-56.9559
-67.4933
-76.905
-83.6716
-85.1582
-77.523
-57.2258
-27.1519
-7.59742
-1.39543
-4.87088
-13.8894
-25.2216
-36.1925
-43.8878
-44.3356
-32.1906
-2.62859
40.5787
70.4997
83.3282
83.8011
77.0817
66.7825
55.1393
43.6157
33.4861
26.3659
24.6934
31.8883
51.0708
79.7219
100.074
109.608
111.439
108.962
104.536
99.5851
94.9711
91.3296
89.362
90.122
95.3013
107.313
128.385
156.821
180.293
197.13
209.604
220.191
230.655
242.115
255.293
270.736
288.977
310.65
336.522
367.234
402.286
438.193
473.479
506.463
533.514
548.035
541.044
337.636
331.947
308.911
280.033
250.82
223.409
198.407
175.799
155.353
136.784
119.814
104.192
89.699
76.1416
63.3487
51.1656
39.4493
28.0638
16.8763
5.7523
-5.44769
-16.872
-28.6797
-41.039
-54.1142
-68.0263
-82.7481
-97.8457
-111.875
-121.07
-116.921
-83.8026
-9.02843
22.7569
24.2065
10.8999
-8.6546
-30.5058
-52.4896
-72.1113
-84.1975
-77.4163
-31.0228
71.8382
118.846
126.858
116.617
99.3997
80.185
60.9041
42.2772
24.8433
9.83405
0.463258
4.10283
34.3763
102.368
134.041
140.508
135.444
126.294
116.347
106.865
98.2562
90.6726
84.3918
80.2817
80.6387
90.682
120.006
176.441
208.407
223.776
232.227
239.108
246.889
256.659
268.943
284.123
302.697
325.549
354.352
391.93
440.685
488.091
536.026
585.584
633.73
670.014
671.734
451.203
417.96
366.597
318.312
276.829
241.682
211.679
185.722
162.947
142.696
124.466
107.867
92.5887
78.3768
65.017
52.3223
40.1227
28.2577
16.5682
4.88922
-6.9595
-19.1847
-32.0345
-45.8198
-60.9419
-77.928
-97.4583
-120.321
-147.035
-176.194
-198.032
-170.36
71.0001
96.7946
71.0573
35.6677
-0.111647
-35.5978
-72.1858
-111.183
-151.225
-179.681
-140.728
183.526
223.341
196.673
159.475
124.592
93.6815
65.7266
39.2208
12.7095
-14.8166
-42.501
-62.0345
-36.6326
177.312
204.305
188.01
165.331
144.773
127.488
112.884
100.064
88.1386
76.2946
64.0076
52.027
46.2855
72.5843
231.295
260.417
260.381
257.107
256.722
260.255
267.576
278.415
292.617
310.25
331.872
359.539
400.519
481.017
537.218
596.223
666.724
751.011
841.753
896.557
718.3
530.051
419.835
346.785
293.704
252.54
219.116
191.056
166.901
145.692
126.765
109.636
93.9386
79.3813
65.7248
52.7635
40.3123
28.1969
16.2436
4.26954
-7.92991
-20.5981
-34.0423
-48.675
-65.0845
-84.1644
-107.368
-137.247
-178.671
-241.856
-350.43
-564.624
461.44
245.034
131.804
60.9944
8.0079
-39.1034
-88.4116
-148.749
-234.935
-379.01
-661.266
704.801
423.567
281.643
198.995
144.061
102.918
68.4593
36.1702
2.03501
-39.2403
-97.203
-192.879
-379.143
521.461
336.898
244.7
192.158
158.536
134.762
116.33
100.582
85.4834
68.832
47.2893
14.4279
-44.2522
-165.513
472.749
354.409
301.64
277.821
268.686
268.159
273.42
283.037
296.163
312.048
329.479
345.545
352.188
556.326
582.292
639.85
727.994
858.975
1065.22
1426.92
9346.4
8841.44
8306.92
7744.57
7156.39
6544.58
5911.46
5259.39
4590.78
3907.98
3213.33
2509.07
1797.42
1080.54
360.526
45.9451
43.8843
41.3242
38.3656
35.117
31.683
28.1551
24.6064
21.0903
17.6407
14.2745
10.9942
7.79125
4.649
1.54527
77.216
73.6933
69.315
64.2639
58.734
52.9093
46.9481
40.9746
35.0768
29.3089
23.6956
18.2379
12.9181
7.70564
2.56083
109.486
104.355
97.9764
90.6387
82.6437
74.2704
65.7521
57.2661
48.933
40.8223
32.9613
25.3436
17.9378
10.6946
3.55329
143.232
136.261
127.593
117.667
106.929
95.7738
84.5215
73.4028
62.5651
52.0852
41.9833
32.2374
22.7947
13.5816
4.51108
179.031
169.858
158.463
145.505
131.626
117.371
103.154
89.2553
75.8371
62.9683
50.6485
38.8276
27.422
16.3261
5.42058
217.605
205.672
190.891
174.259
156.695
138.927
121.466
104.624
88.5564
73.3
58.813
45.0016
31.7393
18.8799
6.26582
259.904
244.333
225.167
203.943
181.966
160.174
139.156
119.217
100.462
82.8593
66.2997
50.6252
35.6531
21.188
7.02864
307.233
286.584
261.496
234.377
207.046
180.644
155.765
132.626
111.211
91.3737
72.8991
55.5448
39.059
23.1901
7.68925
361.465
333.263
299.844
265.015
231.188
199.584
170.629
144.308
120.382
98.5228
78.3762
59.5943
41.8472
24.8235
8.22735
425.433
385.148
339.595
294.642
253.103
215.867
182.854
153.589
127.482
103.956
82.4862
62.6075
43.9108
26.0287
8.62385
503.477
442.296
378.741
320.848
270.71
227.923
191.328
159.707
131.999
107.332
85.0021
64.437
45.1586
26.7562
8.86304
601.705
501.802
412.212
339.29
280.958
233.78
194.823
161.91
133.47
108.366
85.7513
64.978
45.5292
26.9739
8.93495
723.423
550.983
429
343.133
280.047
231.407
192.268
159.634
131.603
106.908
84.6566
64.1929
45.0053
26.6746
8.83769
828.69
549.696
409.66
324.187
264.681
219.525
183.205
152.752
126.398
103.001
81.7721
62.1302
43.6237
25.8809
8.57887
7.45632
22.3941
37.4063
52.5388
67.832
83.319
99.0255
114.976
131.213
147.861
165.278
184.437
207.856
241.916
302.669
7.66047
23.0022
38.4039
53.8962
69.4944
85.1873
100.921
116.574
131.919
146.566
159.855
170.612
176.268
169.032
117.938
7.85005
23.5684
39.3377
55.179
71.0896
87.0253
102.87
118.383
133.108
146.21
156.187
160.324
153.63
126.6
61.5243
8.02684
24.0987
40.2209
56.4125
72.6658
88.9246
105.047
120.737
135.421
148.022
156.568
157.556
145.11
110.587
45.3682
8.19091
24.5936
41.0553
57.6022
74.2364
90.9167
107.522
123.788
139.178
152.646
162.196
164.115
151.916
115.89
46.9311
8.34037
25.0472
41.8298
58.7299
75.7736
92.9586
110.231
127.444
144.265
159.988
173.121
180.472
175.268
144.058
65.7873
8.47161
25.4478
42.5219
59.7568
77.2111
94.9375
112.98
131.37
150.112
169.126
188.057
205.544
216.675
204.906
121.658
8.57987
25.7799
43.1017
60.6301
78.458
96.6948
115.486
135.051
155.765
178.317
203.994
235.026
273.982
315.387
288.687
8.66005
26.0271
43.5372
61.2944
79.4192
98.065
117.451
137.931
160.14
185.335
216.207
259.001
329.581
473.158
838.121
8.70753
26.1746
43.8006
61.7023
80.0169
98.9191
118.655
139.607
162.438
188.406
220.137
263.676
334.48
477.18
839.766
8.7188
26.2114
43.8717
61.8225
80.205
99.1923
119.011
139.976
162.556
187.471
215.863
249.412
289.445
328.494
294.257
8.6918
26.1312
43.7405
61.642
79.9717
98.8862
118.568
139.222
161.048
184.119
208.003
230.64
245.088
230.696
133.655
8.62591
25.9326
43.4058
61.1631
79.3308
98.0455
117.447
137.652
158.674
180.198
201.005
217.549
220.755
190.289
91.2936
8.5218
25.6179
42.8732
60.3981
78.3089
96.726
115.766
135.512
155.947
176.771
196.965
213.717
219.802
197.466
106.981
8.38104
25.1924
42.1525
59.3641
76.9339
94.9727
113.591
132.892
152.948
173.779
195.312
217.288
238.581
251.968
208.413
8.20596
24.6631
41.2566
58.0803
75.2319
92.8151
110.942
129.744
149.408
170.297
193.349
221.328
262.848
346.007
569.057
7.99937
24.0386
40.2001
56.5677
73.229
90.2783
107.822
125.996
145.013
165.309
187.962
215.961
258.194
342.894
568.036
7.76452
23.3289
38.9999
54.8502
70.9555
87.3965
104.262
121.66
139.729
158.683
178.858
200.707
224.044
242.246
205.38
7.50502
22.5449
37.6745
52.9546
68.4477
84.2181
100.332
116.854
133.829
151.205
168.588
184.418
193.456
179.836
102.37
7.2247
21.6982
36.244
50.9105
65.7462
80.7996
96.1169
111.734
127.647
143.72
159.395
172.841
178.599
161.762
87.7416
6.92755
20.801
34.7291
48.748
62.8925
77.1966
91.6919
106.406
121.352
136.509
151.747
166.601
179.431
183.397
143.572
6.6176
19.8654
33.1508
46.4974
59.9271
73.4596
87.1139
100.914
114.909
129.241
144.363
161.765
186.414
235.439
371.151
6.29877
18.9036
31.5295
44.1885
56.8894
69.637
82.4334
95.2852
108.23
121.421
135.395
151.893
176.468
227.279
367.696
5.97481
17.9268
29.8848
41.8499
53.8184
65.7794
77.7133
89.5909
101.378
113.056
124.673
136.409
148.301
156.888
131.673
5.64916
16.9455
28.2347
39.5084
50.7517
61.9397
73.0313
83.958
94.6007
104.732
113.865
120.816
122.426
109.97
61.018
5.32483
15.9689
26.5952
37.1874
47.7227
58.166
68.4626
78.5213
88.177
97.1002
104.572
108.93
106.316
88.3964
41.1145
5.00428
15.0046
24.9788
34.9056
44.7568
54.4933
64.0583
73.3635
82.2608
90.475
97.4391
101.886
100.834
87.2118
45.4792
4.68944
14.0581
23.3951
32.6757
41.8699
50.9391
59.8334
68.4879
76.8179
84.7165
92.0534
98.6586
104.079
105.547
84.0281
4.38162
13.1335
21.8502
30.5056
39.0692
47.5056
55.7744
63.8367
71.6737
79.3471
87.1747
96.253
110.068
139.846
224.338
4.08167
12.233
20.3476
28.3988
36.3565
44.1878
51.8582
59.3412
66.6422
73.8696
81.4266
90.557
104.969
136.147
222.941
3.79002
11.3579
18.8889
26.3564
33.7312
40.981
48.0717
54.9712
61.6612
68.1622
74.5852
81.1919
88.2277
93.8248
79.4949
3.50672
10.5084
17.4741
24.3781
31.1922
37.8843
44.4173
50.7463
56.8106
62.5084
67.6152
71.5281
72.4844
65.3396
36.5066
3.23159
9.68363
16.1018
22.462
28.7375
34.8975
40.904
46.7045
52.2139
57.2643
61.4738
63.9168
62.366
51.9152
24.1987
2.96414
8.88228
14.7697
20.6044
26.3627
32.0169
37.5331
42.8644
47.9356
52.6035
56.5585
59.0784
58.4277
50.4806
26.2523
2.70369
8.1022
13.4738
18.7998
24.0599
29.2319
34.2902
39.2046
43.9367
48.4372
52.6393
56.4412
59.556
60.352
47.9421
2.44938
7.34069
12.2095
17.0406
21.8179
26.5253
31.147
35.6707
40.0984
44.4775
48.9976
54.2809
62.2941
79.3939
127.6
2.20021
6.59468
10.9714
15.3184
19.6242
23.878
28.0714
32.2033
36.2933
40.4196
44.8254
50.2245
58.7219
76.8339
126.64
1.95512
5.86094
9.75358
13.6246
17.4664
21.2723
25.0381
28.7645
32.4625
36.1672
39.9632
44.0161
48.4727
52.2638
44.8405
1.71308
5.13626
8.55065
11.951
15.3332
18.6941
22.0319
25.3449
28.6268
31.851
34.9222
37.527
38.6855
35.4811
20.164
1.47309
4.41758
7.35728
10.2899
13.2145
16.1315
19.0425
21.9466
24.8308
27.6407
30.2046
32.0418
31.9278
27.1099
12.8562
1.23424
3.70215
6.16868
8.63416
11.1007
13.5729
16.0575
18.5619
21.0859
23.6008
25.9913
27.9111
28.4364
25.2911
13.5057
0.995765
2.98757
4.98066
6.97744
8.98279
11.0053
13.0585
15.163
17.3469
19.6468
22.1043
24.7485
27.4935
29.472
24.7287
0.757063
2.27201
3.78992
5.31457
6.85269
8.41589
10.0236
11.7085
13.5269
15.583
18.0872
21.5153
27.0825
38.3202
67.0026
0.517758
1.55428
2.59433
3.6421
4.7049
5.79527
6.93474
8.16074
9.54134
11.2074
13.4279
16.796
22.7328
35.0531
65.7239
0.277721
0.833987
1.3932
1.95896
2.53764
3.1402
3.78533
4.50521
5.35704
6.44627
7.97119
10.2922
13.9495
19.0418
20.4974
0.0370738
0.11154
0.187332
0.266592
0.353465
0.455179
0.583575
0.757549
1.00732
1.38198
1.96094
2.85985
4.1689
5.55526
4.74968
-0.203835
-0.611947
-1.02114
-1.43134
-1.84136
-2.24879
-2.65032
-3.04328
-3.4297
-3.8248
-4.27216
-4.858
-5.66604
-6.40964
-4.96096
-0.444478
-1.33481
-2.22913
-3.12968
-4.03837
-4.95732
-5.89067
-6.84925
-7.86131
-8.99595
-10.4098
-12.4222
-15.5464
-19.8975
-20.5561
-0.684212
-2.05504
-3.43301
-4.82269
-6.22866
-7.65632
-9.11405
-10.6187
-12.2085
-13.974
-16.1324
-19.2153
-24.5754
-35.9505
-65.1592
-0.922323
-2.77046
-4.629
-6.50472
-8.40433
-10.335
-12.3055
-14.3297
-16.4344
-18.6799
-21.214
-24.4277
-29.4284
-39.6198
-66.5992
-1.15806
-3.47881
-5.81333
-8.17053
-10.5589
-12.9865
-15.4602
-17.9855
-20.5635
-23.1862
-25.8245
-28.4001
-30.6775
-31.6318
-25.328
-1.39065
-4.17775
-6.98218
-9.81506
-12.6868
-15.6065
-18.58
-21.6054
-24.6623
-27.6826
-30.4796
-32.5807
-32.8465
-28.685
-14.8576
-1.61926
-4.86485
-8.13156
-11.433
-14.7821
-18.1899
-21.6643
-25.2044
-28.7877
-32.335
-35.6191
-38.0369
-38.091
-32.4516
-15.4209
-1.84302
-5.53748
-9.25712
-13.0184
-16.837
-20.7279
-24.7039
-28.7744
-32.9391
-37.1714
-41.3615
-45.1359
-47.2905
-44.1299
-25.5756
-2.061
-6.19284
-10.3541
-14.5643
-18.8424
-23.2074
-27.6789
-32.2799
-37.0448
-42.0384
-47.3939
-53.3614
-60.1827
-66.4998
-58.3681
-2.27221
-6.82795
-11.4176
-16.0636
-20.7882
-25.6139
-30.5649
-35.6727
-40.9931
-46.6554
-53.0028
-60.9957
-73.4272
-98.9058
-166.582
-2.47564
-7.43976
-12.4423
-17.5088
-22.6645
-27.9343
-33.3431
-38.9191
-44.7053
-50.7984
-57.4709
-65.5499
-77.6135
-102.011
-167.773
-2.67025
-8.0251
-13.423
-18.8927
-24.4624
-30.159
-36.0062
-42.0208
-48.2059
-54.5406
-60.9642
-67.339
-73.2371
-76.3956
-62.2624
-2.85496
-8.58079
-14.3544
-20.2078
-26.1729
-32.2802
-38.5544
-45.0056
-51.6042
-58.2228
-64.4933
-69.4614
-70.7656
-62.7907
-33.415
-3.02873
-9.10356
-15.2307
-21.446
-27.7857
-34.2864
-40.981
-47.8893
-54.9901
-62.1487
-68.9291
-74.1304
-74.7403
-64.0493
-30.5788
-3.19054
-9.59027
-16.0465
-22.5984
-29.2876
-36.159
-43.2606
-50.641
-58.3377
-66.3392
-74.4635
-81.9901
-86.5651
-81.129
-46.9707
-3.33948
-10.0381
-16.7962
-23.6561
-30.6639
-37.873
-45.348
-53.1745
-61.4756
-70.4465
-80.4152
-91.9023
-105.345
-118.157
-104.88
-3.47489
-10.4448
-17.4758
-24.6118
-31.9015
-39.4034
-47.1929
-55.3801
-64.1502
-73.8631
-85.3148
-100.46
-124.564
-173.306
-299.239
-3.59644
-10.8093
-18.0832
-25.4615
-32.9929
-40.7353
-48.7629
-57.1827
-66.1722
-76.0746
-87.6524
-102.798
-126.679
-174.855
-299.828
-3.70419
-11.1319
-18.6185
-26.2055
-33.9389
-41.8705
-50.0622
-58.5915
-67.5621
-77.1251
-87.5152
-99.0725
-111.926
-123.077
-106.799
-3.7986
-11.414
-19.0846
-26.8489
-34.7482
-42.8263
-51.1288
-59.6958
-68.5429
-77.6037
-86.5703
-94.4504
-98.3568
-90.3525
-50.8004
-3.88047
-11.6581
-19.4861
-27.3994
-35.4344
-43.6279
-52.0132
-60.6074
-69.3773
-78.1503
-86.3827
-92.5908
-93.0627
-79.5386
-37.8926
-3.95089
-11.8675
-19.8289
-27.8661
-36.0115
-44.2977
-52.7544
-61.3989
-70.212
-79.0747
-87.6039
-94.7178
-97.4911
-88.2566
-48.6939
-4.01113
-12.0461
-20.1196
-28.2587
-36.492
-44.8505
-53.3667
-62.0754
-71.0146
-80.2335
-89.8108
-99.8626
-110.262
-118.039
-99.6536
-4.06265
-12.1983
-20.3654
-28.5865
-36.8868
-45.2951
-53.8472
-62.5937
-71.6253
-81.1462
-91.6911
-104.77
-124.858
-165.994
-276.257
-4.10711
-12.3289
-20.5742
-28.8603
-37.2077
-45.6413
-54.1942
-62.9161
-71.8987
-81.3506
-91.8149
-104.814
-124.841
-165.952
-276.235
-4.14638
-12.4437
-20.7551
-29.0923
-37.4697
-45.9061
-54.4256
-63.0593
-71.8485
-80.8549
-90.1814
-99.983
-110.186
-117.882
-99.569
-4.1826
-12.5488
-20.9188
-29.2971
-37.6918
-46.1146
-54.5794
-63.0963
-71.6498
-80.1396
-88.2212
-94.8768
-97.2755
-87.8776
-48.4804
-4.2182
-12.6517
-21.077
-29.4914
-37.8955
-46.2951
-54.6987
-63.1099
-71.4973
-79.7104
-87.2546
-92.73
-92.5611
-78.7098
-37.3684
-4.25593
-12.7604
-21.2433
-29.6933
-38.1034
-46.4739
-54.8143
-63.1419
-71.4681
-79.7482
-87.7275
-94.5061
-97.3518
-88.6353
-49.4491
-4.2989
-12.8842
-21.433
-29.9236
-38.3396
-46.6748
-54.9403
-63.1766
-71.473
-79.9973
-89.0369
-99.0169
-110.175
-119.724
-102.998
-4.35057
-13.0337
-21.6634
-30.2061
-38.6327
-46.9252
-55.0876
-63.171
-71.3217
-79.8909
-89.696
-102.713
-124.121
-169.063
-287.99
-4.41476
-13.2205
-21.9547
-30.5697
-39.0198
-47.2666
-55.2911
-63.1199
-70.8813
-78.9286
-88.1271
-100.585
-121.728
-167.03
-287.148
-4.49553
-13.457
-22.3289
-31.0481
-39.5486
-47.7632
-55.6313
-63.1166
-70.2438
-77.1687
-84.2974
-92.4279
-102.562
-113.049
-100.131
-4.59683
-13.7559
-22.8092
-31.6787
-40.2764
-48.5011
-56.2382
-63.3629
-69.748
-75.2688
-79.7738
-82.882
-83.155
-75.3262
-43.2182
-4.72213
-14.1284
-23.4172
-32.4983
-41.2635
-49.578
-57.2708
-64.1236
-69.8529
-74.0756
-76.2218
-75.3065
-69.3763
-54.4657
-24.0347
-4.87382
-14.5824
-24.1693
-33.5373
-42.5638
-51.0867
-58.8871
-65.6647
-71.0045
-74.325
-74.7968
-71.2145
-61.8353
-44.3844
-17.101
-5.05258
-15.1209
-25.0733
-34.8134
-44.2137
-53.0972
-61.2135
-68.2044
-73.5585
-76.5528
-76.1874
-71.1486
-59.9
-41.132
-14.972
-5.25687
-15.7398
-26.1246
-36.3253
-46.2221
-55.6402
-64.321
-71.8801
-77.751
-81.1133
-80.8227
-75.3952
-63.1863
-43.013
-15.4708
-5.48247
-16.4267
-27.3034
-38.0479
-48.5625
-58.6948
-68.2067
-76.7274
-83.6845
-88.2098
-89.0243
-84.3502
-72.0028
-50.0108
-18.33
-5.72235
-17.1604
-28.5737
-39.9298
-51.1677
-62.1794
-72.7798
-82.6589
-91.3053
-97.8819
-101.036
-98.6325
-87.5157
-63.7358
-24.6467
-5.96677
-17.9108
-29.8835
-41.893
-53.9291
-65.9486
-77.8523
-89.4449
-100.361
-109.929
-116.904
-118.964
-111.82
-88.0906
-38.0495
-6.2038
-18.6412
-31.167
-43.8371
-56.7011
-69.7968
-83.1392
-96.6983
-110.351
-123.774
-136.182
-145.683
-147.64
-130.714
-69.5476
-6.42003
-19.3097
-32.3498
-45.6457
-59.311
-73.4721
-88.2736
-103.884
-120.498
-138.32
-157.474
-177.637
-196.568
-204.054
-155.162
-6.60169
-19.8736
-33.3545
-47.1969
-61.5754
-76.7009
-92.8435
-110.369
-129.802
-151.937
-178.062
-210.44
-253.44
-316.537
-422.32
584.425
436.201
346.568
284.922
238.427
201.13
169.914
142.962
119.115
97.581
77.7822
59.2773
41.7102
24.78
8.21957
213.619
278.617
265.534
236.959
207.266
179.634
154.504
131.648
110.702
91.3094
73.1543
55.9591
39.4792
23.494
7.7994
94.3632
175.252
195.252
189.77
174.668
156.396
137.513
119.006
101.207
84.1771
67.8584
52.1433
36.904
22.0059
7.31256
49.9938
114.166
142.662
149.257
144.27
133.579
120.26
105.868
91.1759
76.5493
62.1423
47.9961
34.0912
20.3752
6.77824
30.4953
77.853
105.279
116.784
117.829
112.586
103.748
92.9372
81.0977
68.7677
56.2439
43.6805
31.1467
18.6616
6.21569
20.4638
55.3796
78.9515
91.5729
95.7527
94.0876
88.6054
80.7188
71.3586
61.1193
50.3721
39.3436
28.1678
16.9206
5.64292
14.6067
40.7829
60.2264
72.2222
77.7335
78.238
75.1305
69.5221
62.2286
53.8225
44.6948
35.1083
25.2379
15.2004
5.07575
10.8584
30.8608
46.6723
57.3732
63.1897
64.8953
63.3907
59.4943
53.8702
47.0258
39.3353
31.0695
22.4238
13.5404
4.52718
8.30042
23.8485
36.6664
45.915
51.4996
53.7807
53.3108
50.665
46.3582
40.8159
34.3745
27.2941
19.7743
11.9702
4.00713
6.47336
18.7318
29.1386
37.0004
42.1024
44.5756
44.7408
42.9884
39.7034
35.2295
29.857
23.8234
17.3219
10.5104
3.52252
5.12413
14.9007
23.3774
30.0017
34.5301
36.9722
37.5017
36.3751
33.8734
30.2667
25.7979
20.6773
15.0843
9.17275
3.07756
4.10239
11.9719
18.9023
24.4579
28.406
30.6964
31.412
30.7163
28.81
25.9019
22.191
17.8589
13.0678
7.96246
2.67417
3.31342
9.69498
15.3816
20.0298
23.4325
25.5136
26.3018
25.8974
24.442
22.0942
19.0152
15.3589
11.2693
6.87907
2.31241
2.69471
7.90051
12.5816
16.4663
19.3764
21.2281
22.0192
21.8081
20.693
18.794
16.2397
13.1597
9.67921
5.91811
1.99101
2.20345
6.4703
10.3343
13.5794
16.0549
17.6787
18.4321
18.3461
17.4882
15.9483
13.8291
11.2383
8.28385
5.0723
1.7077
1.80941
5.31976
8.51645
11.2268
13.3244
14.7336
15.4275
15.4199
14.7565
13.5047
11.7459
9.5691
7.06689
4.33268
1.45963
1.49067
4.38692
7.03619
9.29962
11.0717
12.285
12.9096
12.9489
12.4332
11.4129
9.95261
8.12574
6.01091
3.6894
1.24362
1.23098
3.62552
5.82375
7.71342
9.20683
10.245
10.7981
10.8631
10.46
9.62647
8.41373
6.8822
5.09835
3.13234
1.05636
1.01807
3.00038
4.82548
6.40226
7.65794
8.54161
9.02518
9.10224
8.78545
8.10319
7.09607
5.81375
4.3122
2.65158
0.894611
0.842545
2.48436
3.99956
5.31397
6.36726
7.11592
7.53442
7.61469
7.36456
6.80535
5.96939
4.89742
3.63642
2.23767
0.755241
0.69705
2.05622
3.31301
4.40691
5.28799
5.91938
6.27839
6.35645
6.15814
5.69957
5.00647
4.11227
3.05623
1.88182
0.635341
0.575799
1.69913
2.73951
3.64754
4.38201
4.91187
5.21733
5.29001
5.13235
4.75654
4.18311
3.43942
2.55817
1.576
0.532232
0.474165
1.39962
2.25786
3.00864
3.61803
4.0601
4.31782
4.38341
4.25793
3.95064
3.4779
2.86203
2.13014
1.3129
0.443486
0.388406
1.14675
1.8508
2.46786
2.97017
3.33625
3.55166
3.6094
3.50969
3.25955
2.872
2.36516
1.76134
1.08602
0.366921
0.31546
0.931574
1.5041
2.00671
2.41686
2.71694
2.89491
2.94463
2.86584
2.66382
2.34886
1.93558
1.44215
0.889519
0.300583
0.252789
0.746637
1.20593
1.6097
1.93993
2.18238
2.32716
2.36904
2.3075
2.14645
1.89395
1.56161
1.16404
0.718204
0.242731
0.198259
0.585677
0.946277
1.26373
1.52392
1.71558
1.83079
1.86522
1.81819
1.69254
1.49443
1.23289
0.919423
0.56745
0.191811
0.15004
0.443324
0.716559
0.957486
1.15544
1.30182
1.39047
1.41791
1.38341
1.28891
1.13891
0.940208