/*--------------------------------*- C++ -*----------------------------------*\
| =========                 |                                                 |
| \\      /  F ield         | OpenFOAM: The Open Source CFD Toolbox           |
|  \\    /   O peration     | Version:  5.x                                   |
|   \\  /    A nd           | Web:      www.OpenFOAM.org                      |
|    \\/     M anipulation  |                                                 |
\*---------------------------------------------------------------------------*/
FoamFile
{
    version     2.0;
    format      ascii;
    class       volScalarField;
    location    "8";
    object      T;
}
// * * * * * * * * * * * * * * * * * * * * * * * * * * * * * * * * * * * * * //

dimensions      [0 0 0 1 0 0 0];

internalField   nonuniform List<scalar> 
6300
(
12.0662
16.1927
20.301
24.3792
28.415
32.3963
36.311
40.1468
43.8918
47.5342
51.0627
54.467
57.7373
60.8656
63.8453
12.0722
16.2105
20.3308
24.421
28.4689
32.4622
36.3889
40.2366
43.9932
47.6467
51.1857
54.5993
57.8777
61.0124
63.9966
12.0841
16.2462
20.3904
24.5046
28.5766
32.5941
36.5449
40.4165
44.1965
47.8725
51.4326
54.8653
58.1602
61.308
64.3014
12.1019
16.2997
20.4797
24.6299
28.7381
32.792
36.7792
40.687
44.5025
48.2129
51.8054
55.2677
58.5881
61.7564
64.7641
12.1256
16.3709
20.5985
24.7966
28.9532
33.0558
37.092
41.0486
44.9125
48.6699
52.3071
55.8103
59.1665
62.3635
65.3915
12.155
16.4594
20.7464
25.0044
29.2215
33.3854
37.4833
41.502
45.4277
49.2458
52.9412
56.4985
59.9022
63.138
66.1935
12.1902
16.565
20.923
25.2527
29.5424
33.78
37.9528
42.0474
46.0493
49.9431
53.7121
57.3385
60.8041
64.091
67.1831
12.2309
16.6873
21.1274
25.5404
29.9147
34.2387
38.4997
42.6844
46.7779
50.7638
54.6239
58.3377
61.8831
65.237
68.3778
12.2769
16.8255
21.3588
25.8661
30.3368
34.7594
39.122
43.4113
47.6127
51.709
55.6805
59.5038
63.1517
66.5941
69.8007
12.3279
16.979
21.6156
26.228
30.8061
35.3394
39.8165
44.2252
48.5511
52.7776
56.8837
60.8435
64.624
68.1852
71.4828
12.3837
17.1466
21.8963
26.6236
31.3196
35.9746
40.5786
45.1206
49.5878
53.9649
58.2318
62.3608
66.3137
70.0377
73.4665
12.4438
17.3273
22.1988
27.0501
31.8732
36.6599
41.4016
46.0894
50.7133
55.2611
59.7159
64.0525
68.2303
72.1833
75.8117
12.5078
17.5198
22.5211
27.5043
32.4626
37.3892
42.2774
47.121
51.9137
56.6485
61.3164
65.9011
70.3697
74.6515
78.6045
12.5754
17.7229
22.8608
27.9829
33.0831
38.1559
43.1968
48.2022
53.1703
58.1014
62.9984
67.8641
72.6936
77.4463
81.9661
12.6461
17.9354
23.2161
28.4826
33.73
38.9537
44.1506
49.3194
54.4623
59.5869
64.7097
69.8613
75.0923
80.4716
86.0141
66.4362
68.6838
70.8231
72.855
74.7814
76.6051
78.3299
79.9603
81.5016
82.9595
84.34
85.6496
86.8947
88.082
89.2182
90.3097
91.3631
92.3845
93.3801
94.3556
95.3166
96.2684
97.2157
98.1629
99.114
100.072
101.041
102.022
103.017
104.027
105.053
106.094
107.15
108.22
109.302
110.395
111.496
112.603
113.715
114.827
115.939
117.045
118.143
119.23
120.303
121.357
122.391
123.401
124.383
125.337
126.259
127.147
127.999
128.812
129.585
130.313
130.996
131.629
132.21
132.737
133.205
133.611
133.953
134.227
134.429
134.554
134.599
134.559
134.428
134.2
133.869
133.429
132.871
132.188
131.372
130.415
129.309
128.044
126.612
125.004
123.212
121.226
119.04
116.646
114.037
111.209
108.157
104.88
101.378
97.6521
66.5897
68.8376
70.9757
73.0048
74.927
76.7452
78.4634
80.0863
81.6194
83.0684
84.4397
85.7398
86.9753
88.1531
89.2798
90.362
91.4063
92.4189
93.4061
94.3736
95.3271
96.2719
97.2128
98.1544
99.1005
100.055
101.02
101.999
102.992
104.002
105.028
106.07
107.127
108.199
109.283
110.379
111.483
112.594
113.709
114.826
115.942
117.053
118.156
119.248
120.325
121.384
122.422
123.435
124.422
125.379
126.304
127.195
128.051
128.867
129.643
130.376
131.063
131.7
132.286
132.817
133.289
133.701
134.048
134.327
134.534
134.666
134.718
134.686
134.563
134.345
134.024
133.594
133.047
132.376
131.572
130.627
129.533
128.281
126.862
125.266
123.486
121.512
119.336
116.951
114.35
111.527
108.479
105.202
101.697
97.9661
66.8988
69.1474
71.283
73.3065
75.2201
77.0271
78.7318
80.3394
81.8556
83.2867
84.6393
85.9203
87.1365
88.295
89.4026
90.4661
91.4922
92.4872
93.4575
94.4089
95.3473
96.278
97.2061
98.1361
99.0722
100.018
100.977
101.951
102.941
103.95
104.976
106.02
107.08
108.156
109.246
110.347
111.458
112.576
113.699
114.824
115.948
117.069
118.181
119.283
120.37
121.438
122.484
123.505
124.499
125.463
126.394
127.292
128.154
128.978
129.761
130.501
131.196
131.842
132.436
132.976
133.458
133.879
134.236
134.525
134.745
134.889
134.956
134.939
134.833
134.633
134.332
133.923
133.398
132.75
131.97
131.051
129.982
128.755
127.361
125.791
124.036
122.085
119.931
117.564
114.979
112.167
109.125
105.85
102.34
98.5981
67.3683
69.6181
71.7497
73.7643
75.6645
77.454
79.1378
80.7216
82.2119
83.6155
84.9395
86.1914
87.3783
88.5075
89.5863
90.6215
91.62
92.5884
93.5331
94.4602
95.3757
96.285
97.1935
98.106
99.0269
99.9601
100.909
101.875
102.862
103.868
104.896
105.943
107.008
108.091
109.188
110.298
111.418
112.546
113.681
114.819
115.957
117.092
118.219
119.336
120.438
121.519
122.578
123.611
124.615
125.589
126.53
127.437
128.308
129.142
129.936
130.689
131.396
132.055
132.662
133.215
133.71
134.145
134.517
134.822
135.058
135.222
135.309
135.315
135.235
135.062
134.791
134.414
133.923
133.31
132.567
131.685
130.654
129.466
128.111
126.58
124.862
122.948
120.827
118.49
115.929
113.136
110.105
106.831
103.315
99.5566
68.0055
70.2568
72.3828
74.3847
76.2659
78.0308
79.6853
81.2361
82.6905
84.0562
85.3412
86.5534
87.7004
88.7901
89.8298
90.8269
91.7883
92.7209
93.6311
94.5254
95.4099
96.2903
97.1722
98.0608
98.9609
99.8767
100.812
101.769
102.749
103.754
104.784
105.836
106.909
108.001
109.109
110.23
111.363
112.505
113.655
114.81
115.966
117.121
118.27
119.408
120.53
121.631
122.707
123.755
124.772
125.758
126.71
127.629
128.512
129.36
130.169
130.937
131.661
132.337
132.962
133.533
134.046
134.499
134.889
135.214
135.472
135.66
135.775
135.811
135.765
135.63
135.4
135.065
134.62
134.054
133.36
132.528
131.549
130.414
129.112
127.634
125.968
124.104
122.031
119.736
117.211
114.444
111.429
108.16
104.635
100.855
68.8205
71.074
73.1922
75.177
77.0324
78.7642
80.3797
81.8868
83.2943
84.6108
85.8453
87.0064
88.1025
89.1418
90.1321
91.0809
91.9954
92.8826
93.7493
94.6019
95.4469
96.2904
97.1382
97.9961
98.8693
99.7625
100.68
101.625
102.598
103.602
104.635
105.695
106.779
107.884
109.006
110.143
111.291
112.45
113.619
114.795
115.975
117.156
118.333
119.499
120.648
121.774
122.872
123.938
124.972
125.971
126.936
127.867
128.765
129.629
130.456
131.245
131.991
132.69
133.337
133.93
134.465
134.939
135.351
135.7
135.983
136.201
136.348
136.423
136.42
136.332
136.153
135.874
135.486
134.98
134.348
133.579
132.665
131.597
130.363
128.954
127.357
125.559
123.549
121.312
118.836
116.107
113.116
109.855
106.32
102.511
69.8277
72.0839
74.1915
76.1532
77.9745
79.6629
81.2276
82.6787
84.0263
85.2809
86.4523
87.5503
88.5837
89.5614
90.4914
91.3814
92.239
93.0711
93.8847
94.6866
95.4832
96.2812
97.0868
97.9063
98.7457
99.6105
100.506
101.435
102.401
103.405
104.445
105.517
106.617
107.74
108.88
110.034
111.201
112.379
113.568
114.769
115.979
117.194
118.407
119.611
120.796
121.954
123.078
124.166
125.216
126.229
127.206
128.15
129.063
129.946
130.796
131.61
132.384
133.112
133.787
134.407
134.966
135.464
135.9
136.274
136.587
136.837
137.023
137.143
137.192
137.162
137.046
136.834
136.517
136.084
135.527
134.835
134.001
133.014
131.864
130.54
129.029
127.318
125.39
123.23
120.82
118.144
115.189
111.942
108.397
104.553
71.0458
73.3055
75.3988
77.3295
79.1055
80.7373
82.2369
83.6169
84.89
86.0681
87.1627
88.1842
89.1426
90.0468
90.9053
91.726
92.5163
93.2834
94.0343
94.7758
95.5147
96.2579
97.0123
97.7848
98.5823
99.4117
100.279
101.19
102.147
103.153
104.204
105.295
106.419
107.566
108.73
109.905
111.09
112.287
113.499
114.727
115.972
117.23
118.492
119.746
120.979
122.178
123.335
124.445
125.511
126.534
127.52
128.474
129.402
130.305
131.183
132.03
132.841
133.605
134.315
134.965
135.552
136.074
136.534
136.934
137.275
137.561
137.79
137.962
138.072
138.112
138.073
137.943
137.71
137.364
136.895
136.294
135.552
134.662
133.612
132.391
130.987
129.384
127.562
125.502
123.183
120.581
117.678
114.455
110.901
107.014
72.5006
74.7647
76.8378
78.7262
80.4418
81.9996
83.4158
84.7067
85.8877
86.973
87.9755
88.9066
89.7768
90.5954
91.371
92.1114
92.8241
93.5161
94.1944
94.8658
95.5372
96.2157
96.9088
97.6242
98.3702
99.1551
99.9872
100.874
101.821
102.831
103.902
105.024
106.184
107.367
108.56
109.757
110.959
112.171
113.401
114.658
115.943
117.256
118.584
119.909
121.207
122.459
123.653
124.786
125.862
126.888
127.875
128.834
129.773
130.698
131.609
132.5
133.359
134.172
134.925
135.611
136.226
136.771
137.252
137.673
138.041
138.361
138.636
138.866
139.048
139.173
139.227
139.196
139.063
138.818
138.45
137.951
137.315
136.534
135.601
134.504
133.229
131.76
130.074
128.146
125.949
123.451
120.623
117.44
113.883
109.944
74.2272
76.4967
78.5403
80.3695
82.0031
83.4632
84.7726
85.9521
87.0206
87.9946
88.8883
89.714
90.4825
91.2031
91.8844
92.5339
93.1588
93.7659
94.3617
94.9529
95.5464
96.1495
96.77
97.4167
98.099
98.8275
99.6135
100.468
101.402
102.42
103.521
104.694
105.913
107.149
108.38
109.599
110.809
112.025
113.263
114.542
115.873
117.257
118.679
120.106
121.497
122.819
124.056
125.207
126.281
127.295
128.267
129.217
130.16
131.107
132.06
133.012
133.941
134.821
135.629
136.354
136.995
137.557
138.05
138.485
138.872
139.222
139.542
139.836
140.103
140.33
140.5
140.589
140.575
140.444
140.188
139.802
139.281
138.624
137.822
136.868
135.748
134.443
132.93
131.175
129.143
126.791
124.077
120.961
117.411
113.41
76.2764
78.5516
80.5494
82.292
83.8115
85.1416
86.3137
87.3547
88.2869
89.129
89.8962
90.601
91.2542
91.8648
92.4407
92.9891
93.5164
94.0289
94.5326
95.0338
95.5389
96.0552
96.5907
97.1547
97.7581
98.414
99.1375
99.946
100.857
101.886
103.036
104.293
105.614
106.935
108.217
109.45
110.649
111.842
113.064
114.348
115.722
117.199
118.761
120.351
121.883
123.299
124.58
125.733
126.782
127.757
128.689
129.606
130.537
131.502
132.51
133.552
134.59
135.568
136.448
137.215
137.874
138.44
138.929
139.361
139.753
140.122
140.481
140.843
141.208
141.567
141.887
142.126
142.252
142.247
142.11
141.84
141.442
140.916
140.259
139.467
138.528
137.424
136.128
134.601
132.794
130.649
128.106
125.104
121.584
117.512
78.7252
81.0037
82.9236
84.5333
85.8898
87.045
88.0411
88.9111
89.6805
90.3687
90.9911
91.5597
92.0845
92.5736
93.0339
93.4717
93.8924
94.3016
94.7043
95.106
95.5125
95.9304
96.3675
96.833
97.3388
97.9
98.5363
99.2728
100.14
101.172
102.394
103.799
105.31
106.774
108.119
109.346
110.493
111.616
112.771
114.02
115.421
117.016
118.801
120.675
122.432
123.971
125.283
126.405
127.387
128.279
129.126
129.973
130.861
131.83
132.908
134.095
135.322
136.454
137.425
138.227
138.884
139.427
139.887
140.291
140.664
141.03
141.414
141.839
142.32
142.853
143.387
143.824
144.111
144.238
144.217
144.061
143.783
143.391
142.888
142.274
141.542
140.677
139.655
138.428
136.926
135.076
132.794
129.988
126.551
122.399
81.7045
83.9696
85.742
87.1366
88.2556
89.1748
89.9473
90.6098
91.188
91.7004
92.1605
92.5788
92.9634
93.3209
93.6567
93.9758
94.2824
94.5806
94.8744
95.1683
95.4667
95.7751
96.1002
96.4502
96.8365
97.2749
97.7877
98.4079
99.1837
100.182
101.486
103.149
105.071
106.783
108.189
109.352
110.371
111.338
112.34
113.47
114.836
116.555
118.709
121.162
123.293
124.966
126.256
127.274
128.118
128.86
129.561
130.276
131.064
131.995
133.148
134.574
136.185
137.57
138.64
139.444
140.053
140.53
140.921
141.261
141.58
141.909
142.284
142.749
143.355
144.134
145.024
145.732
146.194
146.439
146.514
146.454
146.284
146.022
145.674
145.247
144.741
144.155
143.473
142.647
141.558
140.118
138.236
135.774
132.545
128.332
85.4779
87.6426
89.1018
90.134
90.9062
91.5132
92.0092
92.4271
92.7875
93.1044
93.3874
93.6436
93.8785
94.0964
94.3009
94.495
94.6814
94.8628
95.0418
95.221
95.4036
95.593
95.7939
96.0122
96.2565
96.5395
96.8813
97.3159
97.9029
98.751
100.056
102.123
105.13
107.23
108.603
109.564
110.32
111.005
111.721
112.578
113.737
115.468
118.18
122.111
124.809
126.508
127.615
128.393
128.991
129.497
129.972
130.47
131.057
131.839
132.99
134.782
137.369
139.135
140.235
140.936
141.41
141.754
142.024
142.256
142.477
142.718
143.02
143.451
144.134
145.253
146.916
147.992
148.586
148.883
148.999
148.999
148.916
148.77
148.571
148.328
148.053
147.765
147.494
147.242
146.688
145.796
144.506
142.662
139.952
135.834
90.7286
92.3288
93.0739
93.5028
93.7922
94.0085
94.1809
94.3243
94.4469
94.5543
94.6498
94.7362
94.8152
94.8884
94.9571
95.0222
95.0848
95.1457
95.2058
95.2661
95.3275
95.3914
95.4595
95.5338
95.6177
95.7163
95.8385
96.0015
96.243
96.6586
97.5252
99.7418
106.491
108.719
109.61
110.066
110.369
110.626
110.896
111.246
111.811
112.962
115.894
124.833
127.76
128.899
129.445
129.766
129.991
130.174
130.345
130.53
130.768
131.145
131.907
133.841
139.731
141.656
142.4
142.75
142.949
143.08
143.179
143.262
143.342
143.435
143.564
143.789
144.28
145.586
149.65
150.941
151.402
151.582
151.648
151.659
151.636
151.59
151.527
151.452
151.378
151.345
151.483
152.267
152.302
152.043
151.57
150.794
149.38
146.264
93.3115
88.2686
82.9319
77.3181
71.4471
65.3403
59.0207
52.5119
45.8374
39.0209
32.0856
25.054
17.9482
10.7898
3.60009
93.6165
88.5601
83.2065
77.5732
71.6808
65.5513
59.2084
52.676
45.9782
39.1387
32.1809
25.1274
18.0003
10.8209
3.61042
94.2304
89.1463
83.7583
78.0854
72.1494
65.974
59.5839
53.004
46.2592
39.3738
32.3711
25.2739
18.104
10.8828
3.631
95.1609
90.034
84.5928
78.8585
72.8554
66.6095
60.1474
53.4955
46.6797
39.7249
32.6548
25.4922
18.2586
10.975
3.66164
96.4201
91.2334
85.7179
79.8982
73.8023
67.4594
60.8989
54.1493
47.2379
40.1902
33.0303
25.7807
18.4628
11.0967
3.70206
98.0255
92.7592
87.1446
81.2119
74.994
68.525
61.8378
54.9635
47.931
40.7666
33.4945
26.1369
18.7145
11.2467
3.75186
100.001
94.6306
88.8871
82.8083
76.4348
69.8068
62.962
55.9344
48.7546
41.4496
34.0433
26.5573
19.0112
11.4232
3.81047
102.378
96.8727
90.9625
84.697
78.1279
71.3035
64.2671
57.056
49.7021
42.2326
34.6708
27.037
19.3493
11.6243
3.87717
105.199
99.5173
93.3905
86.8872
80.0741
73.0103
65.7451
58.3188
50.7639
43.1068
35.3693
27.5698
19.7243
11.847
3.95105
108.522
102.604
96.1924
89.3846
82.2688
74.9164
67.3824
59.7085
51.9264
44.0601
36.1288
28.1479
20.1305
12.0881
4.03096
112.428
106.183
99.3873
92.1874
84.6979
77.002
69.1577
61.2049
53.1715
45.0772
36.9368
28.7617
20.5612
12.3435
4.11559
117.031
110.307
102.984
95.2774
87.3309
79.2338
71.0395
62.7803
54.476
46.1392
37.7785
29.4
21.0087
12.6086
4.20344
122.498
115.028
106.962
98.6044
90.1121
81.5604
72.9842
64.3991
55.8115
47.2238
38.6368
30.0504
21.4644
12.8786
4.29285
129.065
120.343
111.229
102.063
92.9501
83.9094
74.9359
66.0185
57.1454
48.3065
39.4935
30.6996
21.9193
13.1481
4.38214
136.966
126.048
115.542
105.467
95.713
86.1886
76.8296
67.5918
58.4435
49.362
40.33
31.3343
22.3645
13.4121
4.46961
12.7135
18.1378
23.5542
28.9578
34.3439
39.7087
45.0495
50.3661
55.6621
60.9487
66.2504
71.6172
77.153
83.0931
90.0884
12.7765
18.327
23.8702
29.4015
34.9163
40.411
45.8827
51.3308
56.7583
62.1751
67.6044
73.0948
78.7439
84.7419
91.429
12.8411
18.5211
24.1943
29.8561
35.5022
41.1285
46.7315
52.309
57.8608
63.3915
68.9147
74.4608
80.0908
85.9103
92.054
12.9073
18.7198
24.5259
30.3211
36.1012
41.8614
47.5972
53.3039
58.9768
64.6119
70.2075
75.7669
81.3044
86.8519
92.4544
12.9749
18.9228
24.8646
30.7963
36.7133
42.6106
48.4823
54.3212
60.1178
65.8585
71.5241
77.0867
82.5093
87.7535
92.8102
13.0438
19.1297
25.2101
31.2812
37.3384
43.3767
49.3893
55.367
61.2964
67.156
72.9108
78.5022
83.8363
88.7834
93.2365
13.1139
19.3402
25.5618
31.7751
37.9762
44.1599
50.3195
56.4453
62.5222
68.525
74.4095
80.0946
85.4304
90.1544
93.9066
13.185
19.5538
25.9188
32.2771
38.6253
44.959
51.2723
57.5565
63.7982
69.9748
76.0451
81.9279
87.4476
92.1985
95.2642
13.2569
19.7699
26.2801
32.7856
39.2838
45.7715
52.2443
58.6962
65.1183
71.497
77.8094
84.0117
89.9968
95.4109
98.7181
13.3294
19.9876
26.6444
33.2987
39.9489
46.5934
53.2298
59.8554
66.4672
73.0637
79.6485
86.2446
92.9406
100.084
109.233
13.402
20.2061
27.0102
33.814
40.6174
47.4201
54.2218
61.023
67.8256
74.6371
81.4783
88.4063
95.5714
103.364
112.714
13.4747
20.4245
27.3756
34.3291
41.2857
48.2466
55.2133
62.1883
69.1765
76.1882
83.2463
90.4014
97.7647
105.559
114.137
13.5469
20.6417
27.7392
34.8414
41.9503
49.0682
56.198
63.3433
70.5097
77.7057
84.945
92.2503
99.6562
107.209
114.942
13.6184
20.8567
28.0991
35.3484
42.6079
49.8807
57.1708
64.4825
71.8211
79.1915
86.5963
94.0273
101.444
108.731
115.659
13.6889
21.0686
28.4537
35.848
43.2554
50.6803
58.1274
65.6019
73.1089
80.6519
88.2278
95.8122
103.32
110.5
116.725
13.7581
21.2766
28.8016
36.3378
43.8901
51.4636
59.0639
66.6974
74.3702
82.0879
89.8515
97.6487
105.42
112.93
119.132
13.8257
21.4797
29.1413
36.816
44.5093
52.2272
59.9764
67.7643
75.599
83.4902
91.4503
99.501
107.7
116.267
126.209
13.8914
21.6772
29.4716
37.2806
45.1106
52.9682
60.861
68.7973
76.7871
84.843
92.9842
101.248
109.723
118.645
128.6
13.9551
21.8685
29.7913
37.7302
45.6919
53.6838
61.7141
69.7919
77.9278
86.1349
94.4312
102.846
111.434
120.304
129.632
14.0165
22.0529
30.0995
38.1632
46.2514
54.3718
62.5332
70.7449
79.0176
87.3631
95.794
104.322
112.948
121.642
130.306
14.0755
22.2301
30.3954
38.5787
46.7876
55.0305
63.3161
71.6541
80.0553
88.5302
97.0878
105.727
114.411
123
131.094
14.132
22.3996
30.6783
38.9757
47.2996
55.6585
64.0614
72.5183
81.0401
89.6383
98.3232
107.098
115.938
124.699
132.699
14.1858
22.5612
30.9479
39.3536
47.7864
56.2548
64.768
73.336
81.9704
90.6843
99.4939
108.423
117.518
126.924
137.28
14.237
22.7147
31.2038
39.7122
48.2477
56.8191
65.4353
74.1064
82.8439
91.6619
100.58
109.63
118.879
128.487
138.827
14.2854
22.86
31.446
40.0511
48.6834
57.3511
66.0632
74.8292
83.66
92.5685
101.572
110.696
119.99
129.539
139.475
14.3311
22.9971
31.6744
40.3706
49.0936
57.8514
66.6525
75.5057
84.4206
93.4075
102.478
111.644
120.92
130.32
139.844
14.3741
23.1261
31.8892
40.6709
49.4788
58.3206
67.2043
76.1379
85.1297
94.1869
103.315
112.512
121.762
131.012
140.16
14.4145
23.2472
32.0907
40.9524
49.8395
58.7596
67.7201
76.7284
85.7916
94.9154
104.101
113.342
122.6
131.773
140.602
14.4523
23.3604
32.2792
41.2155
50.1766
59.1696
68.2015
77.2794
86.4099
95.5988
104.849
114.156
123.496
132.771
141.561
14.4876
23.4661
32.4549
41.4608
50.4907
59.5514
68.6497
77.7924
86.9862
96.2379
105.554
114.946
124.435
134.104
144.341
14.5203
23.5643
32.6183
41.6888
50.7826
59.906
69.0658
78.2684
87.5207
96.83
106.206
115.666
125.246
135.041
145.276
14.5507
23.6554
32.7697
41.9001
51.0529
60.2344
69.4509
78.7085
88.0139
97.3739
106.797
116.299
125.905
135.668
145.666
14.5788
23.7395
32.9095
42.0951
51.3024
60.5374
69.8061
79.1142
88.4675
97.8718
107.333
116.858
126.454
136.129
145.885
14.6046
23.8168
33.0381
42.2745
51.5318
60.816
70.1326
79.487
88.8841
98.3283
107.822
117.364
126.945
136.533
146.069
14.6282
23.8875
33.1557
42.4385
51.7418
61.071
70.4316
79.8286
89.2664
98.7485
108.276
117.842
127.428
136.971
146.322
14.6496
23.9518
33.2626
42.5878
51.9328
61.3032
70.7041
80.1404
89.6164
99.1356
108.699
118.305
127.937
137.539
146.868
14.669
24.0098
33.3592
42.7225
52.1054
61.5131
70.9507
80.4231
89.9347
99.4898
109.092
118.747
128.466
138.294
148.449
14.6863
24.0617
33.4455
42.8431
52.2599
61.7012
71.172
80.6771
90.2213
99.8092
109.446
119.142
128.916
138.82
148.979
14.7016
24.1075
33.5217
42.9496
52.3965
61.8677
71.368
80.9025
90.4758
100.093
109.758
119.481
129.274
139.165
149.196
14.7149
24.1473
33.588
43.0423
52.5155
62.0128
71.5392
81.0995
90.6984
100.34
110.029
119.768
129.561
139.411
149.315
14.7261
24.1812
33.6443
43.1211
52.6168
62.1365
71.6854
81.2683
90.8896
100.553
110.262
120.015
129.806
139.617
149.41
14.7354
24.209
33.6908
43.1862
52.7005
62.239
71.8068
81.4089
91.0498
100.733
110.462
120.233
130.035
139.832
149.54
14.7427
24.2309
33.7274
43.2374
52.7665
62.32
71.9031
81.521
91.1787
100.881
110.63
120.427
130.264
140.108
149.823
14.7481
24.2469
33.754
43.2748
52.8147
62.3792
71.9738
81.604
91.2753
100.993
110.763
120.591
130.486
140.471
150.657
14.7514
24.2569
33.7706
43.2981
52.8449
62.4165
72.0186
81.657
91.3378
101.067
110.854
120.707
130.643
140.692
150.918
14.7527
24.2608
33.7772
43.3074
52.857
62.4316
72.0369
81.6791
91.3646
101.101
110.896
120.763
130.719
140.789
150.998
14.752
24.2587
33.7737
43.3026
52.8508
62.4241
72.0284
81.6696
91.3545
101.091
110.887
120.755
130.712
140.785
150.997
14.7493
24.2506
33.7602
43.2835
52.8263
62.3941
71.9928
81.6284
91.3074
101.037
110.825
120.682
130.624
140.682
150.915
14.7446
24.2365
33.7366
43.2504
52.7835
62.3415
71.9302
81.5555
91.2235
100.941
110.713
120.548
130.453
140.453
150.655
14.7379
24.2163
33.703
43.2032
52.7225
62.2665
71.8409
81.4514
91.1039
100.804
110.556
120.362
130.215
140.083
149.829
14.7292
24.1903
33.6594
43.142
52.6434
62.1693
71.7251
81.3166
90.9496
100.629
110.359
120.141
129.963
139.793
149.545
14.7186
24.1584
33.6061
43.067
52.5465
62.05
71.5832
81.1516
90.7612
100.418
110.126
119.888
129.703
139.555
149.407
14.706
24.1207
33.543
42.9784
52.432
61.9091
71.4154
80.9566
90.5386
100.168
109.851
119.597
129.415
139.315
149.297
14.6916
24.0773
33.4705
42.8764
52.3001
61.7469
71.2221
80.7316
90.2814
99.8786
109.532
119.254
129.068
139.014
149.15
14.6753
24.0284
33.3888
42.7614
52.1514
61.5637
71.0037
80.477
89.9896
99.5484
109.162
118.845
128.627
138.579
148.871
14.6572
23.9741
33.298
42.6337
51.9861
61.3601
70.7608
80.1936
89.664
99.178
108.742
118.365
128.065
137.906
148.178
14.6374
23.9146
33.1985
42.4937
51.8049
61.1368
70.4943
79.8824
89.3064
98.7708
108.279
117.829
127.403
136.931
146.094
14.616
23.8501
33.0906
42.3419
51.6084
60.8945
70.2051
79.5449
88.9189
98.3313
107.784
117.273
126.772
136.206
145.381
14.5929
23.7808
32.9748
42.1788
51.3972
60.6341
69.8942
79.1821
88.5029
97.8618
107.263
116.706
126.183
135.658
145.057
14.5684
23.7071
32.8514
42.0051
51.1721
60.3565
69.5625
78.7948
88.0588
97.3609
106.709
116.115
125.592
135.159
144.824
14.5425
23.6291
32.7209
41.8214
50.9341
60.0627
69.2112
78.3839
87.5864
96.8259
106.114
115.471
124.937
134.59
144.547
14.5152
23.5472
32.5839
41.6285
50.684
59.7539
68.8415
77.9508
87.0865
96.2553
105.468
114.748
124.15
133.807
144.042
14.4868
23.4618
32.441
41.4271
50.423
59.4315
68.4554
77.4977
86.5618
95.6518
104.774
113.939
123.181
132.621
142.799
14.4573
23.3731
32.2927
41.2183
50.1523
59.0971
68.055
77.0278
86.0174
95.0242
104.046
113.074
122.074
130.919
139.054
14.4269
23.2816
32.1396
41.0028
49.8731
58.7526
67.6426
76.5446
85.459
94.3839
103.313
112.226
121.07
129.707
137.802
14.3956
23.1876
31.9823
40.7815
49.5867
58.3993
67.2206
76.0513
84.8913
93.7388
102.588
111.423
120.208
128.868
137.274
14.3635
23.0914
31.8215
40.5553
49.294
58.0388
66.7905
75.5497
84.3166
93.0905
101.87
110.652
119.431
128.201
136.955
14.3309
22.9933
31.6576
40.3248
48.9961
57.6722
66.3537
75.0411
83.735
92.4363
101.148
109.88
118.657
127.542
136.643
14.2977
22.8936
31.491
40.0908
48.6938
57.3005
65.9113
74.5264
83.1464
91.7726
100.41
109.073
117.806
126.73
136.144
14.264
22.7925
31.3223
39.8539
48.3879
56.9247
65.4642
74.0066
82.5515
91.0991
99.6511
108.215
116.819
125.575
134.982
14.23
22.6903
31.1516
39.6144
48.079
56.5456
65.0138
73.4832
81.9526
90.4202
98.8816
107.327
115.725
123.963
131.539
14.1956
22.5871
30.9793
39.3729
47.7678
56.164
64.561
72.958
81.3531
89.7432
98.1209
106.468
114.739
122.809
130.378
14.1609
22.4829
30.8057
39.1295
47.4545
55.7805
64.1067
72.4322
80.7552
89.0726
97.3786
105.66
113.889
121.999
129.88
14.1259
22.3779
30.6307
38.8846
47.1396
55.3954
63.6514
71.9064
80.159
88.4076
96.6505
104.887
113.117
121.344
129.57
14.0906
22.2721
30.4544
38.638
46.8229
55.0089
63.1951
71.3804
79.5635
87.7441
95.9243
104.115
112.346
120.687
129.257
14.0549
22.1652
30.2766
38.3897
46.5045
54.6208
62.7378
70.854
78.9678
87.0784
95.1884
103.312
111.495
119.867
128.746
14.0189
22.0573
30.0972
38.1393
46.1839
54.231
62.2794
70.3274
78.3723
86.4108
94.4404
102.465
110.51
118.691
127.54
13.9824
21.948
29.9156
37.8862
45.8606
53.8387
61.8197
69.8011
77.7792
85.7469
93.6935
101.6
109.426
117.049
123.946
13.9454
21.837
29.7313
37.6298
45.5336
53.4432
61.3579
69.2754
77.191
85.0953
92.9716
100.788
108.481
115.908
122.755
13.9075
21.7237
29.5434
37.3688
45.2015
53.0427
60.8925
68.7492
76.6084
84.4608
92.2885
100.06
107.717
115.165
122.277
13.8687
21.6077
29.3511
37.1018
44.8623
52.6348
60.4206
68.2194
76.0285
83.8409
91.642
99.4069
107.095
114.652
122.034
13.8288
21.4883
29.1532
36.8271
44.5138
52.2164
59.938
67.6805
75.4442
83.2262
91.0181
98.8045
106.561
114.257
121.876
13.7875
21.3647
28.9483
36.5429
44.1529
51.7834
59.4391
67.125
74.8451
82.6021
90.3954
98.22
106.064
113.912
121.749
13.7446
21.2362
28.7353
36.2469
43.7769
51.3314
58.9177
66.5437
74.2182
81.9503
89.7483
97.6187
105.562
113.572
121.627
13.6999
21.1023
28.5129
35.9374
43.3826
50.8561
58.3671
65.9269
73.5492
81.2502
89.0484
96.9634
105.011
113.196
121.491
13.6532
20.9625
28.2802
35.6128
42.9675
50.3532
57.7809
65.2649
72.8235
80.4801
88.2646
96.2128
104.362
112.738
121.321
13.6045
20.8163
28.0367
35.2719
42.5298
49.8197
57.1541
64.5493
72.0275
79.6189
87.3645
95.3195
103.553
112.133
121.081
13.5538
20.6639
27.7822
34.9146
42.0687
49.2541
56.4834
63.7742
71.1508
78.648
86.3162
94.2301
102.499
111.27
120.687
13.5011
20.5056
27.5172
34.5413
41.5848
48.6565
55.7685
62.9377
70.1883
77.556
85.0948
92.8915
101.092
109.955
119.922
13.4468
20.3421
27.243
34.1538
41.0802
48.0295
55.0122
62.0428
69.1425
76.3427
83.6916
91.2695
99.2224
107.869
118.101
144.916
130.896
119.098
108.29
98.0328
88.1239
78.4525
68.9501
59.5709
50.2828
41.0624
31.8915
22.7562
13.6446
4.5467
147.429
133.759
121.642
110.472
99.8977
89.7167
79.809
70.0979
60.5313
51.0721
41.6929
32.3729
23.0953
13.8462
4.61361
148.476
135.54
123.524
112.24
101.487
91.1178
81.0276
71.1442
61.4159
51.8047
42.2816
32.8242
23.4141
14.0362
4.67669
149.002
136.68
124.896
113.635
102.809
92.3233
82.1009
72.0814
62.2181
52.475
42.8239
33.2419
23.7103
14.213
4.73548
149.31
137.443
125.902
114.727
103.892
93.3441
83.0319
72.9087
62.9355
53.0805
43.3173
33.6241
23.9823
14.3757
4.78966
149.51
137.977
126.65
115.582
104.773
94.1997
83.8301
73.6303
63.5697
53.6211
43.7613
33.9699
24.2295
14.524
4.83908
149.651
138.366
127.218
116.253
105.488
94.9123
84.5087
74.254
64.1248
54.0991
44.1568
34.2798
24.4518
14.6578
4.88371
149.754
138.657
127.654
116.785
106.068
95.5037
85.0823
74.789
64.6068
54.5182
44.5062
34.5551
24.6501
14.7773
4.92368
149.832
138.88
127.995
117.21
106.541
95.9938
85.5652
75.2455
65.0227
54.8829
44.8124
34.7977
24.8255
14.8834
4.95917
149.892
139.054
128.265
117.551
106.927
96.4
85.9708
75.6334
65.3795
55.1984
45.0791
35.01
24.9797
14.9768
4.99046
149.94
139.192
128.481
117.826
107.242
96.7368
86.3109
75.962
65.6844
55.4701
45.31
35.1947
25.1142
15.0586
5.01788
149.977
139.303
128.655
118.051
107.502
97.0162
86.5958
76.2397
65.944
55.7029
45.5091
35.3546
25.2311
15.1297
5.04175
150.008
139.392
128.796
118.234
107.716
97.2484
86.8344
76.474
66.1645
55.9018
45.6799
35.4924
25.332
15.1913
5.06244
150.033
139.464
128.911
118.384
107.893
97.4415
87.0342
76.6713
66.3514
56.0711
45.826
35.6106
25.4189
15.2444
5.08029
150.053
139.524
129.006
118.508
108.039
97.6022
87.2014
76.8374
66.5094
56.215
45.9506
35.7117
25.4933
15.2899
5.09563
150.069
139.572
129.084
118.611
108.16
97.7361
87.3414
76.9771
66.6429
56.3369
46.0565
35.7979
25.557
15.3289
5.10876
150.083
139.612
129.148
118.696
108.261
97.8477
87.4585
77.0944
66.7554
56.4401
46.1463
35.8712
25.6111
15.3622
5.11996
150.094
139.645
129.201
118.766
108.345
97.9408
87.5565
77.1929
66.8501
56.5271
46.2224
35.9333
25.6571
15.3904
5.12948
150.104
139.673
129.245
118.824
108.414
98.0185
87.6385
77.2755
66.9297
56.6005
46.2866
35.9859
25.6961
15.4144
5.13756
150.111
139.695
129.281
118.872
108.472
98.0832
87.7069
77.3446
66.9965
56.6622
46.3406
36.0302
25.729
15.4346
5.14439
150.118
139.714
129.311
118.913
108.52
98.1371
87.764
77.4024
67.0524
56.7139
46.386
36.0675
25.7567
15.4517
5.15015
150.123
139.73
129.336
118.946
108.56
98.1819
87.8116
77.4505
67.0991
56.7572
46.4241
36.0988
25.7799
15.466
5.15498
150.127
139.742
129.357
118.973
108.594
98.219
87.851
77.4905
67.138
56.7932
46.4558
36.1248
25.7993
15.4779
5.15902
150.131
139.753
129.374
118.996
108.621
98.2495
87.8835
77.5236
67.1701
56.823
46.482
36.1465
25.8154
15.4878
5.16237
150.134
139.762
129.388
119.015
108.643
98.2746
87.9102
77.5507
67.1965
56.8475
46.5036
36.1643
25.8287
15.496
5.16513
150.136
139.768
129.399
119.03
108.661
98.2948
87.9318
77.5727
67.2179
56.8674
46.5212
36.1787
25.8395
15.5027
5.16738
150.138
139.774
129.408
119.041
108.675
98.3109
87.949
77.5902
67.2349
56.8833
46.5352
36.1903
25.8481
15.508
5.16918
150.139
139.778
129.415
119.051
108.686
98.3234
87.9623
77.6038
67.2482
56.8956
46.5461
36.1993
25.8548
15.5121
5.17058
150.14
139.781
129.42
119.057
108.695
98.3326
87.9722
77.6138
67.258
56.9048
46.5542
36.206
25.8598
15.5152
5.17162
150.141
139.783
129.423
119.062
108.7
98.3389
87.9788
77.6207
67.2647
56.911
46.5597
36.2105
25.8632
15.5173
5.17233
150.141
139.785
129.425
119.064
108.703
98.3423
87.9826
77.6245
67.2684
56.9146
46.5628
36.2131
25.8652
15.5185
5.17274
150.142
139.785
129.426
119.065
108.704
98.3431
87.9834
77.6254
67.2694
56.9155
46.5637
36.2138
25.8657
15.5189
5.17286
150.141
139.784
129.425
119.064
108.702
98.3412
87.9815
77.6235
67.2676
56.9138
46.5623
36.2127
25.8649
15.5184
5.17269
150.141
139.783
129.422
119.06
108.698
98.3366
87.9767
77.6186
67.2629
56.9096
46.5585
36.2097
25.8626
15.517
5.17223
150.14
139.78
129.418
119.054
108.691
98.3291
87.9688
77.6107
67.2553
56.9026
46.5525
36.2047
25.8589
15.5147
5.17146
150.139
139.776
129.412
119.046
108.682
98.3185
87.9576
77.5995
67.2445
56.8927
46.5438
36.1976
25.8537
15.5115
5.17038
150.137
139.771
129.403
119.036
108.669
98.3044