/*--------------------------------*- C++ -*----------------------------------*\
| =========                 |                                                 |
| \\      /  F ield         | OpenFOAM: The Open Source CFD Toolbox           |
|  \\    /   O peration     | Version:  5.x                                   |
|   \\  /    A nd           | Web:      www.OpenFOAM.org                      |
|    \\/     M anipulation  |                                                 |
\*---------------------------------------------------------------------------*/
FoamFile
{
    version     2.0;
    format      ascii;
    class       volScalarField;
    location    "15";
    object      gradTx;
}
// * * * * * * * * * * * * * * * * * * * * * * * * * * * * * * * * * * * * * //

dimensions      [0 -1 0 1 0 0 0];

internalField   nonuniform List<scalar> 
6300
(
18.8776
18.8207
18.7069
18.5363
18.3091
18.0256
17.6863
17.2923
16.8452
16.3472
15.8017
15.2131
14.5872
13.9311
13.2533
18.9337
18.8768
18.7629
18.5922
18.3647
18.0805
17.7403
17.3448
16.8953
16.3941
15.8441
15.2498
14.6167
13.9523
13.265
19.046
18.989
18.8751
18.7041
18.476
18.1909
17.8489
17.4504
16.9966
16.489
15.9303
15.3245
14.6772
13.9957
13.2892
19.2144
19.1575
19.0435
18.8724
18.6437
18.3574
18.0131
17.6108
17.1509
16.6342
16.0629
15.4401
14.7712
14.0636
13.3272
19.439
19.3821
19.2684
19.0973
18.8684
18.5811
18.2346
17.8281
17.3612
16.8336
16.2462
15.6012
14.9033
14.1598
13.3816
19.7195
19.663
19.5497
19.3792
19.1507
18.8632
18.5152
18.1052
17.6314
17.0921
16.4864
15.8147
15.0802
14.2901
13.4562
20.0558
19.9998
19.8875
19.7184
19.4913
19.2049
18.8572
18.4454
17.9664
17.4164
16.7918
16.0903
15.3123
14.4635
13.5571
20.4473
20.3921
20.2814
20.1146
19.8904
19.6072
19.2623
18.8522
18.3717
17.8146
17.1736
16.4416
15.6144
14.6941
13.694
20.8931
20.839
20.7306
20.5673
20.3478
20.0704
19.7321
19.3284
18.8528
18.2959
17.6456
16.8876
16.009
15.0037
13.8827
21.392
21.3394
21.234
21.0752
20.8623
20.5936
20.2664
19.8758
19.4144
18.8699
18.2244
17.4537
16.5294
15.4284
14.1506
21.9428
21.8918
21.7898
21.6365
21.4318
21.1746
20.8631
20.4934
20.0582
19.544
18.9278
18.1725
17.226
16.0292
14.5482
22.5436
22.4943
22.3958
22.2485
22.0528
21.809
21.5171
21.1757
20.7802
20.3195
19.7693
19.0817
18.172
16.9136
15.1771
23.1929
23.1451
23.0498
22.9081
22.721
22.4907
22.2198
21.911
21.5664
21.1835
20.7474
20.2123
19.4661
18.2755
16.2657
23.889
23.8423
23.7495
23.6119
23.4316
23.2122
22.9593
22.6814
22.3901
22.1
21.8236
21.5531
21.2038
20.4561
18.4065
24.6308
24.5847
24.4931
24.3574
24.1803
23.9662
23.723
23.464
23.2115
23.0018
22.893
22.9719
23.339
23.9375
23.4145
12.6212
12.0439
11.4705
10.9069
10.3585
9.8307
9.32789
8.85399
8.41219
8.005
7.63429
7.30134
7.00692
6.7514
6.53473
6.35658
6.21634
6.11313
6.04586
6.01319
6.01351
6.04494
6.1053
6.19206
6.30236
6.43303
6.58058
6.74128
6.91128
7.08672
7.26381
7.43898
7.60896
7.77076
7.92166
8.0591
8.18058
8.28359
8.36557
8.42393
8.45617
8.46006
8.43384
8.37634
8.28703
8.16605
8.01398
7.8316
7.61967
7.3786
7.10825
6.8079
6.47619
6.11126
5.71093
5.27292
4.79501
4.27519
3.71161
3.10255
2.44617
1.74038
0.982514
0.169229
-0.703652
-1.64114
-2.64902
-3.73367
-4.90185
-6.16047
-7.51639
-8.97616
-10.546
-12.2314
-14.0377
-15.9694
-18.0302
-20.223
-22.5495
-25.0098
-27.6018
-30.321
-33.1595
-36.1061
-39.1456
-42.2588
-45.423
-48.6122
-51.7983
-54.9516
12.6237
12.0378
11.456
10.8843
10.3286
9.79425
9.28586
8.80739
8.36199
7.95213
7.57958
7.24552
6.95063
6.69515
6.47899
6.30173
6.16274
6.06112
5.9958
5.96543
5.96846
6.00304
6.06702
6.15789
6.27279
6.40847
6.56136
6.7276
6.90318
7.08405
7.26626
7.44616
7.62043
7.78615
7.94072
8.08174
8.20683
8.31354
8.39925
8.46119
8.49663
8.50308
8.47855
8.42177
8.3323
8.21049
8.05726
7.87383
7.66132
7.42041
7.15115
6.85276
6.52373
6.16194
5.76491
5.33009
4.85512
4.33796
3.77689
3.17045
2.51714
1.81517
1.06216
0.254904
-0.610739
-1.53989
-2.53856
-3.61344
-4.77163
-6.02039
-7.36682
-8.81768
-10.3793
-12.0573
-13.8571
-15.7832
-17.8398
-20.0302
-22.3565
-24.8197
-27.4183
-30.1486
-33.0034
-35.9718
-39.0387
-42.1846
-45.3861
-48.616
-51.8444
-55.0402
12.629
12.0255
11.4264
10.8383
10.2676
9.71998
9.20038
8.71277
8.26028
7.8452
7.46912
7.133
6.83728
6.58202
6.36694
6.19153
6.05506
5.95662
5.89514
5.86934
5.87773
5.91857
5.98977
6.08888
6.21302
6.35887
6.52264
6.70022
6.8872
7.07915
7.27176
7.46113
7.6439
7.81729
7.97899
8.12698
8.25923
8.37342
8.46681
8.53627
8.5785
8.59036
8.56935
8.51393
8.4238
8.29982
8.14372
7.95762
7.74352
7.50275
7.23566
6.94143
6.61815
6.26307
5.87302
5.44482
4.97574
4.46369
3.90729
3.30564
2.658
1.96329
1.21975
0.424514
-0.426494
-1.33865
-2.31845
-3.37329
-4.51104
-5.73966
-7.06684
-8.49972
-10.0448
-11.7079
-13.4943
-15.409
-17.4566
-19.6413
-21.9663
-24.434
-27.0448
-29.7964
-32.6831
-35.695
-38.8173
-42.0299
-45.3077
-48.621
-51.9368
-55.2201
12.6375
12.0066
11.3804
10.7667
10.1728
9.60501
9.06845
8.56722
8.10433
7.68178
7.30081
6.96198
6.66538
6.41074
6.19751
6.025
5.89236
5.79866
5.74285
5.72376
5.74005
5.79013
5.87208
5.98357
6.12175
6.28317
6.4638
6.65901
6.8638
7.07299
7.28162
7.48532
7.68058
7.86492
8.03667
8.19457
8.3373
8.46289
8.56847
8.65023
8.70375
8.72464
8.70933
8.65573
8.56371
8.43506
8.27301
8.0814
7.86379
7.62268
7.35895
7.07163
6.75806
6.41428
6.03577
5.61816
5.15798
4.65306
4.10261
3.50685
2.86641
2.18156
1.4516
0.674299
-0.154328
-1.04009
-1.99038
-3.01382
-4.11963
-5.31702
-6.61464
-8.02017
-9.54024
-11.1806
-12.9466
-14.8433
-16.8759
-19.0498
-21.3703
-23.842
-26.4681
-29.2492
-32.1821
-35.2588
-38.4652
-41.7805
-45.1772
-48.6216
-52.0751
-55.4964
12.6503
11.9803
11.3158
10.6663
10.0402
9.44463
8.88527
8.36615
7.88995
7.45819
7.0715
6.72986
6.43279
6.17954
5.9692
5.80079
5.67334
5.58588
5.53744
5.527
5.55347
5.61555
5.71163
5.8396
5.99675
6.17958
6.38367
6.60375
6.83377
7.06735
7.2983
7.52134
7.7327
7.93038
8.11395
8.2837
8.43972
8.58086
8.7041
8.8045
8.87563
8.91073
8.90409
8.85249
8.75601
8.61807
8.44454
8.24227
8.01757
7.77487
7.51589
7.23934
6.94116
6.61523
6.25455
5.85254
5.40437
4.90774
4.36294
3.7722
3.13856
2.46462
1.75145
0.997851
0.19998
-0.648694
-1.55707
-2.53581
-3.59638
-4.75008
-6.00705
-7.37564
-8.86238
-10.4725
-12.2106
-14.0816
-16.0914
-18.247
-20.5563
-23.0274
-25.6678
-28.4828
-31.4735
-34.6352
-37.9556
-41.4132
-44.9773
-48.6082
-52.259
-55.8781
12.6686
11.9455
11.2293
10.5316
9.86304
9.23178
8.6438
8.10295
7.61125
7.16939
6.77705
6.43329
6.13684
5.8863
5.68024
5.51736
5.39651
5.31669
5.27706
5.27687
5.31539
5.3918
5.505
5.65336
5.83454
6.04509
6.28028
6.53389
6.79836
7.06522
7.32608
7.57388
7.80418
8.01587
8.21078
8.39227
8.56323
8.72424
8.8723
9.00056
9.09904
9.15655
9.16326
9.11353
9.00765
8.85198
8.65709
8.43511
8.19695
7.95018
7.69781
7.4379
7.16392
6.86595
6.53255
6.15311
5.72029
5.23153
4.68917
4.0991
3.46856
2.80399
2.10935
1.38501
0.627316
-0.171436
-1.02255
-1.94001
-2.93907
-4.03448
-5.23873
-6.56094
-8.00684
-9.57989
-11.2829
-13.1199
-15.0969
-17.2227
-19.5088
-21.9685
-24.6158
-27.4629
-30.5182
-33.7827
-37.2477
-40.8918
-44.6805
-48.5655
-52.4874
-56.3793
12.6946
11.9006
11.1154
10.3547
9.63177
8.95619
8.3341
7.76861
7.26051
6.80901
6.41236
6.06833
5.77455
5.52874
5.32886
5.17319
5.06038
4.98942
4.95967
4.97076
5.02253
5.11487
5.24749
5.41966
5.62979
5.8749
6.15011
6.44815
6.75921
7.07144
7.37237
7.6513
7.90215
8.12519
8.32662
8.51567
8.70074
8.88591
9.06866
9.23913
9.38112
9.47516
9.50336
9.45504
9.33065
9.14198
8.90829
8.65091
8.38838
8.13322
7.89029
7.65641
7.42093
7.16742
6.87654
6.53027
6.11649
5.63224
5.08388
4.48404
3.84732
3.18647
2.50982
1.82004
1.11364
0.381111
-0.392588
-1.2268
-2.14309
-3.16218
-4.30056
-5.56811
-6.96817
-8.50003
-10.1624
-11.9565
-13.8878
-15.9673
-18.211
-20.6393
-23.2755
-26.1429
-29.261
-32.6411
-36.2811
-40.1618
-44.2442
-48.469
-52.7582
-57.0209
12.7319
11.8427
10.9657
10.123
9.33184
8.60314
7.94251
7.35127
6.82793
6.36935
5.97164
5.63077
5.34295
5.10483
4.9136
4.7671
4.66375
4.6026
4.58326
4.60588
4.67106
4.7797
4.9328
5.13108
5.37443
5.66112
5.98681
6.34339
6.71811
7.09366
7.45002
7.76888
8.03982
8.2653
8.45996
8.64447
8.83775
9.05069
9.28234
9.51832
9.73185
9.88818
9.95329
9.90569
9.74585
9.49645
9.19325
8.87376
8.56883
8.29828
8.06939
7.87688
7.7036
7.52238
7.30001
7.00438
6.61387
6.12499
5.55245
4.92185
4.26062
3.59147
2.929
2.2788
1.63745
0.992809
0.324404
-0.395495
-1.19915
-2.11817
-3.17643
-4.38448
-5.73969
-7.23218
-8.85213
-10.5952
-12.4653
-14.4752
-16.647
-19.0105
-21.6021
-24.4614
-27.6261
-31.1246
-34.9673
-39.1405
-43.6022
-48.279
-53.0663
-57.8352
12.7861
11.7666
10.766
9.81684
8.94152
8.15171
7.45061
6.8358
6.30177
5.84174
5.4488
5.11659
4.83958
4.61316
4.43375
4.29867
4.20617
4.15537
4.14623
4.17953
4.25681
4.38033
4.55287
4.7774
5.05643
5.39097
5.7788
6.21224
6.67555
7.14323
7.58138
7.95512
8.24265
8.44944
8.60756
8.76031
8.94609
9.18817
9.48939
9.82945
10.1646
10.4321
10.5651
10.5176
10.2896
9.92799
9.5013
9.0753
8.69943
8.40298
8.19575
8.06932
7.99738
7.93628
7.82867
7.61478
7.25262
6.73794
6.10437
5.4035
4.68513
3.98662
3.33032
2.72464
2.16583
1.63857
1.11541
0.556308
-0.0892024
-0.873714
-1.83665
-2.98899
-4.31354
-5.78074
-7.36451
-9.05098
-10.841
-12.75
-14.8068
-17.053
-19.5428
-22.3397
-25.5104
-29.1119
-33.1768
-37.7032
-42.6498
-47.9289
-53.3999
-58.8724
12.8669
11.6627
10.4917
9.40397
8.42778
7.57229
6.8342
6.20374
5.66877
5.21723
4.83827
4.52272
4.26313
4.05364
3.88987
3.76874
3.68837
3.64799
3.64793
3.68966
3.7758
3.91019
4.09789
4.34503
4.65831
5.04384
5.50487
6.03781
6.62642
7.23502
7.80521
8.26516
8.56144
8.70332
8.76256
8.82822
8.973
9.24016
9.64015
10.1473
10.6941
11.1694
11.4366
11.3887
11.0254
10.4528
9.80798
9.20431
8.71534
8.37888
8.20544
8.18292
8.27522
8.41683
8.51003
8.43839
8.11067
7.52181
6.75291
5.9101
5.0808
4.32084
3.65855
3.1028
2.6486
2.27825
1.95804
1.63239
1.22079
0.627563
-0.224218
-1.34558
-2.682
-4.16144
-5.72896
-7.35747
-9.04545
-10.8119
-12.6935
-14.7447
-17.0409
-19.6794
-22.7737
-26.4315
-30.7214
-35.6603
-41.2177
-47.3019
-53.7302
-60.2125
12.9915
11.5106
10.097
8.83013
7.73988
6.82355
6.06262
5.43398
4.91545
4.48801
4.13625
3.8481
3.61435
3.42811
3.28443
3.17998
3.11283
3.08238
3.08931
3.1357
3.22515
3.36311
3.55714
3.81725
4.15596
4.5878
5.12715
5.78299
6.54824
7.38181
8.18746
8.81057
9.10222
9.07587
8.90796
8.78185
8.82333
9.10052
9.63625
10.4077
11.3261
12.2061
12.7612
12.7138
12.0622
11.0813
10.055
9.16779
8.51135
8.11972
7.9975
8.13085
8.48174
8.96672
9.42842
9.63044
9.34444
8.56466
7.50759
6.39699
5.37639
4.51421
3.83319
3.33455
3.01046
2.84559
2.80833
2.83211
2.79215
2.50103
1.7763
0.607447
-0.844575
-2.41532
-4.00558
-5.57827
-7.13672
-8.70793
-10.3357
-12.0835
-14.0457
-16.3625
-19.2254
-22.8403
-27.3308
-32.7263
-39.0264
-46.1783
-53.9819
-61.9885
13.1929
11.2609
9.49086
8.00146
6.80111
5.85056
5.10016
4.50534
4.03071
3.6496
3.34244
3.09499
2.897
2.74115
2.62237
2.53736
2.48433
2.46282
2.47376
2.51958
2.60453
2.73516
2.92111
3.17611
3.51935
3.97676
4.58145
5.37039
6.37141
7.56851
8.83225
9.83295
10.1005
9.65194
8.99281
8.4938
8.33384
8.58816
9.29257
10.4558
12.0132
13.7102
14.9529
14.9081
13.573
11.7749
10.101
8.79863
7.92561
7.47227
7.42118
7.76517
8.49481
9.54981
10.7204
11.5248
11.2889
10.0065
8.33906
6.75399
5.44359
4.44645
3.745
3.31476
3.14287
3.22899
3.57054
4.12344
4.72502
4.99872
4.41619
2.96812
1.16373
-0.641174
-2.30757
-3.81956
-5.20961
-6.52243
-7.80492
-9.11347
-10.5395
-12.259
-14.5941
-17.988
-22.6363
-28.4892
-35.6078
-44.1155
-53.9406
-64.4325
13.5396
10.7777
8.4801
6.75618
5.5025
4.58926
3.91353
3.40349
3.01112
2.70456
2.4625
2.27054
2.11885
2.00069
1.91156
1.8486
1.81032
1.79643
1.80788
1.84702
1.91801
2.02745
2.18552
2.40779
2.71817
3.15349
3.77023
4.6522
5.91198
7.65896
9.85546
11.9106
12.1298
10.5308
8.84672
7.71716
7.24751
7.42737
8.28784
9.93603
12.4986
15.8677
18.9982
18.9601
15.7497
12.2889
9.61195
7.81085
6.73527
6.24531
6.27566
6.84386
8.03905
9.96609
12.5392
14.917
14.7398
12.0022
9.05165
6.71518
5.0595
3.95277
3.26609
2.92277
2.90359
3.24438
4.02824
5.34449
7.12982
8.72913
8.30221
5.84169
3.17262
0.93344
-0.831901
-2.23641
-3.39365
-4.38056
-5.23655
-5.97413
-6.61072
-7.26879
-8.43773
-11.3292
-16.2069
-22.4289
-30.1883
-40.1549
-52.9382
-67.9831
14.1873
9.62515
6.64308
4.83356
3.71332
2.98572
2.48812
2.13204
1.86784
1.66651
1.51031
1.38802
1.29231
1.21835
1.16298
1.12424
1.10112
1.09349
1.10204
1.12853
1.17604
1.24962
1.35739
1.5125
1.73696
2.06885
2.57694
3.38975
4.75076
7.10177
11.0819
16.6315
16.7767
11.5317
7.9018
5.98993
5.22556
5.28621
6.14846
8.0991
11.8223
18.3683
27.6055
27.5794
18.2866
11.6738
7.86118
5.77796
4.7014
4.26885
4.35537
5.01945
6.52912
9.45161
14.639
21.9876
21.8773
14.3043
8.87957
5.69573
3.88471
2.85403
2.29259
2.0639
2.14581
2.62161
3.71912
5.88984
9.80221
15.377
15.1163
9.01534
4.5623
1.8256
0.124094
-1.00938
-1.82293
-2.4272
-2.83865
-2.98016
-2.65092
-1.54287
0.199081
-1.80988
-7.84159
-14.1546
-21.5899
-32.1376
-48.6779
-73.5458
15.5029
6.19702
3.11718
1.91816
1.35863
1.05083
0.858833
0.728181
0.633969
0.563394
0.509239
0.467157
0.434401
0.409199
0.390406
0.377322
0.369595
0.367178
0.370339
0.379721
0.396477
0.422522
0.461014
0.517309
0.600965
0.730392
0.944749
1.33776
2.16376
4.19839
10.0478
29.134
29.185
10.2064
4.48259
2.61005
2.01539
1.99053
2.44157
3.70938
7.08059
16.9929
49.5509
49.5416
16.9634
7.02616
3.61975
2.29525
1.73998
1.54475
1.60323
1.97719
2.9845
5.67534
13.626
39.798
39.7606
13.5122
5.4803
2.69922
1.58607
1.07948
0.839817
0.757672
0.820725
1.10345
1.86446
3.92697
10.0804
30.4274
30.3397
9.81571
3.48025
1.22697
0.262068
-0.243052
-0.553582
-0.751486
-0.829429
-0.664062
0.187397
3.27016
14.2371
13.5021
0.928856
-4.26375
-8.50956
-15.4905
-32.425
-83.1074
-58.3434
-61.9186
-65.3157
-68.4979
-71.4368
-74.1123
-76.512
-78.6304
-80.4671
-82.0253
-83.3103
-84.3283
-85.0854
-85.587
-85.8368
-58.4765
-62.0956
-65.5294
-68.7401
-71.699
-74.3867
-76.792
-78.9108
-80.7443
-82.2971
-83.5758
-84.5876
-85.3395
-85.8373
-86.0851
-58.7479
-62.4567
-65.9651
-69.233
-72.2313
-74.9422
-77.3571
-79.4752
-81.3008
-82.8416
-84.1066
-85.1054
-85.8462
-86.336
-86.5797
-59.1681
-63.017
-66.6403
-69.9942
-73.0498
-75.7923
-78.2177
-80.3306
-82.1407
-83.6603
-84.9024
-85.8795
-86.6024
-87.0794
-87.3165
-59.7554
-63.802
-67.5838
-71.0524
-74.1804
-76.958
-79.3895
-81.4876
-83.2697
-84.755
-85.9618
-86.9065
-87.6029
-88.0613
-88.2887
-60.5378
-64.8507
-68.8393
-72.4502
-75.6598
-78.4687
-80.8934
-82.9591
-84.6943
-86.1268
-87.2817
-88.1804
-88.8398
-89.2725
-89.4868
-61.5588
-66.2224
-70.4714
-74.2479
-77.5387
-80.3621
-82.7547
-84.7597
-86.4201
-87.7747
-88.8565
-89.6921
-90.3019
-90.7006
-90.8976
-62.8854
-68.0075
-72.5748
-76.5301
-79.8834
-82.685
-85.0021
-86.9033
-88.4501
-89.6939
-90.676
-91.4281
-91.9736
-92.3288
-92.5039
-64.6249
-70.3463
-75.2888
-79.4129
-82.7784
-85.4909
-87.664
-89.3997
-90.7812
-91.8731
-92.724
-93.3693
-93.8342
-94.1355
-94.2836
-66.9555
-73.4628
-78.8201
-83.0527
-86.3249
-88.8349
-90.762
-92.2486
-93.4001
-94.2916
-94.9759
-95.4894
-95.8567
-96.0937
-96.2099
-70.1926
-77.7281
-83.4749
-87.6517
-90.632
-92.7604
-94.2992
-95.4312
-96.2771
-96.9155
-97.397
-97.7542
-98.0079
-98.171
-98.2508
-74.9429
-83.7806
-89.698
-93.4459
-95.7889
-97.2734
-98.2419
-98.8982
-99.3599
-99.6944
-99.9405
-100.121
-100.248
-100.33
-100.37
-82.522
-92.7519
-98.0887
-100.644
-101.803
-102.3
-102.495
-102.558
-102.568
-102.56
-102.548
-102.538
-102.532
-102.529
-102.527
-96.2453
-106.615
-109.26
-109.235
-108.477
-107.628
-106.879
-106.27
-105.792
-105.426
-105.152
-104.951
-104.812
-104.724
-104.682
-126.106
-128.2
-123.098
-118.56
-115.238
-112.853
-111.122
-109.848
-108.903
-108.2
-107.679
-107.301
-107.038
-106.872
-106.792
25.3522
25.306
25.2143
25.078
24.8995
24.683
24.4365
24.1747
23.9243
23.7351
23.7005
24.0074
25.0831
28.156
37.8905
26.0393
25.9928
25.9001
25.7618
25.579
25.3548
25.0951
24.8119
24.5292
24.2938
24.1968
24.4143
25.2809
27.364
31.0273
26.7579
26.711
26.617
26.4756
26.2867
26.0506
25.7692
25.4481
25.1006
24.7558
24.4738
24.3695
24.6333
25.474
26.7181
27.5084
27.4612
27.366
27.2217
27.0263
26.7769
26.4701
26.102
25.6695
25.1736
24.6268
24.0684
23.5842
23.3033
23.2829
28.291
28.2438
28.1485
28.0026
27.8026
27.5423
27.2127
26.7997
26.2816
25.6259
24.7872
23.7149
22.3934
20.951
19.844
29.1056
29.0593
28.9652
28.8204
28.6198
28.3551
28.0125
27.5696
26.9887
26.2048
25.1088
23.5339
21.2859
18.3651
15.6466
29.9517
29.907
29.8163
29.6762
29.4809
29.221
28.8809
28.4347
27.836
26.9995
25.7625
23.8195
20.645
15.6383
9.5719
30.8279
30.7861
30.701
30.5694
30.3859
30.1416
29.8223
29.4048
28.8478
28.0713
26.9058
24.9596
21.2758
13.647
-0.704923
31.7323
31.6944
31.6171
31.4979
31.3322
31.1132
30.831
30.4711
30.0112
29.4125
28.5906
27.3056
24.6455
16.3241
-20.9374
32.6623
32.6291
32.5616
32.4578
32.3146
32.1278
31.8927
31.606
31.2704
30.9075
30.5961
30.6059
31.9458
39.0979
75.6289
33.6146
33.5867
33.5304
33.4442
33.3263
33.1748
32.9892
32.774
32.5479
32.3658
32.3776
32.9818
35.2089
41.4688
54.9134
34.5853
34.5633
34.5191
34.4517
34.3604
34.2444
34.1052
33.9488
33.794
33.6885
33.7466
34.2299
35.6703
38.8493
43.5477
35.5703
35.5546
35.5229
35.475
35.4105
35.3292
35.2319
35.1215
35.0051
34.8965
34.8194
34.8124
34.9232
35.1735
35.4585
36.5653
36.5559
36.5371
36.5089
36.4712
36.4239
36.3666
36.2975
36.2101
36.0814
35.8425
35.3123
34.0781
31.4728
27.5809
37.5659
37.5629
37.5569
37.5484
37.5375
37.5244
37.5082
37.4852
37.4429
37.3417
37.0669
36.3
34.1843
28.6646
17.0147
38.5676
38.5709
38.5776
38.5885
38.6043
38.6258
38.6534
38.6855
38.7157
38.7212
38.632
38.2236
36.6531
30.1126
-1.62734
39.5662
39.5754
39.5944
39.6241
39.666
39.7218
39.7941
39.8862
40.0047
40.1653
40.4177
40.9531
42.5722
49.0596
80.6922
40.5572
40.5722
40.6028
40.6503
40.7169
40.8052
40.9196
41.0675
41.2637
41.5442
42.0056
42.9291
45.1093
50.5432
62.0062
41.5368
41.5571
41.5983
41.6623
41.7514
41.8691
42.0207
42.2141
42.4634
42.796
43.2715
44.0312
45.3854
47.8388
51.2968
42.5013
42.5263
42.5771
42.6557
42.7647
42.9082
43.0913
43.3208
43.6044
43.9473
44.3386
44.7194
44.8967
44.4355
43.0055
43.4474
43.4765
43.5356
43.6268
43.753
43.9184
44.1283
44.3887
44.7035
45.0634
45.4119
45.5477
44.8501
41.7037
33.7378
44.3721
44.4047
44.4707
44.5724
44.7128
44.8963
45.1289
45.4178
45.7702
46.1858
46.6316
46.9537
46.5027
42.3178
18.9553
45.2732
45.3085
45.38
45.4899
45.6413
45.8388
46.0889
46.4016
46.792
47.2859
47.936
48.8953
50.7468
56.2485
80.4579
46.1486
46.1859
46.2616
46.3774
46.5365
46.7431
47.0041
47.3302
47.741
48.2759
49.0242
50.2162
52.4546
57.1864
66.2989
46.9969
47.0357
47.1141
47.2337
47.3973
47.6083
47.8725
48.1987
48.6029
49.1161
49.803
50.8091
52.4293
55.0806
58.4865
47.8171
47.8567
47.9367
48.0584
48.2237
48.4352
48.6963
49.0118
49.3883
49.834
50.3586
50.9744
51.6862
52.4496
53.0578
48.6085
48.6486
48.7293
48.8515
49.0166
49.2259
49.4807
49.7813
50.1245
50.4956
50.8494
51.0718
50.9059
49.9249
48.0701
49.3708
49.411
49.4918
49.6136
49.7774
49.9836
50.2319
50.5201
50.8403
51.1674
51.4301
51.4377
50.6899
48.0058
41.8133
50.104
50.1441
50.2244
50.3454
50.5074
50.7103
50.9536
51.2354
51.5502
51.8824
52.1865
52.3269
51.8169
48.5219
31.275
50.8081
50.8479
50.9277
51.0475
51.2075
51.4074
51.6471
51.9264
52.247
52.6153
53.055
53.6666
54.8765
58.7257
76.2665
51.4833
51.5228
51.6018
51.7204
51.8784
52.0754
52.3113
52.5875
52.9098
53.2967
53.8028
54.5895
56.1015
59.4198
65.9713
52.1297
52.1689
52.2473
52.3647
52.5207
52.7146
52.946
53.2152
53.5266
53.8937
54.3542
55.0075
56.0704
57.8673
60.2456
52.7476
52.7866
52.8644
52.9808
53.1351
53.3262
53.5526
53.8124
54.1036
54.4241
54.7701
55.1397
55.5279
55.9097
56.1915
53.3371
53.3759
53.4534
53.5692
53.7225
53.9117
54.1344
54.3863
54.6594
54.935
55.1682
55.2576
54.9883
54.0202
52.3531
53.8983
53.9371
54.0146
54.1303
54.2834
54.4722
54.6941
54.9442
55.2123
55.4737
55.6646
55.6232
54.9325
52.6146
47.3772
54.4312
54.4701
54.5479
54.6641
54.8179
55.0081
55.2327
55.4882
55.7687
56.0595
56.3207
56.4384
56.005
53.2352
38.7846
54.9357
54.9749
55.0532
55.1703
55.3256
55.5185
55.7479
56.0135
56.3169
56.6639
57.0751
57.6349
58.6982
61.9662
76.6779
55.4116
55.4512
55.5302
55.6485
55.8058
56.0017
56.2362
56.5113
56.8337
57.2219
57.7248
58.4805
59.8588
62.7486
68.3079
55.8587
55.8987
55.9786
56.0983
56.2576
56.4563
56.6946
56.9748
57.3038
57.6984
58.1973
58.8924
59.9678
61.6756
63.8198
56.2766
56.3171
56.398
56.5193
56.6806
56.8816
57.1221
57.4031
57.7273
58.1006
58.5321
59.0387
59.6361
60.298
60.8418
56.665
56.7061
56.7881
56.911
57.0744
57.2776
57.5198
57.7998
58.1156
58.4604
58.813
59.1206
59.2578
59.0009
58.2626
57.0235
57.0652
57.1485
57.2732
57.4389
57.6448
57.8894
58.1704
58.4827
58.8129
59.1237
59.3193
59.1515
58.0368
55.192
57.3517
57.394
57.4787
57.6055
57.774
57.9833
58.2319
58.5177
58.8362
59.1772
59.5126
59.7692
59.7008
58.2729
50.1671
57.649
57.6921
57.7782
57.9074
58.0791
58.2926
58.547
58.8408
59.1731
59.5432
59.9548
60.4434
61.1925
63.1448
71.5163
57.9149
57.9588
58.0466
58.1783
58.3535
58.5719
58.8327
59.1358
59.4826
59.8786
60.3418
60.9352
61.8469
63.5576
66.7191
58.149
58.1937
58.2832
58.4174
58.5964
58.8198
59.0872
59.399
59.7568
60.1655
60.6367
61.2047
61.9445
62.9613
64.139
58.3506
58.3961
58.4872
58.6241
58.8068
59.0352
59.3092
59.6288
59.9947
60.407
60.8627
61.3535
61.8479
62.2519
62.3987
58.5191
58.5654
58.6581
58.7975
58.9838
59.2172
59.4976
59.825
60.1991
60.6164
61.0625
61.4986
61.8123
61.7195
60.7821
58.6541
58.7011
58.7952
58.9369
59.1266
59.3647
59.6514
59.9874
60.3725
60.8038
61.2678
61.7271
62.0572
61.772
58.5365
58.755
58.8025
58.8979
59.0415
59.2342
59.4765
59.7693
60.1141
60.5127
60.9664
61.4747
62.044
62.7275
63.872
67.6042
58.8214
58.8694
58.9656
59.1107
59.3056
59.5513
59.8493
60.2021
60.6135
61.0893
61.6375
62.2802
63.0759
64.1734
65.7475
58.8531
58.9013
58.9979
59.1439
59.3401
59.588
59.8894
60.2478
60.6685
61.1598
61.7331
62.4088
63.2128
64.1423
65.0058
58.8499
58.8981
58.9947
59.1407
59.3371
59.5855
59.8882
60.2488
60.6734
61.1714
61.7558
62.4469
63.2606
64.1554
64.886
58.8119
58.8597
58.9558
59.1009
59.2963
59.5436
59.8449
60.2038
60.6262
61.1212
61.7028
62.3986
63.2502
64.281
65.2956
58.7393
58.7865
58.8814
59.0248
59.218
59.4623
59.7598
60.1133
60.5274
61.0087
61.5689
62.2405
63.1136
64.4165
66.4317
58.6323
58.6787
58.7719
58.9128
59.1024
59.3423
59.6339
59.9793
60.3807
60.8397
61.356
61.941
62.6767
64.0558
68.9892
58.4918
58.537
58.6279
58.7653
58.9504
59.1844
59.4688
59.8048
60.193
60.6288
61.0936
61.5356
61.791
61.2255
56.7434
58.3184
58.3622
58.4502
58.5834
58.7627
58.9897
59.2659
59.5928
59.9711
60.3959
60.8453
61.2585
61.4737
61.1134
59.658
58.1132
58.1553
58.2399
58.3679
58.5404
58.7591
59.0259
59.3437
59.7159
60.144
60.6204
61.1175
61.5541
61.7606
61.5836
57.8773
57.9174
57.998
58.12
58.2845
58.4932
58.7487
59.0554
59.4207
59.8565
60.3797
61.017
61.7926
62.6724
63.4081
57.6121
57.65
57.726
57.8411
57.9962
58.193
58.4341
58.7249
59.0756
59.5064
60.0581
60.8191
61.9568
63.6829
65.7651
57.3193
57.3546
57.4257
57.5329
57.6773
57.8601
58.0833
58.3514
58.6737
59.0705
59.5895
60.3581
61.7106
64.4447
69.5897
57.0005
57.0332
57.0987
57.1976
57.3302
57.4973
57.6996
57.9388
58.219
58.5478
58.9458
59.4904
60.5031
63.5309
77.0086
56.6576
56.6875
56.7473
56.8374
56.9577
57.1082
57.2883
57.4965
57.7294
57.9752
58.1988
58.2962
57.8944
55.3586
42.1417
56.2925
56.3195
56.3736
56.4547
56.5627
56.6968
56.8556
57.0358
57.2297
57.4162
57.5377
57.4475
56.7659
54.6024
49.7841
55.9073
55.9315
55.9798
56.052
56.1479
56.2665
56.4062
56.5642
56.7341
56.9003
57.0222
57.0082
56.6647
55.6886
54.1012
55.504
55.5253
55.5679
55.6316
55.7158
55.8197
55.9424
56.0828
56.2402
56.4134
56.5993
56.7965
57.0011
57.198
57.3366
55.0845
55.1031
55.1402
55.1954
55.2683
55.3582
55.4646
55.5884
55.7342
55.9156
56.1672
56.5783
57.3413
58.7464
60.689
54.6506
54.6666
54.6984
54.7457
54.8076
54.8835
54.9729
55.0772
55.2025
55.3674
55.6228
56.1144
57.2339
59.9201
65.411
54.2043
54.2179
54.2447
54.2843
54.3357
54.3977
54.4693
54.55
54.6423
54.7545
54.9127
55.2132
56.0368
59.1445
73.9667
53.7473
53.7586
53.7809
53.8133
53.8548
53.9036
53.9574
54.0135
54.0673
54.1079
54.1023
53.9476
53.2517
50.2326
35.4349
53.2811
53.2904
53.3086
53.3348
53.3674
53.4043
53.4424
53.4772
53.5005
53.4917
53.3938
53.0566
52.0785
49.499
44.0477
52.807
52.8147
52.8295
52.8504
52.8756
52.9025
52.9279
52.9476
52.9551
52.9354
52.8502
52.6093
52.0156
50.7584
48.8946
52.3263
52.3327
52.345
52.3618
52.381
52.4
52.4156
52.4252
52.4275
52.4229
52.4132
52.4059
52.412
52.4378
52.4669
51.8398
51.8455
51.8561
51.8702
51.8852
51.8981
51.9058
51.9066
51.9038
51.9121
51.973
52.1921
52.7932
54.1136
56.0789
51.348
51.3535
51.3636
51.3765
51.3893
51.3983
51.3991
51.3892
51.3713
51.3631
51.4214
51.7118
52.6731
55.3404
61.0752
50.8511
50.857
50.8679
50.8817
50.8948
50.9024
50.8983
50.8761
50.8312
50.7663
50.7073
50.7643
51.3666
54.4356
70.0733
50.3488
50.3559
50.3691
50.386
50.4026
50.413
50.4085
50.3774
50.3039
50.1636
49.9112
49.4368
48.3457
44.8013
28.8365
49.8402
49.8493
49.8664
49.8891
49.9133
49.9322
49.9354
49.907
49.8221
49.6372
49.2679
48.5366
47.0267
43.7912
37.6455
49.3241
49.3359
49.3586
49.3901
49.4263
49.4608
49.4827
49.4747
49.4088
49.2371
48.8746
48.1758
46.9047
44.8009
42.2051
48.7985
48.8138
48.8435
48.8864
48.9392
48.9966
49.0491
49.0813
49.068
48.9677
48.7134
48.2114
47.3594
46.1512
44.9807
48.2612
48.2803
48.3182
48.3745
48.4476
48.5341
48.628
48.7183
48.7868
48.8036
48.7228
48.489
48.0601
47.474
46.9619
47.7094
47.7324
47.779
47.8498
47.9451
48.065
48.2078
48.3692
48.5406
48.7056
48.837
48.901
48.8684
48.7442
48.6058
47.1403
47.1671
47.2219
47.3067
47.4243
47.5785
47.773
48.0119
48.2978
48.6294
48.9967
49.3787
49.7388
50.023
50.1721
46.5514
46.5813
46.6428
46.7395
46.8768
47.0623
47.306
47.6208
48.0223
48.5269
49.1446
49.8707
50.6604
51.3943
51.8602
45.9405
45.9723
46.0381
46.1429
46.2946
46.5043
46.7881
47.1681
47.6744
48.3441
49.2159
50.3171
51.6193
52.9503
53.8902
45.3065
45.3385
45.4052
45.5127
45.6706
45.8932
46.2017
46.6267
47.2122
48.0193
49.1264
50.6228
52.5566
54.7767
56.5912
44.6491
44.6794
44.7429
44.8464
45.0003
45.2211
45.533
45.9726
46.5952
47.4844
48.7653
50.6235
53.2933
56.8833
60.5704
43.9696
43.996
44.0519
44.1438
44.2824
44.4842
44.774
45.1902
45.7923
46.6761
48.0019
50.0594
53.3894
58.9212
67.1281
43.2706
43.291
43.3347
43.4076
43.5193
43.6846
43.926
44.2775
44.7929
45.5592
46.7288
48.6104
51.9547
59.1001
79.4028
-208.692
-154.58
-135.265
-125.991
-120.575
-117.042
-114.59
-112.826
-111.532
-110.572
-109.863
-109.347
-108.988
-108.761
-108.651
-176.399
-154.396
-139.351
-130.067
-124.117
-120.097
-117.263
-115.206
-113.686
-112.554
-111.712
-111.098
-110.668
-110.396
-110.264
-159.408
-149.376
-139.435
-131.827
-126.317
-122.326
-119.396
-117.213
-115.571
-114.332
-113.402
-112.719
-112.238
-111.933
-111.784
-149.404
-144.292
-137.897
-132.129
-127.46
-123.818
-121.008
-118.842
-117.174
-115.893
-114.919
-114.197
-113.686
-113.359
-113.199
-142.971
-140.096
-135.921
-131.666
-127.887
-124.731
-122.171
-120.125
-118.507
-117.239
-116.261
-115.527
-115.004
-114.667
-114.502
-138.555
-136.803
-133.998
-130.872
-127.88
-125.228
-122.976
-121.111
-119.594
-118.382
-117.431
-116.71
-116.191
-115.855
-115.69
-135.376
-134.24
-132.296
-129.984
-127.635
-125.447
-123.51
-121.853
-120.47
-119.34
-118.441
-117.751
-117.249
-116.923
-116.762
-133.008
-132.235
-130.849
-129.119
-127.278
-125.489
-123.848
-122.403
-121.167
-120.138
-119.306
-118.658
-118.185
-117.874
-117.721
-131.198
-130.653
-129.641
-128.329
-126.882
-125.426
-124.05
-122.806
-121.718
-120.796
-120.04
-119.445
-119.005
-118.716
-118.572
-129.788
-129.393
-128.639
-127.633
-126.489
-125.307
-124.16
-123.099
-122.153
-121.338
-120.66
-120.121
-119.72
-119.454
-119.322
-128.672
-128.382
-127.81
-127.03
-126.122
-125.162
-124.209
-123.31
-122.495
-121.783
-121.183
-120.701
-120.339
-120.099
-119.979
-127.78
-127.563
-127.125
-126.514
-125.79
-125.009
-124.22
-123.462
-122.765
-122.147
-121.622
-121.196
-120.874
-120.658
-120.551
-127.06
-126.897
-126.558
-126.076
-125.496
-124.86
-124.207
-123.571
-122.978
-122.447
-121.99
-121.616
-121.333
-121.142
-121.046
-126.474
-126.352
-126.087
-125.706
-125.239
-124.72
-124.18
-123.648
-123.147
-122.692
-122.298
-121.974
-121.726
-121.558
-121.474
-125.995
-125.903
-125.696
-125.393
-125.017
-124.593
-124.148
-123.704
-123.281
-122.894
-122.556
-122.276
-122.061
-121.916
-121.842
-125.601
-125.533
-125.371
-125.129
-124.826
-124.48
-124.113
-123.743
-123.388
-123.061
-122.772
-122.532
-122.347
-122.222
-122.158
-125.275
-125.226
-125.1
-124.907
-124.662
-124.38
-124.078
-123.771
-123.474
-123.198
-122.954
-122.749
-122.591
-122.483
-122.428
-125.005
-124.971
-124.873
-124.72
-124.523
-124.293
-124.045
-123.791
-123.543
-123.312
-123.106
-122.932
-122.798
-122.706
-122.659
-124.781
-124.758
-124.683
-124.562
-124.404
-124.218
-124.014
-123.805
-123.599
-123.406
-123.234
-123.087
-122.974
-122.896
-122.856
-124.593
-124.58
-124.523
-124.429
-124.302
-124.152
-123.987
-123.815
-123.645
-123.485
-123.341
-123.219
-123.123
-123.057
-123.024
-124.435
-124.43
-124.389
-124.316
-124.216
-124.096
-123.962
-123.822
-123.683
-123.551
-123.432
-123.33
-123.25
-123.196
-123.168
-124.302
-124.304
-124.275
-124.22
-124.143
-124.047
-123.94
-123.827
-123.714
-123.607
-123.509
-123.425
-123.359
-123.314
-123.29
-124.19
-124.197
-124.179
-124.138
-124.079
-124.005
-123.921
-123.831
-123.74
-123.654
-123.574
-123.506
-123.452
-123.415
-123.396
-124.094
-124.105
-124.096
-124.068
-124.025
-123.969
-123.904
-123.834
-123.762
-123.693
-123.63
-123.575
-123.532
-123.502
-123.486
-124.011
-124.026
-124.025
-124.008
-123.978
-123.938
-123.889
-123.836
-123.781
-123.728
-123.678
-123.635
-123.601
-123.577
-123.565
-123.939
-123.958
-123.963
-123.955
-123.937
-123.91
-123.875
-123.837
-123.797
-123.758
-123.72
-123.688
-123.662
-123.643
-123.634
-123.875
-123.897
-123.907
-123.908
-123.901
-123.885
-123.864
-123.839
-123.812
-123.784
-123.758
-123.734
-123.715
-123.702
-123.695
-123.817
-123.842
-123.858
-123.866
-123.868
-123.863