/*--------------------------------*- C++ -*----------------------------------*\
| =========                 |                                                 |
| \\      /  F ield         | OpenFOAM: The Open Source CFD Toolbox           |
|  \\    /   O peration     | Version:  5.x                                   |
|   \\  /    A nd           | Web:      www.OpenFOAM.org                      |
|    \\/     M anipulation  |                                                 |
\*---------------------------------------------------------------------------*/
FoamFile
{
    version     2.0;
    format      ascii;
    class       volScalarField;
    location    "15";
    object      gradTy;
}
// * * * * * * * * * * * * * * * * * * * * * * * * * * * * * * * * * * * * * //

dimensions      [0 -1 0 1 0 0 0];

internalField   nonuniform List<scalar> 
6300
(
1009.46
1028.35
1047.16
1065.82
1084.29
1102.49
1120.39
1137.92
1155.03
1171.66
1187.77
1203.31
1218.23
1232.51
1246.12
0.0420994
0.126292
0.210447
0.294483
0.37824
0.461425
0.543572
0.623984
0.701683
0.775376
0.843439
0.903962
0.954845
0.993979
1.01947
0.0701719
0.21052
0.350861
0.491102
0.631019
0.770179
0.907863
1.04297
1.1739
1.29852
1.41408
1.51727
1.60441
1.67171
1.71576
0.0982374
0.294752
0.491363
0.688027
0.884528
1.08038
1.2747
1.46608
1.65239
1.83069
1.99704
2.1466
2.27376
2.37266
2.43784
0.126255
0.378877
0.631795
0.885092
1.13866
1.39207
1.64444
1.8942
2.13886
2.37474
2.59674
2.79825
2.97133
3.10729
3.1978
0.154159
0.46269
0.771822
1.08185
1.3929
1.70476
2.01673
2.32736
2.63403
2.93258
3.21683
3.47824
3.7059
3.88725
4.00964
0.181849
0.545886
0.910923
1.27756
1.64627
2.01727
2.39031
2.76439
3.13723
3.50464
3.85968
4.19185
4.48664
4.72602
4.89061
0.209191
0.628058
1.04839
1.47115
1.8973
2.32766
2.76277
3.20256
3.64575
4.08893
4.52523
4.94267
5.3226
5.63936
5.86274
0.236037
0.708744
1.18338
1.66131
2.14405
2.63321
3.13046
3.63723
4.15415
4.67994
5.20946
5.73078
6.22149
6.6458
6.95582
0.262244
0.78748
1.31502
1.84661
2.3843
2.93059
3.48852
4.0616
4.65352
5.26704
5.90167
6.54922
7.18649
7.76622
8.21203
0.287693
0.863885
1.44258
2.02575
2.61587
3.21624
3.83129
4.46699
5.1311
5.83278
6.58069
7.37765
8.20873
9.02025
9.69397
0.312329
0.937758
1.56561
2.19785
2.83711
3.48709
4.15325
4.84379
5.57088
6.35201
7.21038
8.17164
9.25018
10.4118
11.4965
0.33618
1.00918
1.68419
2.36287
3.04754
3.74163
4.45068
5.18384
5.95638
6.79373
7.73688
8.84801
10.2083
11.8798
13.7507
0.359381
1.07856
1.79903
2.52183
3.24842
3.98107
4.72383
5.48426
6.27682
7.12934
8.09509
9.27497
10.8547
13.1478
16.5167
0.382153
1.14661
1.91147
2.67693
3.44312
4.21026
4.97913
5.75232
6.53703
7.35141
8.23887
9.30175
10.7873
13.3396
18.8707
1257.95
1268.23
1278.02
1287.34
1296.18
1304.57
1312.54
1320.09
1327.25
1334.06
1340.55
1346.74
1352.67
1358.37
1363.88
1369.22
1374.43
1379.53
1384.57
1389.57
1394.55
1399.55
1404.59
1409.7
1414.89
1420.18
1425.59
1431.13
1436.81
1442.64
1448.62
1454.75
1461.02
1467.44
1473.99
1480.66
1487.44
1494.32
1501.27
1508.29
1515.34
1522.41
1529.48
1536.51
1543.48
1550.36
1557.12
1563.75
1570.21
1576.48
1582.54
1588.37
1593.93
1599.2
1604.15
1608.76
1612.99
1616.8
1620.17
1623.05
1625.4
1627.18
1628.36
1628.89
1628.71
1627.79
1626.06
1623.47
1619.94
1615.41
1609.79
1603
1594.96
1585.57
1574.72
1562.32
1548.26
1532.43
1514.71
1495.01
1473.19
1449.16
1422.8
1394.02
1362.73
1328.87
1292.36
1253.19
1211.34
1166.82
1.02904
1.02684
1.01372
0.990055
0.956563
0.914247
0.864295
0.807988
0.746612
0.681393
0.613446
0.543756
0.473166
0.402388
0.332019
0.262566
0.194478
0.12817
0.0640547
0.00256578
-0.0558216
-0.11058
-0.16113
-0.206851
-0.247109
-0.281303
-0.308916
-0.32958
-0.343132
-0.349648
-0.349443
-0.343021
-0.330982
-0.313903
-0.292214
-0.26613
-0.235641
-0.200585
-0.160788
-0.116224
-0.0671684
-0.0142793
0.0414156
0.0986406
0.156079
0.212616
0.267552
0.320731
0.372564
0.423935
0.476029
0.53011
0.587302
0.648409
0.713815
0.783486
0.857072
0.934093
1.01416
1.09716
1.1834
1.27367
1.36917
1.47137
1.5819
1.70233
1.83398
1.97781
2.1343
2.30348
2.48497
2.6781
2.88201
3.09575
3.31833
3.54862
3.7853
4.02658
4.27008
4.51257
4.74986
4.97673
5.18699
5.37371
5.52954
5.64726
5.7203
5.74336
5.71298
5.62792
1.73245
1.72883
1.7064
1.66581
1.6084
1.53599
1.4507
1.35481
1.25057
1.14009
1.02527
0.907775
0.788989
0.67007
0.551976
0.435508
0.321364
0.210191
0.102639
-0.000600368
-0.0987535
-0.190942
-0.27618
-0.353389
-0.421444
-0.479253
-0.525857
-0.560556
-0.583019
-0.593379
-0.592234
-0.580577
-0.5596
-0.530448
-0.493957
-0.450494
-0.399926
-0.341769
-0.275468
-0.200749
-0.117938
-0.0281523
0.0667
0.164165
0.261665
0.357004
0.44881
0.536793
0.621778
0.705518
0.790335
0.878687
0.972729
1.07396
1.18302
1.29968
1.42308
1.55206
1.68566
1.82349
1.96599
2.11454
2.27132
2.43908
2.62082
2.81942
3.03732
3.27624
3.537
3.81957
4.12314
4.44638
4.78773
5.14557
5.51831
5.90431
6.30161
6.70759
7.11859
7.52945
7.93328
8.32128
8.68279
9.00568
9.27694
9.4836
9.61375
9.65772
9.6091
9.46551
2.46283
2.45785
2.42511
2.36571
2.28177
2.1762
2.05231
1.91361
1.76346
1.605
1.44095
1.27365
1.105
0.936574
0.769605
0.605118
0.443987
0.287021
0.135037
-0.0110637
-0.150244
-0.281281
-0.402757
-0.513069
-0.610493
-0.693296
-0.759902
-0.809106
-0.840294
-0.85363
-0.850122
-0.831512
-0.799952
-0.757519
-0.705704
-0.645054
-0.575105
-0.494645
-0.402238
-0.296897
-0.178717
-0.0492919
0.0882509
0.229664
0.370384
0.506502
0.635591
0.757186
0.872802
0.985565
1.09957
1.21909
1.34782
1.48826
1.64129
1.8062
1.98105
2.16339
2.35109
2.54309
2.73989
2.94357
3.15766
3.38666
3.63544
3.90872
4.2104
4.5432
4.90831
5.30542
5.73295
6.18857
6.66969
7.1739
7.69918
8.24368
8.80536
9.38134
9.96723
10.5564
11.1394
11.7039
12.2341
12.7119
13.1173
13.43
13.6312
13.7053
13.6418
13.4368
3.23308
3.22686
3.18223
3.10094
2.98633
2.84279
2.6753
2.48892
2.2884
2.07802
1.86141
1.64155
1.42083
1.2011
0.983795
0.770039
0.560766
0.356834
0.159132
-0.0313206
-0.213278
-0.385203
-0.545218
-0.69111
-0.820393
-0.930452
-1.01879
-1.08338
-1.12306
-1.13791
-1.12953
-1.10087
-1.05573
-0.997871
-0.929943
-0.852773
-0.765193
-0.664497
-0.547405
-0.411305
-0.255463
-0.0818912
0.104459
0.296389
0.48596
0.666344
0.833388
0.98641
1.12815
1.26405
1.40107
1.54643
1.70629
1.88465
2.08268
2.29863
2.52847
2.76722
3.01053
3.25603
3.50407
3.75782
4.02276
4.30594
4.61502
4.95731
5.33889
5.76384
6.23373
6.74763
7.30252
7.89423
8.51855
9.17206
9.8525
10.5584
11.2886
12.041
12.8112
13.5922
14.3725
15.1358
15.861
16.5224
17.0911
17.537
17.8316
17.9509
17.8784
17.6073
4.05833
4.05101
3.99197
3.88401
3.73235
3.54369
3.32531
3.08438
2.82736
2.55984
2.28638
2.01056
1.7351
1.46202
1.19277
0.928407
0.669768
0.4176
0.172715
-0.063873
-0.290817
-0.506323
-0.708058
-0.893107
-1.05801
-1.19891
-1.31191
-1.39355
-1.44157
-1.45568
-1.43816
-1.39396
-1.32986
-1.25275
-1.16752
-1.07552
-0.97421
-0.858004
-0.720001
-0.554207
-0.357809
-0.132966
0.112548
0.366425
0.61467
0.845296
1.05127
1.23176
1.3918
1.54076
1.69042
1.85276
2.03797
2.25257
2.49813
2.7709
3.06291
3.36433
3.66666
3.96512
4.25986
4.55575
4.86139
5.18772
5.54655
5.94911
6.40472
6.91952
7.49556
8.13059
8.81881
9.55267
10.3251
11.1312
11.9688
12.838
13.7397
14.6743
15.6395
16.6287
17.6295
18.6223
19.5795
20.4661
21.2413
21.8615
22.2841
22.4724
22.4002
22.0564
4.95768
4.94948
4.87195
4.72982
4.53145
4.28714
4.00758
3.70273
3.38119
3.04996
2.71449
2.37879
2.04572
1.71721
1.3945
1.07835
0.769279
0.467715
0.174197
-0.110454
-0.384958
-0.647396
-0.89504
-1.12422
-1.33028
-1.50765
-1.65025
-1.75221
-1.80901
-1.81908
-1.7853
-1.71579
-1.6228
-1.51942
-1.41495
-1.31177
-1.20478
-1.08301
-0.932738
-0.741312
-0.501266
-0.213971
0.108423
0.444386
0.768557
1.05955
1.30562
1.50635
1.67116
1.81625
1.96124
2.12589
2.32705
2.57563
2.87408
3.21519
3.58347
3.95984
4.32802
4.67924
5.01365
5.33929
5.66988
6.02234
6.41471
6.86412
7.38491
7.98659
8.67201
9.43652
10.2689
11.1551
12.0827
13.0444
14.0391
15.0701
16.143
17.2631
18.4325
19.6479
20.8975
22.1593
23.3988
24.5693
25.6139
26.4697
27.0734
27.3683
27.3122
26.8859
5.95639
5.9475
5.84465
5.6563
5.39642
5.0811
4.72602
4.34486
3.94868
3.54591
3.14262
2.74295
2.34951
1.9638
1.58653
1.21788
0.85776
0.506039
0.162722
-0.171824
-0.496641
-0.809928
-1.10876
-1.38877
-1.64397
-1.86657
-2.04725
-2.176
-2.24384
-2.24572
-2.18402
-2.07154
-1.93084
-1.78778
-1.66064
-1.55366
-1.45678
-1.34921
-1.20489
-0.998598
-0.712951
-0.345726
0.0845319
0.539085
0.969965
1.33821
1.62497
1.83238
1.97863
2.09159
2.20343
2.34614
2.54752
2.82652
3.18824
3.61996
4.092
4.56674
5.01342
5.41715
5.77964
6.11532
6.44643
6.79907
7.20027
7.67589
8.24815
8.93256
9.73408
10.6441
11.6411
12.6974
13.7904
14.9096
16.0565
17.2412
18.4777
19.7801
21.1588
22.617
24.1473
25.7276
27.3167
28.8531
30.2576
31.44
32.3064
32.7687
32.7565
32.2339
7.09018
7.08053
6.94019
6.68555
6.34098
5.93216
5.48193
5.00857
4.52565
4.0426
3.56555
3.09813
2.64218
2.19828
1.76619
1.34517
0.934223
0.532349
0.138716
-0.247089
-0.6248
-0.99314
-1.3494
-1.6889
-2.00444
-2.28567
-2.51884
-2.68729
-2.77349
-2.7637
-2.65569
-2.46771
-2.24212
-2.03303
-1.8771
-1.78086
-1.72398
-1.66815
-1.56608
-1.36997
-1.04193
-0.568097
0.0257874
0.667984
1.26167
1.73431
2.05866
2.24659
2.33412
2.36868
2.40129
2.48205
2.65631
2.9584
3.40168
3.96675
4.5967
5.21408
5.76072
6.21447
6.58426
6.89795
7.19207
7.5059
7.87873
8.34852
8.94994
9.70989
10.6398
11.7265
12.9279
14.1867
15.4604
16.7348
18.0193
19.3374
20.7174
22.1872
23.7702
25.4819
27.325
29.2829
31.31
33.3266
35.221
36.8648
38.1211
38.8519
38.9354
38.2986
8.41347
8.40152
8.20014
7.84409
7.37788
6.84272
6.27108
5.68606
5.10289
4.5308
3.97479
3.437
2.91771
2.41598
1.93016
1.45821
0.997919
0.547097
0.103761
-0.333668
-0.766097
-1.19338
-1.61378
-2.02315
-2.4139
-2.77354
-3.0832
-3.31658
-3.44091
-3.42267
-3.24209
-2.91761
-2.52921
-2.20131
-2.00718
-1.95098
-1.98923
-2.05327
-2.06227
-1.93089
-1.58043
-0.962913
-0.102119
0.867136
1.72805
2.34434
2.68916
2.80572
2.76624
2.64898
2.5302
2.48377
2.58147
2.8874
3.44017
4.22052
5.11988
5.96371
6.64214
7.13306
7.47005
7.70912
7.90971
8.12818
8.41797
8.83204
9.42382
10.2428
11.3203
12.6439
14.1326
15.6547
17.1296
18.5455
19.9342
21.3446
22.8281
24.4316
26.1965
28.1575
30.3378
32.7384
35.3188
37.9759
40.5451
42.8476
44.6925
45.8671
46.1514
45.382
10.0174
9.99506
9.68261
9.16105
8.51384
7.8055
7.07907
6.36046
5.66374
4.99541
4.35738
3.74888
3.16761
2.61044
2.07386
1.55419
1.04771
0.550818
0.0600718
-0.427658
-0.914994
-1.40372
-1.89418
-2.38436
-2.86828
-3.3335
-3.75751
-4.10301
-4.31369
-4.31552
-4.03578
-3.45965
-2.72929
-2.17706
-1.93877
-1.98519
-2.21746
-2.51782
-2.7608
-2.80747
-2.50371
-1.70826
-0.386451
1.22203
2.54639
3.34496
3.64807
3.58918
3.31
2.93107
2.55449
2.27752
2.20637
2.46052
3.15053
4.30249
5.72257
6.95101
7.79311
8.2728
8.49634
8.57513
8.60103
8.64717
8.77766
9.05906
9.56993
10.4028
11.6458
13.323
15.2884
17.19
18.8832
20.3948
21.8167
23.2459
24.765
26.4425
28.3396
30.5163
33.0323
35.9341
39.216
42.7505
46.2522
49.488
52.2281
54.163
54.8835
53.9876
12.0765
12.006
11.4657
10.6585
9.73745
8.79402
7.87555
7.0031
6.18347
5.41616
4.69726
4.02137
3.38262
2.77512
2.19311
1.63106
1.08363
0.545636
0.0120062
-0.522227
-1.06189
-1.61151
-2.17494
-2.75453
-3.34949
-3.9527
-4.54475
-5.08346
-5.48708
-5.61367
-5.25612
-4.22367
-2.67278
-1.7007
-1.46036
-1.75174
-2.3476
-3.06492
-3.74189
-4.1886
-4.13492
-3.21152
-1.08357
1.98599
4.12172
5.0589
5.12805
4.68973
3.99726
3.20967
2.43525
1.7748
1.36277
1.4059
2.19557
3.99824
6.60101
8.49441
9.46567
9.78113
9.73082
9.51705
9.26295
9.04446
8.9198
8.9554
9.25213
9.97199
11.3458
13.5867
16.5359
19.025
20.8977
22.3726
23.6884
25.0174
26.4732
28.1366
30.0794
32.3859
35.1705
38.5817
42.7486
47.5714
52.3412
56.8413
60.9224
64.2064
65.9419
65.0761
14.9959
14.6925
13.6328
12.3194
10.9928
9.74621
8.60547
7.56952
6.62772
5.76713
4.97515
4.24036
3.55267
2.90312
2.28367
1.68696
1.10607
0.534295
-0.035041
-0.608804
-1.19425
-1.79921
-2.4322
-3.10231
-3.81854
-4.58764
-5.40847
-6.25806
-7.05901
-7.60861
-7.44796
-5.73392
-1.78252
-0.170433
-0.216056
-1.07961
-2.30261
-3.66985
-5.05424
-6.28994
-7.01817
-6.449
-3.13636
4.0948
7.42298
8.0228
7.33879
6.15625
4.82156
3.46941
2.15205
0.914568
-0.136059
-0.723509
-0.217896
2.54197
8.50103
11.3657
12.0825
11.8161
11.2007
10.517
9.87364
9.30669
8.83126
8.4758
8.32511
8.59962
9.79711
12.8306
18.4457
21.7473
23.485
24.5795
25.5406
26.6059
27.8825
29.4281
31.2952
33.5667
36.4062
40.1405
45.3363
52.4681
58.8181
64.797
70.7636
76.4786
80.7452
80.8642
19.9816
18.4678
16.1644
13.9987
12.1327
10.5455
9.18406
7.9999
6.95464
6.01894
5.17033
4.39123
3.66751
2.98752
2.34127
1.7199
1.1152
0.51929
-0.0758413
-0.678661
-1.29859
-1.9466
-2.63603
-3.38369
-4.21143
-5.14803
-6.23068
-7.5026
-8.99271
-10.6261
-11.8765
-10.4659
2.4763
3.74682
2.20595
0.110047
-2.04997
-4.25005
-6.58067
-9.12194
-11.7695
-13.637
-10.8319
11.8236
14.6527
12.835
10.267
7.8415
5.67068
3.67875
1.75355
-0.214933
-2.30201
-4.42706
-5.87764
-3.52139
14.8566
17.3292
16.1148
14.3531
12.7682
11.4586
10.3738
9.43667
8.56956
7.70095
6.78545
5.89779
5.60418
8.35661
23.686
26.7212
26.9977
26.9775
27.2423
27.8892
28.9035
30.2559
31.9277
33.9285
36.3527
39.5936
45.1352
58.4893
65.8279
72.7691
80.9656
90.8347
101.519
107.929
31.6825
23.3794
18.4973
15.2458
12.8709
11.0192
9.5071
8.23006
7.12358
6.14521
5.26533
4.46225
3.71935
3.02333
2.36306
1.72884
1.11176
0.503238
-0.105462
-0.723747
-1.36234
-2.03418
-2.75579
-3.54951
-4.4473
-5.49778
-6.78
-8.43252
-10.7196
-14.1946
-20.1364
-31.8027
23.5423
11.7124
5.42723
1.39212
-1.73942
-4.642
-7.80336
-11.8003
-17.6438
-27.5528
-47.1115
48.1023
28.5732
18.7273
12.9898
9.15986
6.26217
3.79205
1.4175
-1.17345
-4.41303
-9.10147
-17.0188
-32.6556
44.1154
28.6017
20.9351
16.6351
13.9393
12.0761
10.6613
9.46578
8.31003
6.99367
5.20581
2.34068
-2.97486
-14.2282
46.6298
35.6669
30.9373
28.9648
28.3935
28.643
29.4372
30.6234
32.0861
33.6801
35.1229
35.733
33.6835
73.1718
73.409
78.9324
88.7576
104.015
128.448
171.601
1114.97
1054.72
990.952
923.873
853.714
780.737
705.215
627.433
547.674
466.221
383.352
299.335
214.436
128.91
43.0115
5.47544
5.23734
4.93737
4.58791
4.20232
3.79342
3.37242
2.94833
2.52769
2.1147
1.71146
1.31833
0.934353
0.55756
0.185332
9.20534
8.79757
8.28386
7.68666
7.0298
6.33586
5.62421
4.91011
4.20438
3.51372
2.84121
2.18707
1.54927
0.924191
0.307149
13.0591
12.4637
11.7138
10.845
9.89435
8.89598
7.87846
6.86353
5.86601
4.89455
3.95257
3.03943
2.15143
1.28276
0.426214
17.0961
16.2841
15.2625
14.0851
12.8065
11.4752
10.1301
8.79951
7.5016
6.2459
5.03508
3.8666
2.73423
1.62919
0.541146
21.387
20.3138
18.9666
17.4262
15.7711
14.0679
12.367
10.7027
9.09493
7.55238
6.07524
4.65765
3.28965
1.95861
0.650313
26.0202
24.6169
22.8633
20.8815
18.7834
16.6579
14.5671
12.5491
10.6229
8.79339
7.05582
5.3991
3.80808
2.26527
0.751803
31.1115
29.2698
26.9876
24.4524
21.8227
19.2127
16.6939
14.3034
12.0539
9.9423
7.95551
6.0748
4.2783
2.54255
0.843439
36.8199
34.3629
31.3646
28.1175
24.8419
21.676
18.692
15.9162
13.3467
10.9662
8.749
6.66624
4.68772
2.7832
0.922839
43.3719
39.9971
35.9902
31.8111
27.7513
23.9575
20.4818
17.3223
14.4503
11.8263
9.40793
7.15338
5.02308
2.97965
0.987558
51.1046
46.2624
40.7869
35.3846
30.3937
25.9205
21.9553
18.4406
15.3056
12.4807
9.90283
7.51616
5.27151
3.12474
1.03529
60.5334
53.1597
45.5095
38.5458
32.5177
27.3749
22.9777
19.1789
15.8506
12.8879
10.2063
7.73683
5.42201
3.21248
1.06413
72.3795
60.3331
49.5452
40.7712
33.7557
28.0835
23.4012
19.4463
16.0295
13.0138
10.2975
7.80271
5.46714
3.23898
1.07289
87.0144
66.2465
51.5664
41.2369
33.6499
27.8017
23.0971
19.1752
15.807
12.84
10.1671
7.70923
5.40479
3.20337
1.06132
99.5996
66.0706
49.2362
38.9592
31.8045
26.3758
22.01
18.35
15.1831
12.3719
9.82159
7.4622
5.23936
3.10835
1.03034
0.402885
1.20858
2.01393
2.81831
3.6205
4.41838
5.20871
5.9871
6.74868
7.49061
8.21911
8.96703
9.83701
11.1071
13.4886
0.421777
1.26514
2.10772
2.94836
3.78479
4.61293
5.42583
6.21216
6.95401
7.6237
8.17882
8.55171
8.61336
8.01194
5.39502
0.440797
1.3222
2.20281
3.08127
3.95476
4.81795
5.66124
6.46793
7.20927
7.83619
8.26493
8.35225
7.84987
6.31625
2.977
0.459937
1.37979
2.29936
3.21756
4.13179
5.03665
5.92191
6.76887
7.54379
8.18608
8.58793
8.56205
7.8024
5.87421
2.37472
0.47908
1.43756
2.3968
3.35655
4.31522
5.26882
6.20901
7.11967
7.97021
8.70274
9.20766
9.28117
8.56623
6.52318
2.6404
0.497991
1.49477
2.49383
3.4962
4.50208
5.51016
6.51644
7.51201
8.4784
9.37724
10.1266
10.5477
10.2521
8.44959
3.87687
0.516334
1.55038
2.58851
3.63334
4.6873
5.75259
6.8311
7.92442
9.03333
10.1553
11.2732
12.3117
12.9841
12.2996
7.32227
0.53371
1.6031
2.67848
3.76407
4.86456
5.98567
7.13527
8.32575
9.57897
10.936
12.4746
14.3297
16.6579
19.1303
17.4809
0.549702
1.65164
2.76131
3.88436
5.02738
6.19882
7.41084
8.68326
10.0522
11.5904
13.4557
16.0187
20.2313
28.8228
50.7725
0.563921
1.69477
2.83479
3.9907
5.17036
6.38363
7.64426
8.97345
10.4078
12.0174
13.9518
16.5618
20.7633
29.2379
50.937
0.576041
1.73148
2.89715
4.08048
5.28987
6.53541
7.82987
9.19036
10.6412
12.2186
13.9784
15.9993
18.3271
20.4687
18.0287
0.585816
1.76104
2.94719
4.15205
5.38415
6.65306
7.96941
9.3443
10.7864
12.293
13.8232
15.2232
16.0199
14.8804
8.46555
0.59308
1.78297
2.98417
4.20461
5.45276
6.7376
8.0681
9.45129
10.8866
12.3506
13.758
14.8657
15.0569
12.9551
6.20507
0.597739
1.797
3.0077
4.23782
5.49575
6.79027
8.13001
9.52185
10.9665
12.4472
13.9007
15.1441
15.6858
14.2574
7.87508
0.599759
1.80304
3.01769
4.25162
5.5132
6.81135
8.15552
9.55551
11.0212
12.5622
14.1889
15.9096
17.6825
18.9996
16.0503
0.599156
1.80113
3.01421
4.24612
5.50513
6.80031
8.14206
9.54332
11.0232
12.6175
14.4115
16.6384
19.9952
26.704
44.4692
0.595993
1.79148
2.99758
4.2217
5.4718
6.75676
8.08705
9.47629
10.9454
12.534
14.333
16.5823
19.9795
26.7297
44.4962
0.590384
1.77442
2.96837
4.17914
5.41413
6.68156
7.99087
9.35353
10.7844
12.304
13.9413
15.7286
17.635
19.1043
16.1701
0.582488
1.75044
2.92741
4.11966
5.33382
6.57713
7.85745
9.18315
10.5614
11.992
13.4451
14.7917
15.5935
14.5366
8.26423
0.572509
1.72016
2.87579
4.04486
5.23317
6.44682
7.69233
8.97602
10.3019
11.6641
13.0227
14.2326
14.8426
13.5903
7.48048
0.560685
1.68431
2.81475
3.95663
5.11478
6.29426
7.50051
8.73937
10.0169
11.3383
12.7032
14.0898
15.3844
16.017
12.8432
0.54728
1.6437
2.74569
3.85702
4.98146
6.12296
7.28585
8.47565
9.70126
10.9819
12.3683
14.0108
16.3854
21.0868
33.8392
0.532572
1.59917
2.67011
3.7482
4.83617
5.93665
7.05234
8.18685
9.34719
10.5518
11.8552
13.4229
15.7702
20.5652
33.6126
0.516842
1.55159
2.58949
3.63245
4.6821
5.73962
6.80559
7.8799
8.96212
10.053
11.1584
12.2934
13.4549
14.3123
12.0534
0.50036
1.50179
2.5053
3.51197
4.52246
5.5366
6.55287
7.56725
8.57083
9.54393
10.4406
11.1452
11.3504
10.2231
5.66625
0.483371
1.45053
2.41885
3.38877
4.36018
5.33198
6.3013
7.2619
8.20049
9.08774
9.85586
10.3435
10.1711
8.51538
3.98423
0.466082
1.39843
2.33123
3.26446
4.19755
5.12897
6.05564
6.97165
7.86559
8.71407
9.46571
9.99989
10.0216
8.80426
4.68913
0.448654
1.34598
2.24326
3.14019
4.03597
4.92914
5.81724
6.69658
7.56208
8.40746
9.22632
10.0119
10.7324
11.1053
9.04888
0.431207
1.29353
2.15549
3.01664
3.87613
4.73272
5.58479
6.43098
7.27237
8.1191
9.00978
10.069
11.6845
15.0929
24.5483
0.413815
1.24129
2.06825
2.89417
3.71822
4.53933
5.35628
6.16856
6.97881
7.80004
8.67596
9.73962
11.3911
14.8811
24.4685
0.39652
1.18939
1.9817
2.77292
3.56228
4.34872
5.1309
5.90739
6.67746
7.44285
8.21158
9.00182
9.82062
10.4345
8.79062
0.379334
1.13785
1.89586
2.65291
3.4083
4.16099
4.90934
5.65055
6.3792
7.08319
7.73207
8.24397
8.39225
7.55572
4.1801
0.362246
1.08663
1.81066
2.534
3.25612
3.97618
4.69263
5.40229
6.09794
6.76164
7.34751
7.73845
7.64762
6.43997
3.03101
0.345224
1.03563
1.7259
2.41587
3.10531
3.7938
4.48052
5.16365
5.83871
6.49399
7.09817
7.56733
7.67837
6.85278
3.72427
0.328225
0.98471
1.6413
2.29806
2.9551
3.61257
4.27081
4.9305
5.59309
6.26168
6.94242
7.64475
8.3594
8.8647
7.41745
0.311195
0.933696
1.55654
2.18002
2.80452
3.43073
4.06
4.69522
5.34321
6.0208
6.7715
7.71348
9.18562
12.2324
20.4075
0.294082
0.882424
1.47132
2.06121
2.65269
3.2467
3.84495
4.45097
5.07267
5.72902
6.46761
7.41389
8.91815
12.0384
20.3342
0.276838
0.830749
1.38538
1.94126
2.49906
3.05966
3.62442
4.19571
4.77796
5.38001
6.01935
6.72663
7.52826
8.25016
7.17955
0.259427
0.778558
1.29853
1.81995
2.34343
2.86966
3.39929
3.93274
4.46939
5.00501
5.52377
5.97372
6.19358
5.70652
3.25289
0.241816
0.725765
1.21067
1.69716
2.18585
2.67723
3.17142
3.66746
4.16144
4.64162
5.07586
5.38046
5.3497
4.52842
2.14015
0.223981
0.672296
1.12167
1.57281
2.02635
2.4828
2.94221
3.40354
3.86298
4.31003
4.71785
5.01998
5.05465
4.43842
2.34129
0.205895
0.618077
1.03143
1.44675
1.8648
2.28626
2.71161
3.14085
3.57304
4.00559
4.43314
4.84513
5.21152
5.37674
4.33783
0.187534
0.563028
0.939813
1.31878
1.70084
2.08697
2.47825
2.87605
3.28279
3.70454
4.15913
4.70186
5.50798
7.15113
11.6376
0.168872
0.507073
0.846662
1.18862
1.53402
1.88407
2.24031
2.60496
2.98205
3.38062
3.82382
4.3756
5.22305
6.95087
11.5647
0.149889
0.450144
0.751851
1.05606
1.36393
1.67684
1.99649
2.32517
2.66633
3.02565
3.41302
3.84392
4.32663
4.7463
4.10642
0.130573
0.392198
0.655291
0.920924
1.19031
1.46489
1.74634
2.03667
2.33794
2.65113
2.97193
3.27617
3.47391
3.27741
1.90704
0.11092
0.333224
0.556955
0.783168
1.01308
1.24813
1.49
1.74054
2.00121
2.27128
2.54228
2.78231
2.89489
2.62366
1.40464
0.090942
0.273254
0.456885
0.64283
0.832261
1.02661
1.22761
1.43733
1.65791
1.89074
2.13407
2.37691
2.58235
2.62805
2.00655
0.0706649
0.212363
0.3552
0.500059
0.648015
0.800442
0.959145
1.12656
1.30608
1.50286
1.72615
1.99745
2.38069
3.09571
4.96372
0.0501311
0.150676
0.252105
0.355128
0.460653
0.569904
0.684612
0.80735
0.942239
1.09656
1.28485
1.54022
1.94858
2.76263
4.83018
0.0294
0.0883735
0.147899
0.208455
0.270694
0.335565
0.404486
0.479689
0.56489
0.666653
0.79694
0.976725
1.23469
1.55902
1.55902
0.0085478
0.025686
0.0429772
0.0606088
0.0789057
0.0984078
0.11999
0.145072
0.176029
0.216933
0.274641
0.358919
0.474707
0.580597
0.453152
-0.012334
-0.0371077
-0.0621814
-0.0876984
-0.113719
-0.140194
-0.16694
-0.193628
-0.219744
-0.244455
-0.266114
-0.280772
-0.27841
-0.235795
-0.111853
-0.033142
-0.0996919
-0.16703
-0.235652
-0.306024
-0.378601
-0.453904
-0.532719
-0.616486
-0.707954
-0.811722
-0.932273
-1.05947
-1.10866
-0.746134
-0.0537646
-0.161726
-0.270982
-0.382385
-0.49679
-0.615104
-0.738419
-0.868357
-1.00786
-1.16289
-1.34566
-1.57913
-1.89469
-2.26739
-2.16494
-0.0740856
-0.222859
-0.373437
-0.527023
-0.68483
-0.848119
-1.01832
-1.19733
-1.38843
-1.59854
-1.84435
-2.16895
-2.69017
-3.75605
-6.51942
-0.0939871
-0.282733
-0.473795
-0.668718
-0.869048
-1.07632
-1.29206
-1.51788
-1.75577
-2.00937
-2.28828
-2.62218
-3.10734
-4.06579
-6.63821
-0.113351
-0.340993
-0.571461
-0.806645
-1.04842
-1.29861
-1.55879
-1.83002
-2.11215
-2.40257
-2.69396
-2.97032
-3.19578
-3.25464
-2.55367
-0.132058
-0.397283
-0.66584
-0.939975
-1.22194
-1.51393
-1.81781
-2.13455
-2.46274
-2.79503
-3.11001
-3.35373
-3.39983
-2.97107
-1.52906
-0.149994
-0.45125
-0.75633
-1.06785
-1.38848
-1.72095
-2.06785
-2.43108
-2.81041
-3.19946
-3.57549
-3.8743
-3.93358
-3.39107
-1.6267
-0.167046
-0.502552
-0.842337
-1.18936
-1.54677
-1.91792
-2.30649
-2.71639
-3.15128
-3.61285
-4.09451
-4.56113
-4.88514
-4.65951
-2.75836
-0.183112
-0.550874
-0.923297
-1.30365
-1.69547
-2.10275
-2.53029
-2.98427
-3.47356
-4.0122
-4.62389
-5.34691
-6.21828
-7.09138
-6.40079
-0.198105
-0.595947
-0.998733
-1.40995
-1.8334
-2.27348
-2.73566
-3.22755
-3.76149
-4.36073
-5.07584
-6.02955
-7.55009
-10.609
-18.4535
-0.211963
-0.637574
-1.0683
-1.50772
-1.95974
-2.42881
-2.92032
-3.44158
-4.00399
-4.62871
-5.36197
-6.31843
-7.81342
-10.8031
-18.5276
-0.224645
-0.67564
-1.1318
-1.59671
-2.07421
-2.5685
-3.08427
-3.62695
-4.20311
-4.82123
-5.49299
-6.23317
-7.03861
-7.70878
-6.6426
-0.236138
-0.710107
-1.18919
-1.67692
-2.17699
-2.69322
-3.22945
-3.78899
-4.37301
-4.9764
-5.57638
-6.10246
-6.3576
-5.82014
-3.24293
-0.246451
-0.741009
-1.24056
-1.74854
-2.26849
-2.80399
-3.35839
-3.93393
-4.52937
-5.13384
-5.71095
-6.15977
-6.22686
-5.34786
-2.55754
-0.255611
-0.768426
-1.28605
-1.81181
-2.34914
-2.90158
-3.47258
-4.06496
-4.67936
-5.31016
-5.93449
-6.48204
-6.753
-6.20276
-3.48651
-0.263659
-0.792486
-1.32588
-1.86701
-2.41925
-2.98621
-3.57185
-4.18062
-4.81785
-5.49087
-6.21119
-6.99627
-7.84926
-8.56172
-7.37148
-0.270654
-0.813359
-1.3603
-1.91446
-2.47908
-3.05781
-3.65498
-4.27641
-4.9314
-5.63863
-6.44278
-7.46322
-9.04294
-12.2418
-20.6679
-0.276675
-0.831275
-1.38968
-1.95461
-2.52907
-3.11653
-3.72119
-4.3488
-5.00857
-5.71897
-6.52402
-7.54162
-9.11203
-12.2916
-20.6867
-0.281821
-0.846532
-1.4145
-1.9881
-2.56999
-3.16322
-3.77139
-4.39874
-5.05048
-5.73345
-6.45753
-7.23596
-8.06344
-8.71926
-7.43245
-0.28622
-0.859506
-1.43539
-2.0158
-2.60298
-3.19949
-3.80818
-4.43165
-5.0706
-5.71928
-6.35315
-6.89608
-7.1339
-6.49578
-3.60727
-0.290027
-0.87066
-1.4531
-2.03877
-2.62943
-3.22723
-3.83463
-4.4537
-5.08384
-5.71527
-6.31179
-6.76794
-6.8125
-5.83493
-2.78622
-0.293424
-0.880541
-1.46853
-2.05823
-2.65086
-3.24823
-3.85289
-4.46797
-5.09608
-5.73539
-6.36776
-6.92548
-7.20078
-6.61225
-3.71768
-0.296629
-0.889796
-1.48275
-2.07562
-2.66895
-3.26411
-3.86384
-4.47309
-5.10044
-5.76021
-6.47543
-7.27901
-8.1888
-8.99084
-7.80241
-0.299891
-0.899175
-1.49701
-2.09263
-2.6857
-3.27675
-3.86808
-4.46554
-5.08219
-5.74641
-6.52158
-7.55864
-9.25148
-12.7515
-21.8984
-0.303494
-0.90954
-1.51277
-2.11138
-2.7038
-3.28911
-3.86797
-4.44457
-5.0308
-5.65543
-6.38573
-7.38272
-9.05895
-12.5906
-21.8323
-0.307743
-0.921839
-1.53171
-2.13438
-2.72678
-3.30587
-3.86934
-4.41681
-4.95263
-5.49097
-6.06454
-6.73495
-7.57774
-8.46408
-7.57823
-0.312952
-0.937053
-1.55561
-2.16448
-2.75893
-3.33343
-3.88172
-4.39703
-4.87261
-5.30192
-5.67598
-5.96733
-6.06614
-5.56807
-3.23419
-0.319406
-0.956095
-1.58619
-2.20455
-2.80486
-3.3791
-3.91691
-4.40475
-4.82459
-5.15113
-5.34473
-5.33329
-4.96892
-3.94683
-1.76125
-0.327327
-0.979693
-1.62489
-2.25711
-2.86884
-3.45001
-3.98671
-4.45958
-4.84127
-5.09254
-5.15575
-4.94421
-4.32834
-3.13346
-1.21671
-0.336828
-1.00824
-1.67257
-2.32384
-2.95399
-3.55171
-4.10075
-4.57763
-4.94841
-5.16445
-5.15743
-4.83581
-4.08975
-2.82133
-1.03094
-0.347878
-1.04169
-1.72929
-2.40517
-3.06159
-3.68713
-4.26481
-4.76925
-5.1629
-5.39114
-5.37743
-5.02205
-4.2138
-2.87161
-1.03367
-0.360268
-1.07943
-1.7941
-2.49998
-3.19055
-3.85571
-4.47962
-5.0377
-5.49214
-5.78573
-5.83457
-5.52267
-4.70853
-3.26609
-1.19569
-0.373603
-1.12026
-1.86497
-2.60535
-3.33711
-4.05284
-4.74004
-5.378
-5.93294
-6.35015
-6.54206
-6.37193
-5.63947
-4.09657
-1.58059
-0.387307
-1.16242
-1.93882
-2.71664
-3.49472
-4.26971
-5.03454
-5.77582
-6.46923
-7.07086
-7.50077
-7.61154
-7.13307
-5.60271
-2.41347
-0.400657
-1.20366
-2.01164
-2.82769
-3.6544
-4.49355
-5.34527
-6.20674
-7.06907
-7.91063
-8.6809
-9.26013
-9.35698
-8.26071
-4.38353
-0.412827
-1.2414
-2.07882
-2.93126
-3.80538
-4.70854
-5.64913
-6.6369
-7.68313
-8.79969
-9.99346
-11.2435
-12.4092
-12.8498
-9.74908
-0.422959
-1.27298
-2.13552
-3.01973
-3.93613
-4.89746
-5.92009
-7.02627
-8.24811
-9.63484
-11.2667
-13.2851
-15.9644
-19.8979
-26.5016
70.2046
52.4147
41.6476
34.2387
28.6496
24.1662
20.4141
17.1749
14.3092
11.7217
9.34307
7.1201
5.00995
2.97638
0.987267
25.663
33.4777
31.9078
28.474
24.9049
21.5836
18.5632
15.8163
13.2992
10.969
8.78775
6.72201
4.74231
2.82212
0.936866
11.3371
21.0575
23.4617
22.803
20.9879
18.7917
16.5222
14.298
12.1591
10.1128
8.15212
6.26408
4.4333
2.64356
0.878454
6.00678
13.7178
17.1423
17.9348
17.3354
16.0505
14.4497
12.7201
10.9546
9.19701
7.46596
5.76632
4.09574
2.44788
0.814336
3.6642
9.35476
12.6505
14.033
14.1586
13.5284
12.4663
11.1671
9.74435
8.26273
6.75789
5.24832
3.74234
2.24223
0.746827
2.45897
6.65461
9.48722
11.004
11.5063
11.3062
10.6474
9.69971
8.5749
7.34448
6.05303
4.72778
3.38483
2.0333
0.678094
1.75528
4.90092
7.23758
8.67928
9.34172
9.40246
9.02909
8.35517
7.47871
6.46852
5.37158
4.21948
3.03324
1.82688
0.610039
1.30499
3.70898
5.60936
6.8956
7.59485
7.80002
7.61935
7.15117
6.47531
5.65272
4.72838
3.73485
2.69559
1.62772
0.544226
0.997736
2.8667
4.40757
5.51946
6.19098
6.46543
6.40916
6.09131
5.57371
4.90752
4.13318
3.28192
2.37777
1.43939
0.48185
0.778322
2.25225
3.50361
4.44907
5.06277
5.36042
5.38056
5.17008
4.77525
4.23738
3.59133
2.8657
2.08369
1.26435
0.423746
0.616343
1.79232
2.81203
3.60902
4.15399
4.44805
4.51206
4.37681
4.07607
3.6423
3.10471
2.48859
1.81552
1.10404
0.370424
0.493736
1.44088
2.27509
2.94392
3.41939
3.69539
3.78186
3.69842
3.46921
3.11928
2.67259
2.15098
1.57401
0.959104
0.322117
0.399125
1.16786
1.85295
2.41308
2.82326
3.0743
3.16961
3.12123
2.94613
2.66342
2.29245
1.85181
1.35881
0.829488
0.27884
0.325005
0.952899
1.51758
1.98633
2.33761
2.56132
2.65711
2.63199
2.49775
2.26881
1.96068
1.58897
1.16881
0.714674
0.240442
0.26624
0.781827
1.24881
1.64113
1.94054
2.13713
2.22854
2.21851
2.1151
1.92916
1.67304
1.35976
1.00238
0.61381
0.206659
0.219204
0.644498
1.03187
1.36043
1.61485
1.78595
1.8704
1.86985
1.78974
1.63821
1.42508
1.16115
0.857612
0.525838
0.177155
0.181272
0.533497
0.855761
1.1312
1.347
1.49491
1.57127
1.57641
1.51396
1.39002
1.21239
0.990013
0.732443
0.4496
0.151557
0.150504
0.443296
0.712157
0.943388
1.12627
1.25356
1.32157
1.32988
1.28086
1.17909
1.03077
0.843303
0.624814
0.383914
0.129479
0.125439
0.369709
0.594675
0.789138
0.944131
1.05336
1.11331
1.12315
1.08439
1.00045
0.876331
0.718124
0.53274
0.32762
0.110542
0.104964
0.309522
0.49837
0.662288
0.793763
0.887355
0.939843
0.95017
0.919258
0.849719
0.745547
0.611809
0.454363
0.279628
0.0943841
0.0882144
0.260243
0.41937
0.557958
0.669693
0.749889
0.795638
0.805812
0.780942
0.723024
0.635287
0.521949
0.387987
0.238929
0.0806728
0.0745201
0.219919
0.354627
0.472271
0.567517
0.636333
0.676128
0.68578
0.665566
0.617027
0.542796
0.446405
0.33209
0.204616
0.0691056
0.0633537
0.187016
0.301731
0.402131
0.483687
0.542922
0.577543
0.58648
0.569851
0.528863