/*--------------------------------*- C++ -*----------------------------------*\
| =========                 |                                                 |
| \\      /  F ield         | OpenFOAM: The Open Source CFD Toolbox           |
|  \\    /   O peration     | Version:  5.x                                   |
|   \\  /    A nd           | Web:      www.OpenFOAM.org                      |
|    \\/     M anipulation  |                                                 |
\*---------------------------------------------------------------------------*/
FoamFile
{
    version     2.0;
    format      ascii;
    class       volScalarField;
    location    "15";
    object      T;
}
// * * * * * * * * * * * * * * * * * * * * * * * * * * * * * * * * * * * * * //

dimensions      [0 0 0 1 0 0 0];

internalField   nonuniform List<scalar> 
6300
(
10.0945
10.2831
10.4709
10.6572
10.8416
11.0234
11.2021
11.3771
11.548
11.714
11.8749
12.0301
12.1792
12.3218
12.4578
10.0947
10.2839
10.4723
10.6592
10.8441
11.0265
11.2057
11.3813
11.5526
11.7192
11.8805
12.0361
12.1855
12.3284
12.4645
10.0953
10.2856
10.4751
10.6631
10.8492
11.0326
11.213
11.3896
11.562
11.7296
11.8918
12.0482
12.1983
12.3417
12.4782
10.0961
10.2881
10.4793
10.669
10.8567
11.0419
11.2239
11.4022
11.5761
11.7452
11.9088
12.0664
12.2176
12.3619
12.4989
10.0973
10.2915
10.4849
10.6769
10.8669
11.0542
11.2385
11.4189
11.595
11.7662
11.9317
12.0911
12.2437
12.3892
12.5269
10.0987
10.2957
10.4919
10.6867
10.8795
11.0697
11.2568
11.44
11.6189
11.7927
11.9607
12.1224
12.277
12.424
12.5628
10.1003
10.3008
10.5003
10.6985
10.8947
11.0883
11.2788
11.4655
11.6477
11.8248
11.996
12.1607
12.3179
12.4669
12.6071
10.1023
10.3066
10.5101
10.7123
10.9124
11.1101
11.3046
11.4953
11.6816
11.8628
12.0379
12.2062
12.3667
12.5185
12.6606
10.1045
10.3133
10.5213
10.7279
10.9327
11.1349
11.3341
11.5295
11.7206
11.9066
12.0866
12.2595
12.4243
12.5797
12.7244
10.107
10.3208
10.5338
10.7455
10.9553
11.1627
11.3672
11.5681
11.7647
11.9564
12.1421
12.3208
12.4912
12.6514
12.7997
10.1098
10.3291
10.5476
10.7649
10.9803
11.1935
11.4038
11.6108
11.8137
12.0119
12.2046
12.3905
12.568
12.735
12.8886
10.1128
10.3381
10.5627
10.786
11.0076
11.2271
11.4438
11.6574
11.8673
12.073
12.2737
12.4684
12.6554
12.8318
12.9936
10.116
10.3478
10.5789
10.8088
11.0371
11.2633
11.4869
11.7076
11.9251
12.139
12.3488
12.5539
12.753
12.9432
13.1185
10.1195
10.3583
10.5963
10.8333
11.0686
11.3019
11.5328
11.7611
11.9865
12.2089
12.4285
12.6454
12.8595
13.0694
13.2686
10.1232
10.3694
10.6149
10.8593
11.1021
11.3429
11.5814
11.8173
12.0507
12.2816
12.5107
12.7394
12.9701
13.2062
13.4489
12.5761
12.6789
12.7769
12.8701
12.9586
13.0427
13.1225
13.1982
13.2701
13.3384
13.4035
13.4656
13.5252
13.5824
13.6377
13.6913
13.7436
13.7949
13.8455
13.8957
13.9457
13.9959
14.0465
14.0977
14.1497
14.2027
14.2569
14.3124
14.3692
14.4276
14.4874
14.5486
14.6113
14.6754
14.7409
14.8075
14.8752
14.9438
15.0132
15.0832
15.1536
15.2242
15.2946
15.3647
15.4342
15.5029
15.5703
15.6364
15.7009
15.7634
15.8238
15.8819
15.9373
15.9898
16.0392
16.085
16.127
16.1649
16.1983
16.2268
16.25
16.2676
16.279
16.2839
16.2818
16.2722
16.2545
16.2281
16.1923
16.1464
16.0896
16.0211
15.94
15.8453
15.7361
15.6114
15.47
15.3109
15.1329
14.935
14.7161
14.475
14.2107
13.9223
13.609
13.2699
12.9047
12.5129
12.0945
11.6496
12.583
12.6857
12.7836
12.8766
12.965
13.0488
13.1282
13.2035
13.275
13.3429
13.4076
13.4692
13.5283
13.5851
13.6399
13.6931
13.7449
13.7958
13.8459
13.8957
13.9454
13.9952
14.0454
14.0963
14.148
14.2008
14.2549
14.3102
14.367
14.4253
14.4851
14.5464
14.6092
14.6734
14.7389
14.8057
14.8736
14.9425
15.0122
15.0825
15.1532
15.2241
15.2949
15.3654
15.4353
15.5043
15.5721
15.6386
15.7033
15.7662
15.827
15.8854
15.9412
15.9942
16.0439
16.0902
16.1328
16.1712
16.2051
16.2341
16.2579
16.2761
16.2882
16.2938
16.2924
16.2836
16.2667
16.2413
16.2065
16.1618
16.1062
16.039
15.9592
15.866
15.7583
15.635
15.4952
15.3377
15.1614
14.9651
14.7477
14.5081
14.2452
13.9581
13.6457
13.3074
12.9426
12.551
12.1324
11.6869
12.5967
12.6994
12.7971
12.8899
12.9778
13.061
13.1398
13.2143
13.285
13.352
13.4157
13.4765
13.5346
13.5904
13.6443
13.6966
13.7475
13.7975
13.8468
13.8957
13.9446
13.9937
14.0433
14.0935
14.1447
14.1971
14.2507
14.3058
14.3624
14.4206
14.4804
14.5418
14.6047
14.6692
14.735
14.8022
14.8705
14.9398
15.01
15.0809
15.1523
15.2239
15.2955
15.3667
15.4374
15.5071
15.5757
15.6428
15.7083
15.7719
15.8334
15.8925
15.9491
16.0028
16.0534
16.1007
16.1442
16.1836
16.2186
16.2487
16.2737
16.293
16.3064
16.3134
16.3135
16.3063
16.2912
16.2676
16.2349
16.1924
16.1393
16.0746
15.9976
15.9072
15.8025
15.6823
15.5457
15.3914
15.2183
15.0253
14.8111
14.5745
14.3145
14.0298
13.7196
13.3829
13.0191
12.6277
12.2087
11.7621
12.6176
12.7203
12.8177
12.91
12.9972
13.0795
13.1572
13.2306
13.3
13.3657
13.4281
13.4874
13.5441
13.5985
13.6509
13.7018
13.7514
13.8
13.848
13.8957
13.9434
13.9914
14.0399
14.0892
14.1396
14.1913
14.2443
14.299
14.3553
14.4134
14.4732
14.5347
14.598
14.6628
14.729
14.7967
14.8656
14.9357
15.0067
15.0785
15.1508
15.2235
15.2962
15.3687
15.4405
15.5114
15.5811
15.6493
15.7158
15.7804
15.8428
15.903
15.9607
16.0156
16.0676
16.1162
16.1612
16.2022
16.2388
16.2706
16.2972
16.3184
16.3336
16.3425
16.3448
16.34
16.3275
16.3068
16.2773
16.2381
16.1886
16.1279
16.055
15.9689
15.8686
15.7531
15.6212
15.4719
15.3037
15.1157
14.9064
14.6745
14.4189
14.1382
13.8312
13.4971
13.1349
12.7441
12.3245
11.8762
12.646
12.7486
12.8456
12.9372
13.0234
13.1045
13.1808
13.2526
13.3203
13.3841
13.4446
13.502
13.5567
13.6092
13.6597
13.7087
13.7564
13.8032
13.8495
13.8955
13.9416
13.9881
14.0352
14.0833
14.1325
14.1832
14.2355
14.2896
14.3456
14.4035
14.4634
14.5251
14.5887
14.654
14.7209
14.7893
14.859
14.9299
15.002
15.075
15.1487
15.2229
15.2972
15.3713
15.4448
15.5172
15.5884
15.658
15.7258
15.7916
15.8554
15.9169
15.976
16.0326
16.0863
16.1368
16.1838
16.2269
16.2656
16.2996
16.3285
16.3519
16.3696
16.3811
16.3862
16.3844
16.3754
16.3585
16.3331
16.2985
16.2539
16.1984
16.131
16.0507
15.9565
15.8472
15.7218
15.579
15.4177
15.2364
15.0339
14.8086
14.5592
14.2841
13.9819
13.6515
13.2917
12.9018
12.4815
12.0309
12.6823
12.7848
12.8814
12.972
13.0569
13.1364
13.2107
13.2804
13.3458
13.4073
13.4653
13.5202
13.5725
13.6225
13.6706
13.7172
13.7626
13.8071
13.8512
13.8951
13.9391
13.9837
14.029
14.0754
14.1232
14.1727
14.224
14.2773
14.3329
14.3906
14.4506
14.5127
14.5768
14.6428
14.7104
14.7796
14.8503
14.9224
14.9957
15.0702
15.1457
15.2219
15.2983
15.3746
15.4502
15.5247
15.5978
15.669
15.7383
15.8056
15.8709
15.9339
15.9948
16.0533
16.1092
16.1622
16.2118
16.2575
16.299
16.3357
16.3673
16.3935
16.414
16.4287
16.4371
16.4391
16.4343
16.4221
16.4019
16.3731
16.3347
16.2858
16.2253
16.1523
16.0657
15.9643
15.847
15.7127
15.56
15.3875
15.1938
14.9773
14.7361
14.4686
14.1731
13.8478
13.4915
13.1032
12.6821
12.2284
12.7271
12.8296
12.9255
13.0149
13.0981
13.1754
13.2473
13.3143
13.3768
13.4353
13.4903
13.5422
13.5914
13.6384
13.6836
13.7272
13.7698
13.8116
13.8529
13.8942
13.9358
13.9779
14.021
14.0654
14.1114
14.1592
14.2093
14.2617
14.3167
14.3744
14.4346
14.4973
14.5621
14.629
14.6975
14.7677
14.8395
14.9128
14.9876
15.0639
15.1416
15.2202
15.2995
15.3786
15.4571
15.5341
15.6094
15.6826
15.7536
15.8224
15.8892
15.9539
16.0168
16.0776
16.1362
16.1922
16.2451
16.2942
16.3389
16.3789
16.4137
16.443
16.4668
16.4848
16.4971
16.5034
16.5035
16.4969
16.483
16.4611
16.4303
16.3895
16.3375
16.2733
16.1958
16.104
15.9966
15.8725
15.7305
15.569
15.3865
15.1811
14.9507
14.6934
14.4067
14.0887
13.7374
13.3513
12.9295
12.472
12.7814
12.8838
12.9788
13.0666
13.1475
13.2221
13.2909
13.3545
13.4134
13.4683
13.5196
13.5678
13.6134
13.6569
13.6985
13.7387
13.778
13.8165
13.8547
13.8929
13.9314
13.9707
14.0111
14.0529
14.0966
14.1425
14.191
14.2423
14.2967
14.3542
14.4149
14.4784
14.5444
14.6124
14.6821
14.7534
14.8262
14.9007
14.9771
15.0554
15.1357
15.2176
15.3005
15.3835
15.4656
15.5459
15.6239
15.6992
15.7718
15.842
15.9101
15.9765
16.0414
16.1048
16.1667
16.2265
16.2835
16.3367
16.3856
16.4293
16.4676
16.5003
16.5274
16.5491
16.5654
16.5764
16.582
16.5818
16.5754
16.5618
16.5401
16.5089
16.467
16.4132
16.3465
16.2657
16.1699
16.0579
15.9286
15.7805
15.6118
15.4204
15.2041
14.96
14.6853
14.3772
14.033
13.6505
13.2284
12.7661
12.8463
12.9486
13.0424
13.128
13.206
13.277
13.3418
13.4012
13.4558
13.5062
13.5531
13.597
13.6384
13.6777
13.7153
13.7516
13.7869
13.8217
13.8562
13.8908
13.9259
13.9617
13.9989
14.0376
14.0785
14.1219
14.1683
14.2182
14.2719
14.3295
14.3909
14.4558
14.5235
14.5932
14.6643
14.7367
14.8103
14.8858
14.9635
15.0439
15.1273
15.2133
15.3012
15.3894
15.4765
15.5609
15.6419
15.7193
15.7932
15.8643
15.9332
16.0009
16.0677
16.1341
16.2
16.2646
16.3269
16.3855
16.4392
16.4872
16.5293
16.5653
16.5957
16.6208
16.6411
16.6569
16.6684
16.6755
16.6777
16.674
16.6631
16.6434
16.6133
16.5715
16.517
16.4488
16.3661
16.2681
16.1536
16.0213
15.8694
15.6956
15.4971
15.2704
15.0119
14.7175
14.3835
14.0067
13.5847
13.1167
12.9232
13.0254
13.1176
13.2003
13.2743
13.3407
13.4005
13.4546
13.5039
13.5491
13.5909
13.6298
13.6663
13.7008
13.7338
13.7656
13.7966
13.8271
13.8574
13.8879
13.9189
13.9509
13.9841
14.0191
14.0565
14.0968
14.1406
14.1885
14.2412
14.299
14.3618
14.4291
14.4995
14.5718
14.6446
14.7178
14.7917
14.8673
14.9457
15.028
15.1149
15.2062
15.301
15.3969
15.4908
15.5806
15.665
15.7441
15.8185
15.8893
15.9581
16.0261
16.0945
16.164
16.2348
16.3059
16.3754
16.441
16.5008
16.5536
16.5993
16.6383
16.6713
16.6992
16.723
16.7434
16.761
16.776
16.7882
16.7964
16.7986
16.7926
16.7762
16.7479
16.7068
16.6524
16.5842
16.5017
16.404
16.2901
16.1583
16.0061
15.8303
15.6265
15.3898
15.1145
14.7954
14.4276
14.0071
13.5321
13.0145
13.1166
13.2064
13.2849
13.3535
13.4139
13.4673
13.5149
13.5578
13.5968
13.6326
13.6658
13.6968
13.726
13.7539
13.7808
13.8069
13.8326
13.8583
13.8841
13.9105
13.9379
13.9666
13.9972
14.0302
14.0664
14.1067
14.1519
14.2031
14.261
14.3261
14.3975
14.4729
14.5492
14.6242
14.6976
14.7706
14.8447
14.9222
15.0053
15.0957
15.1941
15.2991
15.4068
15.511
15.6078
15.6957
15.7754
15.8485
15.9172
15.9838
16.0505
16.1194
16.1919
16.2688
16.349
16.4293
16.5048
16.572
16.6299
16.6787
16.7195
16.7539
16.7834
16.8095
16.8336
16.8569
16.8804
16.9041
16.9269
16.9458
16.9565
16.9559
16.9424
16.9157
16.8757
16.8227
16.7567
16.6776
16.5845
16.4762
16.3504
16.2035
16.03
15.8228
15.5744
15.2773
14.924
14.5077
14.0243
13.1236
13.2253
13.3112
13.3835
13.4446
13.4969
13.5421
13.5819
13.6172
13.649
13.678
13.7047
13.7296
13.753
13.7753
13.7967
13.8176
13.8381
13.8586
13.8794
13.9006
13.9228
13.9462
13.9715
13.9992
14.0301
14.0654
14.1065
14.1549
14.2127
14.2811
14.3599
14.445
14.5282
14.6058
14.6781
14.7474
14.817
14.8905
14.9719
15.0648
15.1721
15.2933
15.4213
15.5418
15.6475
15.738
15.8159
15.8847
15.948
16.0092
16.0716
16.1386
16.2132
16.2978
16.3919
16.4899
16.58
16.6566
16.719
16.7692
16.8098
16.8433
16.8722
16.8985
16.9246
16.9524
16.9841
17.0211
17.0628
17.1044
17.1364
17.1539
17.1558
17.1432
17.1174
17.0795
17.0305
16.9708
16.9004
16.8189
16.7248
16.6146
16.4816
16.3148
16.1043
15.84
15.5108
15.1047
14.6118
13.2561
13.3567
13.4357
13.498
13.5483
13.5898
13.6248
13.655
13.6815
13.7052
13.7266
13.7462
13.7644
13.7815
13.7978
13.8134
13.8286
13.8436
13.8585
13.8737
13.8893
13.9056
13.9231
13.9421
13.9632
13.9874
14.0158
14.0502
14.0933
14.1487
14.221
14.313
14.4195
14.5152
14.595
14.6626
14.7236
14.7834
14.8474
14.9215
15.013
15.1298
15.2775
15.4465
15.5935
15.709
15.7983
15.8692
15.9285
15.9814
16.0325
16.086
16.1466
16.22
16.3127
16.429
16.5613
16.6747
16.7614
16.8255
16.8733
16.9098
16.9392
16.9643
16.9879
17.0127
17.0419
17.0798
17.131
17.1986
17.2765
17.337
17.3739
17.3899
17.3894
17.376
17.3522
17.3195
17.2791
17.2322
17.1796
17.122
17.0584
16.9814
16.8696
16.7113
16.4958
16.2081
15.8265
15.3258
13.4235
13.5192
13.5839
13.6299
13.6645
13.6918
13.7142
13.7332
13.7498
13.7644
13.7775
13.7895
13.8007
13.8111
13.821
13.8305
13.8397
13.8488
13.8579
13.8672
13.8767
13.8868
13.8976
13.9094
13.9228
13.9384
13.9573
13.9813
14.0138
14.0605
14.1321
14.2452
14.4093
14.5248
14.6015
14.6565
14.7013
14.7436
14.7894
14.8461
14.9244
15.0431
15.2306
15.5032
15.6902
15.808
15.8848
15.939
15.9811
16.0173
16.0522
16.0899
16.1359
16.1988
16.2934
16.4427
16.6599
16.8074
16.8983
16.9554
16.9932
17.0201
17.0408
17.0583
17.0752
17.0941
17.1189
17.1561
17.217
17.3194
17.4733
17.5714
17.6236
17.6474
17.654
17.6495
17.6372
17.6191
17.5967
17.5718
17.5471
17.5276
17.5213
17.5309
17.4912
17.4002
17.2553
17.0404
16.7196
16.2291
13.6557
13.7261
13.759
13.778
13.7909
13.8007
13.8085
13.815
13.8206
13.8255
13.83
13.834
13.8378
13.8413
13.8446
13.8478
13.8509
13.8539
13.857
13.8601
13.8633
13.8667
13.8704
13.8744
13.879
13.8844
13.8912
13.9002
13.9135
13.9362
13.9834
14.1037
14.469
14.5901
14.6391
14.6648
14.6826
14.6984
14.7158
14.7391
14.7776
14.8571
15.0608
15.683
15.8865
15.9657
16.0036
16.026
16.0419
16.055
16.0676
16.0817
16.1006
16.1315
16.1952
16.3586
16.8585
17.0212
17.0837
17.1126
17.1286
17.139
17.1466
17.153
17.1593
17.1667
17.1777
17.1978
17.2431
17.3658
17.7502
17.8714
17.9138
17.9294
17.9343
17.9338
17.9302
17.9246
17.9177
17.9108
17.9066
17.9139
17.9611
18.1512
18.1862
18.1666
18.1151
18.0248
17.8569
17.4844
11.1315
10.5298
9.89312
9.22347
8.52316
7.79474
7.04092
6.2645
5.46831
4.65515
3.8278
2.98895
2.14124
1.28724
0.429496
11.1678
10.5646
9.92593
9.25398
8.55112
7.82
7.06339
6.28416
5.48517
4.66927
3.83923
2.99776
2.14748
1.29097
0.430735
11.241
10.6345
9.99187
9.31523
8.60721
7.87061
7.10836
6.32346
5.51886
4.69745
3.86203
3.01532
2.15992
1.29839
0.433202
11.3519
10.7405
10.0916
9.40771
8.69172
7.94672
7.17587
6.38236
5.56926
4.73955
3.89606
3.0415
2.17847
1.30945
0.436878
11.5022
10.8838
10.2261
9.53213
8.80509
8.04853
7.26593
6.46073
5.63618
4.79534
3.94108
3.0761
2.20295
1.32405
0.441727
11.6939
11.0662
10.3969
9.68942
8.94785
8.17622
7.37848
6.55835
5.71929
4.86447
3.99676
3.11883
2.23315
1.34204
0.447701
11.9299
11.2901
10.6055
9.88066
9.12052
8.32988
7.51328
6.67479
5.81808
4.94639
4.06259
3.16926
2.26874
1.36322
0.454733
12.2143
11.5585
10.8541
10.107
9.32352
8.50938
7.66982
6.80933
5.93175
5.04033
4.13788
3.22681
2.30931
1.38734
0.462737
12.5522
11.8755
11.1452
10.3697
9.55697
8.71414
7.84715
6.96086
6.05916
5.14523
4.2217
3.29075
2.35431
1.41407
0.471602
12.9507
12.2458
11.4814
10.6694
9.82036
8.9429
8.04366
7.12766
6.19869
5.25966
4.31286
3.36014
2.40307
1.443
0.481193
13.4196
12.6754
11.865
11.0059
10.112
9.19329
8.25679
7.3073
6.34817
5.38176
4.40986
3.43382
2.45477
1.47366
0.491353
13.9728
13.171
12.2971
11.3771
10.4282
9.46131
8.48276
7.49647
6.5048
5.50927
4.51091
3.51046
2.5085
1.5055
0.501899
14.6303
13.7386
12.7752
11.7768
10.7623
9.74079
8.71634
7.69088
6.66518
5.63952
4.61398
3.58856
2.56321
1.53791
0.512636
15.4204
14.3777
13.2881
12.1925
11.1033
10.023
8.95079
7.8854
6.82539
5.76955
4.71686
3.66652
2.61784
1.57028
0.523357
16.3705
15.0635
13.8065
12.6016
11.4353
10.2968
9.17828
8.07438
6.98132
5.89632
4.81732
3.74274
2.67131
1.60198
0.533862
10.1268
10.3802
10.6329
10.8845
11.1345
11.3825
11.6282
11.8712
12.1117
12.3497
12.5864
12.8237
13.0665
13.3254
13.6296
10.1303
10.3905
10.6501
10.9085
11.1653
11.4201
11.6724
11.922
12.1687
12.4126
12.6546
12.8965
13.1428
13.4022
13.6901
10.1338
10.4013
10.6681
10.9336
11.1976
11.4594
11.7186
11.9748
12.2276
12.4768
12.7227
12.9663
13.2101
13.4589
13.7195
10.1376
10.4126
10.6868
10.9599
11.2313
11.5004
11.7668
12.0298
12.2888
12.5432
12.7923
13.0357
13.2737
13.5074
13.7397
10.1415
10.4243
10.7064
10.9873
11.2664
11.5433
11.8173
12.0876
12.3533
12.6132
12.8658
13.109
13.3401
13.5568
13.7591
10.1456
10.4365
10.7268
11.0158
11.3032
11.5882
11.8703
12.1485
12.4217
12.6883
12.9458
13.1904
13.4164
13.6161
13.7837
10.1498
10.4492
10.748
11.0455
11.3415
11.6352
11.9259
12.2128
12.4946
12.7695
13.0346
13.2848
13.511
13.6977
13.8237
10.1542
10.4624
10.7699
11.0764
11.3813
11.6841
11.9841
12.2805
12.5722
12.8575
13.1337
13.3956
13.6328
13.8211
13.9058
10.1587
10.4759
10.7926
11.1083
11.4226
11.7349
12.0448
12.3515
12.6542
12.9518
13.2425
13.5236
13.7886
14.0165
14.1151
10.1634
10.4899
10.8159
11.1411
11.4651
11.7874
12.1076
12.4253
12.7398
13.0507
13.3579
13.6626
13.97
14.3015
14.752
10.1681
10.5042
10.8398
11.1748
11.5087
11.8413
12.1722
12.5011
12.8277
13.1521
13.475
13.7996
14.1347
14.5038
14.964
10.173
10.5188
10.8642
11.2091
11.5533
11.8963
12.2381
12.5784
12.9171
13.2543
13.5909
13.9293
14.2755
14.6427
15.0525
10.1779
10.5335
10.889
11.244
11.5985
11.9522
12.305
12.6568
13.0075
13.3569
13.7054
14.0533
14.4017
14.7518
15.1051
10.1828
10.5485
10.914
11.2792
11.6441
12.0086
12.3726
12.736
13.0986
13.4602
13.8202
14.177
14.5264
14.8586
15.1559
10.1878
10.5635
10.9391
11.3146
11.6901
12.0654
12.4405
12.8155
13.1903
13.5644
13.9371
14.3057
14.6631
14.9894
15.2364
10.1928
10.5785
10.9643
11.3501
11.736
12.1222
12.5085
12.8952
13.2822
13.6695
14.0567
14.4422
14.8211
15.1752
15.4234
10.1978
10.5935
10.9893
11.3854
11.7818
12.1787
12.5762
12.9746
13.374
13.7747
14.1773
14.583
14.9963
15.4345
15.9775
10.2028
10.6084
11.0142
11.4204
11.8272
12.2348
12.6433
13.0532
13.4647
13.8784
14.2956
14.7185
15.1541
15.6207
16.165
10.2077
10.6231
11.0388
11.455
11.872
12.2901
12.7094
13.1305
13.5537
13.9798
14.4096
14.8452
15.2903
15.7529
16.247
10.2125
10.6376
11.063
11.4891
11.9161
12.3444
12.7743
13.2062
13.6407
14.0783
14.5196
14.9651
15.414
15.863
16.3027
10.2172
10.6517
11.0867
11.5225
11.9593
12.3975
12.8376
13.2801
13.7254
14.1742
14.6267
15.0824
15.5376
15.9794
16.3717
10.2218
10.6656
11.1099
11.555
12.0014
12.4493
12.8993
13.3519
13.8076
14.2673
14.7314
15.1999
15.6704
16.13
16.5168
10.2263
10.6791
11.1325
11.5867
12.0423
12.4996
12.9591
13.4213
13.8871
14.3572
14.8328
15.3159
15.8107
16.3308
16.9357
10.2307
10.6923
11.1544
11.6175
12.082
12.5482
13.0168
13.4883
13.9634
14.4431
14.9289
15.4236
15.9333
16.4727
17.077
10.2349
10.705
11.1756
11.6473
12.1203
12.5952
13.0725
13.5527
14.0365
14.5247
15.0188
15.5208
16.035
16.5694
17.1366
10.239
10.7173
11.1962
11.676
12.1573
12.6405
13.126
13.6144
14.1063
14.6022
15.103
15.6094
16.1224
16.6431
17.1714
10.243
10.7292
11.216
11.7038
12.193
12.6841
13.1775
13.6737
14.1731
14.6762
15.1831
15.6932
16.2045
16.7113
17.203
10.2468
10.7406
11.235
11.7304
12.2273
12.726
13.227
13.7306
14.2374
14.7474
15.2607
15.776
16.2895
16.7898
17.2496
10.2505
10.7516
11.2534
11.7561
12.2603
12.7662
13.2745
13.7853
14.2992
14.8163
15.3368
15.8601
16.3834
16.8964
17.3538
10.254
10.7622
11.2709
11.7807
12.2919
12.8049
13.32
13.8378
14.3586
14.8828
15.4109
15.9439
16.4842
17.0414
17.6587
10.2574
10.7723
11.2878
11.8043
12.3222
12.8419
13.3637
13.8881
14.4155
14.9463
15.4814
16.0224
16.5732
17.1444
17.7616
10.2606
10.782
11.304
11.8269
12.3513
12.8774
13.4056
13.9363
14.4699
15.0068
15.5477
16.0939
16.6479
17.2153
17.8052
10.2637
10.7913
11.3194
11.8486
12.379
12.9113
13.4456
13.9823
14.5218
15.0644
15.6103
16.1598
16.7131
17.2703
17.8313
10.2666
10.8001
11.3342
11.8692
12.4055
12.9436
13.4838
14.0263
14.5715
15.1195
15.6702
16.2229
16.7754
17.3226
17.8558
10.2694
10.8085
11.3482
11.8888
12.4308
12.9745
13.5202
14.0684
14.6191
15.1726
15.7286
16.2859
16.8411
17.3846
17.8933
10.2721
10.8165
11.3615
11.9075
12.4548
13.0038
13.555
14.1085
14.6647
15.2239
15.7859
16.3503
16.9147
17.4704
17.9794
10.2746
10.8241
11.3741
11.9251
12.4775
13.0317
13.5879
14.1466
14.7082
15.273
15.8415
16.4145
16.9941
17.5884
18.2335
10.277
10.8312
11.386
11.9418
12.499
13.0579
13.619
14.1827
14.7493
15.3193
15.8937
16.4738
17.0633
17.671
18.3183
10.2792
10.8379
11.3972
11.9575
12.5192
13.0827
13.6483
14.2165
14.7878
15.3626
15.9418
16.5266
17.1196
17.7259
18.3531
10.2813
10.8442
11.4077
11.9722
12.5381
13.1058
13.6757
14.2482
14.8238
15.4028
15.9858
16.5734
17.1665
17.7661
18.3725
10.2833
10.85
11.4174
11.9858
12.5556
13.1273
13.7012
14.2777
14.8572
15.44
16.0264
16.6162
17.2088
17.8014
18.3888
10.2851
10.8554
11.4264
11.9984
12.5718
13.1472
13.7247
14.3049
14.8881
15.4746
16.0644
16.6571
17.2508
17.8401
18.4115
10.2867
10.8603
11.4346
12.0099
12.5867
13.1654
13.7464
14.33
14.9167
15.5067
16.1003
16.697
17.2956
17.891
18.4611
10.2882
10.8648
11.442
12.0204
12.6002
13.1819
13.766
14.3529
14.9428
15.5363
16.1337
16.7354
17.3426
17.9593
18.6055
10.2895
10.8688
11.4487
12.0297
12.6123
13.1968
13.7837
14.3734
14.9664
15.5631
16.164
16.7699
17.3827
18.0069
18.6538
10.2907
10.8723
11.4546
12.038
12.6229
13.2099
13.7993
14.3916
14.9873
15.5868
16.1906
16.7995
17.4147
18.0384
18.6739
10.2917
10.8753
11.4596
12.0451
12.6321
13.2212
13.8128
14.4074
15.0054
15.6073
16.2135
16.8245
17.4406
18.0615
18.6856
10.2925
10.8778
11.4638
12.051
12.6398
13.2307
13.8241
14.4206
15.0206
15.6246
16.233
16.8459
17.4629
18.0821
18.6973
10.2932
10.8799
11.4672
12.0558
12.646
13.2383
13.8333
14.4313
15.033
15.6388
16.2491
16.8641
17.4836
18.1053
18.7191
10.2937
10.8814
11.4698
12.0593
12.6506
13.244
13.8401
14.4394
15.0424
15.6497
16.2617
16.8792
17.5026
18.1337
18.7801
10.294
10.8824
11.4714
12.0617
12.6536
13.2478
13.8447
14.4448
15.0487
15.6571
16.2705
16.8898
17.5161
18.1513
18.7996
10.2942
10.8829
11.4722
12.0628
12.6551
13.2496
13.8469
14.4474
15.0518
15.6608
16.275
16.8954
17.5232
18.1597
18.806
10.2942
10.8828
11.4722
12.0627
12.655
13.2494
13.8467
14.4472
15.0516
15.6607
16.2751
16.8958
17.524
18.161
18.8071
10.294
10.8822
11.4712
12.0614
12.6532
13.2473
13.8441
14.4442
15.0482
15.6567
16.2706
16.8908
17.5186
18.1558
18.8042
10.2936
10.8811
11.4694
12.0588
12.6499
13.2431
13.8391
14.4383
15.0414
15.6489
16.2616
16.8803
17.5064
18.1425
18.7947
10.2931
10.8795
11.4667
12.055
12.6449
13.237
13.8318
14.4297
15.0314
15.6373
16.2482
16.8644
17.487
18.118
18.7681
10.2924
10.8774
11.4631
12.05
12.6384
13.229
13.8221
14.4184
15.0182
15.6222
16.2308
16.8441
17.4615
18.0799
18.686
10.2915
10.8748
11.4588
12.0438
12.6304
13.2191
13.8102
14.4044
15.0021
15.6038
16.21
16.8207
17.4352
18.0502
18.6575
10.2905
10.8718
11.4536
12.0365
12.621
13.2074
13.7962
14.3879
14.983
15.5822
16.1859
16.7946
17.4083
18.0257
18.6435
10.2893
10.8682
11.4477
12.0282
12.6101
13.1939
13.7799
14.3688
14.9611
15.5572
16.1582
16.7648
17.3785
18.0007
18.632
10.288
10.8642
11.441
12.0188
12.5978
13.1787
13.7617
14.3474
14.9362
15.5289
16.1263
16.73
17.3427
17.9692
18.6164
10.2866
10.8598
11.4336
12.0083
12.5843
13.1619
13.7415
14.3236
14.9085
15.497
16.0899
16.6888
17.2971
17.923
18.586
10.285
10.855
11.4256
11.997
12.5696
13.1436
13.7195
14.2976
14.8783
15.462
16.0493
16.6409
17.2391
17.851
18.5097
10.2833
10.8499
11.417
11.9848
12.5537
13.124
13.6959
14.2698
14.8458
15.4244
16.0053
16.5883
17.1713
17.7462
18.2784
10.2814
10.8444
11.4078
11.9719
12.5369
13.1031
13.6709
14.2403
14.8116
15.3849
15.9599
16.5356
17.1088
17.6709
18.2009
10.2795
10.8386
11.3981
11.9582
12.5192
13.0812
13.6445
14.2093
14.7758
15.344
15.9138
16.4844
17.054
17.6177
18.1677
10.2775
10.8326
11.388
11.9439
12.5006
13.0583
13.617
14.1771
14.7387
15.3019
15.8669
16.4339
17.0029
17.5739
18.1468
10.2754
10.8263
11.3775
11.9291
12.4814
13.0345
13.5885
14.1438
14.7003
15.2584
15.8186
16.3818
16.9502
17.5286
18.1251
10.2732
10.8198
11.3666
11.9137
12.4615
13.0099
13.5591
14.1094
14.6607
15.2134
15.768
16.3259
16.8903
17.4705
18.0887
10.271
10.8131
11.3554
11.898
12.441
12.9847
13.529
14.0741
14.62
15.1669
15.7151
16.2652
16.8194
17.3859
18.0022
10.2687
10.8062
11.3439
11.8818
12.4202
12.9589
13.4982
14.0381
14.5785
15.1194
15.6607
16.2015
16.7396
17.2665
17.7443
10.2664
10.7992
11.3322
11.8654
12.3989
12.9327
13.467
14.0016
14.5365
15.0716
15.6064
16.1395
16.6675
17.1811
17.6575
10.264
10.7921
11.3203
11.8487
12.3773
12.9062
13.4354
13.9648
14.4943
15.0239
15.553
16.0809
16.6052
17.1212
17.6204
10.2616
10.7849
11.3083
11.8318
12.3555
12.8794
13.4035
13.9277
14.452
14.9763
15.5005
16.0245
16.5486
17.0728
17.5973
10.2592
10.7776
11.2961
11.8147
12.3335
12.8524
13.3715
13.8905
14.4096
14.9286
15.4478
15.9681
16.4917
17.0239
17.574
10.2567
10.7702
11.2838
11.7975
12.3113
12.8253
13.3393
13.8533
14.3671
14.8807
15.3943
15.9091
16.4286
16.9626
17.5354
10.2542
10.7628
11.2714
11.7801
12.289
12.798
13.3071
13.816
14.3246
14.8326
15.3399
15.8468
16.3552
16.8741
17.4439
10.2517
10.7552
11.2589
11.7626
12.2666
12.7707
13.2748
13.7788
14.2824
14.7849
15.2857
15.7831
16.2744
16.7501
17.1704
10.2492
10.7476
11.2462
11.7449
12.244
12.7432
13.2426
13.7419
14.2407
14.7384
15.2335
15.7237
16.2042
16.6643
17.08
10.2466
10.7399
11.2333
11.727
12.2211
12.7156
13.2103
13.7052
14.1998
14.6934
15.1846
15.6709
16.1481
16.609
17.0441
10.244
10.732
11.2202
11.7089
12.198
12.6877
13.1779
13.6686
14.1595
14.65
15.1389
15.6243
16.1031
16.5715
17.0261
10.2413
10.7239
11.2069
11.6903
12.1744
12.6593
13.1451
13.6318
14.1194
14.6076
15.0955
15.582
16.0653
16.5432
17.0148
10.2385
10.7157
11.1932
11.6712
12.1502
12.6302
13.1115
13.5943
14.0788
14.5651
15.053
15.5419
16.031
16.5192
17.0059
10.2357
10.7071
11.179
11.6516
12.1251
12.6001
13.0767
13.5555
14.037
14.5215
15.0095
15.5014
15.9971
16.4962
16.9976
10.2327
10.6983
11.1643
11.6312
12.0991
12.5687
13.0404
13.5148
13.9928
14.4753
14.9633
15.4582
15.9607
16.4714
16.9886
10.2297
10.6891
11.1491
11.6099
12.072
12.5358
13.0021
13.4716
13.9454
14.4251
14.9123
15.4094
15.9186
16.4418
16.9776
10.2265
10.6796
11.1333
11.5877
12.0435
12.5012
12.9614
13.4252
13.8939
14.3694
14.8543
15.352
15.8668
16.4031
16.9623
10.2232
10.6698
11.1168
11.5646
12.0137
12.4646
12.9181
13.3753
13.8376
14.3072
14.7873
15.2825
15.7998
16.3484
16.9374
10.2198
10.6596
11.0997
11.5406
11.9826
12.4263
12.8723
13.3217
13.7761
14.2376
14.7096
15.1976
15.7108
16.2654
16.8892
10.2163
10.6491
11.0821
11.5158
11.9503
12.3862
12.824
13.2647
13.7095
14.1605
14.6207
15.0951
15.5929
16.1342
16.7749
17.3255
15.6462
14.2339
12.9409
11.7141
10.5294
9.37326
8.23756
7.11674
6.00693
4.9053
3.80967
2.71835
1.62991
0.543122
17.6274
15.9901
14.5395
13.2031
11.9382
10.7207
9.53624
8.37547
7.23212
6.10174
4.98104
3.8675
2.75908
1.65413
0.551158
17.7532
16.2041
14.7657
13.4154
12.1292
10.8891
9.68265
8.50117
7.33839
6.18975
5.05176
3.92171
2.79739
1.67694
0.558736
17.8164
16.341
14.9306
13.5831
12.288
11.0339
9.81162
8.61377
7.43477
6.27028
5.11691
3.9719
2.83297
1.69819
0.565799
17.8534
16.4327
15.0514
13.7143
12.4181
11.1566
9.92348
8.71317
7.52097
6.34303
5.17619
4.01781
2.86565
1.71774
0.572309
17.8775
16.497
15.1414
13.817
12.524
11.2594
10.0194
8.79988
7.59717
6.408
5.22954
4.05937
2.89534
1.73556
0.578246
17.8943
16.5437
15.2095
13.8977
12.6099
11.345
10.1009
8.87483
7.66388
6.46544
5.27708
4.09661
2.92206
1.75163
0.58361
17.9067
16.5786
15.262
13.9617
12.6797
11.4161
10.1699
8.93914
7.72182
6.5158
5.31907
4.12969
2.9459
1.766
0.588414
17.9161
16.6055
15.303
14.0127
12.7365
11.475
10.2279
8.99402
7.77181
6.55965
5.35588
4.15886
2.96699
1.77876
0.592681
17.9233
16.6264
15.3355
14.0536
12.7828
11.5239
10.2767
9.04066
7.81471
6.5976
5.38795
4.18439
2.98553
1.78999
0.596444
17.9291
16.643
15.3614
14.0868
12.8208
11.5644
10.3176
9.08018
7.85139
6.63027
5.41574
4.20662
3.00172
1.79983
0.599743
17.9336
16.6563
15.3824
14.1138
12.8521
11.598
10.3519
9.11361
7.88265
6.6583
5.4397
4.22587
3.01579
1.80839
0.602618
17.9373
16.667
15.3993
14.1359
12.8778
11.626
10.3806
9.14182
7.90921
6.68226
5.46028
4.24247
3.02795
1.81582
0.605112
17.9403
16.6758
15.4132
14.154
12.8991
11.6492
10.4047
9.16563
7.93175
6.70269
5.47791
4.25673
3.03843
1.82222
0.607266
17.9427
16.6829
15.4246
14.169
12.9168
11.6686
10.4249
9.18569
7.95084
6.72008
5.49296
4.26895
3.04743
1.82773
0.609119
17.9447
16.6888
15.434
14.1814
12.9315
11.6849
10.4419
9.2026
7.967
6.73484
5.50579
4.27939
3.05514
1.83245
0.61071
17.9464
16.6936
15.4418
14.1917
12.9437
11.6984
10.4561
9.21686
7.98067
6.74738
5.51671
4.2883
3.06173
1.83649
0.612072
17.9477
16.6977
15.4483
14.2002
12.9539
11.7098
10.468
9.22887
7.99223
6.75801
5.526
4.2959
3.06735
1.83994
0.613236
17.9489
16.701
15.4537
14.2074
12.9625
11.7193
10.4781
9.23902
8.00202
6.76703
5.53389
4.30236
3.07214
1.84289
0.61423
17.9498
16.7038
15.4582
14.2134
12.9696
11.7273
10.4866
9.24759
8.01031
6.77469
5.5406
4.30786
3.07623
1.8454
0.615078
17.9506
16.7062
15.462
14.2184
12.9757
11.7341
10.4938
9.25486
8.01734
6.78119
5.54632
4.31256
3.07971
1.84755
0.615803
17.9513
16.7082
15.4652
14.2227
12.9808
11.7398
10.4999
9.26102
8.02332
6.78674
5.55119
4.31656
3.08269
1.84939
0.616423
17.9519
16.7099
15.4679
14.2263
12.9852
11.7447
10.505
9.26629
8.02843
6.79148
5.55536
4.32
3.08525
1.85096
0.616955
17.9523
16.7113
15.4702
14.2294
12.9889
11.7489
10.5095
9.2708
8.03282
6.79555
5.55895
4.32295
3.08745
1.85232
0.617413
17.9528
16.7125
15.4722
14.232
12.9921
11.7525
10.5133
9.2747
8.03662
6.79908
5.56206
4.32551
3.08936
1.85349
0.617811
17.9531
16.7136
15.474
14.2344
12.9949
11.7556
10.5167
9.27811
8.03993
6.80216
5.56478
4.32775
3.09103
1.85452
0.618159
17.9535
16.7146
15.4755
14.2364
12.9974
11.7584
10.5196
9.28113
8.04287
6.80489
5.56719
4.32974
3.09251
1.85544
0.618467
17.9537
16.7154
15.4769
14.2383
12.9996
11.7609
10.5223
9.28385
8.04552
6.80735
5.56936
4.33153
3.09384
1.85626
0.618744
17.954
16.7162
15.4782
14.24
13.0017
11.7632
10.5248
9.28635
8.04795
6.80961
5.57135
4.33316
3.09506
1.85701
0.618998
17.9543
16.717
15.4794
14.2416
13.0036
11.7654
10.5271
9.28872
8.05025
6.81174
5.57322
4.3347
3.0962
1.85771
0.619236
17.9545
16.7177
15.4806
14.2432
13.0055
11.7676
10.5294
9.29101
8.05247
6.81379
5.57502
4.33618
3.0973
1.85839
0.619465
17.9548
16.7185
15.4819
14.2448
13.0075
11.7697
10.5317
9.29331
8.05468
6.81583
5.5768
4.33764
3.09838
1.85906
0.619689
17.9551
16.7193
15.4832
14.2466
13.0095
11.772
10.534
9.29567
8.05695
6.81791
5.57862
4.33912
3.09948
1.85973
0.619916
17.9554
16.7202
15.4846
14.2484
13.0117
11.7744
10.5365
9.29818
8.05934
6.82009
5.5805
4.34066
3.10061
1.86042
0.620149
17.9557
16.7212
15.4861
14.2505
13.0141
11.7771
10.5393
9.30089
8.0619
6.82242
5.58251
4.34228
3.1018
1.86115
0.620394
17.9561
16.7223
15.488
14.2529
13.0169
11.78
10.5424
9.30389
8.06472
6.82495
5.58468
4.34403