/*--------------------------------*- C++ -*----------------------------------*\
| =========                 |                                                 |
| \\      /  F ield         | OpenFOAM: The Open Source CFD Toolbox           |
|  \\    /   O peration     | Version:  5.x                                   |
|   \\  /    A nd           | Web:      www.OpenFOAM.org                      |
|    \\/     M anipulation  |                                                 |
\*---------------------------------------------------------------------------*/
FoamFile
{
    version     2.0;
    format      ascii;
    class       volScalarField;
    location    "12.5";
    object      gradTx;
}
// * * * * * * * * * * * * * * * * * * * * * * * * * * * * * * * * * * * * * //

dimensions      [0 -1 0 1 0 0 0];

internalField   nonuniform List<scalar> 
6300
(
54.627
54.464
54.1379
53.6487
52.9967
52.1823
51.2068
50.0727
48.784
47.3468
45.7703
44.0669
42.2531
40.3491
38.3793
54.7876
54.6246
54.2985
53.8092
53.1566
52.341
51.3632
50.2252
48.9302
47.484
45.8951
44.1754
42.3413
40.4132
38.4162
55.1087
54.9459
54.62
54.1306
53.4773
52.6596
51.6776
50.5322
49.2256
47.7619
46.1486
44.3965
42.5215
40.5445
38.4918
55.5902
55.4278
55.1025
54.6135
53.9598
53.1401
52.1532
50.9983
49.6757
48.1875
46.5387
44.7386
42.8018
40.7497
38.6108
56.2317
56.0701
55.7462
55.2588
54.606
53.7855
52.7944
51.6297
50.2892
48.7715
47.0781
45.2152
43.1954
41.04
38.7802
57.0323
56.8721
56.5509
56.0669
55.4175
54.599
53.6067
52.4349
51.0776
49.5289
47.7851
45.8468
43.7227
41.4328
39.0117
57.9905
57.8326
57.5159
57.038
56.3957
55.584
54.5961
53.4233
52.055
50.4792
48.6843
46.6623
44.4138
41.9549
39.3235
59.1041
58.9495
58.6393
58.171
57.5408
56.7426
55.7679
54.6049
53.2376
51.6464
49.8085
47.702
45.3132
42.6477
39.7444
60.3696
60.2195
59.9182
59.4635
58.8513
58.0752
57.1257
55.9882
54.6419
53.0579
51.1989
49.0219
46.4871
43.5765
40.3216
61.7825
61.6379
61.348
60.9108
60.3229
59.5788
58.6688
57.5778
56.2813
54.7419
52.905
50.6974
48.0347
44.8477
41.1361
63.3373
63.1991
62.9223
62.506
61.9483
61.2454
60.3904
59.3702
58.161
56.7209
54.9795
52.8257
50.1045
46.6414
42.3369
65.0274
64.896
64.6334
64.2399
63.716
63.0614
62.2745
61.3489
60.269
58.9989
57.4637
55.5193
52.914
49.2747
44.2225
66.8462
66.7213
66.4724
66.1014
65.6114
65.0071
64.2943
63.4792
62.5645
61.5392
60.3546
58.8713
56.7551
53.3186
47.4636
68.787
68.6677
68.4307
68.079
67.6184
67.0582
66.4134
65.7062
64.9678
64.2362
63.5417
62.8534
61.9139
59.7783
53.7977
70.844
70.7289
70.5005
70.1625
69.7218
69.191
68.5919
67.9614
67.3613
66.8932
66.7197
67.084
68.2659
70.0802
68.5401
36.5402
34.8584
33.1859
31.5397
29.936
28.3898
26.9143
25.5209
24.2186
23.0149
21.915
20.9227
20.0401
19.2681
18.6064
18.0541
17.6092
17.269
17.0303
16.8891
16.8406
16.8793
16.999
17.1922
17.4509
17.7659
18.1274
18.5249
18.9476
19.3846
19.8256
20.2608
20.6815
21.0797
21.4486
21.7817
22.073
22.3167
22.5067
22.6372
22.7023
22.6974
22.6187
22.4641
22.2335
21.9283
21.5513
21.1061
20.5962
20.0245
19.3926
18.7007
17.9475
17.1304
16.2462
15.2913
14.2622
13.156
11.9703
10.7031
9.35226
7.91514
6.38813
4.76613
3.04238
1.20835
-0.746037
-2.8321
-5.06194
-7.44787
-10.002
-12.7357
-15.6595
-18.7829
-22.1141
-25.6602
-29.4269
-33.4183
-37.6366
-42.0811
-46.7477
-51.6277
-56.7074
-61.9668
-67.3796
-72.9124
-78.5258
-84.175
-89.8111
-95.3831
36.5504
34.8437
33.1466
31.477
29.8519
28.2867
26.7951
25.3883
24.0757
22.8643
21.7592
20.7638
19.8799
19.1082
18.4482
17.8987
17.4576
17.1222
16.8892
16.7548
16.7142
16.7621
16.8922
17.0973
17.369
17.6983
18.0749
18.4879
18.9261
19.3781
19.8331
20.281
20.7129
21.1212
21.4992
21.8409
22.1408
22.3931
22.5917
22.7302
22.8025
22.8028
22.727
22.5728
22.34
22.0308
21.6487
21.1984
20.6845
20.1104
19.4783
18.7883
18.0387
17.2265
16.3474
15.3974
14.3726
13.27
12.0873
10.8231
9.4761
8.04428
6.52464
4.91245
3.20101
1.38156
-0.556458
-2.62506
-4.83707
-7.20554
-9.74312
-12.4616
-15.3718
-18.4831
-21.804
-25.3417
-29.1024
-33.0908
-37.3099
-41.7602
-46.4389
-51.3387
-56.447
-61.7444
-67.2047
-72.7943
-78.4722
-84.1916
-89.901
-95.5463
36.5713
34.8136
33.0662
31.3489
29.6802
28.0766
26.5524
25.1192
23.786
22.5596
21.4445
20.4433
19.5574
18.7866
18.1301
17.5863
17.1529
16.8271
16.6056
16.4846
16.4598
16.5259
16.6768
16.9055
17.2036
17.5617
17.9691
18.4139
18.8839
19.3665
19.8499
20.3234
20.7776
21.2055
21.6011
21.9596
22.2763
22.5459
22.7622
22.9179
23.0052
23.0169
22.9474
22.7937
22.5558
22.2372
21.8435
21.3817
20.8585
20.2791
19.6466
18.9609
18.2196
17.418
16.5503
15.6108
14.5946
13.4986
12.3212
11.0621
9.72164
8.29956
6.79414
5.20147
3.51499
1.72543
-0.178889
-2.21147
-4.38681
-6.71951
-9.22345
-11.9112
-14.7939
-17.8811
-21.1811
-24.7015
-28.4491
-32.43
-36.649
-41.1092
-45.8104
-50.7482
-55.9125
-61.2857
-66.842
-72.5467
-78.3565
-84.2202
-90.0804
-95.8768
36.6047
34.7671
32.9411
31.1495
29.4133
27.7509
26.1775
24.7048
23.3416
22.0938
20.9647
19.9561
19.068
18.2996
17.649
17.1142
16.6925
16.3809
16.1764
16.0754
16.0737
16.1667
16.3487
16.613
16.9512
17.3536
17.8085
18.3029
18.8226
19.3531
19.8804
20.3924
20.8796
21.3353
21.7555
22.1375
22.4786
22.7746
23.0191
23.203
23.3159
23.3471
23.2883
23.1347
22.8871
22.5509
22.1356
21.6526
21.1125
20.5237
19.8906
19.213
18.4866
17.704
16.856
15.9339
14.9311
13.8439
12.6721
11.4178
10.0843
8.67451
7.18901
5.62536
3.97723
2.23444
0.383322
-1.5923
-3.70987
-5.98674
-8.43883
-11.0799
-13.9212
-16.972
-20.2403
-23.7335
-27.4592
-31.4254
-35.6399
-40.1098
-44.8398
-49.8303
-55.0756
-60.5615
-66.2636
-72.146
-78.1613
-84.2513
-90.3494
-96.3842
36.6533
34.7022
32.7649
30.8688
29.0389
27.2959
25.6562
24.1317
22.7301
21.4558
20.3106
19.2944
18.4056
17.6419
17.0006
16.4785
16.0726
15.78
15.5976
15.5223
15.5506
15.6786
15.9016
16.2133
16.6058
17.069
17.5903
18.1547
18.7451
19.3433
19.932
20.4964
21.026
21.5155
21.9641
22.3735
22.745
23.0767
23.3622
23.5896
23.7432
23.8062
23.7645
23.6105
23.3449
22.9776
22.5245
22.0047
21.4359
20.8314
20.1979
19.5346
18.834
18.0834
17.2676
16.3727
15.3885
14.3107
13.1413
11.887
10.5566
9.15807
7.69613
6.17063
4.57562
2.89931
1.12476
-0.768709
-2.8035
-5.00149
-7.38189
-9.95988
-12.7465
-15.7494
-18.9751
-22.43
-26.1222
-30.0622
-34.262
-38.7349
-43.4927
-48.5441
-53.8907
-59.5243
-65.4236
-71.5519
-77.8563
-84.2684
-90.7072
-97.0838
36.7213
34.6159
32.5277
30.4916
28.5379
26.6908
24.9679
23.3804
21.9341
20.631
19.47
18.4484
17.5623
16.8074
16.1795
15.6746
15.2891
15.0197
14.8639
14.8192
14.8832
15.0533
15.326
15.6964
16.1578
16.7
17.3094
17.9684
18.6554
19.3465
20.0179
20.6497
21.2292
21.7536
22.2282
22.6632
23.0675
23.4446
23.7881
24.0815
24.2999
24.415
24.4017
24.2458
23.9485
23.5268
23.0087
22.4265
21.8098
21.18
20.5472
19.9093
19.2528
18.5558
17.7927
16.9396
15.9799
14.9087
13.7323
12.4655
11.1267
9.73255
8.29443
6.81572
5.29088
3.7055
2.03733
0.258365
-1.66209
-3.75348
-6.04024
-8.53925
-11.2597
-14.2057
-17.3792
-20.7839
-24.4278
-28.3239
-32.4901
-36.9484
-41.7218
-46.8313
-52.291
-58.1028
-64.2519
-70.7022
-77.3941
-84.2449
-91.1519
-97.9997
36.8154
34.5034
32.2142
29.9942
27.8819
25.9057
24.0836
22.4245
20.9309
19.6004
18.4278
17.4064
16.5292
15.7893
15.1808
14.6982
14.3375
14.0953
13.9696
13.959
14.0625
14.2795
14.6089
15.0482
15.5926
16.2334
16.9564
17.741
18.5592
19.3773
20.1601
20.8772
21.5111
22.0625
22.5487
22.9959
23.4286
23.8598
24.2851
24.6804
25.0045
25.2076
25.2432
25.0838
24.7305
24.2139
23.5841
22.8971
22.2018
21.5321
20.9032
20.3099
19.7289
19.1228
18.4468
17.6591
16.7316
15.6577
14.4528
13.1472
11.7759
10.37
8.95087
7.52694
6.09307
4.63071
3.10935
1.48912
-0.274504
-2.22408
-4.39282
-6.79943
-9.44813
-12.3339
-15.4497
-18.793
-22.3697
-26.1956
-30.2967
-34.7069
-39.4658
-44.613
-50.1826
-56.1941
-62.6448
-69.5025
-76.7008
-84.138
-91.6795
-99.1681
36.9464
34.3565
31.7995
29.3403
27.0289
24.8977
22.9632
21.2295
19.692
18.3416
17.1669
16.1559
15.2975
14.5816
13.9999
13.5458
13.2144
13.0027
12.9091
12.9337
13.0777
13.3433
13.7328
14.248
14.888
15.6476
16.5142
17.4644
18.4621
19.4583
20.396
21.2235
21.9109
22.4643
22.9243
23.3486
23.7907
24.2826
24.8244
25.3807
25.8826
26.2401
26.3647
26.2
25.7466
25.0629
24.2412
23.3788
22.5558
21.8249
21.207
20.6919
20.2406
19.7897
19.2611
18.5793
17.6933
16.5948
15.3179
13.9229
12.4744
11.0262
9.61386
8.2522
6.93601
5.6407
4.32356
2.92625
1.38081
-0.379041
-2.40278
-4.71084
-7.2949
-10.1304
-13.1922
-16.4656
-19.952
-23.6705
-27.6571
-31.9626
-36.6493
-41.7854
-47.4363
-53.6513
-60.4498
-67.8102
-75.6616
-83.8784
-92.2806
-100.645
37.1314
34.1609
31.2427
28.4722
25.915
23.6055
21.5531
19.7509
18.1828
16.8291
15.6694
14.6851
13.8598
13.1799
12.6346
12.2159
11.9185
11.7393
11.6779
11.7358
11.9172
12.228
12.6754
13.2674
14.0106
14.9072
15.9507
17.1187
18.3667
19.6224
20.79
21.7708
22.5028
22.9998
23.3504
23.6749
24.0802
24.6324
25.3421
26.1583
26.9676
27.6071
27.9017
27.7308
27.0934
26.1096
24.9562
23.8027
22.7766
21.9541
21.3619
20.9814
20.7511
20.5676
20.2952
19.7928
18.9606
17.7879
16.3526
14.7752
13.172
11.6305
10.2035
8.91172
7.74861
6.68188
5.65304
4.57655
3.34481
1.84597
-0.00325339
-2.22471
-4.77934
-7.60091
-10.6297
-13.8308
-17.1994
-20.7587
-24.5576
-28.6684
-33.1844
-38.2155
-43.8765
-50.2666
-57.444
-65.4091
-74.0938
-83.3495
-92.9336
-102.516
37.3993
33.8887
30.4718
27.2957
24.4433
21.9418
19.7816
17.9342
16.3643
15.0364
13.9188
12.9847
12.2121
11.5837
11.0864
10.7111
10.4518
10.306
10.2741
10.3598
10.5701
10.9153
11.4092
12.0685
12.9115
13.9549
15.207
16.6573
18.2594
19.9124
21.452
22.6756
23.432
23.7451
23.8134
23.8836
24.1573
24.7543
25.7054
26.9447
28.2962
29.4696
30.1081
29.9321
28.9381
27.3997
25.6703
24.042
22.7035
21.7509
21.2109
21.0541
21.1935
21.4727
21.66
21.4803
20.7176
19.3585
17.5915
15.6642
13.7802
12.0696
10.5979
9.38571
8.42214
7.66829
7.05092
6.45022
5.69333
4.57543
2.93227
0.741273
-1.87925
-4.77279
-7.81866
-10.9546
-14.1715
-17.5011
-21.0083
-24.7898
-28.9768
-33.7373
-39.2655
-45.7466
-53.3025
-61.9695
-71.7018
-82.3456
-93.5863
-104.919
37.8011
33.4802
29.3529
25.6517
22.4652
19.7854
17.5586
15.7172
14.1962
12.94
11.9035
11.0512
10.3562
9.79809
9.36223
9.03861
8.8213
8.7081
8.70052
8.80395
9.02816
9.38801
9.90428
10.6046
11.5235
12.7013
14.1774
15.9765
18.0778
20.3652
22.5681
24.2522
24.9985
24.8419
24.2724
23.7986
23.7676
24.3653
25.6526
27.5685
29.8799
32.1014
33.4862
33.31
31.5658
28.9637
26.2376
23.8633
22.0738
20.9527
20.5073
20.6994
21.4337
22.5092
23.5526
24.0065
23.3328
21.5158
19.0607
16.4901
14.1384
12.1641
10.6182
9.50133
8.79333
8.4579
8.42454
8.5486
8.5615
8.06112
6.65659
4.32573
1.41402
-1.72516
-4.87765
-7.9617
-10.9809
-13.9872
-17.0636
-20.3265
-23.9424
-28.1525
-33.2811
-39.6774
-47.5596
-56.9942
-67.9951
-80.4797
-94.1034
-108.084
38.4338
32.7911
27.6189
23.2655
19.7563
16.9762
14.7803
13.0381
11.6463
10.5268
9.62219
8.89086
8.30265
7.83603
7.47599
7.21267
7.04049
6.95777
6.96671
7.07379
7.29056
7.63508
8.13396
8.8253
9.76238
11.0174
12.6823
14.86
17.6274
20.9388
24.4305
27.1782
27.8643
26.5324
24.5925
23.0751
22.4719
22.9821
24.6936
27.6218
31.5918
35.937
39.1107
38.9445
35.4276
30.705
26.2976
22.8416
20.4807
19.1807
18.8852
19.5633
21.1818
23.591
26.2934
28.1554
27.5936
24.5911
20.6956
17
13.9528
11.6412
10.0203
9.02793
8.62774
8.81226
9.57119
10.8068
12.1685
12.8486
11.7146
8.74647
5.03479
1.34171
-2.03506
-5.06181
-7.80865
-10.3717
-12.8498
-15.3544
-18.0518
-21.244
-25.4702
-31.4675
-39.5797
-49.7618
-62.1498
-76.9715
-94.1041
-112.41
39.4984
31.4229
24.7044
19.663
15.9964
13.325
11.3476
9.85397
8.7037
7.8035
7.091
6.52401
6.07365
5.72014
5.45016
5.25517
5.13054
5.07513
5.0913
5.18536
5.3687
5.65955
6.08615
6.69179
7.54306
8.74267
10.4482
12.8935
16.3931
21.2518
27.3631
33.0718
33.6346
29.0973
24.3034
21.0341
19.5718
19.8682
21.9817
26.1738
32.7621
41.4584
49.543
49.4027
41.0241
31.9915
24.9864
20.2419
17.359
15.9615
15.8603
17.0722
19.7904
24.25
30.2434
35.7936
35.3682
28.9513
22.0419
16.576
12.7072
10.1233
8.51707
7.70145
7.61986
8.3392
10.0311
12.883
16.7568
20.2477
19.4135
14.2377
8.62864
3.95306
0.303547
-2.56485
-4.90075
-6.87843
-8.59732
-10.104
-11.4479
-12.8461
-15.108
-20.211
-28.6181
-39.3512
-52.7983
-70.1334
-92.4124
-118.657
41.4501
28.0996
19.3738
14.0798
10.8026
8.67387
7.21768
6.17502
5.40064
4.80959
4.34997
3.9889
3.70489
3.48374
3.31609
3.19611
3.1207
3.08922
3.10348
3.16817
3.29178
3.4883
3.78025
4.20431
4.8218
5.73909
7.14829
9.40861
13.2008
19.7602
30.8741
46.3744
46.7477
32.0303
21.8177
16.3902
14.1385
14.1368
16.2758
21.2744
30.8955
47.8588
71.8174
71.722
47.5609
30.3572
20.419
14.9609
12.0979
10.875
10.9438
12.4118
15.8905
22.6997
34.8303
52.0357
51.7693
34.0198
21.3088
13.8513
9.6112
7.19703
5.87512
5.3177
5.45842
6.46531
8.82045
13.4874
21.8958
33.8746
33.3637
20.3523
10.8781
5.08675
1.51737
-0.834595
-2.50851
-3.75755
-4.6501
-5.08771
-4.76546
-3.20379
-0.653838
-4.19588
-14.3062
-25.0314
-37.8465
-56.1742
-85.0076
-128.404
45.3551
18.1151
9.10071
5.59177
3.95452
3.05392
2.49202
2.10946
1.83334
1.62618
1.46686
1.34264
1.24546
1.17012
1.11324
1.07272
1.04748
1.03732
1.04291
1.06599
1.10974
1.17947
1.28395
1.43811
1.66863
2.02694
2.62249
3.71741
6.02305
11.7093
28.0674
81.4579
81.5892
28.4752
12.4406
7.17243
5.4645
5.32242
6.45131
9.71762
18.4549
44.1841
128.727
128.693
44.0772
18.2592
9.39956
5.94217
4.47466
3.92793
4.01221
4.85529
7.19418
13.4857
32.1084
93.4353
93.3444
31.8318
13.0098
6.4933
3.88543
2.69769
2.13211
1.92845
2.04951
2.64977
4.28051
8.70358
21.8927
65.4858
65.3137
21.3726
7.82393
3.0207
0.978061
-0.0806958
-0.727982
-1.14986
-1.35784
-1.16536
0.132468
5.01568
22.5731
21.278
0.891864
-7.70124
-14.9555
-27.0846
-56.6299
-145.12
-101.37
-107.676
-113.663
-119.268
-124.442
-129.151
-133.373
-137.1
-140.33
-143.07
-145.33
-147.12
-148.451
-149.333
-149.773
-101.61
-107.992
-114.042
-119.696
-124.905
-129.634
-133.865
-137.592
-140.817
-143.547
-145.796
-147.575
-148.897
-149.772
-150.208
-102.099
-108.635
-114.814
-120.566
-125.842
-130.611
-134.858
-138.583
-141.793
-144.502
-146.726
-148.482
-149.785
-150.646
-151.074
-102.855
-109.633
-116.01
-121.91
-127.284
-132.106
-136.37
-140.085
-143.267
-145.938
-148.122
-149.839
-151.11
-151.949
-152.365
-103.909
-111.028
-117.679
-123.776
-129.274
-134.155
-138.428
-142.115
-145.247
-147.858
-149.979
-151.639
-152.863
-153.669
-154.069
-105.311
-112.89
-119.897
-126.239
-131.876
-136.809
-141.068
-144.697
-147.746
-150.263
-152.292
-153.872
-155.031
-155.791
-156.168
-107.135
-115.32
-122.777
-129.403
-135.178
-140.134
-144.334
-147.854
-150.771
-153.151
-155.052
-156.521
-157.592
-158.293
-158.639
-109.499
-118.477
-126.482
-133.416
-139.296
-144.21
-148.275
-151.612
-154.328
-156.514
-158.24
-159.562
-160.521
-161.145
-161.453
-112.587
-122.602
-131.256
-138.479
-144.375
-149.13
-152.942
-155.987
-158.412
-160.331
-161.827
-162.962
-163.779
-164.309
-164.57
-116.709
-128.087
-137.458
-144.864
-150.593
-154.991
-158.37
-160.978
-163
-164.567
-165.771
-166.674
-167.321
-167.738
-167.943
-122.412
-135.576
-145.619
-152.923
-158.137
-161.865
-164.564
-166.551
-168.037
-169.161
-170.009
-170.64
-171.088
-171.375
-171.516
-130.754
-146.183
-156.517
-163.066
-167.164
-169.764
-171.465
-172.619
-173.433
-174.025
-174.462
-174.783
-175.009
-175.155
-175.226
-144.027
-161.88
-171.194
-175.656
-177.684
-178.559
-178.907
-179.023
-179.047
-179.04
-179.026
-179.014
-179.008
-179.004
-179.003
-168.02
-186.11
-190.72
-190.676
-189.352
-187.875
-186.574
-185.516
-184.688
-184.055
-183.582
-183.237
-182.997
-182.846
-182.774
-220.183
-223.814
-214.896
-206.969
-201.169
-197.009
-193.993
-191.775
-190.13
-188.907
-188.004
-187.348
-186.893
-186.606
-186.467
72.8322
72.7196
72.4956
72.1635
71.7296
71.2058
70.6148
69.9981
69.4317
69.0562
69.1371
70.2097
73.5061
82.5958
111.093
74.7157
74.6043
74.3823
74.0512
73.6149
73.0819
72.4695
71.8125
71.1794
70.7033
70.6438
71.5045
74.2444
80.494
91.2866
76.6743
76.5638
76.3424
76.0096
75.5651
75.0107
74.3528
73.6082
72.8157
72.059
71.5093
71.4922
72.5432
75.2348
79.0074
78.7073
78.598
78.3777
78.0431
77.5892
77.0091
76.2941
75.435
74.425
73.2686
72.0025
70.736
69.7003
69.2222
69.3804
80.8141
80.7069
80.4899
80.1571
79.6985
79.0986
78.3331
77.3643
76.1336
74.5518
72.4936
69.8175
66.4681
62.7655
59.8957
82.9928
82.8898
82.6801
82.3558
81.9035
81.3006
80.5109
79.4733
78.0838
76.1634
73.4114
69.3644
63.479
55.7285
48.451
85.2408
85.1443
84.9473
84.641
84.2102
83.6299
82.8583
81.8243
80.4003
78.3501
75.2263
70.1858
61.7832
48.3611
31.9855
87.5533
87.4661
87.2878
87.01
86.6182
86.0893
85.3856
84.4436
83.1489
81.28
78.3697
73.3399
63.5713
43.043
4.18167
89.9239
89.8486
89.6948
89.4553
89.1187
88.6675
88.076
87.3054
86.2936
84.9307
82.9825
79.7823
72.8294
50.4546
-50.5748
92.3442
92.2832
92.1585
91.9653
91.6958
91.3403
90.8882
90.3321
89.679
88.9855
88.4621
88.8281
92.7949
112.486
211.811
94.8044
94.7592
94.6671
94.5252
94.3297
94.0775
93.7702
93.4233
93.0895
92.9194
93.3214
95.3704
101.838
119.212
155.947
97.2934
97.265
97.2073
97.1193
96.9998
96.8501
96.6772
96.5029
96.3831
96.4533
97.0342
98.841
103.305
112.488
125.634
99.7994
99.7883
99.7658
99.7321
99.6879
99.6357
99.5824
99.542
99.5414
99.6296
99.8929
100.463
101.492
103.009
104.493
102.31
102.317
102.329
102.349
102.378
102.419
102.476
102.551
102.635
102.681
102.536
101.763
99.3369
93.5501
84.424
104.814
104.837
104.884
104.957
105.057
105.189
105.354
105.55
105.75
105.863
105.612
104.207
99.5127
86.4069
58.0608
107.3
107.339
107.419
107.541
107.71
107.931
108.208
108.543
108.923
109.294
109.485
108.932
105.527
89.8443
12.0565
109.755
109.809
109.92
110.09
110.325
110.631
111.019
111.502
112.098
112.848
113.873
115.634
120.065
136.407
214.406
112.169
112.238
112.377
112.591
112.886
113.271
113.762
114.379
115.164
116.206
117.748
120.477
126.327
140.15
168.64
114.532
114.614
114.778
115.031
115.38
115.835
116.413
117.137
118.047
119.213
120.794
123.149
127.048
133.702
142.708
116.836
116.929
117.116
117.402
117.797
118.31
118.959
119.764
120.747
121.928
123.299
124.746
125.854
125.616
123.08
119.073
119.175
119.38
119.695
120.127
120.688
121.394
122.263
123.306
124.508
125.747
126.576
125.589
119.124
101.739
121.236
121.345
121.565
121.902
122.363
122.961
123.713
124.637
125.752
127.057
128.478
129.661
129.126
120.21
68.3753
123.321
123.435
123.666
124.018
124.5
125.125
125.908
126.876
128.062
129.522
131.371
133.935
138.48
151.098
205.275
125.323
125.441
125.678
126.041
126.535
127.173
127.973
128.96
130.178
131.713
133.763
136.829
142.223
153.12
173.641
127.24
127.36
127.601
127.968
128.466
129.107
129.904
130.879
132.069
133.543
135.447
138.101
142.142
148.454
156.311
129.071
129.191
129.432
129.799
130.295
130.928
131.707
132.646
133.76
135.07
136.606
138.405
140.481
142.711
144.491
130.814
130.934
131.174
131.536
132.025
132.643
133.396
134.287
135.31
136.435
137.579
138.512
138.71
137.276
133.96
132.472
132.59
132.826
133.182
133.66
134.261
134.987
135.833
136.783
137.785
138.695
139.126
138.067
133.144
121.18
134.044
134.16
134.392
134.74
135.206
135.789
136.489
137.303
138.217
139.194
140.139
140.771
140.103
133.897
100.146
135.532
135.646
135.872
136.212
136.666
137.232
137.91
138.701
139.602
140.621
141.798
143.314
145.982
153.775
188.369
136.938
137.049
137.271
137.602
138.043
138.592
139.25
140.017
140.902
141.935
143.217
145.054
148.296
155.036
168.03
138.264
138.372
138.588
138.912
139.341
139.874
140.509
141.248
142.094
143.07
144.248
145.814
148.178
151.95
156.77
139.511
139.617
139.828
140.144
140.562
141.08
141.694
142.4
143.192
144.062
145.005
146.015
147.079
148.132
148.912
140.68
140.784
140.992
141.301
141.71
142.215
142.811
143.489
144.232
145
145.711
146.173
145.984
144.499
141.652
141.774
141.876
142.08
142.385
142.786
143.282
143.867
144.53
145.249
145.974
146.585
146.779
145.785
141.807
132.471
142.793
142.894
143.096
143.396
143.794
144.285
144.865
145.528
146.258
147.023
147.745
148.207
147.652
142.834
116.862
143.739
143.839
144.039
144.337
144.731
145.22
145.802
146.476
147.239
148.097
149.083
150.336
152.477
158.545
185.165
144.611
144.711
144.909
145.206
145.599
146.088
146.673
147.357
148.149
149.078
150.23
151.845
154.571
159.982
170.117
145.411
145.51
145.708
146.003
146.396
146.885
147.471
148.159
148.96
149.9
151.052
152.578
154.796
158.133
162.163
146.138
146.237
146.434
146.729
147.121
147.61
148.195
148.88
149.669
150.571
151.612
152.825
154.242
155.798
157.064
146.793
146.892
147.089
147.384
147.776
148.263
148.847
149.524
150.293
151.143
152.047
152.926
153.586
153.66
152.901
147.376
147.475
147.672
147.967
148.359
148.847
149.429
150.102
150.858
151.674
152.495
153.175
153.334
152.096
148.268
147.886
147.985
148.183
148.479
148.872
149.361
149.944
150.618
151.375
152.197
153.038
153.781
154.047
152.326
141.032
148.324
148.424
148.622
148.919
149.314
149.805
150.392
151.073
151.844
152.701
153.645
154.713
156.137
159.201
171.198
148.69
148.79
148.989
149.288
149.684
150.179
150.771
151.461
152.25
153.141
154.162
155.395
157.085
159.866
164.563
148.983
149.083
149.283
149.583
149.983
150.481
151.079
151.777
152.578
153.488
154.529
155.754
157.27
159.199
161.244
149.202
149.303
149.504
149.806
150.208
150.71
151.313
152.018
152.827
153.74
154.764
155.907
157.164
158.446
159.402
149.348
149.449
149.651
149.955
150.359
150.865
151.473
152.184
152.998
153.91
154.912
155.978
157.037
157.914
158.28
149.421
149.522
149.725
150.029
150.435
150.945
151.558
152.276
153.097
154.014
155.012
156.049
157.032
157.733
157.466
149.419
149.521
149.723
150.028
150.436
150.948
151.566
152.292
153.125
154.059
155.08
156.154
157.218
158.221
159.444
149.344
149.445
149.648
149.952
150.36
150.874
151.496
152.23
153.078
154.039
155.108
156.261
157.444
158.553
159.403
149.195
149.295
149.497
149.8
150.207
150.721
151.345
152.085
152.948
153.941
155.073
156.343
157.718
159.06
160.008
148.972
149.072
149.271
149.572
149.976
150.487
151.109
151.851
152.723
153.742
154.937
156.35
158.01
159.836
161.324
148.678
148.776
148.972
149.269
149.667
150.171
150.787
151.523
152.392
153.417
154.648
156.179
158.183
160.844
163.728
148.311
148.407
148.6
148.89
149.28
149.775
150.378
151.099
151.948
152.947
154.145
155.676
157.897
161.692
168.189
147.875
147.968
148.155
148.438
148.818
149.298
149.885
150.582
151.397
152.333
153.408
154.69
156.513
160.661
177.214
147.371
147.461
147.641
147.914
148.281
148.745
149.31
149.981
150.756
151.619
152.525
153.324
153.51
151.012
135.365
146.801
146.887
147.059
147.32
147.672
148.117
148.66
149.304
150.048
150.872
151.712
152.379
152.368
150.489
145.124
146.167
146.249
146.413
146.66
146.994
147.417
147.936
148.556
149.282
150.11
151.015
151.902
152.519
152.385
151.208
145.474
145.551
145.705
145.937
146.25
146.648
147.138
147.73
148.439
149.291
150.328
151.608
153.187
155.001
156.527
144.725
144.796
144.938
145.153
145.443
145.811
146.265
146.818
147.494
148.341
149.468
151.103
153.69
157.812
162.955
143.923
143.988
144.118
144.314
144.577
144.911
145.321
145.819
146.426
147.193
148.25
149.934
153.123
159.911
173.005
143.072
143.131
143.248
143.424
143.659
143.955
144.314
144.74
145.242
145.84
146.594
147.716
150.053
157.626
192.199
142.178
142.23
142.334
142.489
142.695
142.951
143.256
143.605
143.988
144.374
144.68
144.65
143.342
136.589
102.432
141.245
141.29
141.381
141.515
141.692
141.91
142.163
142.444
142.729
142.96
142.997
142.467
140.411
134.578
122.012
140.277
140.316
140.393
140.508
140.658
140.84
141.049
141.277
141.502
141.679
141.704
141.34
140.098
137.239
132.913
139.278
139.311
139.377
139.473
139.598
139.748
139.919
140.108
140.305
140.499
140.678
140.821
140.905
140.915
140.857
138.254
138.281
138.336
138.415
138.517
138.637
138.775
138.93
139.106
139.328
139.672
140.337
141.762
144.636
148.808
137.207
137.23
137.274
137.338
137.418
137.512
137.616
137.733
137.872
138.069
138.442
139.323
141.608
147.452
159.701
136.142
136.16
136.196
136.246
136.307
136.375
136.446
136.518
136.593
136.684
136.855
137.33
138.981
145.815
179.147
135.061
135.076
135.104
135.142
135.187
135.233
135.273
135.299
135.298
135.24
135.055
134.516
132.752
125.775
92.2921
133.967
133.979
134.001
134.031
134.063
134.091
134.106
134.097
134.039
133.882
133.497
132.549
130.141
124.138
111.722
132.861
132.872
132.891
132.915
132.938
132.954
132.954
132.925
132.846
132.677
132.329
131.592
130.023
126.951
122.574
131.746
131.756
131.774
131.796
131.816
131.826
131.818
131.784
131.713
131.595
131.427
131.209
130.947
130.666
130.431
130.62
130.631
130.651
130.674
130.696
130.707
130.699
130.666
130.607
130.545
130.558
130.853
131.881
134.348
138.166
129.485
129.498
129.522
129.552
129.58
129.598
129.595
129.563
129.501
129.439
129.49
129.984
131.813
137.087
148.596
128.337
128.354
128.386
128.427
128.469
128.5
128.508
128.477
128.392
128.252
128.111
128.186
129.349
135.495
167.059
127.175
127.197
127.24
127.298
127.361
127.416
127.446
127.425
127.316
127.065
126.578
125.63
123.422
116.248
83.9706
125.994
126.024
126.081
126.161
126.255
126.347
126.418
126.432
126.337
126.037
125.362
123.945
120.94
114.431
102.022
124.789
124.828
124.904
125.013
125.146
125.29
125.425
125.513
125.495
125.269
124.658
123.361
120.889
116.708
111.498
123.555
123.604
123.702
123.844
124.026
124.238
124.461
124.665
124.796
124.763
124.428
123.589
122.022
119.698
117.395
122.284
122.345
122.465
122.645
122.883
123.174
123.508
123.865
124.206
124.466
124.546
124.32
123.679
122.671
121.733
120.969
121.04
121.184
121.402
121.699
122.077
122.536
123.073
123.669
124.289
124.873
125.336
125.587
125.593
125.459
119.602
119.683
119.848
120.102
120.456
120.92
121.509
122.237
123.113
124.135
125.283
126.496
127.662
128.61
129.131
118.176
118.264
118.446
118.731
119.133
119.674
120.383
121.295
122.452
123.892
125.643
127.685
129.887
131.919
133.206
116.686
116.779
116.971
117.274
117.71
118.309
119.113
120.182
121.59
123.429
125.799
128.761
132.227
135.743
138.214
115.129
115.222
115.415
115.723
116.171
116.798
117.658
118.83
120.426
122.596
125.541
129.482
134.53
140.289
144.977
113.506
113.593
113.776
114.071
114.506
115.122
115.983
117.182
118.859
121.221
124.589
129.431
136.336
145.575
155.036
111.819
111.896
112.057
112.32
112.711
113.274
114.071
115.2
116.812
119.146
122.611
127.944
136.518
150.704
171.705
110.076
110.137
110.265
110.477
110.795
111.259
111.925
112.881
114.261
116.282
119.334
124.203
132.799
151.096
202.997
-364.38
-269.874
-236.142
-219.949
-210.494
-204.33
-200.055
-196.982
-194.726
-193.057
-191.824
-190.929
-190.306
-189.912
-189.72
-307.953
-269.538
-243.272
-227.067
-216.682
-209.669
-204.728
-201.143
-198.495
-196.523
-195.059
-193.992
-193.245
-192.772
-192.542
-278.259
-260.759
-243.412
-230.137
-220.524
-213.564
-208.456
-204.651
-201.79
-199.632
-198.015
-196.827
-195.992
-195.46
-195.201
-260.774
-251.87
-240.719
-230.661
-222.519
-216.171
-211.273
-207.5
-204.593
-202.363
-200.669
-199.413
-198.524
-197.955
-197.677
-249.529
-244.535
-237.263
-229.85
-223.264
-217.765
-213.306
-209.743
-206.923
-204.716
-203.016
-201.74
-200.829
-200.244
-199.957
-241.81
-238.777
-233.9
-228.46
-223.25
-218.634
-214.712
-211.465
-208.825
-206.715
-205.063
-203.808
-202.906
-202.322
-202.035
-236.253
-234.295
-230.924
-226.906
-222.821
-219.015
-215.645
-212.762
-210.355
-208.391
-206.829
-205.629
-204.757
-204.189
-203.91
-232.112
-230.789
-228.394
-225.393
-222.195
-219.088
-216.237
-213.723
-211.574
-209.785
-208.34
-207.216
-206.393
-205.854
-205.587
-228.948
-228.023
-226.281
-224.012
-221.503
-218.978
-216.59
-214.428
-212.538
-210.937
-209.624
-208.591
-207.828
-207.325
-207.075
-226.482
-225.821
-224.529
-222.794
-220.816
-218.769
-216.782
-214.94
-213.298
-211.884
-210.709
-209.774
-209.078
-208.616
-208.386
-224.533
-224.053
-223.081
-221.741
-220.175
-218.515
-216.867
-215.31
-213.897
-212.662
-211.622
-210.788
-210.161
-209.743
-209.535
-222.974
-222.623
-221.883
-220.839
-219.594
-218.248
-216.885
-215.575
-214.368
-213.299
-212.389
-211.652
-211.095
-210.721
-210.534
-221.715
-221.459
-220.892
-220.074
-219.08
-217.987
-216.863
-215.765
-214.74
-213.822
-213.033
-212.387
-211.896
-211.566
-211.4
-220.692
-220.506
-220.07
-219.427
-218.632
-217.744
-216.817
-215.901
-215.035
-214.251
-213.571
-213.011
-212.583
-212.293
-212.147
-219.856
-219.723
-219.388
-218.881
-218.244
-217.522
-216.76
-215.997
-215.269
-214.604
-214.022
-213.539
-213.168
-212.917
-212.79
-219.168
-219.078
-218.821
-218.421
-217.911
-217.325
-216.699
-216.066
-215.456
-214.894
-214.399
-213.986
-213.667
-213.45
-213.34
-218.601
-218.543
-218.348
-218.034
-217.626
-217.151
-216.639
-216.115
-215.606
-215.133
-214.715
-214.364
-214.091
-213.905
-213.81
-218.131
-218.099
-217.954
-217.709
-217.383
-217
-216.581
-216.15
-215.727
-215.331
-214.979
-214.682
-214.451
-214.292
-214.211
-217.741
-217.73
-217.624
-217.435
-217.177
-216.869
-216.529
-216.174
-215.824
-215.495
-215.201
-214.951
-214.755
-214.621
-214.553
-217.417
-217.422
-217.348
-217.205
-217.002
-216.756
-216.481
-216.192
-215.904
-215.632
-215.386
-215.178
-215.014
-214.901
-214.843
-217.146
-217.165
-217.117
-217.011
-216.854
-216.659
-216.439
-216.204
-215.969
-215.745
-215.542
-215.369
-215.232
-215.138
-215.09
-216.919
-216.949
-216.923
-216.847
-216.728
-216.577
-216.402
-216.213
-216.022
-215.84
-215.674
-215.531
-215.418
-215.339
-215.299
-216.729
-216.768
-216.76
-216.709
-216.622
-216.506
-216.369
-216.219
-216.066
-215.919
-215.784
-215.667
-215.575
-215.51
-215.477
-216.568
-216.615
-216.622
-216.593
-216.531
-216.445
-216.341
-216.224
-216.103
-215.986
-215.877
-215.783
-215.708
-215.655
-215.628
-216.433
-216.486
-216.505
-216.494
-216.455
-216.394
-216.316
-216.227
-216.134
-216.042
-215.956
-215.881
-215.821
-215.779
-215.757
-216.318
-216.376
-216.406
-216.409
-216.389
-216.35
-216.295
-216.23
-216.16
-216.09
-216.024
-215.965
-215.918
-215.884
-215.867
-216.22
-216.283
-216.321
-216.337
-216.333
-216.312
-216.277
-216.232
-216.182
-216.13
-216.081
-216.037
-216.001
-215.975
-215.961
-216.135
-216.202
-216.248
-216.275
-216.284
-216.279
-216.261
-216.234
-216.201
-216.166
-216.131
-216.099
-216.072
-216.053
-216.043
-216.06