/*--------------------------------*- C++ -*----------------------------------*\
| =========                 |                                                 |
| \\      /  F ield         | OpenFOAM: The Open Source CFD Toolbox           |
|  \\    /   O peration     | Version:  5.x                                   |
|   \\  /    A nd           | Web:      www.OpenFOAM.org                      |
|    \\/     M anipulation  |                                                 |
\*---------------------------------------------------------------------------*/
FoamFile
{
    version     2.0;
    format      ascii;
    class       volScalarField;
    location    "10.7";
    object      gradTy;
}
// * * * * * * * * * * * * * * * * * * * * * * * * * * * * * * * * * * * * * //

dimensions      [0 -1 0 1 0 0 0];

internalField   nonuniform List<scalar> 
6300
(
1063.72
1190.97
1317.65
1443.4
1567.82
1690.55
1811.2
1929.41
2044.8
2157
2265.69
2370.53
2471.24
2567.58
2659.34
0.277521
0.832862
1.389
1.94606
2.50354
3.05996
3.61256
4.15687
4.68637
5.19221
5.66316
6.08587
6.44562
6.72752
6.91825
0.46218
1.38719
2.31392
3.2429
4.17364
5.10408
6.03003
6.94444
7.83674
8.69226
9.49197
10.2128
10.8289
11.3135
11.6425
0.646179
1.9397
3.23648
4.53785
5.84386
7.15249
8.4588
9.75384
11.0236
12.2478
13.3992
14.444
15.343
16.0546
16.5403
0.828991
2.48889
4.15429
5.82797
7.51121
9.20292
10.8984
12.5881
14.2555
15.8754
17.4125
18.8205
20.0436
21.0206
21.6927
1.00984
3.03245
5.06364
7.10828
9.16978
11.2491
13.3435
15.4442
17.5342
19.5851
21.554
23.3809
24.9892
26.2905
27.1956
1.18771
3.56731
5.95933
8.37141
10.8101
13.2799
15.7815
18.3101
20.8511
23.376
25.8364
28.1587
30.2405
31.9551
33.166
1.36134
4.08963
6.8347
9.60759
12.4189
15.2781
18.1921
21.1628
24.1832
27.2301
30.2557
33.1753
35.8575
38.1216
39.7556
1.52931
4.59498
7.68196
10.8049
13.9793
17.2208
20.5449
23.9649
27.4874
31.1042
34.7793
38.4277
41.8908
44.9164
47.1688
1.69017
5.07883
8.49286
11.9505
15.4719
19.08
22.8009
26.6633
30.6957
34.9185
39.3277
43.8634
48.3596
52.4824
55.6968
1.84263
5.5371
9.25981
13.0317
16.877
20.8255
24.9143
29.1905
33.712
38.5446
43.7477
49.3365
55.1995
60.9544
65.7725
1.9858
5.9669
9.97722
14.0389
18.1783
22.4297
26.8391
31.4708
36.4155
41.7984
47.7801
54.5332
62.145
70.3605
78.0541
2.11939
6.36722
10.6429
14.9676
19.3669
23.8749
28.5403
33.4366
38.6792
44.4512
51.0392
58.8685
68.484
80.2849
93.4569
2.24384
6.73943
11.2592
15.8209
20.4458
25.1615
30.009
35.0544
40.4116
46.2859
53.0546
61.4149
72.634
88.8339
112.431
2.36029
7.08719
11.8331
16.6105
21.4328
26.3151
31.2785
36.3586
41.6251
47.2243
53.4758
61.0995
71.7992
89.9808
128.727
2739.14
2808.38
2874.31
2936.97
2996.4
3052.72
3106.05
3156.54
3204.35
3249.66
3292.69
3333.62
3372.68
3410.06
3445.99
3480.67
3514.32
3547.12
3579.29
3611
3642.45
3673.79
3705.19
3736.79
3768.72
3801.1
3834.03
3867.57
3901.79
3936.72
3972.36
4008.72
4045.78
4083.49
4121.81
4160.66
4199.99
4239.71
4279.73
4319.95
4360.26
4400.54
4440.67
4480.51
4519.94
4558.82
4597.03
4634.45
4670.98
4706.52
4740.96
4774.22
4806.21
4836.84
4865.99
4893.58
4919.48
4943.59
4965.78
4985.94
5003.94
5019.65
5032.95
5043.7
5051.77
5056.98
5059.19
5058.2
5053.8
5045.79
5033.9
5017.89
4997.48
4972.38
4942.28
4906.87
4865.83
4818.82
4765.52
4705.59
4638.7
4564.52
4482.76
4393.13
4295.39
4189.33
4074.81
3951.74
3820.12
3680
7.00032
7.0013
6.92832
6.78377
6.57253
6.30143
5.97861
5.61286
5.21306
4.78764
4.34433
3.88995
3.43033
2.97042
2.51434
2.06559
1.6272
1.20194
0.792522
0.401719
0.03253
-0.311766
-0.627602
-0.911207
-1.15879
-1.3668
-1.53231
-1.65341
-1.72957
-1.76186
-1.753
-1.70698
-1.62855
-1.52239
-1.39234
-1.24092
-1.06913
-0.876917
-0.663842
-0.430081
-0.177284
0.0908872
0.368759
0.649244
0.924913
1.18928
1.43796
1.66938
1.88493
2.08855
2.28584
2.48298
2.68558
2.89779
3.12177
3.3576
3.60373
3.85782
4.1177
4.38234
4.65242
4.93061
5.22138
5.53048
5.86425
6.2288
6.62927
7.06924
7.55034
8.07229
8.63309
9.22949
9.8576
10.5133
11.1923
11.8904
12.6031
13.3245
14.0474
14.7623
15.4569
16.1159
16.7214
17.2529
17.6889
18.0079
18.1906
18.221
18.0886
17.7897
11.7845
11.7865
11.661
11.4123
11.0493
10.5845
10.0324
9.40869
8.72887
8.00753
7.25781
6.49117
5.71727
4.94416
4.17845
3.42568
2.69059
1.97751
1.29069
0.634569
0.0140186
-0.565496
-1.0979
-1.57662
-1.99489
-2.34622
-2.62511
-2.82778
-2.95298
-3.00252
-2.98136
-2.89715
-2.759
-2.57595
-2.35524
-2.1012
-1.81498
-1.49525
-1.1398
-0.747544
-0.320373
0.135602
0.609979
1.08924
1.55897
2.00655
2.4235
2.80698
3.15999
3.49044
3.80945
4.12907
4.46012
4.81038
5.18351
5.57896
5.99286
6.41971
6.85448
7.29441
7.74027
8.1968
8.67223
9.1773
9.72384
10.3232
10.985
11.7156
12.5179
13.391
14.3307
15.331
16.3844
17.4839
18.6224
19.7935
20.9903
22.2043
23.4245
24.6356
25.8176
26.9449
27.9863
28.9066
29.6674
30.2303
30.5599
30.6272
30.4127
29.909
16.7511
16.7551
16.5706
16.2049
15.6724
14.9927
14.1889
13.2849
12.3041
11.2679
10.1954
9.10262
8.00295
6.90717
5.82395
4.76037
3.72239
2.71544
1.74486
0.816433
-0.0633047
-0.886753
-1.64516
-2.32871
-2.92697
-3.42954
-3.8272
-4.11324
-4.28488
-4.34449
-4.30005
-4.16449
-3.95365
-3.68327
-3.36565
-3.00738
-2.60864
-2.1646
-1.66838
-1.1149
-0.504588
0.154154
0.844491
1.54327
2.22523
2.86819
3.45751
3.98872
4.46774
4.90903
5.33236
5.75886
6.20716
6.69019
7.21327
7.77392
8.36347
8.97036
9.58395
10.198
10.8129
11.4358
12.0804
12.7644
13.5073
14.3278
15.2415
16.2587
17.3834
18.6135
19.9412
21.3556
22.8448
24.3978
26.0051
27.6591
29.3521
31.0747
32.8139
34.5502
36.2564
37.8965
39.425
40.789
41.9298
42.7876
43.306
43.4381
43.1518
42.4348
21.9866
21.9938
21.7399
21.2364
20.5058
19.5783
18.4882
17.2702
15.9573
14.579
13.1605
11.7225
10.2815
8.85066
7.43983
6.0569
4.70829
3.39979
2.1372
0.927085
-0.222741
-1.3027
-2.30118
-3.2046
-3.99777
-4.66485
-5.19095
-5.56433
-5.779
-5.83719
-5.75087
-5.54115
-5.23501
-4.85957
-4.43562
-3.97287
-3.4686
-2.91019
-2.28055
-1.56531
-0.759791
0.125898
1.06549
2.02011
2.94621
3.80558
4.57368
5.24407
5.82824
6.35187
6.84904
7.35555
7.90243
8.51053
9.18714
9.9254
10.7073
11.5095
12.3108
13.0986
13.8718
14.6417
15.4299
16.2646
17.1768
18.1961
19.3468
20.6446
22.0951
23.6929
25.4242
27.27
29.211
31.2308
33.3182
35.4658
37.6683
39.9186
42.2045
44.505
46.7876
49.0054
51.0975
52.9894
54.5966
55.8303
56.6051
56.8481
56.5084
55.5648
27.5951
27.6075
27.2674
26.5935
25.6214
24.397
22.9704
21.391
19.7036
17.9468
16.1524
14.3453
12.5445
10.7642
9.0145
7.30305
5.63558
4.01721
2.45327
0.950248
-0.483401
-1.8365
-3.09461
-4.23972
-5.25055
-6.10354
-6.77497
-7.24431
-7.49877
-7.53833
-7.37973
-7.05701
-6.61652
-6.10611
-5.56189
-4.99859
-4.40702
-3.75883
-3.01653
-2.14631
-1.13107
0.0193114
1.26408
2.53717
3.76242
4.87348
5.82961
6.62261
7.27489
7.83177
8.35123
8.89302
9.50835
10.231
11.0709
12.0128
13.0204
14.0484
15.0559
16.0186
16.9339
17.8198
18.7107
19.6515
20.6905
21.8735
23.2383
24.8089
26.5926
28.5783
30.7404
33.0454
35.4612
37.9643
40.5421
43.1912
45.9131
48.7084
51.5712
54.483
57.4088
60.2924
63.0552
65.5965
67.7978
69.5303
70.6665
71.0938
70.7309
69.5417
33.707
33.7272
33.2737
32.3785
31.0988
29.5053
27.6715
25.6662
23.5488
21.368
19.1617
16.9581
14.7772
12.6327
10.5335
8.4852
6.49162
4.55577
2.68122
0.873189
-0.860301
-2.5073
-4.05087
-5.46828
-6.73064
-7.80368
-8.64997
-9.23367
-9.52794
-9.5248
-9.2449
-8.74244
-8.09874
-7.40137
-6.71572
-6.06512
-5.42709
-4.74312
-3.93685
-2.9363
-1.69718
-0.223488
1.42152
3.12265
4.74257
6.1639
7.31984
8.20318
8.85828
9.36495
9.82066
10.324
10.9591
11.7818
12.8072
14.0046
15.3035
16.6157
17.8644
19.0061
20.0373
20.9894
21.9189
22.896
23.9956
25.2882
26.832
28.6651
30.7976
33.2083
35.8493
38.6594
41.584
44.5885
47.6614
50.8096
54.05
57.399
60.8648
64.4386
68.088
71.7506
75.329
78.6904
81.6711
84.0862
85.7456
86.4747
86.1404
84.679
40.4965
40.5273
39.9145
38.7157
37.0268
34.9586
32.6189
30.1022
27.4851
24.826
22.1674
19.5385
16.9578
14.4364
11.9797
9.58934
7.26533
5.00696
2.81436
0.689865
-1.36059
-3.32579
-5.18752
-6.91871
-8.48194
-9.82885
-10.9016
-11.6383
-11.9838
-11.9082
-11.429
-10.6297
-9.65672
-8.67828
-7.81759
-7.1121
-6.51187
-5.90212
-5.13557
-4.06843
-2.59968
-0.711623
1.49947
3.82633
6.00988
7.83766
9.20374
10.1135
10.6565
10.9726
11.2227
11.5662
12.141
13.0418
14.2971
15.8512
17.5686
19.2755
20.828
22.1538
23.2555
24.1926
25.0592
25.9651
27.0237
28.3418
30.0102
32.0909
34.6024
37.5074
40.715
44.1089
47.5921
51.1142
54.672
58.2955
62.0301
65.9212
70.0023
74.2847
78.7478
83.3291
87.9141
92.3316
96.3576
99.7289
102.163
103.385
103.172
101.402
48.2098
48.2525
47.3977
45.7575
43.4997
40.8013
37.8199
34.6817
31.4808
28.2826
25.1301
22.0491
19.0532
16.1472
13.3304
10.5983
7.94495
5.36396
2.8501
0.400664
-1.98279
-4.29234
-6.5111
-8.60989
-10.5436
-12.2476
-13.6359
-14.6047
-15.0448
-14.8715
-14.0728
-12.766
-11.2212
-9.78442
-8.69475
-8.00633
-7.60921
-7.28582
-6.7661
-5.77788
-4.10499
-1.66399
1.41161
4.73722
7.79027
10.177
11.7455
12.5526
12.7821
12.6758
12.4908
12.4761
12.854
13.7919
15.3571
17.4633
19.8494
22.158
24.1184
25.6245
26.7109
27.4977
28.143
28.8146
29.6783
30.8912
32.5946
34.8965
37.8408
41.3704
45.3123
49.4294
53.5437
57.5878
61.5872
65.6204
69.7837
74.1686
78.8485
83.8689
89.2359
94.9004
100.738
106.535
111.984
116.719
120.323
122.361
122.442
120.32
57.2224
57.2679
56.0097
53.6866
50.6052
47.0497
43.2443
39.3491
35.4698
31.6706
27.9871
24.4348
21.0167
17.7275
14.5569
11.492
8.51857
5.62265
2.79152
0.0150191
-2.7127
-5.39086
-8.00854
-10.5398
-12.9369
-15.1216
-16.9753
-18.3332
-18.9899
-18.7362
-17.4488
-15.2455
-12.6312
-10.3916
-8.99513
-8.48212
-8.60144
-8.95335
-9.07246
-8.47458
-6.7178
-3.53168
0.962099
6.03885
10.5283
13.6924
15.3816
15.8212
15.3891
14.4902
13.5114
12.8183
12.7582
13.6363
15.6356
18.6698
22.2391
25.539
28.0604
29.6964
30.5947
31.0038
31.1856
31.3845
31.8265
32.7308
34.3139
36.7736
40.2325
44.636
49.6535
54.7498
59.5923
64.1214
68.4493
72.7532
77.2131
81.986
87.1992
92.9485
99.2896
106.216
113.617
121.23
128.635
135.33
140.73
144.15
144.875
142.364
68.1639
68.1578
66.1519
62.7043
58.3904
53.6552
48.796
43.9923
39.3419
34.8911
30.6539
26.6264
22.794
19.1364
15.631
12.2536
8.98043
5.78805
2.65439
-0.440599
-3.51362
-6.57593
-9.62975
-12.6622
-15.6354
-18.4711
-21.0275
-23.07
-24.2451
-24.088
-22.1426
-18.3161
-13.5009
-9.78383
-8.02274
-8.04682
-9.25823
-10.9555
-12.4106
-12.8393
-11.3882
-7.28186
-0.326514
8.18634
15.1746
19.3315
20.8168
20.3445
18.668
16.4195
14.1203
12.2489
11.3114
11.8659
14.4239
19.1053
25.0165
30.0403
33.2766
34.83
35.182
34.8362
34.2032
33.6033
33.3085
33.5921
34.7701
37.2109
41.2628
47.0164
53.8796
60.4339
66.0901
70.9428
75.3437
79.659
84.1894
89.1666
94.7751
101.173
108.498
116.844
126.185
136.222
146.304
155.802
163.981
169.816
171.963
169.116
82.2414
81.9238
78.3664
72.9663
66.7793
60.4366
54.2655
48.4124
42.9254
37.8024
33.018
28.5364
24.3188
20.326
16.5203
12.8652
9.32605
5.86917
2.46197
-0.927293
-4.32924
-7.77238
-11.2807
-14.8687
-18.5308
-22.2214
-25.818
-29.0545
-31.4169
-32.0134
-29.5435
-22.8088
-12.7882
-6.35849
-4.47887
-5.90083
-9.21448
-13.3052
-17.2254
-19.9101
-19.8807
-15.1337
-3.85727
12.5296
23.8981
28.8176
29.071
26.6016
22.7705
18.422
14.1132
10.3351
7.71669
7.21075
10.1548
17.7698
29.0718
37.1151
40.9158
41.6929
40.7739
39.0814
37.1725
35.3825
33.9572
33.1652
33.4076
35.3276
39.8423
47.7979
58.5494
67.4099
73.7434
78.4129
82.3592
86.2531
90.5197
95.4356
101.212
108.059
116.231
126.039
137.745
151.144
164.808
178.166
190.606
200.785
206.237
203.593
102.253
100.351
93.2314
84.3582
75.3895
66.9679
59.2743
52.3027
45.9818
40.2238
34.9436
30.0643
25.5179
21.2446
17.1911
13.3087
9.55209
5.87784
2.24297
-1.39632
-5.08596
-8.87518
-12.8172
-16.9685
-21.3847
-26.1069
-31.1264
-36.297
-41.1308
-44.3537
-43.0847
-32.0331
-6.90479
3.61869
3.81886
-1.03118
-8.05193
-15.9006
-23.8194
-30.8889
-35.1665
-32.3881
-14.7476
24.0979
41.9064
45.0211
41.2439
34.818
27.6163
20.3659
13.3404
6.75006
1.07889
-2.41346
-0.841707
11.1233
37.8177
50.2968
52.9066
50.996
47.4768
43.6361
39.9684
36.6342
33.6919
31.2465
29.6271
29.7055
33.4646
44.5505
65.939
78.0213
83.789
86.9202
89.4463
92.3059
95.9108
100.461
106.102
113.032
121.603
132.495
146.861
165.679
183.747
201.845
220.477
238.551
252.159
252.772
136.514
126.288
110.617
95.8834
83.2081
72.4477
63.2405
55.254
48.2258
41.9558
36.2908
31.1116
26.3229
21.8463
17.6151
13.5708
9.6595
5.82992
2.03063
-1.79237
-5.69866
-9.75716
-14.0512
-18.6857
-23.7965
-29.5627
-36.2152
-44.0224
-53.162
-63.1599
-70.7106
-61.526
20.0104
28.4616
19.3891
6.96464
-5.69654
-18.3937
-31.6351
-45.8862
-60.611
-71.042
-56.1719
65.9589
81.0726
71.1474
57.2299
44.1508
32.5314
21.9859
11.9411
1.84183
-8.69579
-19.3292
-26.8038
-16.7332
67.033
77.6888
71.4055
62.6139
54.6416
47.9407
42.2831
37.321
32.7103
28.138
23.4014
18.7829
16.5357
26.4664
86.7276
97.7234
97.6289
96.2958
96.0506
97.2824
99.938
103.911
109.136
115.636
123.629
133.944
149.56
181.288
202.635
224.749
251.145
282.74
316.788
337.341
217.018
160.062
126.644
104.441
88.265
75.6873
65.4458
56.8225
49.3755
42.8142
36.9365
31.595
26.6771
22.0932
17.7692
13.6404
9.64863
5.73794
1.85218
-2.06858
-6.0921
-10.2996
-14.7946
-19.7162
-25.2639
-31.7407
-39.64
-49.8273
-63.9551
-85.4871
-122.432
-195.203
152.167
78.5372
39.785
15.3008
-3.28938
-20.1023
-37.9958
-60.1998
-92.2363
-146.127
-252.049
261.921
156.291
103.02
72.006
51.3793
35.8989
22.8838
10.6194
-2.43533
-18.3323
-40.793
-78.03
-150.711
201.524
129.47
93.5132
73.0494
59.9733
50.7408
43.5943
37.5001
31.672
25.2648
17.0046
4.44461
-17.9297
-64.0949
178.455
133.392
113.248
104.101
100.524
100.205
102.065
105.552
110.329
116.086
122.305
127.754
129.055
211.836
220.411
241.479
274.314
323.387
400.835
536.793
3516.69
3326.85
3125.86
2914.37
2693.13
2462.97
2224.77
1979.42
1727.82
1470.87
1209.43
944.378
676.531
406.705
135.699
17.2812
16.508
15.5465
14.4345
13.2131
11.9216
10.5946
9.25952
7.93658
6.63856
5.37184
4.13741
2.93207
1.74956
0.581528
29.0436
27.7218
26.0772
24.1787
22.0994
19.9088
17.6664
15.419
13.2
11.0296
8.91727
6.86342
4.86148
2.89987
0.963719
41.1822
39.2568
36.8605
34.1023
31.096
27.9467
24.7424
21.5498
18.4144
15.3625
12.4043
9.53759
6.75056
4.02472
1.33722
53.8772
51.2603
48.0034
44.2721
40.2338
36.0382
31.8054
27.6223
23.5446
19.6011
15.7997
12.132
8.57847
5.11124
1.69767
67.3453
63.9008
59.6184
54.7465
49.5269
44.165
38.8168
33.5877
28.5391
23.6968
19.0607
14.6123
10.32
6.14412
2.03997
81.8592
77.3771
71.8207
65.5664
58.9603
52.2765
45.7074
39.3711
33.3255
27.5848
22.1333
16.9358
11.9448
7.10526
2.35808
97.7778
91.9261
84.7194
76.737
68.4699
60.272
52.3644
44.8625
37.8055
31.1822
24.9508
19.0522
13.4177
7.97394
2.64517
115.591
107.827
98.3913
88.1902
77.9081
67.9754
58.6148
49.9085
41.8508
34.3862
27.4342
20.9035
14.6995
8.72738
2.89378
136.003
125.395
112.823
99.7193
86.993
75.1024
64.2083
54.3044
45.3018
37.0765
29.4953
22.4274
15.7487
9.34206
3.09628
160.078
144.92
127.781
110.867
95.2391
81.2294
68.8083
57.7968
47.9736
39.1212
31.0419
23.5613
16.5252
9.79559
3.24549
189.449
166.424
142.51
120.728
101.864
85.7654
71.9964
60.0988
49.6729
40.3911
31.9885
24.2496
16.9947
10.0693
3.33547
226.404
188.81
155.101
127.665
105.719
87.9682
73.3109
60.9271
50.2263
40.78
32.2702
24.453
17.134
10.1511
3.3625
272.181
207.303
161.411
129.108
105.373
87.0741
72.3489
60.0703
49.5233
40.2308
31.8579
24.1573
16.9366
10.0383
3.32586
311.744
206.803
154.128
121.976
99.59
82.6022
68.9376
57.4798
47.5639
38.7604
30.7721
23.3807
16.4165
9.73951
3.22841
2.46158
7.38962
12.3317
17.2953
22.285
27.301
32.3388
37.3895
42.4453
47.5174
52.6821
58.1998
64.8032
74.4098
91.8847
2.54985
7.6535
12.768
17.8969
23.0377
28.1777
33.2881
38.3148
43.1652
47.6881
51.6407
54.615
55.7821
52.7586
36.2257
2.63531
7.90967
13.1938
18.4896
23.7902
29.0741
34.2944
39.3614
44.1112
48.2533
51.2766
52.2831
49.67
40.4869
19.3981
2.71813
8.15881
13.6113
19.0783
24.5534
30.0135
35.4062
40.627
45.4782
49.5938
52.311
52.4634
48.1184
36.4819
14.8665
2.79782
8.39955
14.0183
19.6609
25.3264
30.9988
36.6361
42.1481
47.3544
51.9039
55.125
55.7655
51.6284
39.4056
15.9717
2.87322
8.62827
14.4083
20.2271
26.0936
32.0074
37.952
43.8803
49.6852
55.1347
59.7294
62.3835
60.7519
50.1136
22.9855
2.9426
8.83943
14.7709
20.7596
26.827
32.9935
39.278
45.697
52.2611
58.9572
65.68
71.9754
76.1284
72.2712
43.0841
3.00384
9.0263
15.0935
21.2368
27.4908
33.8967
40.5094
47.4117
54.7437
62.7588
71.9258
83.0527
97.065
112.017
102.751
3.05476
9.1819
15.3628
21.6365
28.0481
34.6551
41.5383
48.8268
56.7503
65.7582
76.8088
92.1236
117.346
168.577
298.692
3.09337
9.29997
15.5672
21.9397
28.469
35.2205
42.2845
49.7997
58.0023
67.3367
78.7285
94.3113
119.562
170.351
299.406
3.11812
9.37568
15.6983
22.1333
28.7347
35.5676
42.7158
50.2938
58.4666
67.4844
77.7352
89.7823
104.039
117.768
105.151
3.12798
9.40597
15.751
22.2109
28.8387
35.6945
42.8474
50.3732
58.3424
66.7736
75.4921
83.7161
88.8804
83.4764
48.1729
3.12248
9.38949
15.7234
22.1712
28.7834
35.6141
42.7186
50.1433
57.8956
65.8612
73.5901
79.7721
81.0579
69.9461
33.5842
3.10158
9.3263
15.6163
22.0168
28.5757
35.3425
42.366
49.6843
57.299
65.1112
72.7602
79.226
81.8424
73.9484
40.3878
3.06563
9.21754
15.4319
21.7519
28.2227
34.8916
41.8075
49.0178
56.5636
64.4725
72.7498
81.3506
89.9234
95.7725
79.9784
3.01525
9.06516
15.1738
21.3816
27.7312
34.2682
41.0434
48.1169
55.5744
63.5761
72.5126
83.492
99.8932
132.624
219.68
2.9513
8.87178
14.8463
20.9121
27.1086
33.4785
40.0708
46.9479
54.2055
62.0285
70.8548
81.8659
98.5201
131.746
219.412
2.87485
8.64064
14.455
20.3514
26.3649
32.5333
38.8993
45.5135
52.4425
59.7821
67.6779
76.3185
85.6364
93.0572
79.2271
2.78715
8.37553
14.0064
19.7087
25.5127
31.45
37.5541
43.8593
50.393
57.1477
63.9817
70.2985
74.0677
69.1238
39.4735
2.68959
8.0807
13.5077
18.9949
24.5671
30.2498
36.0682
42.045
48.1885
54.4565
60.6429
66.0457
68.5474
62.3455
33.9527
2.58368
7.76074
12.9669
18.2216
23.5442
28.9543
34.4713
40.1136
45.8961
51.8203
57.8465
63.8057
69.0693
70.9759
55.87
2.47097
7.42037
12.3921
17.4005
22.4599
27.5838
32.7862
38.0838
43.5041
49.1118
55.095
62.0467
71.9205
91.4184
144.893
2.35301
7.06433
11.7913
16.5437
21.3301
26.158
31.0341
35.9676
40.9805
46.1412
51.6692
58.2567
68.0862
88.2635
143.555
2.23132
6.69723
11.1726
15.6627
20.1709
24.6979
29.2414
33.7954
38.353
42.9141
47.5064
52.2134
57.0641
60.7212
51.2592
2.10729
6.32337
10.5435
14.7687
18.9979
23.2257
27.4404
31.6198
35.722
39.6639
43.2627
46.0688
46.8693
42.2877
23.5846
1.98219
5.94656
9.91039
13.8716
17.8254
21.7618
25.6632
29.4969
33.2014
36.6507
39.5684
41.3155
40.4106
33.6597
15.6775
1.85704
5.56996
9.27887
12.9794
16.6643
20.3217
23.9321
27.463
30.857
34.0057
36.6857
38.4028
38.0106
32.83
17.0567
1.73267
5.19601
8.65294
12.0976
15.5219
18.9136
22.2556
25.5233
28.6821
31.6852
34.4708
36.9538
38.9347
39.3556
31.1714
1.60963
4.82638
8.03528
11.2298
14.4015
17.5395
20.6301
23.6584
26.6146
29.5149
32.4649
35.8522
40.9412
51.8557
82.8955
1.48828
4.46209
7.42739
10.3775
13.3043
16.1979
19.0473
21.843
24.5851
27.309
30.1546
33.5678
38.901
50.3783
82.3382
1.36879
4.10361
6.82987
9.54108
12.2296
14.8865
17.5014
20.0641
22.5678
25.0178
27.4494
29.9491
32.5929
34.6755
29.3644
1.2512
3.75097
6.24263
8.72017
11.1766
13.6037
15.9912
18.3256
20.587
22.7388
24.6961
26.2295
26.6737
24.1061
13.4855
1.13542
3.40387
5.66505
7.91367
10.1438
12.3481
14.5174
16.6374
18.6819
20.5942
22.2365
23.2655
22.8454
19.1284
8.96057
1.02126
3.06174
5.09605
7.11985
9.12847
11.1166
13.0775
15.001
16.8682
18.6364
20.2023
21.3074
21.3058
18.6301
9.81963
0.908498
2.72384
4.53423
6.3364
8.1272
9.90366
11.6632
13.4035
15.1227
16.8186
18.4876
20.117
21.6229
22.3914
18.1984
0.796864
2.38932
3.97801
5.5607
7.13568
8.70228
10.2619
11.8203
13.3929
15.0191
16.8001
19.0119
22.4514
29.5977
48.9407
0.686101
2.05735
3.42586
4.79023
6.14982
7.50553
8.86123
10.2269
11.6257
13.1116
14.813
17.0539
20.7053
28.3333
48.4634
0.575985
1.72725
2.87654
4.02297
5.16652
6.30863
7.45347
8.61027
9.79794
11.054
12.4509
14.1159
16.1972
18.3862
16.6503
0.466349
1.3985
2.32914
3.25765
4.18411
5.10968
6.03724
6.97206
7.92245
8.89846
9.90244
10.8884
11.6139
11.1644
6.75665
0.357085
1.07079
1.78318
2.4937
3.20224
3.90927
4.61585
5.32292
6.02905
6.72333
7.36629
7.84167
7.84629
6.69123
3.18617
0.248144
0.743978
1.23852
1.73111
2.22138
2.70913
3.19404
3.67438
4.14381
4.58374
4.94644
5.12175
4.88392
3.8499
1.60679
0.139518
0.418068
0.69521
0.970149
1.24226
1.51097
1.77542
2.0334
2.27905
2.49778
2.6567
2.68871
2.47447
1.84821
0.701369
0.0312345
0.0931516
0.153452
0.211182
0.265532
0.315816
0.361332
0.401053
0.43303
0.453422
0.455183
0.426739
0.351242
0.208137
-0.0262408
-0.0766576
-0.230619
-0.38648
-0.545385
-0.708301
-0.875944
-1.04862
-1.22579
-1.40481
-1.57788
-1.72519
-1.8024
-1.72485
-1.36833
-0.649588
-0.184089
-0.553034
-0.924241
-1.29909
-1.67875
-2.06408
-2.45531
-2.85117
-3.24659
-3.62685
-3.95399
-4.13876
-3.99443
-3.19605
-1.37252
-0.290972
-0.873833
-1.4594
-2.04934
-2.64513
-3.24797
-3.85858
-4.4766
-5.09862
-5.71244
-6.28133
-6.70333
-6.71787
-5.73537
-2.73519
-0.397201
-1.1927
-1.99142
-2.79539
-3.60644
-4.42624
-5.25646
-6.09898
-6.956
-7.82888
-8.71027
-9.55042
-10.1333
-9.67548
-5.81308
-0.502649
-1.50925
-2.51969
-3.53637
-4.56146
-5.59703
-6.64551
-7.71092
-8.80197
-9.93897
-11.1674
-12.5757
-14.2707
-15.9794
-14.2822
-0.607166
-1.82305
-3.0435
-4.27132
-5.50895
-6.75856
-8.02245
-9.30465
-10.6156
-11.9851
-13.4989
-15.4011
-18.398
-24.6476
-41.4082
-0.710579
-2.13359
-3.56205
-4.99924
-6.44785
-7.90983
-9.38628
-10.878
-12.3879
-13.9304
-15.5601
-17.4655
-20.2656
-26.0152
-41.9281
-0.812671
-2.44025
-4.07438
-5.71899
-7.37716
-9.05067
-10.7391
-12.4381
-14.1371
-15.8143
-17.4292
-18.9076
-20.0839
-20.3236
-15.975
-0.913177
-2.74224
-4.57926
-6.42905
-8.29547
-10.1808
-12.0839
-13.9977
-15.9008
-17.7408
-19.3921
-20.5588
-20.5517
-17.8174
-9.18876
-1.01177
-3.03858
-5.07508
-7.12726
-9.20032
-11.2979
-13.4209
-15.564
-17.7076
-19.7975
-21.6907
-23.0241
-22.9123
-19.4038
-9.17211
-1.10804
-3.32806
-5.55978
-7.81068
-10.0877
-12.397
-14.7434
-17.1292
-19.5511
-21.9898
-24.3773
-26.4919
-27.6307
-25.658
-14.7888
-1.20154
-3.60928
-6.03093
-8.47561
-10.9522
-13.4698
-16.0378
-18.6685
-21.3819
-24.2166
-27.2523
-30.6362
-34.5087
-38.0894
-33.3967
-1.29176
-3.88069
-6.48585
-9.118
-11.7879
-14.5069
-17.2879
-20.1498
-23.1276
-26.3029
-29.8844
-34.4399
-41.5877
-56.2647
-95.1285
-1.37816
-4.14068
-6.92176
-9.73376
-12.589
-15.5003
-18.4812
-21.5495
-24.7353
-28.1058
-31.8387
-36.4419
-43.4365
-57.6411
-95.6573
-1.46021
-4.38762
-7.33593
-10.3191
-13.3508
-16.4446
-19.613
-22.8669
-26.2138
-29.6559
-33.1875
-36.7817
-40.2764
-42.4794
-35.1291
-1.53737
-4.61986
-7.72562
-10.8702
-14.0689
-17.3364
-20.6846
-24.1186
-27.625
-31.1428
-34.4912
-37.1892
-38.0116
-33.9501
-18.2853
-1.60908
-4.83576
-8.08806
-11.3833
-14.7387
-18.1713
-21.6957
-25.3192
-29.0271
-32.7459
-36.2451
-38.8977
-39.1369
-33.4773
-15.9586
-1.67481
-5.03368
-8.4204
-11.854
-15.3543
-18.9417
-22.6372
-26.4599
-30.4206
-34.5001
-38.5854
-42.2807
-44.3571
-41.2385
-23.6303
-1.73406
-5.21205
-8.71983
-12.2781
-15.9088
-19.6364
-23.4893
-27.5038
-31.7304
-36.249
-41.1951
-46.7861
-53.1833
-59.0602
-51.893
-1.78641
-5.36954
-8.98388
-12.6513
-16.3953
-20.2431
-24.2284
-28.3992
-32.8361
-37.6994
-43.3553
-50.7296
-62.3686
-85.938
-147.25
-1.83152
-5.50514
-9.21075
-12.9707
-16.8092
-20.7536
-24.8377
-29.1087
-33.6443
-38.5979
-44.3204
-51.7096
-63.2664
-86.6023
-147.504
-1.86923
-5.61831
-9.39952
-13.2351
-17.1487
-21.1661
-25.3161
-29.6332
-34.161
-38.9607
-44.1264
-49.7933
-55.982
-61.1757
-52.7239
-1.89948
-5.70896
-9.55016
-13.4448
-17.4155
-21.4855
-25.6776
-30.0103
-34.4875
-39.0678
-43.5825
-47.5128
-49.3862
-45.2227
-25.3
-1.92237
-5.77737
-9.66328
-13.6012
-17.6127
-21.7193
-25.9402
-30.2859
-34.7411
-39.2187
-43.4427
-46.6588
-46.9806
-40.212
-19.1786
-1.93807
-5.8241
-9.73992
-13.7059
-17.7431
-21.8728
-26.115
-30.4842
-34.9776
-39.5441
-44.001
-47.8129
-49.4969
-45.1056
-25.0867
-1.94685
-5.84991
-9.78132
-13.7607
-17.8086
-21.9473
-26.2005
-30.5949
-35.162
-39.9439
-45.0056
-50.4424
-56.2303
-60.8499
-51.9344
-1.94903
-5.85583
-9.78905
-13.7672
-17.8104
-21.9412
-26.1869
-30.5845
-35.1958
-40.1476
-45.7479
-52.8261
-63.7725
-85.9909
-144.72
-1.94509
-5.84316
-9.76516
-13.7281
-17.7507
-21.8546
-26.0666
-30.4244
-34.9917
-39.8992
-45.462
-52.5212
-63.4842
-85.7738
-144.636
-1.93561
-5.81366
-9.71246
-13.6469
-17.6337
-21.6919
-25.8439
-30.1178
-34.55
-39.1939
-44.135
-49.5031
-55.3275
-60.1552
-51.6594
-1.92133
-5.76952
-9.63461
-13.529
-17.4665
-21.463
-25.5356
-29.6998
-33.9599
-38.2805
-42.5096
-46.1661
-47.8608
-43.7863
-24.53
-1.90315
-5.71344
-9.53608
-13.3804
-17.2575
-21.1803
-25.1625
-29.2142
-33.3263
-37.429
-41.2799
-44.1894
-44.3982
-37.9586
-18.0965
-1.88211
-5.64858
-9.4221
-13.2087
-17.0162
-20.8554
-24.7401
-28.6852
-32.698
-36.7507
-40.7023
-44.0865
-45.5507
-41.4504
-23.0029
-1.85946
-5.5786
-9.29872
-13.0218
-16.7521
-20.4981
-24.2747
-28.108
-32.0405
-36.1411
-40.517
-45.3148
-50.5655
-54.9035
-47.0461
-1.8366
-5.50772
-9.17293
-12.8294
-16.4765
-20.1186
-23.7691
-27.4607
-31.2651
-35.3386
-40.037
-46.2264
-56.2119
-76.8231
-130.973
-1.8151
-5.44076
-9.05288
-12.6429
-16.2038
-19.7323
-23.2339
-26.734
-30.3013
-34.1007
-38.52
-44.4999
-54.4766
-75.4489
-130.425
-1.7967
-5.383
-8.94782
-12.4762
-15.953
-19.3639
-22.6989
-25.9597
-29.1753
-32.4307
-35.9177
-39.9958
-45.1032
-50.4577
-45.2156
-1.78316
-5.33999
-8.86771
-12.3449
-15.7473
-19.0474
-22.2143
-25.2158
-28.0205
-30.5984
-32.9033
-34.7752
-35.5562
-32.8229
-19.1635
-1.77615
-5.317
-8.82238
-12.265
-15.6121
-18.8226
-21.8438
-24.6076
-27.022
-28.9545
-30.1884
-30.3107
-28.4481
-22.7744
-10.2409
-1.77705
-5.31846
-8.82031
-12.2511
-15.5713
-18.7284
-21.6513
-24.2411
-26.3572
-27.7948
-28.244
-27.2233
-23.9853
-17.4886
-6.83741
-1.78671
-5.34724
-8.86726
-12.3136
-15.6431
-18.7963
-21.6894
-24.2025
-26.1627
-27.3202
-27.3194
-25.6747
-21.7847
-15.0871
-5.53339
-1.80528
-5.40396
-8.96509
-12.457
-15.8368
-19.044
-21.9905
-24.5472
-26.5247
-27.6488
-27.5356
-25.6843
-21.5329
-14.6685
-5.2799
-1.83205
-5.48661
-9.11073
-12.6777
-16.1499
-19.4722
-22.5617
-25.2933
-27.4783
-28.8356
-28.958
-27.2902
-23.1645
-16.0022
-5.8396
-1.86538
-5.59024
-9.2958
-12.9638
-16.5666
-20.0614
-23.3807
-26.4182
-29.0058
-30.879
-31.6226
-30.6022
-26.9041
-19.4189
-7.45232
-1.90278
-5.70712
-9.50672
-13.2947
-17.0578
-20.7719
-24.3947
-27.8546
-31.0287
-33.7056
-35.5115
-35.7726
-33.2728
-25.9472
-11.1052
-1.94098
-5.82713
-9.72546
-13.6426
-17.5826
-21.545
-25.5212
-29.4884
-33.3961
-37.1362
-40.472
-42.8595
-42.9918
-37.6944
-19.8748
-1.97621
-5.93855
-9.93089
-13.9743
-18.0914
-22.3079
-26.6531
-31.1627
-35.8787
-40.8464
-46.0899
-51.5112
-56.4805
-58.136
-43.8735
-2.00452
-6.02899
-10.1007
-14.2544
-18.5309
-22.9806
-27.6701
-32.6925
-38.1856
-44.3641
-51.5832
-60.4752
-72.2691
-89.6301
-118.902
219.838
164.098
130.387
107.2
89.7105
75.6795
63.9357
53.7955
44.8232
36.7203
29.2702
22.3068
15.6962
9.32511
3.09315
80.3578
104.817
99.9004
89.1545
77.9854
67.5907
58.1369
49.5377
41.6566
34.3598
27.5283
21.0578
14.8564
8.84103
2.93499
35.4986
65.9318
73.4595
71.3999
65.7203
58.8468
51.7431
44.7799
38.0831
31.6754
25.535
19.6215
13.887
8.28086
2.75173
18.8081
42.9517
53.6745
56.1574
54.2824
50.2613
45.2504
39.8358
34.3079
28.8044
23.3834
18.0604
12.8282
7.66701
2.55059
11.473
29.2906
39.6101
43.9396
44.3336
42.3617
39.0369
34.9694
30.5148
25.8755
21.1632
16.4359
11.7197
7.02191
2.33881
7.69903
20.8356
29.7045
34.4536
36.0266
35.4005
33.3381
30.3709
26.8491
22.9966
18.9528
14.8032
10.5983
6.36643
2.12317
5.4954
15.3436
22.659
27.1723
29.246
29.4359
28.2667
26.1566
23.4125
20.2498
16.8155
13.2087
9.49517
5.71876
1.90962
4.08505
11.6102
17.5587
21.5845
23.7727
24.4143
23.8481
22.382
20.266
17.691
14.7976
11.688
8.43552
5.09367
1.70305
3.12248
8.97141
13.7932
17.2722
19.3728
20.2307
20.0536
19.0581
17.4377
15.3527
12.9296
10.2663
7.4377
4.50233
1.50718
2.43486
7.04566
10.9599
13.9168
15.8355
16.7653
16.8271
16.1676
14.9317
13.2489
11.2281
8.95896
6.51389
3.95238
1.32462
1.92697
5.60347
8.79107
11.2819
12.9844
13.9023
14.1009
13.6769
12.7358
11.3793
9.6989
7.77358
5.67079
3.44834
1.15695
1.54225
4.50065
7.10589
9.19413
10.6779
11.5384
11.8069
11.5448
10.8279
9.73447
8.33951
6.71125
4.91065
2.9921
1.00488
1.24505
3.64294
5.77956
7.52585
8.80396
9.58534
9.88089
9.72843
9.18114
8.2988
7.14191
5.76843
4.23231
2.58346
0.868423
1.01186
2.96658
4.72412
6.1825
7.27471
7.96939
8.26578
8.18595
7.76684
7.05356
6.09456
4.9384
3.63214
2.22071
0.747096
0.826549
2.42706
3.87631
5.09327
6.02132
6.62982
6.91173
6.87888
6.55661
5.9788
5.18396
4.21248
3.1049
1.9011
0.640035
0.677733
1.99252
3.18969
4.20455
4.98968
5.51687
5.77607
5.77263
5.52368
5.05459
4.39589
3.58095
2.64441
1.62121
0.546155
0.557148
1.6396
2.62961
3.47523
4.13705
4.58988
4.82266
4.83671
4.64348
4.26192
3.7162
3.03378
2.24404
1.37728
0.464241
0.458664
1.35083
2.16973
2.87348
3.42942
3.81561
4.021
4.04462
3.89394
3.58314
3.13134
2.56107
1.89708
1.16547
0.393035
0.377641
1.11291
1.78974
2.37431
2.8396
3.16677
3.34549
3.37347
3.25549
3.00219
2.62866
2.15337
1.59705
0.98196
0.33129
0.310509
0.915539
1.4738
1.9579
2.34562
2.62096
2.77457
2.80358
2.71095
2.50464
2.1966
1.80188
1.33778
0.823138
0.277809
0.254471
0.750626
1.20931
1.60838
1.92963
2.15961
2.29011
2.31808
2.24528
2.07766
1.82467
1.49854
1.11357
0.685606
0.231464
0.207308
0.611719
0.98618
1.31288
1.57697
1.7673
1.8768
1.90251
1.8454
1.70992
1.5035
1.236
0.919196
0.566234
0.191215
0.167228
0.493596
0.796199
1.06082
1.27548
1.43107
1.52162
1.54442
1.49991
1.3914
1.22469
1.00768
0.749907
0.462166
0.156109
0.132762
0.391964
0.632578
0.843419
1.015
1.13998
1.21345
1.23303
1.19882
1.11326
0.980796
0.80764
0.601412
0.370806
0.125277
0.102682
0.303234
0.489618
0.653268
0.786854
0.884632
0.942669
0.958954
0.933383
0.867663
0.765134
0.63055
0.469831
0.289801
0.0979304
0.0759422
0.224335
0.362436
0.483982
0.583561
0.656865
0.700869
0.713929
0.695804
0.647611
0.571717
0.471596
0.35165
0.217014
0.0733528