/*--------------------------------*- C++ -*----------------------------------*\
| =========                 |                                                 |
| \\      /  F ield         | OpenFOAM: The Open Source CFD Toolbox           |
|  \\    /   O peration     | Version:  5.x                                   |
|   \\  /    A nd           | Web:      www.OpenFOAM.org                      |
|    \\/     M anipulation  |                                                 |
\*---------------------------------------------------------------------------*/
FoamFile
{
    version     2.0;
    format      ascii;
    class       volScalarField;
    location    "0.9";
    object      gradTx;
}
// * * * * * * * * * * * * * * * * * * * * * * * * * * * * * * * * * * * * * //

dimensions      [0 -1 0 1 0 0 0];

internalField   nonuniform List<scalar> 
2048
(
-0.00104014
-0.00297485
-0.00444937
-0.00515596
-0.00478861
-0.00302783
0.000415236
0.00579358
0.0133072
0.0230839
0.0351685
0.0495177
0.0659963
0.0843706
0.104297
0.125308
0.146797
0.168012
0.188077
0.20603
0.220902
0.231824
0.238139
0.2395
0.235927
0.227809
0.215834
0.200894
0.183962
0.165982
0.147787
0.13005
0.11327
0.097776
0.083753
0.0712684
0.0603043
0.0507837
0.0425941
0.0356041
0.0296766
0.0246768
0.0204784
0.0169657
0.0140358
0.0115979
0.00957353
0.00789527
0.0065057
0.00535623
0.00440591
0.00362039
0.00297093
0.00243348
0.00198795
0.00161757
0.00130832
0.00104846
0.00082815
0.000639038
0.000473922
0.000326447
0.000191043
6.28569e-05
-0.00319764
-0.00916824
-0.0137882
-0.0161367
-0.0153037
-0.01034
-0.000372822
0.0153628
0.0374704
0.0663362
0.102097
0.14463
0.193539
0.248142
0.307438
0.370055
0.434202
0.497648
0.557761
0.611634
0.65632
0.689153
0.708109
0.712114
0.701234
0.676661
0.640523
0.595553
0.544716
0.490872
0.436523
0.383675
0.333795
0.287839
0.246327
0.209434
0.177084
0.149031
0.124929
0.104378
0.0869654
0.0722893
0.059973
0.0496739
0.041087
0.0339448
0.028016
0.023102
0.0190342
0.0156699
0.0128889
0.0105904
0.00869029
0.00711801
0.00581473
0.00473134
0.00382678
0.00306672
0.00242236
0.00186932
0.00138649
0.000955054
0.0005583
0.000183326
-0.00559454
-0.0161019
-0.0244272
-0.0290531
-0.0284745
-0.0211114
-0.00548706
0.0196987
0.0554722
0.102489
0.160987
0.230769
0.311207
0.401215
0.499198
0.602956
0.709585
0.815408
0.916018
1.00647
1.08169
1.137
1.16886
1.17534
1.15657
1.11466
1.05334
0.977409
0.891986
0.801951
0.711511
0.623977
0.54172
0.466239
0.398305
0.338127
0.285511
0.239999
0.200981
0.167773
0.139682
0.116037
0.0962166
0.0796583
0.0658637
0.0543979
0.0448852
0.0370045
0.0304835
0.0250918
0.0206362
0.0169547
0.0139118
0.0113943
0.0093078
0.00757351
0.00612557
0.00490899
0.00387766
0.00299262
0.00222023
0.00153004
0.000892836
0.000291928
-0.00838407
-0.0242352
-0.0371409
-0.0450142
-0.045752
-0.0371183
-0.0169864
0.0165299
0.0649205
0.129132
0.209508
0.305786
0.417126
0.542096
0.678598
0.82371
0.973507
1.12291
1.26566
1.39462
1.50224
1.58153
1.62704
1.63582
1.60804
1.54695
1.45825
1.34916
1.22729
1.09973
0.972484
0.85014
0.735882
0.631631
0.538284
0.455972
0.384292
0.322506
0.269694
0.224863
0.187022
0.15523
0.128622
0.106422
0.0879483
0.0726072
0.0598891
0.0493598
0.0406517
0.033455
0.02751
0.0225994
0.0185417
0.0151854
0.0124043
0.010093
0.0081634
0.00654224
0.00516796
0.00398862
0.00295983
0.00204169
0.00118982
0.000387105
-0.011664
-0.0338712
-0.0524583
-0.0648009
-0.0681904
-0.0596883
-0.0364422
0.00410233
0.0639619
0.144402
0.245864
0.368013
0.509811
0.669546
0.844731
1.03188
1.22617
1.42119
1.60879
1.77932
1.92238
2.02804
2.08846
2.09933
2.06089
1.97783
1.85839
1.71278
1.55155
1.38432
1.21897
1.06132
0.915243
0.78291
0.665178
0.561952
0.472505
0.395737
0.330361
0.275041
0.228471
0.189434
0.156825
0.129662
0.107088
0.0883631
0.0728542
0.0600243
0.0494204
0.0406617
0.0334297
0.0274583
0.0225257
0.018447
0.015068
0.0122602
0.00991645
0.00794749
0.00627838
0.00484577
0.00359616
0.00248334
0.00144596
0.000468111
-0.0154854
-0.045175
-0.0706907
-0.0889113
-0.096513
-0.0897877
-0.0650448
-0.0189408
0.0511572
0.14686
0.268685
0.416175
0.588092
0.782511
0.99671
1.22684
1.4674
1.71077
1.94682
2.16313
2.34581
2.48125
2.5584
2.57115
2.51979
2.41097
2.25622
2.06957
1.86515
1.65543
1.45025
1.2566
1.07883
0.919149
0.77815
0.655341
0.549539
0.459186
0.382569
0.31797
0.263757
0.21843
0.180649
0.149235
0.123168
0.101572
0.0837047
0.0689366
0.0567397
0.0466713
0.0383622
0.0315045
0.0258419
0.021161
0.0172842
0.0140634
0.0113752
0.00911719
0.00720306
0.00555966
0.00412584
0.00285219
0.00165952
0.000534571
-0.019857
-0.0581882
-0.0919541
-0.117595
-0.131162
-0.128087
-0.103686
-0.0536525
0.0253867
0.135414
0.276952
0.449333
0.651074
0.880103
1.13365
1.40779
1.69665
1.9916
2.28057
2.548
2.77578
2.94552
3.04192
3.05632
2.98907
2.84951
2.65357
2.4202
2.16787
1.91231
1.66536
1.43498
1.22573
1.03957
0.876579
0.735668
0.615048
0.512606
0.426145
0.353537
0.292806
0.242173
0.200067
0.165127
0.136181
0.112234
0.0924433
0.076101
0.0626144
0.0514887
0.0423122
0.0347421
0.0284939
0.0233309
0.0190559
0.0155049
0.0125417
0.0100528
0.00794315
0.00613116
0.00454951
0.00314828
0.0018303
0.000586462
-0.0247484
-0.0728374
-0.116185
-0.150875
-0.17233
-0.175012
-0.153025
-0.10086
-0.0142263
0.109246
0.269961
0.466864
0.698129
0.961596
1.25468
1.57374
1.91296
2.26308
2.61019
2.93527
3.21507
3.42503
3.54402
3.55982
3.47286
3.29619
3.05172
2.76472
2.45898
2.15382
1.86308
1.59536
1.35507
1.14353
0.960044
0.802683
0.668912
0.555971
0.461126
0.381812
0.315707
0.260757
0.215176
0.177429
0.146212
0.120422
0.099134
0.0815725
0.0670917
0.055154
0.0453133
0.0371995
0.0305054
0.0249759
0.020399
0.0165979
0.0134263
0.0107627
0.00850516
0.00656518
0.00487073
0.00337372
0.00195918
0.000624062
-0.0300925
-0.0889415
-0.14315
-0.188563
-0.219988
-0.230777
-0.213545
-0.16123
-0.0683816
0.0677712
0.247292
0.468453
0.728911
1.02646
1.35897
1.72355
2.11504
2.52408
2.93521
3.32569
3.66611
3.92386
4.06986
4.08682
3.97524
3.7534
3.45132
3.10251
2.73714
2.37845
2.042
1.73663
1.46606
1.23057
1.02832
0.856351
0.711222
0.589448
0.487716
0.403016
0.33268
0.274391
0.226163
0.186308
0.153406
0.126264
0.103886
0.085444
0.0702498
0.0577327
0.0474204
0.038922
0.0319138
0.0261272
0.0213389
0.0173631
0.0140459
0.0112604
0.00889951
0.00686954
0.00509514
0.00353199
0.00204782
0.000647877
-0.0357882
-0.106219
-0.172457
-0.230271
-0.273893
-0.295419
-0.285597
-0.235336
-0.137663
0.0105893
0.208794
0.454101
0.743373
1.07437
1.44576
1.85597
2.30123
2.77286
3.25441
3.71935
4.13093
4.44615
4.62497
4.64284
4.50032
4.22313
3.85242
3.43229
3.00048
2.5843
2.20058
1.85768
1.55804
1.30038
1.08139
0.896831
0.74225
0.613365
0.506265
0.417491
0.344044
0.283365
0.233286
0.191991
0.157959
0.129925
0.10684
0.0878343
0.0721884
0.059308
0.0487026
0.0399671
0.0327666
0.0268237
0.0219077
0.0178266
0.0144216
0.0115624
0.00913929
0.0070541
0.00522987
0.00362752
0.00209839
0.000658624
-0.0417037
-0.124294
-0.203561
-0.275415
-0.333601
-0.368808
-0.369446
-0.323718
-0.222602
-0.0625472
0.15458
0.424141
0.741795
1.10528
1.51442
1.96968
2.46957
3.00715
3.56585
4.11559
4.61113
4.99612
5.2154
5.23392
5.05233
4.70697
4.25431
3.75202
3.24658
2.76919
2.33715
1.95746
1.63049
1.35286
1.11942
0.924469
0.76243
0.62819
0.517234
0.425671
0.350196
0.28803
0.236855
0.194742
0.160097
0.131598
0.108158
0.088879
0.0730206
0.0599742
0.0492381
0.0403993
0.033117
0.0271091
0.022141
0.0180174
0.0145768
0.0116877
0.00923916
0.00712992
0.00528297
0.00366541
0.0021136
0.000657269
-0.0476803
-0.142709
-0.235774
-0.323217
-0.398459
-0.450657
-0.4653
-0.426948
-0.32374
-0.151769
0.0850244
0.379246
0.724812
1.11943
1.56452
2.06336
2.61785
3.2241
3.86677
4.51289
5.10779
5.57816
5.84799
5.86691
5.63565
5.206
4.65547
4.05889
3.47248
2.9307
2.45009
2.03509
1.68312
1.38812
1.14279
0.939782
0.772338
0.634501
0.521173
0.428059
0.351582
0.288779
0.237205
0.194851
0.160065
0.13149
0.108014
0.0887225
0.0728668
0.0598309
0.0491094
0.0402868
0.0330211
0.0270295
0.0220765
0.0179661
0.0145363
0.0116558
0.0092145
0.00710867
0.00526305
0.00365124
0.00209663
0.000645102
-0.0535387
-0.160938
-0.268279
-0.372711
-0.4676
-0.540518
-0.573344
-0.545702
-0.4417
-0.257117
0.000768534
0.320456
0.693425
1.11737
1.59584
2.13577
2.74367
3.42034
4.15351
4.90872
5.62132
6.19684
6.53059
6.54968
6.25488
5.72067
5.05339
4.34924
3.67475
3.06627
2.53782
2.08986
1.71585
1.4065
1.15206
0.943441
0.772667
0.632966
0.518695
0.425204
0.348685
0.286026
0.234693
0.192617
0.158115
0.129811
0.106582
0.0875117
0.0718487
0.0589791
0.0483999
0.0396984
0.0325355
0.0266311
0.021752
0.0177035
0.0143246
0.0114865
0.00908084
0.00700214
0.00517903
0.00359097
0.00205127
0.000623832
-0.0590852
-0.178402
-0.300152
-0.422748
-0.539927
-0.637762
-0.69376
-0.680838
-0.57727
-0.378572
-0.0972627
0.249189
0.649016
1.10001
1.60844
2.18582
2.84459
3.59208
4.42154
5.29936
6.15122
6.85691
7.2724
7.29142
6.91482
6.25054
5.4444
4.61857
3.84956
3.17332
2.599
2.12134
1.72888
1.40857
1.14798
0.93625
0.764205
0.624314
0.510456
0.41768
0.341998
0.280195
0.229675
0.188342
0.1545
0.126772
0.104039
0.0853913
0.0700861
0.0575178
0.0471912
0.0387011
0.0317152
0.0259591
0.0212043
0.0172594
0.013966
0.011199
0.00885335
0.00682195
0.00503991
0.00349095
0.00198196
0.000595612
-0.0641206
-0.194493
-0.330379
-0.472005
-0.614093
-0.741546
-0.826732
-0.833487
-0.731493
-0.516063
-0.207836
0.167253
0.593337
1.06858
1.60268
2.21267
2.91819
3.73516
4.66538
5.67969
6.69583
7.56323
8.08437
8.10313
7.62037
6.79399
5.82346
4.86148
3.99277
3.24936
2.63253
2.12944
1.72271
1.39511
1.13147
0.91912
0.747806
0.609317
0.497131
0.40607
0.33202
0.271704
0.222503
0.18232
0.149464
0.122576
0.100552
0.0825003
0.0676938
0.0555414
0.0455611
0.0373591
0.0306129
0.0250565
0.0204685
0.0166622
0.0134834
0.0108117
0.00854653
0.00657926
0.00485462
0.00335785
0.00189372
0.000562951
-0.0684495
-0.208602
-0.357897
-0.519003
-0.688483
-0.850758
-0.972438
-1.00516
-0.905776
-0.669471
-0.329371
0.0768563
0.528487
1.02462
1.57926
2.21579
2.96224
3.84524
4.87874
6.04302
7.25186
8.32062
8.97973
8.99801
8.37639
7.34784
6.18397
5.07175
4.10014
3.29218
2.63773
2.11443
1.69811
1.36714
1.10355
0.893046
0.72437
0.588762
0.479399
0.390949
0.319233
0.260958
0.213515
0.174829
0.143239
0.117414
0.0962797
0.0789692
0.0647792
0.0531386
0.0435826
0.0357322
0.0292775
0.0239635
0.0195772
0.0159385
0.0128981
0.0103415
0.00817406
0.00628468
0.00463191
0.00319857
0.00179185
0.000528448
-0.0718903
-0.220147
-0.381632
-0.562137
-0.761188
-0.963942
-1.13101
-1.19787
-1.10203
-0.838602
-0.459875
-0.0193905
0.456865
0.969958
1.53917
2.19503
2.97488
3.91799
5.05453
6.38088
7.81394
9.13356
9.97458
9.99223
9.18743
7.90679
6.51761
5.24247
4.16746
3.29996
2.61437
2.07695
1.65615
1.32582
1.0654
0.859076
0.694815
0.563437
0.457924
0.372874
0.304103
0.248343
0.203029
0.166133
0.136041
0.111464
0.0913681
0.0749185
0.0614415
0.0503908
0.0413224
0.0338751
0.0277541
0.0227168
0.0185605
0.0151126
0.0122297
0.00980431
0.00774861
0.0059481
0.00438005
0.00302006
0.00168148
0.000494366
-0.0742853
-0.228604
-0.400545
-0.599715
-0.829998
-1.0792
-1.30248
-1.41431
-1.32282
-1.02312
-0.596871
-0.118488
0.381106
0.906604
1.48373
2.15067
2.95472
3.94936
5.18515
6.68291
8.37393
10.0057
11.0888
11.1057
10.0572
8.46284
6.81416
5.3662
4.19085
3.27145
2.56275
2.01808
1.59816
1.27251
1.01822
0.818282
0.660056
0.53411
0.433346
0.352375
0.287064
0.234216
0.191339
0.156474
0.128069
0.10489
0.0859511
0.0704579
0.0577706
0.0473717
0.0388411
0.0318377
0.0260833
0.0213495
0.0174452
0.0142065
0.0114958
0.00921423
0.00728181
0.00557868
0.0041067
0.00282903
0.00156693
0.000462105
-0.0755097
-0.233537
-0.413688
-0.630018
-0.892398
-1.19407
-1.48661
-1.65804
-1.57158
-1.22244
-0.737292
-0.217076
0.303989
0.836701
1.41449
2.08349
2.901
3.93578
5.26272
6.93685
8.92022
10.9389
12.3472
12.3632
10.9876
9.00446
7.0615
5.43525
4.16697
3.20611
2.48376
1.93923
1.52566
1.20863
0.963288
0.771736
0.620986
0.501516
0.406268
0.329943
0.268518
0.218906
0.178713
0.14607
0.119501
0.0978378
0.0801485
0.0656855
0.0538471
0.0441473
0.0361928
0.029664
0.0243012
0.0198913
0.0162557
0.0132397
0.0107124
0.00858399
0.00678418
0.00518479
0.00381856
0.00263149
0.0014511
0.000431723
-0.0754799
-0.234627
-0.420259
-0.65137
-0.945596
-1.30538
-1.68273
-1.93374
-1.85289
-1.43553
-0.877358
-0.311481
0.22833
0.762416
1.3332
1.99472
2.81373
3.87452
5.27954
7.1286
9.43684
11.9323
13.7809
13.7959
11.978
9.51582
7.24571
5.44213
4.09333
3.1042
2.37883
1.8422
1.44039
1.1357
0.90187
0.720485
0.578456
0.466346
0.377248
0.306031
0.248833
0.20271
0.165393
0.135117
0.110497
0.0904375
0.0740669
0.0606883
0.0497419
0.0407759
0.0334249
0.0273931
0.0224399
0.0183683
0.0150129
0.0122294
0.00989332
0.00792481
0.00626508
0.00477403
0.00352117
0.00243238
0.00133511
0.000401716
-0.0741583
-0.231695
-0.419653
-0.662229
-0.98658
-1.40914
-1.88939
-2.24755
-2.17276
-1.66057
-1.01245
-0.397807
0.156855
0.685843
1.24177
1.88603
2.69373
3.76391
5.22851
7.24257
9.90262
12.9802
15.4293
15.4431
13.0225
9.97584
7.35136
5.37998
3.96856
2.96689
2.24996
1.72904
1.34417
1.05525
0.835216
0.66553
0.533267
0.429238
0.346796
0.281047
0.228335
0.185891
0.151591
0.12379
0.101199
0.0828037
0.0677993
0.0555424
0.0455172
0.037308
0.0305792
0.025059
0.0205271
0.0168031
0.0137355
0.0111907
0.00905088
0.0072465
0.00573269
0.00435324
0.00321872
0.00223513
0.0012183
0.000369232
-0.0715569
-0.224709
-0.41151
-0.66129
-1.01222
-1.50033
-2.1039
-2.60749
-2.5391
-1.89456
-1.137
-0.472056
0.0920654
0.608904
1.14213
1.75951
2.54271
3.60363
5.10377
7.26229
10.2904
14.0693
17.3424
17.355
14.1079
10.3574
7.36214
5.24315
3.79261
2.79623
2.09964
1.60202
1.2389
0.968804
0.764519
0.607808
0.486153
0.390771
0.31537
0.255355
0.207316
0.168684
0.137496
0.112238
0.0917271
0.0750354
0.0614264
0.0503134
0.0412264
0.0337874
0.0276911
0.0226908
0.0185866
0.0152151
0.0124393
0.0101365
0.00819564
0.00655755
0.00519399
0.00392849
0.00291406
0.00204143
0.00109889
0.00033083
-0.0677359
-0.213795
-0.39575
-0.647587
-1.01941
-1.5729
-2.32169
-3.024
-2.96226
-2.13259
-1.24439
-0.530301
0.0360949
0.533268
1.03622
1.61756
2.36319
3.39485
4.90127
7.17123
10.5662
15.1747
19.5842
19.5956
15.2097
10.6269
7.26169
5.02781
3.56697
2.59515
1.93075
1.46356
1.12649
0.877822
0.690904
0.548181
0.437781
0.351463
0.283374
0.229273
0.186028
0.151288
0.123268
0.100591
0.0821876
0.0672175
0.0550169
0.0450571
0.0369152
0.0302513
0.0247912
0.0203133
0.0166386
0.013621
0.0111376
0.00907769
0.00733667
0.00586525
0.00465466
0.00350508
0.00260888
0.0018512
0.000975091
0.000283716
-0.0628014
-0.199224
-0.372591
-0.620598
-1.00531
-1.61967
-2.53534
-3.51064
-3.45568
-2.36698
-1.32694
-0.568915
-0.0094178
0.460278
0.925885
1.46284
2.15847
3.14032
4.61937
6.95412
10.6898
16.2549
22.2365
22.2467
16.286
10.7439
7.03485
4.73253
3.29467
2.36732
1.74646
1.31612
1.00877
0.783685
0.615402
0.487428
0.388742
0.311767
0.251162
0.203079
0.164688
0.133878
0.109045
0.0889604
0.0726686
0.0594217
0.0486289
0.0398208
0.0326219
0.0267309
0.0219047
0.0179473
0.0147003
0.0120347
0.00984198
0.00802354
0.00648164
0.00517586
0.00411919
0.00308749
0.00230404
0.00166296
0.000846484
0.00022717
-0.0568975
-0.181397
-0.34254
-0.580334
-0.967562
-1.6325
-2.73335
-4.08491
-4.03682
-2.58596
-1.37606
-0.584845
-0.0434401
0.39092
0.81284
1.29812
1.93245
2.84437
4.25934
6.59841
10.6146
17.2439
25.4044
25.4133
17.2712
10.662
6.66924
4.35878
2.98032
2.11705
1.55009
1.16213
0.887505
0.687663
0.538943
0.426238
0.339554
0.272078
0.219036
0.177006
0.143481
0.116597
0.0949429
0.0774378
0.0632445
0.0517076
0.0423107
0.0346435
0.0283783
0.023252
0.0190529
0.01561
0.0127856
0.0104676
0.00856167
0.00698161
0.00563694
0.0044947
0.00359089
0.00267926
0.0020002
0.00147438
0.000715201
0.000163698
-0.0501979
-0.160819
-0.306376
-0.527389
-0.904628
-1.60259
-2.89846
-4.76938
-4.72815
-2.77206
-1.38254
-0.575922
-0.0656205
0.325803
0.698617
1.1262
1.68949
2.51273
3.82573
6.09613
10.2901
18.0417
29.2219
29.2296
18.0651
10.3307
6.15699
3.91128
2.62993
1.84909
1.345
1.00392
0.76432
0.590901
0.462349
0.365209
0.290662
0.232731
0.187252
0.151251
0.12256
0.099567
0.0810566
0.0660993
0.0539758
0.0441243
0.0361018
0.0295573
0.0242102
0.0198358
0.0162529
0.0133154
0.010906
0.00892913
0.00730435
0.00595806
0.00480781
0.00382634
0.00307204
0.00228294
0.00169836
0.00128314
0.00058628
9.93339e-05
-0.0428937
-0.138063
-0.2651
-0.462962
-0.816103
-1.5211
-3.00551
-5.59298
-5.55854
-2.89992
-1.3372
-0.541187
-0.0763172
0.265183
0.584552
0.949809
1.43417
2.15231
3.32646
5.44579
9.66524
18.5015
33.8604
33.8668
18.521
9.69921
5.49669
3.3981
2.25063
1.56839
1.13448
0.843663
0.640674
0.494407
0.386329
0.304854
0.24244
0.194004
0.15602
0.125978
0.102051
0.0828859
0.0674639
0.0550064
0.044912
0.036711
0.0300339
0.0245877
0.0201386
0.0164991
0.0135184
0.0110748
0.00907068
0.00742677
0.00607617
0.00495783
0.00399839
0.00317467
0.00256412
0.00189996
0.00140039
0.00108776
0.000466732
4.26322e-05
-0.0351817
-0.113735
-0.219869
-0.388821
-0.703013
-1.38014
-3.0187
-6.59252
-6.56477
-2.93358
-1.23184
-0.481196
-0.0765692
0.209006
0.471769
0.771504
1.17112
1.77079
2.77261
4.65411
8.6945
18.4139
39.5374
39.5426
18.4297
8.72189
4.69519
2.83047
1.85032
1.2799
0.921594
0.683317
0.517852
0.399047
0.311484
0.245598
0.195198
0.156127
0.125513
0.101316
0.0820537
0.066632
0.0542262
0.0442078
0.0360915
0.0294989
0.024132
0.019755
0.0161796
0.0132552
0.0108602
0.00889683
0.00728675
0.00596638
0.00488196
0.00398477
0.00321189
0.00254293
0.00206807
0.00153063
0.00110936
0.000888166
0.000363135
2.20709e-06
-0.0272515
-0.0884416
-0.171929
-0.307207
-0.568045
-1.17425
-2.88823
-7.81461
-7.79339
-2.82312
-1.06078
-0.398245
-0.0680066
0.156975
0.361187
0.593615
0.904796
1.37624
2.17795
3.73746
7.34638
17.4871
46.5276
46.5316
17.4991
7.36733
3.76891
2.22228
1.43723
0.98834
0.70915
0.524603
0.396954
0.305549
0.238311
0.18779
0.149185
0.119282
0.0958662
0.0773674
0.0626477
0.0508662
0.0413911
0.033741
0.0275443
0.0225116
0.0184151
0.0150744
0.0123458
0.010114
0.00828638
0.00678819
0.00555964
0.0045524
0.00372539
0.00304183
0.00245067
0.00193376
0.00158455
0.00117419
0.000829442
0.000685908
0.000278181
-1.67585e-05
-0.0192758
-0.0627585
-0.122535
-0.220688
-0.415639
-0.902454
-2.54628
-9.31774
-9.30285
-2.50061
-0.822838
-0.296455
-0.0527011
0.108626
0.253536
0.418184
0.639285
0.976613
1.55807
2.72235
5.61565
15.3231
55.1753
55.1781
15.3315
5.63035
2.74443
1.5892
1.01948
0.698063
0.499601
0.368985
0.278894
0.214507
0.167208
0.131705
0.104596
0.0836098
0.0671837
0.0542113
0.0438918
0.0356341
0.0289941
0.0236338
0.0192924
0.0157667
0.0128971
0.0105572
0.00864602
0.00708293
0.00580295
0.00475368
0.0038933
0.00318806
0.00260916
0.00213118
0.00171635
0.00134916
0.00111426
0.000829062
0.000565404
0.000483843
0.000207383
-1.58958e-05
-0.0114035
-0.0372115
-0.0728845
-0.131974
-0.25186
-0.571014
-1.90229
-11.1747
-11.1659
-1.87538
-0.524118
-0.181643
-0.0329683
0.0634076
0.149373
0.246937
0.378202
0.579376
0.929274
1.64476
3.53936
11.3901
65.9086
65.9102
11.3951
3.54802
1.65777
0.947622
0.604651
0.412882
0.295022
0.217668
0.164408
0.126391
0.0984866
0.0775547
0.0615789
0.0492161
0.0395422
0.031904
0.025829
0.0209683
0.0170602
0.0139057
0.0113509
0.0092763
0.00758783
0.00621104
0.00508659
0.00416695
0.00341389
0.00279656
0.00229038
0.00187557
0.00153512
0.00125435
0.00100994
0.000790504
0.000658049
0.000493157
0.000321688
0.000285445
0.000137999
-5.04331e-06
-0.00375787
-0.0122698
-0.0240684
-0.0436987
-0.0839807
-0.196848
-0.837517
-13.4751
-13.4722
-0.828673
-0.181432
-0.0608949
-0.0111414
0.0207556
0.0491109
0.0812742
0.124586
0.191107
0.30731
0.54764
1.21717
4.99087
79.2547
79.2552
4.99251
1.22002
0.551914
0.313343
0.19942
0.135996
0.0971019
0.0716077
0.0540691
0.0415567
0.0323767
0.0254923
0.0202392
0.0161747
0.0129947
0.0104841
0.00848745
0.00689002
0.00560575
0.00456911
0.00372961
0.00304792
0.00249311
0.00204073
0.00167126
0.0013691
0.00112167
0.000918827
0.000752508
0.000616242
0.000504425
0.00041234
0.000331964
0.000258478
0.000217074
0.000164371
0.000101216
9.41679e-05
5.29527e-05
8.29971e-07
)
;

boundaryField
{
    left
    {
        type            calculated;
        value           uniform 0;
    }
    right
    {
        type            calculated;
        value           uniform 0;
    }
    interface
    {
        type            calculated;
        value           nonuniform List<scalar> 
64
(
-0.00375787
-0.0122698
-0.0240684
-0.0436987
-0.0839807
-0.196848
-0.837517
-13.4751
-13.4722
-0.828673
-0.181432
-0.0608949
-0.0111414
0.0207556
0.0491109
0.0812742
0.124586
0.191107
0.30731
0.54764
1.21717
4.99087
79.2547
79.2552
4.99251
1.22002
0.551914
0.313343
0.19942
0.135996
0.0971019
0.0716077
0.0540691
0.0415567
0.0323767
0.0254923
0.0202392
0.0161747
0.0129947
0.0104841
0.00848745
0.00689002
0.00560575
0.00456911
0.00372961
0.00304792
0.00249311
0.00204073
0.00167126
0.0013691
0.00112167
0.000918827
0.000752508
0.000616242
0.000504425
0.00041234
0.000331964
0.000258478
0.000217074
0.000164371
0.000101216
9.41679e-05
5.29527e-05
8.29971e-07
)
;
    }
    bottom
    {
        type            calculated;
        value           nonuniform List<scalar> 
64
(
-0.00104014
-0.00297485
-0.00444937
-0.00515596
-0.00478861
-0.00302783
0.000415236
0.00579358
0.0133072
0.0230839
0.0351685
0.0495177
0.0659963
0.0843706
0.104297
0.125308
0.146797
0.168012
0.188077
0.20603
0.220902
0.231824
0.238139
0.2395
0.235927
0.227809
0.215834
0.200894
0.183962
0.165982
0.147787
0.13005
0.11327
0.097776
0.083753
0.0712684
0.0603043
0.0507837
0.0425941
0.0356041
0.0296766
0.0246768
0.0204784
0.0169657
0.0140358
0.0115979
0.00957353
0.00789527
0.0065057
0.00535623
0.00440591
0.00362039
0.00297093
0.00243348
0.00198795
0.00161757
0.00130832
0.00104846
0.00082815
0.000639038
0.000473922
0.000326447
0.000191043
6.28569e-05
)
;
    }
    defaultFaces
    {
        type            empty;
    }
}


// ************************************************************************* //
