/*--------------------------------*- C++ -*----------------------------------*\
| =========                 |                                                 |
| \\      /  F ield         | OpenFOAM: The Open Source CFD Toolbox           |
|  \\    /   O peration     | Version:  5.x                                   |
|   \\  /    A nd           | Web:      www.OpenFOAM.org                      |
|    \\/     M anipulation  |                                                 |
\*---------------------------------------------------------------------------*/
FoamFile
{
    version     2.0;
    format      ascii;
    class       volScalarField;
    location    "0.9";
    object      gradTy;
}
// * * * * * * * * * * * * * * * * * * * * * * * * * * * * * * * * * * * * * //

dimensions      [0 -1 0 1 0 0 0];

internalField   nonuniform List<scalar> 
2048
(
-18.5945
-18.5992
-18.6079
-18.6193
-18.6313
-18.6414
-18.646
-18.6413
-18.6228
-18.5855
-18.5245
-18.4346
-18.3111
-18.1493
-17.9455
-17.6966
-17.4009
-17.0578
-16.669
-16.2378
-15.77
-15.2733
-14.7573
-14.2329
-13.711
-13.2024
-12.7165
-12.2609
-11.8408
-11.4597
-11.1187
-10.8173
-10.5538
-10.3258
-10.1299
-9.96286
-9.82128
-9.70187
-9.6016
-9.5177
-9.44771
-9.38947
-9.34111
-9.30102
-9.26784
-9.24042
-9.21777
-9.19909
-9.1837
-9.17102
-9.16058
-9.152
-9.14496
-9.13918
-9.13446
-9.1306
-9.12748
-9.12496
-9.12295
-9.12139
-9.1202
-9.11934
-9.11879
-9.11852
-18.5896
-18.5948
-18.6046
-18.6175
-18.6318
-18.6445
-18.6524
-18.6514
-18.6367
-18.6036
-18.5466
-18.4607
-18.3407
-18.1821
-17.9807
-17.7333
-17.4378
-17.0936
-16.7019
-16.2661
-15.792
-15.2875
-14.7629
-14.2294
-13.6989
-13.1827
-12.6906
-12.2306
-11.8079
-11.4258
-11.0851
-10.7851
-10.5237
-10.2982
-10.105
-9.94073
-9.80179
-9.68485
-9.58681
-9.50489
-9.43664
-9.37991
-9.33285
-9.29387
-9.26162
-9.23499
-9.213
-9.19487
-9.17993
-9.16763
-9.15751
-9.14919
-9.14236
-9.13676
-9.13218
-9.12845
-9.12542
-9.12298
-9.12103
-9.11951
-9.11836
-9.11753
-9.11699
-9.11673
-18.5799
-18.5861
-18.5978
-18.6139
-18.6322
-18.6502
-18.6642
-18.6701
-18.663
-18.6377
-18.5886
-18.5102
-18.3973
-18.2447
-18.048
-17.8036
-17.5089
-17.1626
-16.7656
-16.321
-15.8347
-15.3152
-14.7735
-14.2225
-13.6752
-13.1442
-12.6404
-12.172
-11.7445
-11.3606
-11.0208
-10.7236
-10.4664
-10.2458
-10.0579
-9.89894
-9.76505
-9.65279
-9.55899
-9.48083
-9.41587
-9.36199
-9.31736
-9.28045
-9.24996
-9.2248
-9.20405
-9.18695
-9.17286
-9.16127
-9.15174
-9.14391
-9.13748
-9.13221
-9.1279
-9.12438
-9.12153
-9.11923
-9.1174
-9.11597
-9.11489
-9.1141
-9.1136
-9.11335
-18.5653
-18.5729
-18.5874
-18.6078
-18.632
-18.6573
-18.6802
-18.696
-18.6998
-18.6858
-18.648
-18.5806
-18.4777
-18.3339
-18.1444
-17.9046
-17.6113
-17.2625
-16.8582
-16.4012
-15.8972
-15.3557
-14.7891
-14.2121
-13.64
-13.0874
-12.5666
-12.0864
-11.6524
-11.2665
-10.9285
-10.6359
-10.385
-10.1718
-9.99163
-9.84026
-9.71362
-9.60802
-9.5202
-9.44735
-9.387
-9.33709
-9.29587
-9.26184
-9.23378
-9.21066
-9.19161
-9.17593
-9.16303
-9.15242
-9.1437
-9.13654
-9.13066
-9.12584
-9.1219
-9.11869
-9.11609
-9.11399
-9.11231
-9.11101
-9.11001
-9.1093
-9.10883
-9.10861
-18.5457
-18.5549
-18.573
-18.5986
-18.6302
-18.6648
-18.6989
-18.7276
-18.7453
-18.7458
-18.7226
-18.6693
-18.5795
-18.4474
-18.2673
-18.0341
-17.7434
-17.3921
-16.9792
-16.5065
-15.9798
-15.4093
-14.8096
-14.1979
-13.593
-13.0121
-12.4693
-11.9744
-11.5326
-11.1452
-10.8104
-10.5243
-10.2822
-10.0788
-9.90879
-9.76728
-9.64988
-9.55271
-9.47242
-9.40617
-9.35155
-9.30656
-9.26951
-9.23903
-9.21394
-9.19331
-9.17635
-9.16241
-9.15094
-9.14153
-9.13379
-9.12744
-9.12223
-9.11797
-9.11448
-9.11163
-9.10933
-9.10747
-9.10598
-9.10483
-9.10395
-9.10331
-9.10289
-9.1027
-18.5207
-18.5319
-18.5539
-18.5857
-18.6258
-18.6715
-18.7191
-18.7633
-18.798
-18.8161
-18.8106
-18.7743
-18.7005
-18.5827
-18.4146
-18.1902
-17.9038
-17.5508
-17.1284
-16.6373
-16.083
-15.4766
-14.835
-14.1795
-13.5331
-12.9169
-12.3476
-11.8356
-11.3857
-10.9978
-10.6681
-10.3912
-10.1605
-9.96946
-9.81194
-9.68241
-9.5761
-9.48892
-9.41747
-9.35892
-9.31094
-9.27162
-9.23938
-9.21295
-9.19127
-9.17348
-9.15888
-9.1469
-9.13707
-9.129
-9.12238
-9.11695
-9.1125
-9.10886
-9.10588
-9.10345
-9.10147
-9.09989
-9.09862
-9.09763
-9.09688
-9.09633
-9.09597
-9.09581
-18.4902
-18.5034
-18.5296
-18.5682
-18.6179
-18.6763
-18.7394
-18.8017
-18.8563
-18.8951
-18.9102
-18.8938
-18.8386
-18.7378
-18.5845
-18.3715
-18.0916
-17.7382
-17.3065
-16.795
-16.2083
-15.5585
-14.8657
-14.1562
-13.4591
-12.8004
-12.1999
-11.6691
-11.2115
-10.825
-10.5032
-10.2384
-10.0221
-9.84614
-9.70348
-9.58794
-9.49437
-9.41855
-9.35705
-9.3071
-9.26649
-9.23342
-9.20646
-9.18446
-9.16648
-9.15178
-9.13975
-9.1299
-9.12183
-9.11522
-9.10981
-9.10537
-9.10173
-9.09876
-9.09633
-9.09434
-9.09273
-9.09143
-9.0904
-9.08959
-9.08897
-9.08853
-9.08823
-9.08811
-18.454
-18.4693
-18.4998
-18.5455
-18.6055
-18.6778
-18.7585
-18.8415
-18.9189
-18.9815
-19.02
-19.0261
-18.9921
-18.9109
-18.775
-18.5764
-18.306
-17.9546
-17.5144
-16.9812
-16.3578
-15.6568
-14.9022
-14.1273
-13.3689
-12.6601
-12.0243
-11.4736
-11.0098
-10.6275
-10.3172
-10.068
-9.86919
-9.71117
-9.5857
-9.48601
-9.40667
-9.34337
-9.29272
-9.25208
-9.21937
-9.19298
-9.17162
-9.15431
-9.14024
-9.12879
-9.11945
-9.11183
-9.10561
-9.10052
-9.09636
-9.09296
-9.09017
-9.08789
-9.08603
-9.08451
-9.08328
-9.08228
-9.08149
-9.08086
-9.08039
-9.08006
-9.07982
-9.07973
-18.412
-18.4292
-18.464
-18.5168
-18.5876
-18.675
-18.7752
-18.8815
-18.9848
-19.074
-19.1387
-19.1697
-19.1591
-19.0999
-18.9843
-18.8034
-18.546
-18.2001
-17.7537
-17.1984
-16.5342
-15.7736
-14.9453
-14.0915
-13.2601
-12.4929
-11.8181
-11.2476
-10.7802
-10.406
-10.1114
-9.88183
-9.70411
-9.56684
-9.46079
-9.37866
-9.31483
-9.265
-9.2259
-9.19508
-9.17065
-9.1512
-9.13565
-9.12317
-9.11312
-9.105
-9.09842
-9.09307
-9.08873
-9.08519
-9.0823
-9.07995
-9.07802
-9.07645
-9.07517
-9.07412
-9.07327
-9.07258
-9.07203
-9.0716
-9.07127
-9.07104
-9.07088
-9.07083
-18.3643
-18.3832
-18.4219
-18.4815
-18.5632
-18.6665
-18.788
-18.9205
-19.0528
-19.1719
-19.2653
-19.3232
-19.338
-19.3028
-19.2104
-19.0507
-18.8108
-18.4748
-18.0257
-17.4494
-16.741
-15.912
-14.9962
-14.0477
-13.1294
-12.2951
-11.5781
-10.9892
-10.5222
-10.1613
-9.88747
-9.6821
-9.5291
-9.4154
-9.33085
-9.26779
-9.22054
-9.18491
-9.15786
-9.13718
-9.12125
-9.10888
-9.09922
-9.09162
-9.08561
-9.08083
-9.07701
-9.07394
-9.07147
-9.06948
-9.06786
-9.06655
-9.06548
-9.06461
-9.0639
-9.06332
-9.06284
-9.06246
-9.06215
-9.06191
-9.06173
-9.06161
-9.06152
-9.0615
-18.3112
-18.3315
-18.3733
-18.4392
-18.5315
-18.6512
-18.7958
-18.9573
-19.1222
-19.2744
-19.399
-19.4854
-19.5268
-19.5176
-19.4509
-19.3163
-19.0989
-18.7786
-18.3322
-17.7376
-16.9826
-16.0757
-15.0562
-13.9941
-12.9728
-12.0621
-11.3007
-10.6964
-10.2356
-9.89445
-9.64735
-9.47102
-9.34647
-9.25905
-9.19791
-9.15519
-9.12533
-9.10441
-9.08971
-9.07933
-9.07196
-9.06669
-9.0629
-9.06015
-9.05813
-9.05665
-9.05554
-9.05471
-9.05408
-9.05359
-9.05322
-9.05293
-9.0527
-9.05251
-9.05236
-9.05223
-9.05213
-9.05205
-9.05198
-9.05192
-9.05189
-9.05187
-9.05185
-9.05187
-18.2531
-18.2742
-18.3183
-18.3893
-18.4914
-18.6278
-18.7971
-18.9909
-19.1925
-19.3812
-19.5392
-19.6553
-19.7241
-19.7419
-19.7033
-19.5979
-19.4087
-19.1113
-18.6747
-18.0667
-17.2642
-16.2695
-15.1274
-13.9285
-12.7854
-11.7884
-10.9819
-10.3674
-9.92045
-9.60688
-9.39315
-9.251
-9.1586
-9.09999
-9.06388
-9.0425
-9.0306
-9.02468
-9.02242
-9.02233
-9.02346
-9.02519
-9.02716
-9.02915
-9.03103
-9.03275
-9.03427
-9.0356
-9.03675
-9.03772
-9.03855
-9.03924
-9.03981
-9.04029
-9.04067
-9.04099
-9.04124
-9.04144
-9.0416
-9.04173
-9.04183
-9.04192
-9.04197
-9.04203
-18.1907
-18.2119
-18.257
-18.3316
-18.4421
-18.5948
-18.7904
-19.0202
-19.2633
-19.4924
-19.6857
-19.832
-19.9281
-19.9735
-19.9649
-19.8926
-19.7381
-19.472
-19.0547
-18.441
-17.5923
-16.4998
-15.2124
-13.8482
-12.5606
-11.4675
-10.6174
-10.0006
-9.57736
-9.30044
-9.12733
-9.0246
-8.96789
-8.94031
-8.93054
-8.9312
-8.93756
-8.94669
-8.95681
-8.96686
-8.9763
-8.98485
-8.9924
-8.99895
-9.00458
-9.00937
-9.01342
-9.01681
-9.01965
-9.02201
-9.02398
-9.0256
-9.02694
-9.02804
-9.02894
-9.02967
-9.03027
-9.03074
-9.03112
-9.03142
-9.03166
-9.03183
-9.03196
-9.03205
-18.1245
-18.1451
-18.1897
-18.2658
-18.3828
-18.5508
-18.774
-19.0441
-19.3345
-19.6085
-19.8388
-20.0148
-20.1372
-20.2099
-20.2327
-20.1974
-20.0842
-19.8592
-19.4732
-18.8647
-17.9742
-16.7743
-15.3148
-13.7494
-12.2905
-11.0918
-10.2025
-9.59464
-9.20742
-8.97752
-8.85268
-8.79453
-8.77671
-8.78202
-8.79954
-8.82261
-8.84727
-8.8713
-8.89354
-8.91347
-8.93093
-8.94602
-8.9589
-8.96982
-8.97901
-8.98671
-8.99313
-8.99847
-9.00291
-9.00658
-9.00962
-9.01212
-9.01418
-9.01587
-9.01725
-9.01838
-9.01929
-9.02002
-9.0206
-9.02106
-9.02143
-9.02169
-9.02188
-9.022
-18.0556
-18.0746
-18.1169
-18.1919
-18.3126
-18.4941
-18.746
-19.0614
-19.4065
-19.7304
-19.9988
-20.203
-20.3497
-20.4485
-20.5036
-20.5087
-20.4437
-20.2707
-19.9304
-19.3423
-18.4187
-17.1033
-15.4395
-13.6272
-11.9649
-10.6523
-9.73271
-9.14905
-8.81252
-8.64105
-8.57229
-8.56356
-8.58741
-8.62698
-8.67233
-8.71786
-8.7606
-8.79919
-8.83316
-8.86256
-8.88769
-8.90898
-8.92691
-8.94193
-8.95446
-8.96489
-8.97354
-8.98071
-8.98663
-8.99152
-8.99556
-8.99888
-9.00161
-9.00385
-9.00567
-9.00716
-9.00837
-9.00934
-9.01011
-9.01072
-9.01121
-9.01155
-9.0118
-9.01194
-17.9849
-18.0013
-18.0393
-18.1102
-18.2308
-18.4229
-18.704
-19.0707
-19.48
-19.8598
-20.1667
-20.3962
-20.5639
-20.6868
-20.7742
-20.8227
-20.8128
-20.7036
-20.4257
-19.8777
-18.9357
-17.4995
-15.5933
-13.4746
-11.5708
-10.1392
-9.20385
-8.66415
-8.39542
-8.29453
-8.28949
-8.33451
-8.40219
-8.47689
-8.55018
-8.61789
-8.67826
-8.73088
-8.77607
-8.81445
-8.84681
-8.87393
-8.89658
-8.91542
-8.93106
-8.94402
-8.95473
-8.96358
-8.97088
-8.9769
-8.98185
-8.98593
-8.98927
-8.99201
-8.99426
-8.99608
-8.99756
-8.99875
-8.9997
-9.00045
-9.00105
-9.00146
-9.00176
-9.00191
-17.9134
-17.9263
-17.9577
-18.0209
-18.1369
-18.3354
-18.6451
-19.0701
-19.5563
-19.9989
-20.3436
-20.5941
-20.7782
-20.9221
-21.0411
-21.1354
-21.1871
-21.1537
-20.9576
-20.4745
-19.5362
-17.979
-15.7856
-13.2823
-11.0921
-9.54126
-8.61236
-8.14152
-7.95984
-7.94197
-8.00775
-8.11013
-8.22311
-8.33323
-8.43416
-8.52347
-8.60078
-8.66677
-8.72253
-8.76934
-8.80844
-8.84099
-8.868
-8.89037
-8.90887
-8.92415
-8.93675
-8.94714
-8.9557
-8.96275
-8.96854
-8.9733
-8.97721
-8.98042
-8.98303
-8.98516
-8.98689
-8.98828
-8.9894
-8.99027
-8.99097
-8.99144
-8.99179
-8.99194
-17.8422
-17.8505
-17.8731
-17.9248
-18.0306
-18.2296
-18.5658
-19.0573
-19.6375
-20.1509
-20.531
-20.7962
-20.9908
-21.1519
-21.301
-21.4426
-21.5616
-21.6162
-21.5226
-21.1347
-20.232
-18.5625
-16.03
-13.0367
-10.5082
-8.84662
-7.95598
-7.5842
-7.51046
-7.58782
-7.73065
-7.89302
-8.052
-8.19726
-8.32511
-8.43515
-8.52855
-8.60709
-8.67273
-8.72736
-8.77268
-8.8102
-8.84121
-8.8668
-8.88791
-8.9053
-8.91963
-8.93142
-8.94112
-8.94909
-8.95565
-8.96103
-8.96545
-8.96907
-8.97203
-8.97443
-8.97638
-8.97796
-8.97923
-8.98021
-8.981
-8.98152
-8.98191
-8.98205
-17.7723
-17.7752
-17.7868
-17.8228
-17.9119
-18.1034
-18.4618
-19.0289
-19.7269
-20.3199
-20.7307
-21.002
-21.1999
-21.3735
-21.5508
-21.7403
-21.9313
-22.085
-22.1159
-21.8588
-21.0353
-19.2752
-16.3461
-12.718
-9.79362
-8.04312
-7.23425
-6.99696
-7.05295
-7.23685
-7.46169
-7.6856
-7.89044
-8.07
-8.22367
-8.35334
-8.46179
-8.55199
-8.62674
-8.68853
-8.73953
-8.78158
-8.81621
-8.84472
-8.86818
-8.88748
-8.90335
-8.9164
-8.92713
-8.93594
-8.94318
-8.94912
-8.95399
-8.95798
-8.96124
-8.9639
-8.96606
-8.9678
-8.96919
-8.97027
-8.97115
-8.9717
-8.97212
-8.97226
-17.7049
-17.7014
-17.7
-17.7161
-17.7813
-17.955
-18.3279
-18.98
-19.8294
-20.5112
-20.9444
-21.2108
-21.4036
-21.5847
-21.7874
-22.0246
-22.2908
-22.5536
-22.7307
-22.6445
-21.9576
-20.1488
-16.7626
-12.2977
-8.91697
-7.11922
-6.4493
-6.38646
-6.5938
-6.894
-7.20422
-7.48999
-7.73975
-7.95221
-8.13028
-8.27825
-8.40061
-8.5015
-8.58455
-8.65284
-8.70897
-8.75509
-8.79298
-8.8241
-8.84967
-8.87067
-8.88792
-8.90209
-8.91372
-8.92328
-8.93112
-8.93756
-8.94284
-8.94716
-8.9507
-8.95357
-8.95591
-8.9578
-8.95931
-8.96048
-8.96143
-8.962
-8.96244
-8.96259
-17.6407
-17.6302
-17.6141
-17.6065
-17.6397
-17.7827
-18.1575
-18.9034
-19.9522
-20.7313
-21.1736
-21.4212
-21.6
-21.7833
-22.0083
-22.2919
-22.635
-23.0146
-23.3584
-23.4865
-23.0084
-21.221
-17.3224
-11.7329
-7.84031
-6.06535
-5.60653
-5.76132
-6.14021
-6.56418
-6.9613
-7.30799
-7.60093
-7.84443
-8.04517
-8.20998
-8.34502
-8.45559
-8.54611
-8.62023
-8.68094
-8.73068
-8.77146
-8.8049
-8.83233
-8.85483
-8.8733
-8.88846
-8.9009
-8.91111
-8.91949
-8.92636
-8.932
-8.93661
-8.94038
-8.94346
-8.94595
-8.94797
-8.94959
-8.95082
-8.95184
-8.95244
-8.95288
-8.95307
-17.5806
-17.5626
-17.5305
-17.4957
-17.489
-17.5858
-17.9433
-18.7884
-20.1064
-20.9878
-21.4195
-21.6319
-21.7871
-21.9672
-22.2113
-22.5393
-22.959
-23.4604
-23.9885
-24.3754
-24.1938
-22.5366
-18.0891
-10.96
-6.51922
-4.87567
-4.71534
-5.13201
-5.69973
-6.25206
-6.73558
-7.14104
-7.47467
-7.74694
-7.96844
-8.14851
-8.29495
-8.41416
-8.51132
-8.5906
-8.65535
-8.70828
-8.7516
-8.78707
-8.81613
-8.83995
-8.85948
-8.8755
-8.88865
-8.89943
-8.90828
-8.91553
-8.92148
-8.92635
-8.93033
-8.93357
-8.9362
-8.93834
-8.94005
-8.94134
-8.9424
-8.94303
-8.94347
-8.94371
-17.5251
-17.4996
-17.4508
-17.3859
-17.3316
-17.3644
-17.677
-18.619
-20.3084
-21.2895
-21.6822
-21.8403
-21.9626
-22.1348
-22.3948
-22.7641
-23.2584
-23.8833
-24.609
-25.2974
-25.5135
-24.1454
-19.1581
-9.88388
-4.90372
-3.55043
-3.78964
-4.51058
-5.28
-5.96191
-6.52927
-6.99016
-7.36141
-7.65987
-7.90004
-8.0937
-8.25024
-8.37707
-8.48006
-8.56384
-8.63211
-8.68782
-8.73335
-8.77057
-8.80105
-8.82601
-8.84646
-8.86323
-8.87698
-8.88825
-8.8975
-8.90508
-8.9113
-8.91638
-8.92055
-8.92394
-8.92669
-8.92892
-8.93071
-8.93205
-8.93315
-8.93382
-8.93426
-8.93456
-17.4749
-17.4419
-17.3762
-17.2796
-17.1707
-17.1203
-17.3497
-18.3713
-20.5824
-21.6456
-21.9603
-22.0438
-22.1247
-22.2849
-22.5574
-22.9645
-23.5297
-24.2761
-25.2068
-26.2339
-26.9585
-26.1003
-20.6712
-8.36275
-2.94122
-2.09878
-2.84809
-3.91018
-4.88833
-5.69735
-6.34401
-6.856
-7.26127
-7.58311
-7.83978
-8.04537
-8.21071
-8.34415
-8.45216
-8.53983
-8.61113
-8.66923
-8.71664
-8.75537
-8.78705
-8.81298
-8.83422
-8.85163
-8.86589
-8.87759
-8.88718
-8.89504
-8.90148
-8.90676
-8.91107
-8.91459
-8.91745
-8.91976
-8.92161
-8.92299
-8.92412
-8.92485
-8.92527
-8.92564
-17.4302
-17.3901
-17.3079
-17.179
-17.0105
-16.857
-16.9531
-18.0096
-20.9646
-22.0648
-22.2507
-22.2386
-22.2712
-22.4165
-22.6987
-23.1394
-23.7699
-24.6323
-25.7686
-27.1619
-28.508
-28.451
-22.8384
-6.18665
-0.582101
-0.54177
-1.91394
-3.3444
-4.53131
-5.46126
-6.18086
-6.73878
-7.17415
-7.51642
-7.78739
-8.00324
-8.17611
-8.31518
-8.42748
-8.51844
-8.5923
-8.65241
-8.70141
-8.74142
-8.77411
-8.80086
-8.82276
-8.8407
-8.8554
-8.86745
-8.87733
-8.88542
-8.89206
-8.89749
-8.90193
-8.90556
-8.9085
-8.91088
-8.91279
-8.91421
-8.91535
-8.91614
-8.91656
-8.91696
-17.3912
-17.3445
-17.2469
-17.0866
-16.8556
-16.5809
-16.4812
-17.4818
-21.5076
-22.5536
-22.5476
-22.4205
-22.4004
-22.529
-22.8183
-23.2883
-23.9772
-24.9466
-26.2812
-28.0544
-30.126
-31.2344
-25.9682
-3.04745
2.21043
1.08465
-1.01419
-2.82639
-4.21443
-5.2556
-6.04029
-6.63837
-7.0997
-7.4594
-7.74247
-7.96697
-8.14616
-8.28994
-8.4058
-8.4995
-8.57549
-8.63727
-8.68759
-8.72865
-8.76218
-8.78961
-8.81205
-8.83043
-8.84549
-8.85783
-8.86795
-8.87624
-8.88303
-8.88859
-8.89314
-8.89685
-8.89987
-8.9023
-8.90426
-8.90572
-8.90685
-8.90771
-8.90813
-8.90854
-17.3578
-17.3055
-17.1939
-17.0043
-16.7111
-16.3011
-15.9328
-16.712
-22.2878
-23.1139
-22.8423
-22.5851
-22.5108
-22.6224
-22.9167
-23.4113
-24.1506
-25.2149
-26.7329
-28.8822
-31.7596
-34.4589
-30.5075
1.5018
5.44462
2.72742
-0.178231
-2.36806
-3.94177
-5.0814
-5.92219
-6.5543
-7.03734
-7.41151
-7.70457
-7.93616
-8.12052
-8.26814
-8.3869
-8.48282
-8.56054
-8.62368
-8.67507
-8.71697
-8.75119
-8.77916
-8.80204
-8.82078
-8.83613
-8.8487
-8.85901
-8.86745
-8.87437
-8.88004
-8.88467
-8.88846
-8.89154
-8.89401
-8.896
-8.8975
-8.89861
-8.89955
-8.89999
-8.90033
-17.3299
-17.2729
-17.1493
-16.9338
-16.5821
-16.0298
-15.3152
-15.5915
-23.4142
-23.7385
-23.1231
-22.7277
-22.6013
-22.6967
-22.9945
-23.509
-24.2901
-25.4348
-27.114
-29.6156
-33.3379
-38.0808
-37.0959
8.10078
9.07676
4.31558
0.564277
-1.97908
-3.71585
-4.93875
-5.82594
-6.48577
-6.98634
-7.3721
-7.67312
-7.91036
-8.09881
-8.24946
-8.37051
-8.46819
-8.54727
-8.61146
-8.66369
-8.70626
-8.74102
-8.76941
-8.79264
-8.81166
-8.82724
-8.84
-8.85045
-8.85902
-8.86604
-8.87179
-8.87649
-8.88033
-8.88346
-8.88596
-8.88797
-8.88952
-8.89061
-8.8916
-8.89207
-8.89228
-17.3072
-17.2467
-17.1133
-16.8763
-16.4733
-15.7818
-14.6508
-13.9669
-25.0405
-24.4056
-23.3756
-22.8441
-22.6713
-22.7528
-23.0528
-23.5826
-24.3965
-25.6055
-27.4177
-30.2273
-34.7739
-41.9708
-46.6356
17.6516
12.9777
5.76214
1.18601
-1.66627
-3.53749
-4.82692
-5.75049
-6.4318
-6.94584
-7.34047
-7.64756
-7.88908
-8.08063
-8.23358
-8.35636
-8.45536
-8.53546
-8.60046
-8.65332
-8.6964
-8.73155
-8.76027
-8.78376
-8.80299
-8.81873
-8.83163
-8.8422
-8.85086
-8.85795
-8.86376
-8.86852
-8.8724
-8.87556
-8.87809
-8.8801
-8.88172
-8.88277
-8.88378
-8.88431
-8.88438
-17.2895
-17.2264
-17.0857
-16.8324
-16.3885
-15.5738
-13.9837
-11.6252
-27.3803
-25.0713
-23.5836
-22.9312
-22.7209
-22.7915
-23.0928
-23.6337
-24.4714
-25.7279
-27.6408
-30.6954
-35.9703
-45.8691
-60.3792
31.4068
16.8874
6.96984
1.6649
-1.43305
-3.40598
-4.74447
-5.69448
-6.39127
-6.91497
-7.31594
-7.62734
-7.87189
-8.06564
-8.22022
-8.34422
-8.44416
-8.52499
-8.59055
-8.64386
-8.68729
-8.72272
-8.75167
-8.77534
-8.79472
-8.81058
-8.82358
-8.83423
-8.84295
-8.8501
-8.85595
-8.86074
-8.86466
-8.86785
-8.87039
-8.87239
-8.87407
-8.8751
-8.87609
-8.8767
-8.87665
-17.2763
-17.2117
-17.0663
-16.8022
-16.3301
-15.4223
-13.3912
-8.27547
-30.725
-25.6593
-23.7313
-22.9872
-22.751
-22.8141
-23.1162
-23.6641
-24.5171
-25.8043
-27.7836
-31.0063
-36.8313
-49.3248
-80.0379
51.0772
20.3548
7.84225
1.98697
-1.27941
-3.31936
-4.68958
-5.65653
-6.36317
-6.89299
-7.29796
-7.61208
-7.85855
-8.05369
-8.20928
-8.33406
-8.43458
-8.51586
-8.58178
-8.63537
-8.67902
-8.71463
-8.74373
-8.76751
-8.78698
-8.80292
-8.81598
-8.82668
-8.83544
-8.84262
-8.8485
-8.85332
-8.85725
-8.86046
-8.86301
-8.865
-8.86674
-8.86776
-8.86867
-8.86938
-8.86931
-17.2673
-17.2021
-17.0545
-16.7851
-16.2989
-15.3406
-12.9953
-3.52656
-35.4663
-26.0477
-23.806
-23.012
-22.7628
-22.8223
-23.1247
-23.6759
-24.5362
-25.8383
-27.8499
-31.1566
-37.2797
-51.6207
-107.911
78.9622
22.6625
8.30237
2.14891
-1.20172
-3.27433
-4.65985
-5.63491
-6.34626
-6.87899
-7.28586
-7.60128
-7.84865
-8.04444
-8.20053
-8.32567
-8.42647
-8.50796
-8.57405
-8.62777
-8.67153
-8.70723
-8.73638
-8.76023
-8.77974
-8.79572
-8.8088
-8.81952
-8.82831
-8.8355
-8.84139
-8.84622
-8.85017
-8.85339
-8.85594
-8.8579
-8.8597
-8.86073
-8.86152
-8.86236
-8.86234
)
;

boundaryField
{
    left
    {
        type            calculated;
        value           nonuniform List<scalar> 
32
(
-18.5945
-18.5896
-18.5799
-18.5653
-18.5457
-18.5207
-18.4902
-18.454
-18.412
-18.3643
-18.3112
-18.2531
-18.1907
-18.1245
-18.0556
-17.9849
-17.9134
-17.8422
-17.7723
-17.7049
-17.6407
-17.5806
-17.5251
-17.4749
-17.4302
-17.3912
-17.3578
-17.3299
-17.3072
-17.2895
-17.2763
-17.2673
)
;
    }
    right
    {
        type            calculated;
        value           nonuniform List<scalar> 
32
(
-9.11852
-9.11673
-9.11335
-9.10861
-9.1027
-9.09581
-9.08811
-9.07973
-9.07083
-9.0615
-9.05187
-9.04203
-9.03205
-9.022
-9.01194
-9.00191
-8.99194
-8.98205
-8.97226
-8.96259
-8.95307
-8.94371
-8.93456
-8.92564
-8.91696
-8.90854
-8.90033
-8.89228
-8.88438
-8.87665
-8.86931
-8.86234
)
;
    }
    interface
    {
        type            calculated;
        value           nonuniform List<scalar> 
64
(
-17.2638
-17.1984
-17.0503
-16.7796
-16.29
-15.3184
-12.865
-0.746382
-38.242
-26.1735
-23.8238
-23.0168
-22.7643
-22.8229
-23.1254
-23.6774
-24.5395
-25.8451
-27.8646
-31.192
-37.393
-52.3696
-124.23
95.2869
23.4174
8.42165
2.19019
-1.18118
-3.26171
-4.65091
-5.62792
-6.3404
-6.87383
-7.28116
-7.59688
-7.84448
-8.04043
-8.19662
-8.32185
-8.42272
-8.50427
-8.5704
-8.62415
-8.66793
-8.70365
-8.73282
-8.75668
-8.7762
-8.79219
-8.80528
-8.81601
-8.82479
-8.83199
-8.83789
-8.84272
-8.84666
-8.84989
-8.85244
-8.85439
-8.85622
-8.85725
-8.85798
-8.85889
-8.8589
)
;
    }
    bottom
    {
        type            calculated;
        value           nonuniform List<scalar> 
64
(
-18.5958
-18.6003
-18.6087
-18.6197
-18.6312
-18.6405
-18.6443
-18.6387
-18.6191
-18.5808
-18.5187
-18.4278
-18.3033
-18.1408
-17.9363
-17.6871
-17.3913
-17.0486
-16.6605
-16.2305
-15.7643
-15.2696
-14.7559
-14.2338
-13.7141
-13.2075
-12.7232
-12.2687
-11.8494
-11.4685
-11.1274
-10.8257
-10.5617
-10.333
-10.1364
-9.96865
-9.82638
-9.70634
-9.60548
-9.52106
-9.45061
-9.39197
-9.34327
-9.3029
-9.26948
-9.24185
-9.21903
-9.2002
-9.18469
-9.1719
-9.16139
-9.15274
-9.14564
-9.13982
-9.13505
-9.13117
-9.12802
-9.12548
-9.12346
-9.12188
-9.12068
-9.11981
-9.11926
-9.11898
)
;
    }
    defaultFaces
    {
        type            empty;
    }
}


// ************************************************************************* //
