/*--------------------------------*- C++ -*----------------------------------*\
| =========                 |                                                 |
| \\      /  F ield         | OpenFOAM: The Open Source CFD Toolbox           |
|  \\    /   O peration     | Version:  5.x                                   |
|   \\  /    A nd           | Web:      www.OpenFOAM.org                      |
|    \\/     M anipulation  |                                                 |
\*---------------------------------------------------------------------------*/
FoamFile
{
    version     2.0;
    format      ascii;
    class       volScalarField;
    location    "0.9";
    object      T;
}
// * * * * * * * * * * * * * * * * * * * * * * * * * * * * * * * * * * * * * //

dimensions      [0 0 0 1 0 0 0];

internalField   nonuniform List<scalar> 
2048
(
9.8664
9.86637
9.86631
9.86623
9.86615
9.86608
9.86605
9.86609
9.86624
9.86651
9.86696
9.86761
9.8685
9.86967
9.87114
9.87293
9.87506
9.87752
9.88031
9.8834
9.88675
9.8903
9.89399
9.89774
9.90147
9.90511
9.90859
9.91186
9.91487
9.91761
9.92006
9.92223
9.92412
9.92577
9.92718
9.92838
9.9294
9.93027
9.93099
9.9316
9.9321
9.93253
9.93288
9.93317
9.93341
9.9336
9.93377
9.9339
9.93401
9.93411
9.93418
9.93424
9.9343
9.93434
9.93437
9.9344
9.93442
9.93444
9.93445
9.93447
9.93447
9.93448
9.93448
9.93449
9.60509
9.60499
9.6048
9.60456
9.6043
9.60408
9.60397
9.60407
9.60445
9.60524
9.60653
9.60843
9.61105
9.61448
9.6188
9.62408
9.63036
9.63765
9.64592
9.65508
9.66503
9.67559
9.68657
9.69772
9.70882
9.71963
9.72996
9.73965
9.74858
9.75667
9.76392
9.77031
9.7759
9.78074
9.7849
9.78844
9.79144
9.79398
9.7961
9.79788
9.79936
9.8006
9.80162
9.80247
9.80318
9.80376
9.80424
9.80463
9.80496
9.80523
9.80545
9.80563
9.80578
9.8059
9.806
9.80608
9.80615
9.8062
9.80624
9.80628
9.8063
9.80632
9.80633
9.80634
9.3553
9.35512
9.35479
9.35436
9.35389
9.35347
9.35323
9.3533
9.35384
9.35503
9.35704
9.36006
9.36426
9.36979
9.37679
9.38539
9.39564
9.40756
9.42112
9.43619
9.45257
9.46999
9.4881
9.50652
9.52483
9.54266
9.55966
9.57558
9.59021
9.60345
9.61527
9.62569
9.63477
9.64261
9.64934
9.65506
9.65991
9.66398
9.6674
9.67026
9.67265
9.67463
9.67627
9.67764
9.67876
9.67969
9.68046
9.6811
9.68162
9.68205
9.6824
9.68269
9.68293
9.68313
9.68329
9.68342
9.68353
9.68361
9.68368
9.68373
9.68377
9.6838
9.68382
9.68383
9.11659
9.11633
9.11583
9.11517
9.11442
9.11374
9.11326
9.1132
9.11378
9.11523
9.11782
9.12178
9.12737
9.13482
9.14431
9.15602
9.17005
9.18644
9.20514
9.226
9.24873
9.27294
9.29815
9.32379
9.34927
9.37404
9.39761
9.41961
9.43977
9.45796
9.47414
9.48835
9.50071
9.51135
9.52044
9.52817
9.53469
9.54018
9.54477
9.54861
9.5518
9.55445
9.55665
9.55847
9.55997
9.56122
9.56224
9.56309
9.56379
9.56436
9.56483
9.56522
9.56554
9.5658
9.56601
9.56619
9.56633
9.56644
9.56653
9.5666
9.56666
9.5667
9.56672
9.56673
8.88853
8.88816
8.88747
8.88652
8.88544
8.88439
8.88358
8.88325
8.88371
8.88525
8.88822
8.89294
8.89972
8.90887
8.92064
8.93527
8.95289
8.97358
8.9973
9.02386
9.05291
9.08393
9.11628
9.1492
9.18189
9.2136
9.24369
9.27167
9.29722
9.32016
9.34048
9.35825
9.37364
9.38685
9.39811
9.40764
9.41567
9.42241
9.42804
9.43273
9.43663
9.43987
9.44255
9.44477
9.4466
9.44812
9.44937
9.45039
9.45124
9.45194
9.45251
9.45298
9.45337
9.45369
9.45395
9.45416
9.45433
9.45447
9.45458
9.45466
9.45473
9.45478
9.45481
9.45482
8.6707
8.67022
8.66929
8.66801
8.66651
8.66499
8.66371
8.66296
8.66312
8.66456
8.6677
8.67296
8.68071
8.69133
8.70516
8.72248
8.7435
8.76834
8.79696
8.82918
8.86456
8.90248
8.9421
8.98243
9.02245
9.06118
9.09779
9.13168
9.16247
9.18997
9.2142
9.23529
9.25347
9.269
9.28219
9.29332
9.30267
9.31049
9.31702
9.32245
9.32696
9.33069
9.33378
9.33634
9.33845
9.34018
9.34162
9.3428
9.34377
9.34457
9.34523
9.34577
9.34622
9.34658
9.34688
9.34712
9.34732
9.34748
9.3476
9.3477
9.34778
9.34783
9.34787
9.34788
8.46272
8.46209
8.4609
8.45922
8.45722
8.45512
8.45322
8.45188
8.45154
8.45268
8.45577
8.46133
8.46982
8.48168
8.49732
8.5171
8.54131
8.57012
8.60355
8.64139
8.68317
8.72813
8.77522
8.82319
8.87073
8.9166
8.95978
8.99953
9.03541
9.06727
9.09517
9.11931
9.14001
9.15762
9.1725
9.18501
9.19549
9.20423
9.21151
9.21755
9.22256
9.2267
9.23012
9.23295
9.23528
9.23721
9.23879
9.2401
9.24117
9.24205
9.24278
9.24338
9.24386
9.24427
9.24459
9.24486
9.24508
9.24525
9.24539
9.2455
9.24558
9.24564
9.24568
9.2457
8.26418
8.26341
8.26191
8.25978
8.25719
8.25439
8.25172
8.24961
8.24857
8.24917
8.25198
8.2576
8.26657
8.27942
8.29662
8.31863
8.3458
8.37841
8.41652
8.45998
8.50825
8.56045
8.61528
8.6712
8.72653
8.77972
8.82953
8.87509
8.91593
8.95193
8.98324
9.01015
9.03309
9.0525
9.06883
9.0825
9.09391
9.10341
9.11129
9.11782
9.12322
9.12768
9.13137
9.13441
9.13691
9.13898
9.14067
9.14207
9.14322
9.14417
9.14495
9.14559
9.14611
9.14654
9.14689
9.14718
9.14741
9.1476
9.14775
9.14786
9.14795
9.14801
9.14806
9.14808
8.07473
8.07379
8.07195
8.06932
8.06606
8.06244
8.05885
8.05577
8.05381
8.05363
8.05593
8.06136
8.07057
8.08414
8.10264
8.12661
8.15651
8.1927
8.23538
8.28443
8.33931
8.39899
8.46193
8.52618
8.58964
8.6504
8.70694
8.75826
8.80389
8.84379
8.87822
8.90761
8.93249
8.95342
8.97094
8.98556
8.9977
9.00778
9.01612
9.02302
9.02872
9.03342
9.03729
9.04049
9.04312
9.04528
9.04706
9.04853
9.04973
9.05072
9.05154
9.0522
9.05275
9.0532
9.05357
9.05387
9.05411
9.05431
9.05446
9.05459
9.05468
9.05474
9.05479
9.05481
7.89401
7.89289
7.89069
7.8875
7.8835
7.87894
7.87426
7.87002
7.86691
7.86572
7.86724
7.87224
7.88143
7.89547
7.915
7.94065
7.973
8.01257
8.05966
8.11427
8.17589
8.24336
8.31483
8.38789
8.45992
8.52852
8.59189
8.64891
8.69915
8.74268
8.77991
8.81144
8.83796
8.86013
8.8786
8.89393
8.90662
8.91712
8.92579
8.93294
8.93884
8.94369
8.94769
8.95098
8.95369
8.95592
8.95775
8.95926
8.9605
8.96151
8.96235
8.96304
8.9636
8.96406
8.96444
8.96475
8.96499
8.9652
8.96536
8.96548
8.96558
8.96564
8.96569
8.96571
7.72167
7.72036
7.71778
7.714
7.70918
7.70358
7.69765
7.69203
7.68753
7.68508
7.68558
7.68991
7.69883
7.71309
7.73337
7.76041
7.79493
7.83759
7.8889
7.94902
8.01751
8.09312
8.17364
8.2561
8.3372
8.41398
8.48429
8.54693
8.60154
8.64839
8.68808
8.72142
8.74925
8.77238
8.79153
8.80736
8.82042
8.83118
8.84005
8.84735
8.85335
8.85829
8.86235
8.86569
8.86844
8.8707
8.87255
8.87408
8.87533
8.87636
8.8772
8.8779
8.87846
8.87893
8.87931
8.87962
8.87988
8.88008
8.88024
8.88037
8.88046
8.88053
8.88058
8.8806
7.55736
7.55587
7.5529
7.5485
7.5428
7.53605
7.52872
7.52151
7.51537
7.51139
7.51063
7.51405
7.52248
7.5367
7.55747
7.58559
7.62195
7.6674
7.7227
7.78824
7.86373
7.94785
8.03804
8.1306
8.22138
8.30672
8.38407
8.4522
8.51091
8.56072
8.6025
8.63728
8.66609
8.68988
8.70947
8.72559
8.73884
8.74973
8.75867
8.76601
8.77205
8.777
8.78107
8.78441
8.78716
8.78941
8.79127
8.79279
8.79404
8.79507
8.79591
8.7966
8.79717
8.79763
8.79801
8.79832
8.79858
8.79878
8.79894
8.79907
8.79916
8.79923
8.79928
8.7993
7.40076
7.39909
7.39573
7.3907
7.38408
7.37609
7.36719
7.35817
7.35014
7.34437
7.3421
7.34439
7.35212
7.36606
7.38704
7.41593
7.45378
7.50167
7.56066
7.63147
7.71406
7.80714
7.90771
8.01122
8.11239
8.20668
8.29116
8.3646
8.42707
8.47944
8.5229
8.55874
8.5882
8.61236
8.63216
8.64837
8.66164
8.67251
8.68142
8.68872
8.69471
8.69962
8.70365
8.70695
8.70967
8.71189
8.71372
8.71522
8.71646
8.71747
8.7183
8.71898
8.71954
8.72
8.72037
8.72068
8.72093
8.72113
8.72128
8.72141
8.7215
8.72157
8.72162
8.72163
7.25154
7.24969
7.24596
7.24031
7.23275
7.22344
7.21282
7.20176
7.19155
7.18372
7.17971
7.18068
7.1875
7.20096
7.22188
7.25122
7.29018
7.34012
7.40244
7.47829
7.56804
7.67052
7.78232
7.89778
8.01018
8.11387
8.20551
8.284
8.34984
8.4043
8.449
8.48552
8.51529
8.53955
8.55931
8.57542
8.58857
8.59931
8.60808
8.61526
8.62113
8.62594
8.62989
8.63312
8.63577
8.63795
8.63974
8.6412
8.6424
8.64339
8.6442
8.64487
8.64541
8.64586
8.64622
8.64652
8.64676
8.64696
8.64711
8.64723
8.64732
8.64739
8.64743
8.64745
7.10937
7.10737
7.1033
7.09705
7.08855
7.07786
7.06537
7.05202
7.03933
7.02916
7.0232
7.02267
7.02843
7.04121
7.06182
7.09129
7.13096
7.18248
7.24769
7.32828
7.42518
7.53752
7.66153
7.79016
7.91475
8.0283
8.12706
8.21028
8.27899
8.33505
8.38053
8.41732
8.44707
8.47115
8.49067
8.50651
8.51939
8.52988
8.53843
8.54542
8.55112
8.55579
8.55961
8.56275
8.56531
8.56742
8.56914
8.57056
8.57172
8.57267
8.57346
8.5741
8.57462
8.57505
8.57541
8.57569
8.57593
8.57612
8.57627
8.57638
8.57647
8.57653
8.57658
8.57659
6.97395
6.97182
6.96744
6.96063
6.95122
6.93912
6.92463
6.90873
6.89322
6.88042
6.8723
6.87013
6.8747
6.88664
6.90672
6.936
6.97596
7.02857
7.09613
7.18103
7.28497
7.40765
7.54499
7.68826
7.82618
7.95003
8.0558
8.14328
8.21429
8.2714
8.31717
8.35383
8.38325
8.4069
8.42597
8.44139
8.45388
8.46402
8.47228
8.479
8.48449
8.48898
8.49265
8.49565
8.49811
8.50013
8.50178
8.50314
8.50425
8.50516
8.50591
8.50652
8.50703
8.50744
8.50778
8.50805
8.50827
8.50845
8.5086
8.50871
8.50879
8.50885
8.50889
8.50891
6.84497
6.84272
6.83809
6.8308
6.82052
6.80701
6.7904
6.77167
6.75297
6.73723
6.72676
6.72286
6.72616
6.73713
6.75647
6.78523
6.82506
6.8782
6.9475
7.03615
7.1469
7.28034
7.43232
7.59204
7.74458
7.87915
7.99167
8.08283
8.1555
8.21306
8.25862
8.29476
8.32352
8.34651
8.36496
8.37981
8.3918
8.40152
8.40941
8.41583
8.42106
8.42533
8.42882
8.43168
8.43402
8.43593
8.4375
8.43878
8.43984
8.4407
8.44141
8.442
8.44247
8.44286
8.44318
8.44344
8.44365
8.44383
8.44396
8.44407
8.44415
8.4442
8.44424
8.44426
6.72212
6.7198
6.71498
6.70728
6.69624
6.68134
6.66251
6.64064
6.61831
6.5993
6.58634
6.58065
6.58264
6.59256
6.61097
6.63893
6.67818
6.73126
6.80159
6.8933
7.01044
7.15498
7.32311
7.50151
7.67017
7.8158
7.93463
8.02874
8.10232
8.1597
8.20456
8.23979
8.26762
8.28973
8.30739
8.32155
8.33296
8.34218
8.34965
8.35572
8.36066
8.36469
8.36798
8.37067
8.37287
8.37467
8.37615
8.37736
8.37835
8.37916
8.37983
8.38038
8.38082
8.38119
8.38149
8.38174
8.38194
8.3821
8.38222
8.38232
8.3824
8.38245
8.38249
8.3825
6.60511
6.60275
6.59781
6.58982
6.57812
6.56193
6.54081
6.51548
6.48899
6.46636
6.45079
6.44332
6.44401
6.45282
6.47015
6.49703
6.53526
6.58768
6.65826
6.75214
6.87503
7.0309
7.21687
7.41675
7.60322
7.76011
7.88461
7.98079
8.05446
8.111
8.15466
8.18862
8.21526
8.2363
8.25303
8.2664
8.27714
8.28581
8.29282
8.2985
8.30313
8.30689
8.30997
8.31248
8.31453
8.31621
8.31759
8.31872
8.31964
8.3204
8.32102
8.32153
8.32195
8.32229
8.32257
8.3228
8.32298
8.32313
8.32325
8.32334
8.32341
8.32346
8.3235
8.32351
6.49364
6.49129
6.48631
6.47815
6.46596
6.4486
6.42516
6.39602
6.36473
6.33811
6.31987
6.3107
6.31014
6.31783
6.33397
6.3595
6.3963
6.44742
6.51738
6.61241
6.74015
6.90731
7.11303
7.33797
7.54415
7.71228
7.84152
7.9387
8.01159
8.06662
8.1086
8.14096
8.16617
8.18597
8.20166
8.21416
8.22417
8.23223
8.23874
8.24402
8.24831
8.2518
8.25464
8.25697
8.25886
8.26042
8.26169
8.26273
8.26359
8.26429
8.26486
8.26533
8.26572
8.26603
8.26629
8.2665
8.26667
8.26681
8.26692
8.26701
8.26707
8.26712
8.26715
8.26716
6.38745
6.38514
6.38021
6.37202
6.35952
6.34119
6.31548
6.28215
6.24525
6.21425
6.19335
6.18261
6.18092
6.18751
6.20236
6.22632
6.26129
6.3105
6.37892
6.47389
6.60525
6.78334
7.01088
7.26551
7.49348
7.67246
7.80522
7.90219
7.97334
8.02621
8.06606
8.09652
8.12009
8.13853
8.15307
8.16463
8.17387
8.18129
8.18728
8.19213
8.19606
8.19926
8.20187
8.204
8.20574
8.20716
8.20833
8.20928
8.21006
8.2107
8.21123
8.21166
8.21201
8.2123
8.21254
8.21273
8.21289
8.21301
8.21311
8.21319
8.21325
8.21329
8.21332
8.21333
6.28626
6.28403
6.27924
6.27117
6.25858
6.23954
6.21169
6.17379
6.13021
6.09444
6.071
6.05891
6.05625
6.06179
6.07528
6.09748
6.13026
6.17694
6.24288
6.33643
6.46982
6.65801
6.90949
7.19996
7.45183
7.64083
7.7755
7.8709
7.93935
7.98942
8.02673
8.05503
8.0768
8.09374
8.10707
8.11764
8.12607
8.13283
8.13828
8.14268
8.14626
8.14916
8.15153
8.15346
8.15504
8.15633
8.15738
8.15825
8.15895
8.15953
8.16001
8.1604
8.16072
8.16098
8.16119
8.16137
8.16151
8.16162
8.16172
8.16179
8.16184
8.16188
8.1619
8.16191
6.18982
6.1877
6.18314
6.17534
6.1629
6.14348
6.11375
6.07093
6.01925
5.97836
5.9526
5.93947
5.93603
5.9406
5.9527
5.97298
6.00325
6.04683
6.10934
6.19999
6.33344
6.53019
6.80765
7.14219
7.42001
7.6175
7.7521
7.84442
7.90922
7.95589
7.99032
8.01623
8.03605
8.05143
8.06348
8.07302
8.08062
8.0867
8.0916
8.09556
8.09876
8.10137
8.10349
8.10522
8.10663
8.10779
8.10874
8.10951
8.11014
8.11066
8.11109
8.11144
8.11172
8.11196
8.11215
8.11231
8.11243
8.11253
8.11262
8.11268
8.11273
8.11276
8.11278
8.11279
6.09787
6.09591
6.09164
6.08426
6.07225
6.05285
6.02164
5.97362
5.91193
5.86563
5.83796
5.82416
5.82018
5.82387
5.83457
5.8528
5.88028
5.92025
5.97841
6.06461
6.19573
6.39867
6.7037
7.09356
7.39891
7.6025
7.73465
7.82234
7.88254
7.92529
7.95652
7.97987
7.99765
8.01139
8.02214
8.03063
8.03737
8.04277
8.04712
8.05062
8.05346
8.05577
8.05765
8.05918
8.06043
8.06145
8.06228
8.06297
8.06353
8.06399
8.06436
8.06467
8.06492
8.06513
8.0653
8.06544
8.06555
8.06564
8.06571
8.06577
8.06581
8.06584
8.06586
8.06587
6.01018
6.0084
6.00451
5.9977
5.98638
5.96746
5.93536
5.88205
5.80771
5.7559
5.7269
5.71289
5.70862
5.71154
5.72084
5.73694
5.7614
5.79733
5.85029
5.93043
6.05649
6.26214
6.59536
7.05602
7.38953
7.59575
7.72271
7.80416
7.85893
7.8973
7.92508
7.94574
7.9614
7.97347
7.98289
7.99031
7.99621
8.00092
8.00471
8.00777
8.01024
8.01225
8.01389
8.01522
8.01631
8.0172
8.01792
8.01852
8.01901
8.01941
8.01973
8.02
8.02022
8.0204
8.02055
8.02067
8.02077
8.02084
8.02091
8.02096
8.02099
8.02102
8.02104
8.02104
5.92653
5.92496
5.9215
5.91539
5.90502
5.88712
5.85494
5.79654
5.7059
5.64878
5.61927
5.60558
5.60127
5.60353
5.61145
5.62536
5.64665
5.67816
5.72517
5.79771
5.91568
6.11928
6.47948
7.03246
7.3929
7.59699
7.71574
7.7894
7.83797
7.87159
7.89575
7.91362
7.92712
7.9375
7.94559
7.95195
7.957
7.96103
7.96427
7.96689
7.969
7.97072
7.97211
7.97325
7.97418
7.97494
7.97556
7.97606
7.97648
7.97682
7.9771
7.97733
7.97752
7.97767
7.97779
7.9779
7.97798
7.97805
7.9781
7.97814
7.97817
7.9782
7.97821
7.97821
5.8467
5.84536
5.84239
5.83708
5.82792
5.81157
5.78038
5.71765
5.6056
5.54395
5.51498
5.50216
5.49807
5.49977
5.50636
5.51804
5.53604
5.56286
5.6033
5.66681
5.77348
5.96885
6.35165
7.02699
7.40999
7.60577
7.71309
7.77754
7.81928
7.84787
7.86829
7.88333
7.89466
7.90335
7.91011
7.91542
7.91963
7.923
7.9257
7.92787
7.92963
7.93106
7.93222
7.93317
7.93394
7.93457
7.93509
7.93551
7.93586
7.93614
7.93637
7.93656
7.93672
7.93685
7.93695
7.93704
7.93711
7.93716
7.9372
7.93724
7.93726
7.93729
7.9373
7.9373
5.7705
5.7694
5.76694
5.76253
5.75479
5.74056
5.71166
5.64622
5.50565
5.44108
5.41397
5.40258
5.39894
5.40019
5.40547
5.41493
5.42958
5.45153
5.48491
5.53817
5.63036
5.80988
6.20579
7.04542
7.4415
7.62135
7.71406
7.76807
7.80251
7.82589
7.8425
7.85469
7.86386
7.87088
7.87633
7.88061
7.884
7.88671
7.88888
7.89063
7.89205
7.8932
7.89413
7.89489
7.89551
7.89602
7.89643
7.89677
7.89705
7.89728
7.89747
7.89762
7.89774
7.89785
7.89793
7.898
7.89805
7.8981
7.89813
7.89816
7.89818
7.8982
7.89821
7.89821
5.69774
5.69688
5.69497
5.69151
5.68537
5.67376
5.64868
5.5835
5.40447
5.33996
5.31625
5.30681
5.3038
5.30468
5.30871
5.31597
5.32726
5.34425
5.37026
5.41231
5.48706
5.64188
6.03353
7.09587
7.48764
7.64272
7.71787
7.7605
7.78732
7.80541
7.8182
7.82757
7.8346
7.83997
7.84415
7.84742
7.85002
7.85208
7.85374
7.85508
7.85616
7.85704
7.85775
7.85833
7.8588
7.85919
7.85951
7.85977
7.85998
7.86015
7.8603
7.86041
7.86051
7.86059
7.86065
7.8607
7.86074
7.86078
7.86081
7.86083
7.86084
7.86085
7.86086
7.86086
5.62823
5.62763
5.62627
5.6238
5.61938
5.61081
5.59117
5.53124
5.3
5.24053
5.22185
5.21481
5.21259
5.21317
5.21598
5.22109
5.22905
5.24107
5.25957
5.28976
5.34464
5.46525
5.82349
7.18948
7.5478
7.66859
7.72375
7.75435
7.77342
7.78621
7.79523
7.80182
7.80676
7.81054
7.81346
7.81576
7.81758
7.81903
7.82019
7.82113
7.82189
7.8225
7.823
7.82341
7.82374
7.82401
7.82423
7.82441
7.82456
7.82468
7.82478
7.82487
7.82493
7.82499
7.82503
7.82507
7.8251
7.82512
7.82514
7.82516
7.82517
7.82517
7.82518
7.82518
5.56183
5.56148
5.56067
5.5592
5.55655
5.55133
5.5387
5.49188
5.18949
5.14295
5.13089
5.12657
5.12521
5.12554
5.12719
5.13021
5.13491
5.14202
5.15301
5.17106
5.20441
5.28167
5.56035
7.34131
7.62005
7.69741
7.73092
7.74921
7.76054
7.76811
7.77344
7.77733
7.78024
7.78247
7.78419
7.78554
7.78662
7.78747
7.78815
7.7887
7.78915
7.78951
7.78981
7.79005
7.79024
7.7904
7.79053
7.79064
7.79072
7.7908
7.79085
7.7909
7.79094
7.79097
7.791
7.79102
7.79104
7.79105
7.79106
7.79107
7.79108
7.79108
7.79109
7.79109
5.49837
5.49826
5.49799
5.49751
5.49663
5.49488
5.49047
5.46871
5.06938
5.0477
5.04348
5.04203
5.04158
5.04168
5.04223
5.04322
5.04477
5.04711
5.05074
5.05672
5.06785
5.09475
5.22382
7.57146
7.70054
7.72748
7.73867
7.74472
7.74846
7.75096
7.75271
7.75399
7.75495
7.75568
7.75625
7.75669
7.75704
7.75732
7.75755
7.75773
7.75788
7.758
7.75809
7.75817
7.75823
7.75829
7.75833
7.75836
7.75839
7.75842
7.75844
7.75845
7.75846
7.75848
7.75848
7.75849
7.7585
7.7585
7.75851
7.75851
7.75851
7.75851
7.75851
7.75851
)
;

boundaryField
{
    left
    {
        type            zeroGradient;
    }
    right
    {
        type            zeroGradient;
    }
    interface
    {
        type            fixedValue;
        value           nonuniform List<scalar> 
64
(
5.46737
5.46737
5.46737
5.46737
5.46737
5.46737
5.46737
5.46737
5.00069
5.00069
5.00069
5.00069
5.00069
5.00069
5.00069
5.00069
5.00069
5.00069
5.00069
5.00069
5.00069
5.00069
5.00069
7.7426
7.7426
7.7426
7.7426
7.7426
7.7426
7.7426
7.7426
7.7426
7.7426
7.7426
7.7426
7.7426
7.7426
7.7426
7.7426
7.7426
7.7426
7.7426
7.7426
7.7426
7.7426
7.7426
7.7426
7.7426
7.7426
7.7426
7.7426
7.7426
7.7426
7.7426
7.7426
7.7426
7.7426
7.7426
7.7426
7.7426
7.7426
7.7426
7.7426
7.7426
)
;
    }
    bottom
    {
        type            fixedValue;
        value           uniform 10;
    }
    defaultFaces
    {
        type            empty;
    }
}


// ************************************************************************* //
