/*--------------------------------*- C++ -*----------------------------------*\
| =========                 |                                                 |
| \\      /  F ield         | OpenFOAM: The Open Source CFD Toolbox           |
|  \\    /   O peration     | Version:  5.x                                   |
|   \\  /    A nd           | Web:      www.OpenFOAM.org                      |
|    \\/     M anipulation  |                                                 |
\*---------------------------------------------------------------------------*/
FoamFile
{
    version     2.0;
    format      ascii;
    class       volScalarField;
    location    "11.7";
    object      gradTx;
}
// * * * * * * * * * * * * * * * * * * * * * * * * * * * * * * * * * * * * * //

dimensions      [0 -1 0 1 0 0 0];

internalField   nonuniform List<scalar> 
6300
(
78.6552
78.4214
77.9536
77.2516
76.3157
75.1463
73.745
72.1151
70.2619
68.1942
65.9247
63.4712
60.8571
58.1116
55.2694
78.8854
78.6517
78.184
77.482
76.5455
75.3746
73.9703
72.3349
70.4732
68.3927
66.1056
63.6289
60.9857
58.2056
55.3242
79.3457
79.1123
78.6451
77.9434
77.0062
75.8329
74.4231
72.7778
70.8998
68.7949
66.4731
63.9501
61.2483
58.3979
55.4366
80.0356
79.8029
79.337
78.6365
77.6995
76.5241
75.1081
73.4501
71.55
69.4106
67.0387
64.4471
61.6569
58.6986
55.6131
80.9544
80.7232
80.2598
79.5623
78.6277
77.4522
76.0315
74.3609
72.4363
70.2557
67.8207
65.1397
62.2305
59.1238
55.8643
82.1006
81.8719
81.413
80.7215
79.793
78.6221
77.2013
75.5222
73.5753
71.3518
68.8457
66.0574
62.9989
59.6989
56.2073
83.4718
83.2468
82.7952
82.1138
81.1972
80.038
78.6259
76.9477
74.9875
72.7272
70.1495
67.2422
64.0057
60.4629
56.6683
85.064
84.8444
84.4034
83.7374
82.8403
81.7031
80.3129
78.6518
76.6962
74.4167
71.7797
68.7529
65.3156
61.4759
57.2893
86.872
86.6595
86.2327
85.5882
84.7196
83.6175
82.267
80.6466
78.7252
76.4601
73.7963
70.6707
67.025
62.8327
58.139
88.8885
88.6847
88.2759
87.6589
86.8287
85.7762
84.4872
82.9386
81.0941
78.8984
76.2712
73.1054
69.2779
64.688
59.3352
91.1046
90.911
90.523
89.939
89.1558
88.1675
86.9631
85.5226
83.8104
81.7645
79.281
76.1983
72.2901
67.3034
61.0939
93.5102
93.3274
92.9619
92.4141
91.684
90.7707
89.6708
88.3742
86.8565
85.0641
82.8866
80.113
76.3774
71.1384
63.8479
96.0944
95.9222
95.579
95.0672
94.391
93.5564
92.571
91.4426
90.1732
88.7449
87.0843
84.9863
81.9645
77.0214
68.5685
98.8463
98.6836
98.3601
97.8803
97.252
96.4883
95.6098
94.6475
93.6448
92.654
91.7153
90.7796
89.4687
86.4104
77.7703
101.757
101.601
101.293
100.837
100.244
99.5304
98.7279
97.8885
97.1
96.5066
96.3393
96.9437
98.7161
101.377
99.1441
52.6143
50.1852
47.768
45.3875
43.0671
40.8283
38.6902
36.669
34.7781
33.0279
31.426
29.9778
28.6862
27.5525
26.5763
25.756
25.0887
24.5704
24.1964
23.9609
23.8569
23.8764
24.0103
24.2482
24.5781
24.9872
25.4612
25.9852
26.5438
27.1217
27.7041
28.2772
28.8288
29.3478
29.8248
30.2511
30.6186
30.9195
31.1457
31.2896
31.3436
31.3014
31.1584
30.9121
30.5624
30.1118
29.5646
28.9261
28.2015
27.3953
26.5104
25.5475
24.5056
23.3817
22.1721
20.8723
19.4781
17.9861
16.3934
14.6977
12.8964
10.9865
8.96381
6.82196
4.5526
2.14512
-0.413146
-3.13643
-6.03997
-9.1393
-12.4496
-15.9852
-19.7592
-23.7833
-28.0676
-32.6206
-37.4492
-42.558
-47.9491
-53.621
-59.5682
-65.7793
-72.2367
-78.915
-85.781
-92.7929
-99.9015
-107.05
-114.179
-121.223
52.6307
50.1656
47.7131
45.2989
42.9476
40.6814
38.52
36.4798
34.5739
32.8127
31.2034
29.7508
28.4575
27.3244
26.3507
25.5345
24.8728
24.3616
23.996
23.7704
23.6779
23.7107
23.8597
24.1144
24.4632
24.8926
25.3881
25.9343
26.515
27.114
27.7161
28.3071
28.8743
29.4072
29.8966
30.3345
30.7134
31.0256
31.2631
31.4176
31.4808
31.4454
31.306
31.0596
30.7064
30.2498
29.695
29.0488
28.3178
27.5076
26.6215
25.6603
24.6225
23.5044
22.301
21.0072
19.6183
18.1304
16.5412
14.849
13.0522
11.1487
9.13497
7.00526
4.75128
2.36211
-0.175556
-2.87682
-5.7579
-8.83524
-12.1248
-15.6414
-19.3985
-23.4078
-27.6797
-32.2228
-37.0445
-42.1501
-47.543
-53.223
-59.1861
-65.4226
-71.9161
-78.6423
-85.5679
-92.6508
-99.84
-107.077
-114.297
-121.432
52.6643
50.1257
47.6006
45.1176
42.7034
40.3819
38.1736
36.0953
34.1599
32.3772
30.7536
29.2929
27.9969
26.8654
25.897
25.0894
24.439
23.9418
23.5931
23.3871
23.3174
23.3765
23.5555
23.8443
24.2309
24.7016
25.241
25.8325
26.4584
27.1009
27.7431
28.3698
28.9682
29.528
30.0413
30.5016
30.9028
31.2379
31.4988
31.6758
31.7587
31.738
31.6062
31.3594
30.9984
30.5277
29.9558
29.2924
28.5472
27.7281
26.8396
25.8826
24.8542
23.7488
22.5593
21.2784
19.8999
18.42
16.8367
15.1502
13.361
11.4691
9.47275
7.36722
5.14442
2.79278
0.29758
-2.35824
-5.19305
-8.22532
-11.4726
-14.9509
-18.6739
-22.6535
-26.9002
-31.4228
-36.2295
-41.3273
-46.7217
-52.4156
-58.4083
-64.6936
-71.2581
-78.0796
-85.1256
-92.3527
-99.7066
-107.123
-114.532
-121.856
52.7177
50.0638
47.4254
44.8353
42.3238
39.9175
37.6383
35.5031
33.5246
31.7112
30.0678
28.5967
27.298
26.1702
25.2108
24.4165
23.7835
23.3073
22.9834
22.8064
22.7704
22.8685
23.0924
23.4324
23.8765
24.4105
25.018
25.6801
26.3767
27.087
27.7912
28.4721
29.1163
29.7144
30.261
30.7526
31.186
31.5559
31.8539
32.0681
32.1846
32.1892
32.0706
31.8228
31.4467
30.9504
30.3471
29.6525
28.882
28.0474
27.1553
26.2065
25.1957
24.1135
22.9484
21.6891
20.327
18.8575
17.2803
15.5987
13.8171
11.9395
9.96735
7.89771
5.72287
3.43003
1.00195
-1.5819
-4.34371
-7.30552
-10.4876
-13.9074
-17.579
-21.5141
-25.7223
-30.2127
-34.9942
-40.076
-45.4674
-51.1762
-57.2072
-63.5604
-70.2278
-77.1911
-84.4198
-91.869
-99.4795
-107.179
-114.885
-122.507
52.7948
49.9774
47.1784
44.4376
41.7908
39.2683
36.8936
34.6838
32.6501
30.7989
29.1326
27.6509
26.3517
25.2313
24.2857
23.5104
22.9009
22.4526
22.1611
22.0217
22.0293
22.1782
22.4612
22.8694
23.3914
24.0126
24.715
25.477
26.2741
27.0806
27.8717
28.6262
29.3294
29.9738
30.5585
31.0862
31.5593
31.9762
32.3282
32.5999
32.7702
32.8165
32.7197
32.4694
32.067
31.5259
30.8684
30.1208
29.3078
28.4482
27.5518
26.6186
25.639
24.5967
23.4722
22.247
20.9079
19.4492
17.8738
16.1904
14.4108
12.5457
10.6018
8.57934
6.47096
4.26186
1.93056
-0.549277
-3.20626
-6.06832
-9.16
-12.5007
-16.1043
-19.9806
-24.1373
-28.5823
-33.3251
-38.3777
-43.7546
-49.4709
-55.5404
-61.9727
-68.7688
-75.9181
-83.3936
-91.1498
-99.1211
-107.223
-115.353
-123.403
52.9019
49.862
46.8453
43.9023
41.0769
38.4042
35.9096
33.609
31.5112
29.6187
27.9301
26.4413
25.1465
24.0396
23.1142
22.3645
21.785
21.3711
21.1188
21.0242
21.0839
21.2937
21.6487
22.1416
22.7625
23.4968
24.3252
25.2221
26.1569
27.0954
28.0036
28.853
29.6259
30.3178
30.9367
31.4971
32.0125
32.4883
32.9169
33.2764
33.5331
33.6485
33.5885
33.3337
32.8857
32.2677
31.5183
30.682
29.7996
28.9008
28.0003
27.0963
26.1714
25.1973
24.1401
22.9682
21.6599
20.2084
18.6219
16.9201
15.127
13.265
11.3491
9.38425
7.36379
5.26947
3.07295
0.73841
-1.77342
-4.5003
-7.47358
-10.715
-14.2363
-18.0427
-22.1365
-26.5221
-31.2086
-36.2113
-41.5516
-47.2553
-53.3495
-59.8588
-66.7992
-74.1727
-81.9604
-90.1179
-98.572
-107.22
-115.935
-124.573
53.049
49.7108
46.4038
43.1954
40.1411
37.2821
34.6442
32.2408
30.075
28.1435
26.4387
24.9508
23.6697
22.5854
21.6888
20.9724
20.4297
20.0561
19.8482
19.8037
19.9211
20.1994
20.6364
21.2287
21.969
22.8447
23.8355
24.9117
26.0334
27.1526
28.2188
29.1888
30.0376
30.7658
31.3979
31.9714
32.5212
33.067
33.6037
34.0994
34.4981
34.7316
34.7365
34.4748
33.9478
33.1974
32.2921
31.3084
30.3136
29.3546
28.4529
27.6027
26.7737
25.9165
24.9721
23.8849
22.6175
21.1611
19.5354
17.7803
15.9419
14.0612
12.1663
10.2689
8.36261
6.42398
4.4139
2.28133
-0.0308723
-2.57735
-5.40088
-8.52571
-11.9576
-15.6902
-19.7149
-24.0278
-28.6357
-33.5575
-38.8239
-44.4756
-50.5592
-57.122
-64.2039
-71.8283
-79.992
-88.6561
-97.74
-107.118
-116.625
-126.064
53.2516
49.5122
45.8184
42.2643
38.9224
35.8396
33.0398
30.5287
28.3001
26.3405
24.6334
23.1615
21.9084
20.8597
20.0031
19.329
18.8301
18.5017
18.3414
18.3491
18.5261
18.8753
19.3998
20.1017
20.9796
22.0257
23.2218
24.5345
25.9122
27.2848
28.5714
29.6979
30.6216
31.3507
31.9424
32.4783
33.0344
33.6572
34.3485
35.0605
35.6996
36.1423
36.2671
35.9963
35.3304
34.3488
33.1775
31.9495
30.7746
29.725
28.8301
28.0775
27.4155
26.7604
26.0087
25.06
23.8465
22.3565
20.6346
18.7599
16.8171
14.8772
12.9868
11.1658
9.40769
7.68105
5.93104
4.08276
2.049
-0.255403
-2.89417
-5.89407
-9.24518
-12.9169
-16.8773
-21.1079
-25.61
-30.4063
-35.5402
-41.0725
-47.0773
-53.6357
-60.8252
-68.7051
-77.3003
-86.5868
-96.4805
-106.829
-117.408
-127.941
53.535
49.2456
45.0297
41.0257
37.3287
33.9882
31.0183
28.4087
26.1365
24.1728
22.4883
21.0559
19.8518
18.8563
18.0538
17.4324
16.984
16.7043
16.5921
16.6496
16.8822
17.2979
17.907
18.7204
19.747
20.9899
22.4391
24.0628
25.7973
27.5396
29.1533
30.4979
31.4846
32.1322
32.5657
32.9546
33.4505
34.1473
35.0619
36.1253
37.1823
38.0094
38.3658
38.0854
37.1662
35.7717
34.1434
32.5128
31.0542
29.8714
29.0015
28.4205
28.0465
27.7422
27.3278
26.6155
25.4729
23.8848
21.9533
19.8366
17.6876
15.6213
13.7069
11.9717
10.4071
8.97146
7.58943
6.15111
4.51847
2.54801
0.132668
-2.7565
-6.07087
-9.72717
-13.6503
-17.7965
-22.1594
-26.768
-31.6816
-36.9874
-42.7966
-49.239
-56.4503
-64.5495
-73.6104
-83.6403
-94.5635
-106.202
-118.255
-130.312
53.9412
48.8709
43.9339
39.3434
35.2195
31.6017
28.4762
25.8018
23.5274
21.6018
19.9792
18.6205
17.4939
16.5743
15.8428
15.2857
14.8944
14.6649
14.5976
14.6974
14.9738
15.4414
16.1193
17.031
18.2022
19.656
21.404
23.4307
25.6699
27.9782
30.1215
31.812
32.8343
33.2209
33.2518
33.2754
33.5757
34.3223
35.5595
37.1977
38.9949
40.5525
41.3799
41.0927
39.685
37.5301
35.1111
32.8272
30.9352
29.566
28.7556
28.4643
28.5758
28.8818
29.0747
28.7896
27.7399
25.9067
23.5378
20.959
18.4383
16.1462
14.1685
12.5315
11.2204
10.1844
9.32859
8.49905
7.47422
5.99197
3.84179
0.993471
-2.40396
-6.15292
-10.1015
-14.1722
-18.3545
-22.6893
-27.2573
-32.1762
-37.6026
-43.7334
-50.795
-59.0066
-68.5227
-79.4045
-91.6139
-104.973
-119.093
-133.344
54.5446
48.3019
42.3372
36.9871
32.3799
28.5044
25.2829
22.6175
20.4146
18.5936
17.0891
15.85
14.837
14.0208
13.3798
12.8996
12.5712
12.3914
12.3618
12.49
12.7895
13.2812
13.9942
14.9674
16.2496
17.8974
19.9666
22.4915
25.4421
28.6532
31.7405
34.087
35.0978
34.8204
33.9471
33.1963
33.0568
33.7892
35.4783
38.0394
41.1509
44.1454
45.9973
45.712
43.2781
39.6671
35.883
32.5756
30.0622
28.4547
27.761
27.9271
28.8239
30.183
31.5089
32.0634
31.1343
28.6991
25.4237
21.9969
18.859
16.2177
14.1388
12.6213
11.6371
11.1373
11.0296
11.1279
11.0884
10.3975
8.5561
5.53411
1.76926
-2.29096
-6.37666
-10.3869
-14.3296
-18.2738
-22.3267
-26.6333
-31.393
-36.8857
-43.4818
-51.5833
-61.4662
-73.2544
-87.0061
-102.643
-119.741
-137.315
55.4855
47.3301
39.8533
33.5594
28.4851
24.4646
21.2878
18.7666
16.7511
15.1286
13.8161
12.7532
11.8962
11.2141
10.6848
10.2941
10.0336
9.90079
9.89841
10.0354
10.3281
10.8016
11.4937
12.458
13.7699
15.5313
17.8723
20.9383
24.8379
29.5054
34.4246
38.2842
39.2148
37.2764
34.4644
32.2354
31.2811
31.877
34.1402
38.0871
43.4734
49.3822
53.6902
53.4234
48.5646
42.0517
35.9669
31.1796
27.8833
26.0268
25.5272
26.3366
28.4052
31.5308
35.0529
37.4724
36.6961
32.7001
27.5268
22.618
18.5641
15.4787
13.3001
11.943
11.356
11.525
12.4337
13.9548
15.6401
16.4595
14.9701
11.1442
6.36772
1.6078
-2.76024
-6.69828
-10.3018
-13.7011
-17.0301
-20.4368
-24.1265
-28.448
-33.9992
-41.5929
-51.6639
-64.2745
-79.6811
-98.2053
-119.699
-142.719
57.0551
45.3788
35.6641
28.3741
23.0717
19.2081
16.3477
14.1863
12.5209
11.2165
10.1829
9.35911
8.70322
8.1866
7.78986
7.50056
7.31186
7.22189
7.23378
7.35634
7.60551
8.007
8.60066
9.44769
10.6423
12.3297
14.7332
18.1839
23.1268
29.9938
38.633
46.6972
47.4615
40.9887
34.1409
29.4376
27.2716
27.5626
30.3763
36.0602
45.042
56.9219
67.9688
67.7451
56.2307
43.8184
34.181
27.6352
23.63
21.6435
21.4076
22.932
26.4631
32.3063
40.1835
47.4817
46.893
38.3951
29.248
22.0071
16.8738
13.4334
11.2777
10.1554
9.98558
10.8474
12.9553
16.5448
21.4381
25.8457
24.7481
18.1229
10.9421
4.94221
0.237041
-3.49115
-6.56789
-9.22888
-11.6212
-13.8318
-15.9495
-18.2385
-21.574
-28.0336
-38.2026
-51.2665
-67.8638
-89.4893
-117.453
-150.495
59.9111
40.6014
27.9814
20.3249
15.5853
12.5065
10.4
8.89129
7.77022
6.91391
6.2473
5.72277
5.30925
4.98612
4.73983
4.56183
4.44757
4.39597
4.40945
4.49458
4.66328
4.93527
5.34237
5.93647
6.80436
8.09665
10.0855
13.2797
18.644
27.9291
43.6675
65.6202
66.1276
45.2394
30.7276
22.985
19.7227
19.6143
22.4781
29.2828
42.4355
65.6588
98.4741
98.3228
65.1877
41.5871
27.9418
20.4314
16.4688
14.7386
14.7524
16.6367
21.1906
30.1518
46.1463
68.8465
68.4775
45.0233
28.2233
18.3606
12.745
9.53757
7.76689
6.99586
7.12929
8.37499
11.3428
17.2569
27.935
43.1582
42.4852
25.9011
13.8157
6.41204
1.8275
-1.22198
-3.43239
-5.14317
-6.47362
-7.3598
-7.52531
-6.52124
-4.64896
-9.13164
-20.5712
-33.1685
-48.8036
-71.644
-107.89
-162.613
65.5916
26.1888
13.1499
8.0746
5.70659
4.40399
3.59118
3.03765
2.63793
2.33782
2.10676
1.92633
1.78485
1.67479
1.59123
1.53112
1.49287
1.47611
1.48177
1.51229
1.57211
1.66874
1.81458
2.03074
2.35501
2.86022
3.70147
5.25019
8.51458
16.5702
39.7513
115.422
115.6
40.306
17.5653
10.0797
7.63141
7.38534
8.90409
13.363
25.3257
60.5807
176.447
176.393
60.4122
25.0188
12.8672
8.11791
6.09222
5.32182
5.40324
6.49651
9.57075
17.8681
42.4514
123.428
123.302
42.0679
17.2078
8.59749
5.14795
3.57249
2.81629
2.53364
2.6711
3.42237
5.48755
11.108
27.886
83.3598
83.1329
27.2002
9.94697
3.8222
1.20743
-0.160995
-1.01622
-1.60492
-1.9655
-1.92525
-0.784884
3.94631
21.4277
19.7889
-1.27148
-10.695
-19.3659
-34.4909
-71.7186
-183.435
-128.789
-136.755
-144.316
-151.394
-157.927
-163.871
-169.201
-173.905
-177.983
-181.443
-184.295
-186.555
-188.236
-189.349
-189.904
-129.094
-137.155
-144.795
-151.934
-158.51
-164.48
-169.822
-174.526
-178.597
-182.044
-184.882
-187.128
-188.797
-189.902
-190.452
-129.716
-137.97
-145.771
-153.033
-159.693
-165.712
-171.074
-175.775
-179.828
-183.247
-186.055
-188.272
-189.916
-191.003
-191.544
-130.677
-139.233
-147.282
-154.729
-161.512
-167.598
-172.98
-177.669
-181.685
-185.057
-187.814
-189.982
-191.586
-192.645
-193.171
-132.016
-141
-149.391
-157.084
-164.021
-170.182
-175.574
-180.228
-184.182
-187.477
-190.154
-192.251
-193.796
-194.813
-195.318
-133.795
-143.353
-152.191
-160.191
-167.303
-173.527
-178.902
-183.482
-187.33
-190.508
-193.07
-195.064
-196.528
-197.488
-197.963
-136.106
-146.424
-155.824
-164.181
-171.465
-177.718
-183.018
-187.461
-191.143
-194.148
-196.548
-198.403
-199.756
-200.641
-201.078
-139.094
-150.406
-160.496
-169.239
-176.654
-182.854
-187.985
-192.197
-195.626
-198.385
-200.565
-202.235
-203.447
-204.235
-204.624
-142.99
-155.606
-166.511
-175.617
-183.054
-189.054
-193.864
-197.709
-200.772
-203.196
-205.086
-206.52
-207.553
-208.223
-208.552
-148.181
-162.512
-174.32
-183.659
-190.886
-196.436
-200.703
-203.997
-206.552
-208.533
-210.056
-211.199
-212.017
-212.545
-212.803
-155.35
-171.933
-184.594
-193.806
-200.388
-205.096
-208.506
-211.019
-212.9
-214.322
-215.397
-216.196
-216.764
-217.128
-217.307
-165.823
-185.272
-198.309
-206.578
-211.757
-215.047
-217.201
-218.665
-219.699
-220.452
-221.009
-221.417
-221.706
-221.892
-221.983
-182.485
-205.017
-216.787
-222.435
-225.008
-226.126
-226.578
-226.735
-226.774
-226.771
-226.76
-226.75
-226.745
-226.743
-226.742
-212.636
-235.518
-241.38
-241.356
-239.71
-237.865
-236.239
-234.917
-233.883
-233.092
-232.502
-232.072
-231.773
-231.585
-231.494
-278.309
-283.033
-271.85
-261.892
-254.603
-249.377
-245.589
-242.804
-240.74
-239.207
-238.074
-237.253
-236.683
-236.323
-236.149
104.562
104.412
104.113
103.67
103.092
102.396
101.615
100.809
100.084
99.6435
99.8661
101.519
106.374
119.578
160.8
107.214
107.067
106.773
106.335
105.759
105.058
104.255
103.403
102.598
102.031
102.076
103.452
107.534
116.664
132.317
109.965
109.82
109.53
109.093
108.511
107.785
106.927
105.96
104.942
103.992
103.357
103.501
105.186
109.216
114.751
112.813
112.671
112.384
111.949
111.358
110.602
109.67
108.55
107.234
105.731
104.093
102.477
101.205
100.719
101.078
115.757
115.619
115.339
114.909
114.315
113.537
112.54
111.273
109.654
107.559
104.811
101.212
96.6754
91.6314
87.704
118.793
118.661
118.393
117.978
117.397
116.62
115.595
114.237
112.401
109.836
106.118
100.594
92.4947
81.7653
71.6518
121.916
121.795
121.547
121.16
120.612
119.871
118.876
117.529
115.651
112.91
108.675
101.762
90.1372
71.4687
48.6264
125.12
125.013
124.792
124.448
123.959
123.293
122.399
121.187
119.497
117.016
113.088
106.197
92.6686
64.068
9.78879
128.396
128.306
128.121
127.832
127.423
126.87
126.138
125.173
123.887
122.125
119.556
115.238
105.664
74.4974
-66.6909
131.73
131.66
131.517
131.295
130.983
130.568
130.036
129.378
128.603
127.791
127.233
127.927
133.65
161.328
300.283
135.108
135.061
134.965
134.816
134.61
134.343
134.018
133.659
133.342
133.277
134.036
137.118
146.386
170.878
222.365
138.515
138.492
138.445
138.373
138.274
138.153
138.02
137.908
137.899
138.186
139.221
142.009
148.544
161.677
180.264
141.935
141.936
141.938
141.942
141.95
141.967
142.003
142.082
142.246
142.57
143.186
144.293
146.116
148.682
151.134
145.349
145.374
145.426
145.505
145.615
145.762
145.953
146.193
146.477
146.748
146.806
146.073
143.169
135.761
123.77
148.742
148.79
148.889
149.041
149.25
149.522
149.863
150.27
150.712
151.069
150.971
149.357
143.344
126.018
88.1442
152.096
152.167
152.311
152.532
152.836
153.23
153.723
154.318
155.001
155.7
156.184
155.69
151.371
130.54
26.2822
155.397
155.489
155.675
155.961
156.354
156.864
157.507
158.301
159.272
160.475
162.073
164.674
170.859
192.994
297.782
158.629
158.74
158.966
159.311
159.785
160.402
161.182
162.156
163.378
164.971
167.26
171.164
179.265
198.044
236.425
161.78
161.908
162.168
162.565
163.111
163.821
164.717
165.833
167.221
168.978
171.321
174.734
180.25
189.475
201.794
164.837
164.98
165.269
165.712
166.319
167.106
168.096
169.317
170.8
172.574
174.634
176.839
178.653
178.753
175.791
167.79
167.945
168.259
168.738
169.395
170.245
171.309
172.613
174.172
175.966
177.84
179.209
178.241
170.15
147.805
170.63
170.795
171.128
171.636
172.332
173.229
174.352
175.726
177.375
179.296
181.393
183.196
182.77
171.441
104.377
173.352
173.523
173.87
174.399
175.121
176.052
177.216
178.644
180.382
182.5
185.143
188.725
194.866
211.431
281.785
175.949
176.125
176.481
177.023
177.76
178.708
179.891
181.342
183.12
185.333
188.236
192.469
199.718
214.062
240.793
178.418
178.597
178.957
179.504
180.246
181.196
182.374
183.809
185.549
187.682
190.4
194.113
199.638
208.084
218.444
180.759
180.938
181.299
181.844
182.582
183.52
184.673
186.058
187.697
189.619
191.867
194.494
197.521
200.772
203.367
182.97
183.148
183.506
184.045
184.771
185.689
186.806
188.126
189.643
191.324
193.066
194.589
195.245
193.909
190.172
185.053
185.229
185.581
186.111
186.822
187.715
188.793
190.051
191.469
192.981
194.411
195.28
194.346
188.706
174.463
187.009
187.181
187.527
188.046
188.739
189.607
190.649
191.861
193.224
194.69
196.139
197.216
196.709
189.472
148.943
188.839
189.008
189.346
189.853
190.529
191.372
192.383
193.559
194.899
196.405
198.12
200.247
203.74
213.351
255.143
190.547
190.713
191.043
191.538
192.196
193.015
193.996
195.139
196.453
197.97
199.808
202.323
206.517
214.875
230.663
192.135
192.297
192.62
193.103
193.744
194.54
195.491
196.595
197.859
199.306
201.021
203.225
206.396
211.234
217.228
193.606
193.764
194.08
194.552
195.177
195.952
196.874
197.936
199.131
200.45
201.89
203.448
205.113
206.783
208.039
194.961
195.117
195.426
195.889
196.501
197.257
198.153
199.178
200.31
201.505
202.669
203.592
203.819
202.614
199.804
196.204
196.356
196.661
197.116
197.717
198.46
199.338
200.34
201.439
202.575
203.612
204.211
203.515
199.553
189.7
197.335
197.485
197.786
198.234
198.828
199.562
200.433
201.43
202.535
203.706
204.853
205.723
205.474
200.575
172.837
198.356
198.505
198.802
199.246
199.834
200.564
201.433
202.439
203.578
204.85
206.281
208.005
210.657
217.452
246.177
199.268
199.416
199.711
200.151
200.736
201.464
202.334
203.351
204.523
205.876
207.499
209.636
212.956
219.095
230.164
200.073
200.219
200.512
200.95
201.532
202.258
203.128
204.15
205.334
206.71
208.355
210.44
213.29
217.308
221.921
200.77
200.916
201.207
201.643
202.222
202.945
203.813
204.83
206.004
207.35
208.901
210.706
212.807
215.103
216.964
201.361
201.506
201.796
202.229
202.806
203.525
204.388
205.396
206.549
207.842
209.263
210.76
212.182
213.194
213.382
201.846
201.991
202.279
202.71
203.284
204
204.857
205.855
206.989
208.24
209.568
210.861
211.835
211.851
210.014
202.226
202.37
202.657
203.086
203.658
204.37
205.223
206.216
207.34
208.578
209.891
211.177
212.146
211.79
205.452
202.501
202.644
202.93
203.358
203.927
204.637
205.488
206.479
207.605
208.858
210.227
211.706
213.372
215.877
223.382
202.671
202.814
203.098
203.525
204.092
204.801
205.65
206.642
207.776
209.052
210.481
212.099
214.009
216.485
219.795
202.737
202.879
203.163
203.588
204.153
204.86
205.709
206.702
207.841
209.133
210.599
212.282
214.247
216.507
218.589
202.7
202.841
203.123
203.547
204.11
204.815
205.662
206.654
207.794
209.088
210.561
212.262
214.276
216.647
218.91
202.559
202.7
202.98
203.402
203.963
204.666
205.51
206.499
207.632
208.913
210.358
212.02
214.051
216.854
220.883
202.316
202.455
202.734
203.153
203.712
204.412
205.253
206.237
207.362
208.618
210.001
211.514
213.284
216.205
225.734
201.971
202.109
202.386
202.802
203.357
204.053
204.892
205.873
206.992
208.231
209.547
210.822
211.712
210.961
202.612
201.525
201.661
201.935
202.347
202.898
203.59
204.426
205.408
206.534
207.784
209.115
210.393
211.275
210.987
208.441
200.978
201.113
201.384
201.79
202.335
203.022
203.855
204.839
205.981
207.277
208.714
210.231
211.647
212.575
212.579
200.334
200.466
200.732
201.132
201.668
202.346
203.172
204.157
205.314
206.666
208.253
210.133
212.351
214.799
216.798
199.592
199.722
199.981
200.372
200.897
201.562
202.375
203.349
204.506
205.886
207.584
209.795
212.89
217.328
222.481
198.756
198.882
199.133
199.513
200.024
200.67
201.461
202.409
203.535
204.881
206.554
208.837
212.489
219.356
231.819
197.829
197.949
198.192
198.557
199.05
199.673
200.434
201.342
202.406
203.642
205.094
206.924
209.85
217.493
249.886
196.813
196.928
197.159
197.509
197.979
198.574
199.3
200.16
201.152
202.248
203.367
204.243
203.931
198.436
167.217
195.712
195.821
196.04
196.37
196.815
197.38
198.068
198.883
199.818
200.833
201.805
202.38
201.606
197.238
186.246
194.531
194.632
194.837
195.147
195.564
196.094
196.743
197.519
198.423
199.442
200.514
201.448
201.772
200.635
197.714
193.274
193.368
193.557
193.843
194.229
194.72
195.325
196.06
196.944
198.01
199.314
200.935
202.947
205.266
207.223
191.948
192.033
192.205
192.465
192.815
193.261
193.814
194.492
195.331
196.407
197.889
200.147
203.902
210.145
218.16
190.558
190.634
190.787
191.019
191.329
191.724
192.211
192.808
193.55
194.517
195.921
198.312
203.126
213.786
234.732
189.111
189.177
189.311
189.512
189.78
190.118
190.529
191.02
191.605
192.318
193.263
194.788
198.286
210.279
265.919
187.613
187.669
187.783
187.953
188.177
188.456
188.786
189.162
189.567
189.954
190.196
189.891
187.541
176.457
121.264
186.071
186.118
186.212
186.35
186.532
186.753
187.007
187.28
187.536
187.686
187.506
186.407
182.858
173.262
152.891
184.492
184.53
184.604
184.714
184.855
185.023
185.211
185.405
185.573
185.643
185.45
184.619
182.372
177.544
170.434
182.884
182.912
182.969
183.05
183.153
183.274
183.406
183.543
183.673
183.777
183.834
183.811
183.673
183.408
183.1
181.251
181.272
181.311
181.367
181.435
181.513
181.595
181.683
181.786
181.941
182.268
183.078
185.057
189.297
195.613
179.601
179.613
179.638
179.67
179.707
179.743
179.777
179.809
179.858
179.981
180.364
181.527
184.869
193.739
212.573
177.937
177.944
177.954
177.966
177.973
177.971
177.955
177.92
177.872
177.836
177.914
178.46
180.837
191.256
242.672
176.266
176.267
176.266
176.26
176.242
176.206
176.141
176.038
175.874
175.608
175.136
174.116
171.216
160.299
108.506
174.591
174.587
174.577
174.557
174.519
174.455
174.352
174.193
173.941
173.52
172.736
171.072
167.16
157.724
138.455
172.914
172.908
172.892
172.862
172.811
172.727
172.599
172.408
172.123
171.68
170.942
169.587
166.936
161.976
155.076
171.239
171.231
171.213
171.179
171.12
171.026
170.886
170.685
170.408
170.042
169.574
168.996
168.313
167.572
166.957
169.565
169.558
169.541
169.508
169.449
169.354
169.211
169.01
168.753
168.47
168.278
168.475
169.725
173.076
178.465
167.893
167.889
167.877
167.851
167.8
167.712
167.573
167.372
167.11
166.833
166.707
167.22
169.676
177.163
193.765
166.221
166.221
166.219
166.207
166.172
166.101
165.975
165.772
165.475
165.087
164.69
164.612
166.128
174.914
220.647
164.545
164.552
164.565
164.573
164.567
164.526
164.426
164.233
163.898
163.345
162.448
160.892
157.53
147.005
100.115
162.86
162.877
162.909
162.947
162.98
162.987
162.94
162.792
162.467
161.838
160.661
158.422
153.904
144.346
126.289
161.159
161.189
161.245
161.322
161.407
161.484
161.52
161.469
161.245
160.707
159.61
157.53
153.774
147.587
139.971
159.435
159.479
159.564
159.686
159.837
160.004
160.16
160.262
160.237
159.96
159.24
157.798
155.331
151.818
148.409
157.678
157.736
157.853
158.026
158.253
158.527
158.833
159.141
159.4
159.519
159.367
158.776
157.611
155.974
154.524
155.877
155.951
156.099
156.325
156.633
157.025
157.501
158.053
158.656
159.263
159.796
160.148
160.217
159.996
159.679
154.022
154.11
154.288
154.565
154.951
155.462
156.114
156.925
157.906
159.055
160.347
161.713
163.022
164.08
164.659
152.104
152.203
152.405
152.724
153.179
153.797
154.614
155.675
157.035
158.745
160.844
163.314
165.999
168.494
170.086
150.115
150.22
150.438
150.787
151.291
151.99
152.941
154.217
155.917
158.161
161.081
164.762
169.103
173.533
176.662
148.049
148.156
148.378
148.737
149.263
150.007
151.038
152.461
154.417
157.106
160.787
165.749
172.143
179.471
185.457
145.907
146.008
146.221
146.567
147.082
147.819
148.862
150.331
152.406
155.358
159.6
165.737
174.532
186.338
198.452
143.691
143.78
143.968
144.277
144.742
145.417
146.387
147.777
149.781
152.711
157.094
163.876
174.826
192.987
219.904
141.411
141.481
141.629
141.875
142.252
142.808
143.618
144.794
146.511
149.051
152.918
159.119
170.109
193.551
260.092
-460.341
-341.16
-298.651
-278.26
-266.359
-258.605
-253.23
-249.367
-246.533
-244.437
-242.89
-241.766
-240.984
-240.49
-240.25
-389.183
-340.751
-307.65
-287.237
-274.162
-265.336
-259.121
-254.613
-251.283
-248.806
-246.967
-245.626
-244.689
-244.095
-243.806
-351.74
-329.688
-307.832
-291.112
-279.007
-270.248
-263.82
-259.034
-255.437
-252.725
-250.693
-249.2
-248.15
-247.483
-247.157
-329.693
-318.482
-304.44
-291.774
-281.524
-273.534
-267.372
-262.625
-258.97
-256.166
-254.038
-252.459
-251.342
-250.627
-250.278
-315.516
-309.236
-300.084
-290.753
-282.464
-275.545
-269.935
-265.453
-261.908
-259.133
-256.995
-255.391
-254.247
-253.512
-253.151
-305.784
-301.978
-295.846
-289.002
-282.448
-276.64
-271.708
-267.624
-264.305
-261.652
-259.575
-257.999
-256.864
-256.13
-255.769
-298.778
-296.328
-292.095
-287.044
-281.908
-277.121
-272.885
-269.259
-266.233
-263.765
-261.802
-260.293
-259.197
-258.484
-258.132
-293.559
-291.909
-288.907
-285.138
-281.12
-277.214
-273.631
-270.471
-267.77
-265.522
-263.706
-262.293
-261.259
-260.581
-260.245
-289.571
-288.423
-286.243
-283.398
-280.247
-277.076
-274.077
-271.36
-268.985
-266.973
-265.324
-264.026
-263.066
-262.434
-262.12
-286.464
-285.648
-284.036
-281.863
-279.383
-276.814
-274.319
-272.006
-269.943
-268.167
-266.691
-265.516
-264.641
-264.061
-263.772
-284.008
-283.421
-282.211
-280.536
-278.575
-276.494
-274.427
-272.472
-270.698
-269.147
-267.841
-266.793
-266.005
-265.48
-265.218
-282.044
-281.619
-280.703
-279.401
-277.844
-276.158
-274.45
-272.806
-271.292
-269.95
-268.807
-267.881
-267.181
-266.712
-266.477
-280.459
-280.154
-279.455
-278.438
-277.197
-275.83
-274.422
-273.046
-271.76
-270.608
-269.617
-268.807
-268.19
-267.775
-267.566
-279.172
-278.955
-278.421
-277.624
-276.633
-275.524
-274.365
-273.217
-272.131
-271.148
-270.294
-269.591
-269.053
-268.689
-268.506
-278.12
-277.971
-277.564
-276.938
-276.146
-275.246
-274.294
-273.339
-272.426
-271.591
-270.861
-270.255
-269.789
-269.473
-269.313
-277.257
-277.16
-276.851
-276.361
-275.728
-274.999
-274.218
-273.425
-272.661
-271.956
-271.334
-270.816
-270.415
-270.141
-270.003
-276.546
-276.49
-276.259
-275.876
-275.372
-274.782
-274.142
-273.487
-272.849
-272.256
-271.73
-271.289
-270.945
-270.711
-270.592
-275.959
-275.935
-275.766
-275.469
-275.069
-274.593
-274.071
-273.53
-273
-272.503
-272.06
-271.686
-271.395
-271.195
-271.093
-275.473
-275.475
-275.356
-275.129
-274.812
-274.43
-274.006
-273.561
-273.122
-272.708
-272.336
-272.021
-271.774
-271.604
-271.518
-275.071
-275.094
-275.014
-274.843
-274.596
-274.291
-273.947
-273.583
-273.221
-272.877
-272.566
-272.302
-272.094
-271.95
-271.877
-274.737
-274.777
-274.73
-274.605
-274.414
-274.172
-273.895
-273.599
-273.301
-273.016
-272.758
-272.537
-272.362
-272.241
-272.18
-274.461
-274.515
-274.494
-274.406
-274.261
-274.071
-273.85
-273.61
-273.366
-273.132
-272.918
-272.734
-272.587
-272.486
-272.434
-274.233
-274.298
-274.298
-274.241
-274.133
-273.987
-273.811
-273.618
-273.419
-273.227
-273.05
-272.897
-272.775
-272.69
-272.647
-274.045
-274.119
-274.137
-274.104
-274.027
-273.916
-273.778
-273.623
-273.462
-273.305
-273.16
-273.033
-272.931
-272.861
-272.824
-273.891
-273.972
-274.004
-273.992
-273.94
-273.857
-273.751
-273.627
-273.497
-273.369
-273.249
-273.145
-273.06
-273.001
-272.97
-273.767
-273.853
-273.896
-273.9
-273.869
-273.809
-273.727
-273.63
-273.525
-273.42
-273.322
-273.236
-273.165
-273.116
-273.09
-273.667
-273.758
-273.81
-273.827
-273.811
-273.77
-273.709
-273.631
-273.547
-273.462
-273.381
-273.309
-273.25
-273.208
-273.186
-273.589
-273.683
-273.743
-273.769
-273.766
-273.74
-273.694
-273.633
-273.564
-273.494
-273.427
-273.366
-273.316
-273.281
-273.262
-273.53
-273.627
-273.691
-273.725
-273.732