/*--------------------------------*- C++ -*----------------------------------*\
| =========                 |                                                 |
| \\      /  F ield         | OpenFOAM: The Open Source CFD Toolbox           |
|  \\    /   O peration     | Version:  5.x                                   |
|   \\  /    A nd           | Web:      www.OpenFOAM.org                      |
|    \\/     M anipulation  |                                                 |
\*---------------------------------------------------------------------------*/
FoamFile
{
    version     2.0;
    format      ascii;
    class       volScalarField;
    location    "11.7";
    object      gradTy;
}
// * * * * * * * * * * * * * * * * * * * * * * * * * * * * * * * * * * * * * //

dimensions      [0 -1 0 1 0 0 0];

internalField   nonuniform List<scalar> 
6300
(
1039.41
1118.13
1196.49
1274.26
1351.22
1427.13
1501.74
1574.84
1646.19
1715.58
1782.78
1847.61
1909.88
1969.45
2026.2
0.172572
0.517846
0.863449
1.20937
1.55519
1.89993
2.24181
2.57803
2.90456
3.21594
3.50525
3.76433
3.98413
4.15557
4.27049
0.287461
0.862689
1.43871
2.01568
2.59312
3.16965
3.74256
4.30742
4.85769
5.3843
5.87556
6.31734
6.69377
6.98854
7.18684
0.402035
1.20669
2.01296
2.82142
3.63188
4.44288
5.25121
6.05125
6.83427
7.58779
8.29511
8.93543
9.48472
9.91764
10.2106
0.516009
1.54903
2.58492
3.62507
4.66994
5.71859
6.76793
7.81184
8.84007
9.83713
10.7813
11.6442
12.3916
12.9861
13.3919
0.62895
1.88844
3.15254
4.42383
5.70403
6.99337
8.28981
9.58777
10.8767
12.139
13.3482
14.4678
15.4507
16.2429
16.7898
0.740279
2.22314
3.71283
5.21352
6.72874
8.26078
9.80979
11.3724
12.9394
14.4932
16.0042
17.4273
18.6997
19.744
20.4767
0.849279
2.55095
4.26197
5.98846
7.73635
9.51087
11.3158
13.152
15.0147
16.8897
18.7475
20.5364
22.1761
23.5558
24.5459
0.955127
2.86932
4.79544
6.74177
8.717
10.7301
12.7901
14.9045
17.0769
19.3024
21.5586
23.7939
25.9111
27.7561
29.1233
1.05699
3.17563
5.30851
7.4659
9.65935
11.9021
14.2094
16.5982
19.0854
21.6834
24.3898
27.1681
29.9173
32.4331
34.3879
1.15415
3.46759
5.79683
8.15367
10.552
13.009
15.5465
18.1926
20.9821
23.955
27.1478
30.5704
34.1555
37.6698
40.6058
1.24612
3.74363
6.25733
8.7996
11.3855
14.0348
16.7744
19.6427
22.6944
26.0055
29.6749
33.8088
38.4629
43.4832
48.181
1.33279
4.00331
6.68901
9.40152
12.1552
14.9695
17.8728
20.9085
24.1461
27.6968
31.736
36.5256
42.4026
49.6169
57.6746
1.41449
4.24765
7.09361
9.96185
12.8638
15.8147
18.8378
21.9716
25.2837
28.8983
33.0454
38.1533
45.0028
54.9049
69.3583
1.49194
4.47903
7.47565
10.4881
13.5227
16.5869
19.6914
22.8551
26.1179
29.566
33.3926
38.0374
44.5481
55.6389
79.3706
2075.55
2118.39
2159.18
2197.96
2234.75
2269.63
2302.68
2333.98
2363.63
2391.77
2418.5
2443.96
2468.28
2491.58
2514.01
2535.69
2556.75
2577.32
2597.53
2617.48
2637.3
2657.09
2676.96
2696.98
2717.26
2737.85
2758.83
2780.23
2802.09
2824.44
2847.29
2870.63
2894.44
2918.71
2943.4
2968.48
2993.89
3019.59
3045.51
3071.6
3097.77
3123.95
3150.06
3176
3201.7
3227.06
3252
3276.45
3300.32
3323.54
3346.07
3367.82
3388.74
3408.76
3427.81
3445.82
3462.71
3478.4
3492.81
3505.85
3517.43
3527.47
3535.88
3542.55
3547.4
3550.31
3551.16
3549.82
3546.15
3539.99
3531.17
3519.51
3504.81
3486.88
3465.49
3440.42
3411.45
3378.34
3340.86
3298.76
3251.82
3199.8
3142.49
3079.67
3011.19
2936.88
2856.65
2770.43
2678.21
2580.04
4.31843
4.31649
4.26885
4.17701
4.04398
3.87397
3.672
3.44348
3.19387
2.92835
2.65166
2.368
2.08096
1.79357
1.50836
1.22748
0.952822
0.6861
0.429001
0.183276
-0.0491849
-0.266302
-0.465809
-0.645299
-0.802343
-0.934661
-1.04035
-1.11814
-1.16761
-1.18934
-1.18494
-1.1568
-1.10778
-1.04065
-0.957685
-0.86029
-0.748953
-0.623498
-0.483577
-0.329285
-0.161726
0.0166487
0.202054
0.389773
0.574876
0.753072
0.921464
1.07903
1.22672
1.36715
1.50406
1.64153
1.78328
1.93204
2.08919
2.25474
2.42762
2.60624
2.78915
2.97566
3.16628
3.36284
3.56841
3.78695
4.0228
4.28014
4.56251
4.87241
5.21101
5.57818
5.97265
6.39232
6.83461
7.29679
7.77608
8.26964
8.77428
9.28607
9.79987
10.3089
10.8044
11.2755
11.7092
12.0909
12.4053
12.6371
12.7722
12.7994
12.7114
12.5052
7.26989
7.26688
7.18505
7.02716
6.79872
6.50737
6.16212
5.77256
5.34825
4.89815
4.43033
3.95184
3.46859
2.98554
2.50676
2.03563
1.57511
1.12788
0.696581
0.284017
-0.106736
-0.472216
-0.808561
-1.11158
-1.37695
-1.6005
-1.77867
-1.90897
-1.99048
-2.02418
-2.01303
-1.96162
-1.87547
-1.76
-1.61949
-1.45637
-1.27107
-1.0625
-0.829121
-0.570189
-0.287013
0.0162994
0.332797
0.653483
0.968796
1.27038
1.55265
1.81376
2.05574
2.28387
2.50554
2.72875
2.96066
3.20637
3.46825
3.74585
4.03648
4.33645
4.64236
4.95239
5.26713
5.58984
5.92618
6.28349
6.66988
7.09314
7.55982
8.0744
8.63892
9.25289
9.91368
10.6172
11.3587
12.1334
12.9368
13.7646
14.6119
15.4732
16.3404
17.2028
18.0461
18.8518
19.5979
20.2588
20.8072
21.2156
21.4587
21.516
21.3735
21.0261
10.3341
10.3306
10.2106
9.97868
9.64383
9.21816
8.71579
8.15146
7.53954
6.89324
6.22422
5.54237
4.85588
4.17135
3.49413
2.82856
2.17833
1.5468
0.937312
0.353497
-0.20051
-0.719895
-1.19909
-1.63186
-2.01152
-2.33143
-2.58565
-2.76979
-2.88192
-2.92332
-2.89878
-2.81616
-2.6851
-2.51513
-2.31359
-2.08413
-1.82642
-1.53699
-1.21122
-0.845784
-0.441086
-0.00283836
0.457698
0.925114
1.38266
1.81566
2.21447
2.57619
2.90482
3.21001
3.5049
3.80353
4.11823
4.45751
4.82478
5.21824
5.63199
6.05819
6.4897
6.92239
7.35654
7.79724
8.25374
8.73815
9.26384
9.8436
10.4881
11.2044
11.9955
12.8601
13.793
14.7873
15.8349
16.9286
18.0623
19.2309
20.4294
21.6513
22.8873
24.1238
25.3413
26.5137
27.6087
28.5881
29.41
30.0315
30.4125
30.5195
30.3299
29.835
13.5646
13.5611
13.3964
13.0777
12.6188
12.0385
11.3578
10.598
9.77938
8.92012
8.03565
7.1387
6.23945
5.34581
4.46395
3.59866
2.75392
1.93329
1.14042
0.379421
-0.344753
-1.02603
-1.65705
-2.22916
-2.73267
-3.15749
-3.49407
-3.73481
-3.87571
-3.91794
-3.86871
-3.74097
-3.55131
-3.3163
-3.04845
-2.75318
-2.42807
-2.06447
-1.6511
-1.17862
-0.644212
-0.0548444
0.571888
1.21013
1.83102
2.40929
2.92878
3.38535
3.78671
4.15
4.49789
4.85415
5.23936
5.66726
6.14251
6.66032
7.20843
7.77113
8.3342
8.8891
9.43534
9.98069
10.5399
11.1321
11.7786
12.4996
13.3115
14.2254
15.2451
16.3673
17.5828
18.879
20.2431
21.6646
23.1359
24.6527
26.2114
27.8073
29.432
31.0705
32.6994
34.2853
35.7841
37.1424
38.2995
39.1919
39.7587
39.9482
39.7243
39.0724
17.0254
17.0231
16.8032
16.3776
15.7681
15.0029
14.1129
13.1284
12.0771
10.9826
9.86431
8.73764
7.61422
6.50268
5.40929
4.33863
3.29426
2.27934
1.29721
0.351937
-0.551113
-1.40486
-2.20013
-2.92548
-3.56738
-4.11083
-4.54068
-4.84378
-5.01179
-5.04443
-4.95187
-4.75517
-4.48303
-4.165
-3.82303
-3.46545
-3.0854
-2.66391
-2.1764
-1.60097
-0.926855
-0.161076
0.669048
1.51962
2.34021
3.08699
3.73314
4.2734
4.7228
5.11153
5.47817
5.86243
6.29829
6.80807
7.39817
8.05798
8.76306
9.48271
10.1896
10.8674
11.5145
12.1433
12.7774
13.4471
14.1853
15.0234
15.9871
17.0929
18.3459
19.739
21.2551
22.8716
24.5675
26.3273
28.1428
30.0127
31.9382
33.9204
35.9551
38.0293
40.1178
42.1803
44.16
45.9844
47.5682
48.8191
49.6462
49.97
49.7329
48.9102
20.797
20.7972
20.5055
19.9415
19.1405
18.146
17.0033
15.7546
14.4364
13.0786
11.7045
10.3314
8.9714
7.63296
6.32148
5.04037
3.79189
2.57791
1.40068
0.263478
-0.828609
-1.868
-2.84395
-3.74202
-4.54387
-5.22773
-5.7698
-6.14722
-6.34279
-6.35116
-6.18497
-5.87796
-5.48085
-5.04816
-4.62011
-4.21014
-3.80247
-3.35849
-2.82839
-2.16553
-1.34163
-0.360145
0.73654
1.87199
2.95539
3.90925
4.6896
5.29193
5.74586
6.1045
6.4327
6.79599
7.25037
7.83276
8.55296
9.38992
10.2961
11.2121
12.0862
12.8894
13.6194
14.2978
14.9629
15.6626
16.4475
17.3658
18.4572
19.7476
21.2441
22.9329
24.7816
26.7491
28.799
30.9084
33.0705
35.2911
37.5823
39.9566
42.4198
44.9661
47.5722
50.1929
52.758
55.1713
57.3144
59.0547
60.257
60.7977
60.5834
59.5702
24.9865
24.9909
24.5988
23.8458
22.7908
21.5021
20.046
18.4805
16.8526
15.1983
13.5436
11.9063
10.2978
8.72474
7.1903
5.69553
4.24029
2.82412
1.4471
0.110698
-1.18129
-2.42176
-3.59914
-4.69627
-5.68942
-6.54792
-7.23509
-7.71159
-7.94244
-7.90832
-7.61994
-7.12957
-6.52902
-5.92375
-5.39031
-4.95063
-4.57097
-4.17625
-3.67072
-2.96116
-1.98249
-0.724305
0.748971
2.30006
3.7578
4.98203
5.90307
6.52476
6.90675
7.14194
7.33736
7.59907
8.01883
8.65969
9.54025
10.6228
11.8158
13.0023
14.0856
15.0172
15.7991
16.4719
17.0992
17.7557
18.5182
19.4595
20.6412
22.1057
23.866
25.8969
28.1371
30.5081
32.9448
35.4137
37.914
40.4675
43.1068
45.8645
48.7648
51.8164
55.0049
58.2852
61.5741
64.7466
67.6398
70.0646
71.8197
72.7116
72.5837
71.3531
29.7455
29.7545
29.2111
28.1841
26.777
25.0984
23.2454
21.2954
19.3063
17.3182
15.3574
13.4397
11.5733
9.76094
8.00211
6.29399
4.63271
3.01428
1.43541
-0.105574
-1.60765
-3.06579
-4.46926
-5.79958
-7.02816
-8.11408
-9.00296
-9.62892
-9.92283
-9.83081
-9.34496
-8.53906
-7.58324
-6.69519
-6.02474
-5.60397
-5.36047
-5.15294
-4.80623
-4.14372
-3.02526
-1.39764
0.649888
2.86302
4.89689
6.49185
7.54798
8.10316
8.27935
8.23697
8.14687
8.17488
8.46927
9.14177
10.2371
11.6968
13.3451
14.9413
16.3036
17.3606
18.1362
18.7116
19.1937
19.6963
20.3317
21.2069
22.4178
24.0382
26.0981
28.5592
31.3042
34.1725
37.0438
39.8735
42.6804
45.52
48.4602
51.5662
54.8911
58.4686
62.3046
66.3642
70.5566
74.7227
78.6386
82.0373
84.6239
86.0929
86.1706
84.6888
35.3047
35.3126
34.5183
33.0688
31.1528
28.9448
26.5829
24.1654
21.7569
19.3971
17.1076
14.8978
12.7694
10.7188
8.73973
6.82386
4.96239
3.14653
1.36828
-0.378688
-2.09804
-3.78923
-5.44534
-7.04995
-8.57284
-9.96445
-11.1499
-12.0248
-12.4593
-12.3208
-11.5313
-10.1649
-8.54033
-7.1538
-6.3002
-6.00264
-6.09877
-6.33068
-6.39717
-5.98361
-4.80205
-2.67652
0.311361
3.68308
6.66689
8.77634
9.91303
10.226
9.96538
9.39933
8.78485
8.36563
8.37371
9.01349
10.4077
12.4978
14.9476
17.2156
18.9595
20.1076
20.7597
21.0838
21.2567
21.4437
21.7981
22.4687
23.6029
25.3355
27.7502
30.8104
34.2915
37.83
41.2003
44.3634
47.3972
50.4247
53.5718
56.9496
60.6503
64.7454
69.2788
74.2485
79.5732
85.0556
90.3784
95.1757
99.0332
101.474
101.999
100.235
42.0511
42.024
40.7671
38.6235
35.9471
33.0115
29.9995
27.0212
24.1367
21.3743
18.7424
16.2383
13.8529
11.5736
9.386
7.27526
5.22633
3.22459
1.25621
-0.691406
-2.62874
-4.56287
-6.49518
-8.41754
-10.306
-12.1111
-13.7433
-15.0542
-15.8203
-15.7476
-14.5476
-12.1617
-9.15417
-6.84458
-5.77458
-5.83407
-6.64123
-7.74623
-8.67893
-8.92896
-7.93776
-5.19684
-0.579684
5.06177
9.69587
12.4614
13.4639
13.1746
12.091
10.6313
9.14157
7.94099
7.36847
7.79878
9.57596
12.7806
16.8116
20.2441
22.4727
23.5682
23.8552
23.6731
23.299
22.9494
22.8086
23.0624
23.9258
25.65
28.4723
32.4549
37.1953
41.7285
45.6542
49.0382
52.1215
55.1559
58.3498
61.8665
65.84
70.3892
75.6229
81.6192
88.3606
95.6157
102.872
109.665
115.48
119.609
121.12
119.104
50.7264
50.5045
48.2905
44.9435
41.1129
37.1867
33.366
29.7407
26.34
23.1626
20.1925
17.4074
14.7834
12.2959
9.92156
7.63764
5.42239
3.25482
1.11448
-1.01857
-3.1636
-5.3386
-7.55876
-9.8332
-12.1585
-14.506
-16.7982
-18.8672
-20.3879
-20.7966
-19.2708
-15.0528
-8.76228
-4.74976
-3.62199
-4.58825
-6.7542
-9.40929
-11.943
-13.661
-13.5924
-10.4183
-2.94533
7.89122
15.4156
18.685
18.875
17.2667
14.758
11.9066
9.08195
6.6121
4.91934
4.64477
6.6888
11.8736
19.5374
25.0059
27.6174
28.1928
27.6259
26.5384
25.3057
24.1542
23.2507
22.7779
23.0091
24.3826
27.5232
33.0074
40.3967
46.5008
50.8874
54.1448
56.915
59.6563
62.6614
66.1243
70.1989
75.0456
80.8668
87.9151
96.4061
106.172
116.031
125.558
134.354
141.51
145.315
143.417
63.0507
61.8513
57.4434
51.9581
46.4147
41.2082
36.4496
32.1351
28.2202
24.651
21.3747
18.3437
15.516
12.8545
10.3261
7.90039
5.5492
3.24533
0.961838
-1.3288
-3.65554
-6.04945
-8.54419
-11.1756
-13.9788
-16.9802
-20.1743
-23.4692
-26.5565
-28.6307
-27.8701
-20.9283
-5.09003
1.49896
1.54578
-1.61509
-6.16289
-11.2471
-16.3818
-20.9655
-23.7187
-21.8304
-10.1548
15.4895
27.2614
29.3421
26.8742
22.6545
17.9174
13.1424
8.5106
4.1634
0.427326
-1.84874
-0.721829
7.39576
25.4232
33.8803
35.6926
34.4607
32.1448
29.6115
27.1939
25.0005
23.0712
21.4783
20.4462
20.5693
23.1979
30.815
45.4468
53.7442
57.7442
59.9509
61.7477
63.774
66.3113
69.4985
73.4429
78.2956
84.3403
92.1299
102.613
116.588
129.664
142.499
155.585
168.23
177.72
178.07
84.137
77.8156
68.1454
59.0538
51.2291
44.5829
38.8923
33.9525
29.6018
25.7167
22.2029
18.9866
16.0089
13.2213
10.5824
8.05573
5.60783
3.20657
0.819686
-1.58677
-4.05036
-6.6146
-9.33224
-12.2697
-15.513
-19.1757
-23.4043
-28.3688
-34.1824
-40.5457
-45.3687
-39.6137
11.9017
17.1685
11.3328
3.35549
-4.79881
-13.0113
-21.6132
-30.9048
-40.5275
-47.335
-37.4786
43.0636
53.0616
46.5481
37.3953
28.7867
21.1309
14.1718
7.52944
0.834838
-6.16679
-13.2421
-18.1987
-11.3522
45.09
52.3222
48.1507
42.2887
36.976
32.5172
28.7586
25.466
22.4071
19.3706
16.2196
13.1475
11.6889
18.5207
59.6174
67.1747
67.1818
66.3454
66.2484
67.1541
69.0236
71.7804
75.3769
79.8269
85.2989
92.4641
103.786
128.299
143.638
159.075
177.448
199.49
223.28
237.601
133.669
98.5986
78.0103
64.3226
54.3441
46.5794
40.252
34.92
30.3112
26.2466
22.6015
19.2849
16.2272
13.3731
10.6764
8.09722
5.59898
3.14686
0.705591
-1.7625
-4.30013
-6.95866
-9.80347
-12.9228
-16.4428
-20.5556
-25.5735
-32.0447
-41.0151
-54.6769
-78.0978
-124.193
95.4909
48.8247
24.203
8.58067
-3.35089
-14.2144
-25.8506
-40.3663
-61.3888
-96.834
-166.588
172.22
102.636
67.553
47.1311
33.5455
23.34
14.7446
6.623
-2.0518
-12.6547
-27.6862
-52.6713
-101.518
135.617
87.1832
63.0413
49.3239
40.5763
34.4132
29.6512
25.5938
21.71
17.4269
11.8789
3.40152
-11.7585
-43.1159
122.083
91.4751
77.8316
71.6729
69.303
69.1438
70.4555
72.8509
76.0789
79.8835
83.8165
86.8087
85.9622
153.214
157.469
171.417
194.022
228.225
282.468
377.899
2465.6
2332.56
2191.69
2043.45
1888.36
1727.01
1560.01
1387.99
1211.58
1031.41
848.091
662.23
474.409
285.198
95.1578
12.1513
11.6104
10.9361
10.1552
9.29685
8.38877
7.45536
6.51615
5.58533
4.67196
3.78056
2.91183
2.06356
1.23132
0.409277
20.4234
19.4983
18.3447
17.0113
15.5498
14.0094
12.432
10.8509
9.28954
7.76227
6.27579
4.83039
3.42147
2.04092
0.678265
28.9621
27.6139
25.9324
23.9946
21.8812
19.6663
17.4121
15.1658
12.9595
10.8118
8.72999
6.7125
4.75104
2.83261
0.941139
37.8952
36.0615
33.775
31.1526
28.3129
25.3616
22.3834
19.4399
16.5703
13.7951
11.1198
8.53857
6.03758
3.59734
1.19484
47.376
44.9603
41.9519
38.5265
34.8551
31.0826
27.3191
23.6392
20.086
16.678
13.4152
10.2843
7.26335
4.32434
1.43577
57.5973
54.4506
50.5446
46.1454
41.4971
36.7936
32.1703
27.7106
23.4555
19.415
15.578
11.9199
8.40704
5.00087
1.65968
68.8122
64.6994
59.6298
54.0124
48.1937
42.4235
36.8575
31.5769
26.6096
21.9475
17.5614
13.4097
9.44388
5.61235
1.86177
81.3666
75.9035
69.2612
62.0795
54.8408
47.8481
41.2586
35.1298
29.4577
24.2033
19.3098
14.713
10.3462
6.14274
2.03678
95.7556
88.2832
79.4285
70.2007
61.2394
52.8673
45.1973
38.225
31.8875
26.0974
20.7609
15.7858
11.0848
6.57547
2.17933
112.727
102.042
89.9665
78.0532
67.0471
57.1821
48.4366
40.6841
33.7687
27.537
21.8498
16.5841
11.6316
6.89477
2.28438
133.424
117.19
100.34
84.9969
71.712
60.3762
50.6815
42.3051
34.9653
28.4312
22.5163
17.0688
11.9621
7.0875
2.34775
159.449
132.95
109.203
89.8798
74.4253
61.9268
51.6069
42.8883
35.355
28.7052
22.7148
17.2121
12.0603
7.14517
2.3668
191.653
145.954
113.637
90.8913
74.1804
61.2964
50.9293
42.2851
34.8602
28.3187
22.4247
17.0041
11.9215
7.06587
2.34103
219.424
145.573
108.498
85.865
70.1062
58.147
48.5273
40.4613
33.4809
27.2837
21.6605
16.4577
11.5555
6.85559
2.27246
1.56017
4.68284
7.81209
10.951
14.1006
17.2589
20.4206
23.5769
26.7189
29.8484
33.0065
36.3472
40.3167
46.0936
56.6756
1.62037
4.86292
8.11019
11.363
14.6181
17.8655
21.0847
24.239
27.2665
30.0676
32.4847
34.2565
34.8629
32.8307
22.4283
1.67928
5.03958
8.40425
11.7731
15.1404
18.491
21.7934
24.9885
27.9705
30.5527
32.4098
32.974
31.2409
25.3793
12.1069
1.73694
5.2131
8.69519
12.1839
15.6739
19.1494
22.5757
25.8854
28.9514
31.5405
33.2315
33.286
30.4847
23.0735
9.38317
1.79297
5.38237
8.98133
12.5934
16.217
19.8412
23.4385
26.9507
30.2626
33.1509
35.1886
35.5802
32.9286
25.1276
10.1842
1.84657
5.54487
9.25814
12.9946
16.7591
20.5512
24.3597
28.1544
31.8672
35.3508
38.288
39.9868
38.9475
32.141
14.7522
1.89655
5.69686
9.51862
13.3758
17.2817
21.2491
25.2897
29.4142
33.6298
37.929
42.2465
46.2935
48.9702
46.5022
27.7334
1.9415
5.8338
9.75429
13.7228
17.7611
21.8954
26.1607
30.6101
35.3332
40.4932
46.392
53.5501
62.5643
72.182
66.1987
1.97994
5.95105
9.95639
14.0208
18.1732
22.4501
26.9033
31.615
36.7323
42.543
49.6618
59.5162
75.7372
108.694
192.449
2.01055
6.04441
10.1172
14.2575
18.4984
22.8817
27.4653
32.3376
37.6489
43.6829
51.0307
61.0591
77.2861
109.925
192.943
2.03227
6.11059
10.2309
14.4238
18.7241
23.1736
27.826
32.7542
38.0627
43.9091
50.5364
58.2958
67.4352
76.1687
67.8535
2.04438
6.14744
10.294
14.5153
18.8456
23.3238
27.9944
32.9059
38.102
43.5916
49.2546
54.5723
57.8642
54.249
31.2285
2.0465
6.1539
10.305
14.5307
18.8638
23.3398
27.9947
32.8588
37.9365
43.1524
48.2112
52.2541
53.0882
45.8036
21.9892
2.03855
6.12984
10.2641
14.4711
18.7824
23.2309
27.849
32.6625
37.6741
42.8212
47.8718
52.1628
53.9487
48.8358
26.752
2.02072
6.07581
10.1722
14.3387
18.6052
23.0035
27.5667
32.3277
37.3164
42.5558
48.0585
53.8098
59.5987
63.652
53.3337
1.99333
5.99293
10.0316
14.1364
18.3359
22.661
27.1464
31.8339
36.7834
42.1065
48.0713
55.429
66.4521
88.4469
146.823
1.95693
5.88276
9.84474
13.8679
17.9788
22.2067
26.5851
31.1575
35.9901
41.2103
47.1156
54.5013
65.6847
87.9744
146.689
1.91218
5.74735
9.61515
13.5381
17.5401
21.6471
25.8883
30.2994
34.9268
39.8372
45.1306
50.9349
57.2029
62.2042
52.9807
1.85989
5.58915
9.34702
13.1531
17.0281
20.9935
25.073
29.2905
33.6661
38.1969
42.7897
47.0451
49.5992
46.3108
26.4497
1.80097
5.41096
9.04517
12.7201
16.4526
20.2603
24.161
28.1708
32.2969
36.5127
40.682
44.3355
46.0515
41.9251
22.8615
1.73643
5.21582
8.71485
12.2467
15.8246
19.462
23.1727
26.9698
30.8645
34.8597
38.9314
42.9703
46.5599
47.9113
37.786
1.66731
5.00693
8.36155
11.741
15.1548
18.6124
22.1237
25.7003
29.3616
33.1527
37.2026
41.916
48.6214
61.8664
98.1586
1.59467
4.78753
7.99083
11.2111
14.4542
17.7252
21.0287
24.3712
27.7678
31.2652
35.0121
39.4774
46.1401
59.815
97.2854
1.51954
4.56076
7.60816
10.6651
13.7339
16.8148
19.9063
23.0041
26.1034
29.2035
32.3218
35.5119
38.7883
41.2373
34.7719
1.4429
4.3296
7.21869
10.1107
13.0047
15.8968
18.7789
21.6355
24.4379
27.1285
29.581
31.4856
32.0102
28.8493
16.0619
1.36561
4.09669
6.82699
9.55482
12.2766
14.9853
17.6687
20.3042
22.8494
25.218
27.2201
28.417
27.7906
23.1456
10.7798
1.28841
3.86425
6.43686
9.00292
11.5572
14.0911
16.5913
19.035
21.3831
23.5615
25.4178
26.6138
26.3611
22.803
11.8819
1.21184
3.63398
6.05117
8.45904
10.8516
13.2202
15.5526
17.8319
20.0343
22.1282
24.0734
25.8161
27.2265
27.5733
21.9023
1.13634
3.40709
5.67183
7.92565
10.1624
12.374
14.5507
16.6817
18.7603
20.7977
22.8691
25.2487
28.8299
36.5219
58.4039
1.06214
3.18432
5.29996
7.40401
9.49039
11.5518
13.5801
15.5678
17.5144
19.4432
21.4505
23.8463
27.5779
35.6159
58.0622
0.98939
2.96603
4.93605
6.89449
8.83557
10.7525
12.6374
14.4822
16.2806
18.0339
19.7616
21.5157
23.335
24.7033
20.7948
0.918116
2.75228
4.58011
6.39692
8.19739
9.97513
11.7223
13.4285
15.078
16.6419
18.054
19.1396
19.405
17.4546
9.69434
0.848265
2.5429
4.23174
5.91062
7.57485
9.21886
10.8355
12.4139
13.9345
15.355
16.5729
17.3328
17.0132
14.2404
6.66903
0.779724
2.3375
3.89024
5.4344
6.96624
8.4815
9.97501
11.4392
12.8605
14.2086
15.4096
16.2754
16.3249
14.3584
7.64823
0.712331
2.13559
3.55464
4.9667
6.36905
7.75914
9.13475
10.4943
11.8371
13.1642
14.479
15.7845
17.0364
17.7704
14.5901
0.645906
1.93658
3.22387
4.50569
5.78031
7.04675
8.30558
9.56083
10.8245
12.1281
13.5547
15.3308
18.1075
23.9004
39.5873
0.580271
1.7399
2.89686
4.04964
5.19722
6.33959
7.47884
8.62149
9.78404
11.0065
12.3877
14.182
17.0838
23.1596
39.3077
0.515267
1.54507
2.57276
3.59719
4.61771
5.63456
6.6497
7.66832
8.70195
9.7746
10.9338
12.264
13.856
15.4238
13.6833
0.450769
1.35171
2.25092
3.14747
4.04075
4.93072
5.81815
6.70473
7.59279
8.48256
9.36127
10.1641
10.645
9.98552
5.85459
0.386689
1.15956
1.93095
2.70002
3.4661
4.22868
4.9872
5.74016
6.48248
7.19824
7.84144
8.2879
8.22582
6.95799
3.28859
0.322965
0.968449
1.61262
2.25469
2.89391
3.5295
4.16019
4.78305
5.39069
5.96439
6.45833
6.76494
6.64411
5.59829
2.74193
0.259558
0.77827
1.29579
1.81138
2.32432
2.83382
3.33869
3.83661
4.32261
4.78609
5.20546
5.53898
5.70494
5.49609
4.02004
0.196441
0.588947
0.980348
1.36997
1.7572
2.14146
2.52215
2.89861
3.27034
3.63859
4.01242
4.42963
5.02635
6.2742
9.85677
0.133595
0.400424
0.6662
0.930305
1.19224
1.4517
1.70871
1.96406
2.22069
2.48746
2.78952
3.19594
3.89595
5.43145
9.5296
0.0710124
0.212674
0.353282
0.492242
0.629134
0.763812
0.896607
1.02886
1.16426
1.31211
1.49447
1.75871
2.18576
2.80961
2.94217
0.00869734
0.0257034
0.0415853
0.0557266
0.0677113
0.0774091
0.0850991
0.0917207
0.0994617
0.113124
0.142944
0.208817
0.339344
0.529392
0.53349
-0.0533305
-0.160433
-0.268813
-0.379163
-0.491957
-0.607393
-0.725421
-0.845909
-0.969122
-1.09672
-1.23321
-1.38554
-1.54794
-1.62128
-1.13117
-0.115032
-0.345625
-0.577743
-0.812214
-1.0496
-1.29016
-1.53396
-1.78133
-2.0343
-2.29997
-2.59791
-2.97239
-3.49654
-4.16275
-4.02624
-0.176346
-0.529691
-0.884928
-1.24308
-1.60484
-1.97043
-2.3397
-2.7125
-3.09024
-3.48037
-3.90894
-4.45472
-5.34582
-7.26096
-12.4179
-0.237181
-0.712374
-1.18997
-1.67128
-2.15718
-2.64787
-3.14267
-3.63988
-4.13714
-4.63358
-5.13801
-5.69658
-6.48321
-8.10691
-12.7451
-0.297417
-0.893312
-1.4923
-2.09611
-2.70595
-3.32215
-3.9436
-4.5668
-5.18413
-5.78068
-6.3289
-6.77938
-7.03851
-6.85842
-5.10182
-0.35689
-1.07203
-1.79113
-2.51655
-3.25005
-3.99247
-4.74294
-5.49738
-6.24506
-6.96077
-7.58702
-7.99436
-7.8981
-6.70395
-3.32395
-0.415394
-1.24789
-2.08545
-2.93116
-3.78767
-4.65684
-5.53911
-6.43218
-7.32765
-8.20239
-8.99651
-9.55839
-9.51938
-8.06681
-3.81512
-0.472679
-1.42016
-2.37394
-3.33805
-4.31621
-5.31173
-6.32734
-7.36483
-8.42407
-9.49935
-10.5666
-11.539
-12.1216
-11.3729
-6.6522
-0.528461
-1.58795
-2.65511
-3.73495
-4.83239
-5.9523
-7.09991
-8.28184
-9.50873
-10.8012
-12.2018
-13.7894
-15.6474
-17.4365
-15.4498
-0.582426
-1.75031
-2.92729
-4.11939
-5.33263
-6.57322
-7.84817
-9.16707
-10.5472
-12.0273
-13.7063
-15.851
-19.2201
-26.121
-44.3247
-0.63425
-1.90626
-3.1888
-4.48888
-5.81354
-7.16987
-8.5654
-10.0092
-11.5155
-13.1147
-14.8864
-17.0614
-20.3391
-26.9548
-44.6452
-0.683601
-2.05479
-3.43794
-4.84105
-6.27209
-7.73884
-9.24859
-10.8074
-12.4187
-14.0813
-15.7856
-17.5051
-19.1387
-20.0961
-16.4999
-0.730148
-2.1949
-3.67303
-5.17355
-6.70546
-8.2775
-9.89717
-11.5684
-13.2855
-15.018
-16.6734
-18.0074
-18.4068
-16.3985
-8.77287
-0.773566
-2.32559
-3.89237
-5.48395
-7.1106
-8.78258
-10.5094
-12.297
-14.141
-16.0074
-17.7836
-19.1577
-19.3458
-16.601
-7.93427
-0.813546
-2.44593
-4.0943
-5.76972
-7.48385
-9.24912
-11.0787
-12.9858
-14.9802
-17.0586
-19.172
-21.1306
-22.3205
-20.9149
-12.0965
-0.849812
-2.55504
-4.27723
-6.02831
-7.8212
-9.6705
-11.5937
-13.6131
-15.7604
-18.0845
-20.6668
-23.6362
-27.0966
-30.3756
-26.935
-0.882149
-2.65224
-4.4399
-6.25757
-8.11897
-10.0401
-12.0412
-14.151
-16.4169
-18.9301
-21.892
-25.7994
-31.9973
-44.5014
-76.7925
-0.910424
-2.73711
-4.5815
-6.45615
-8.37484
-10.3536
-12.4126
-14.5798
-16.901
-19.4632
-22.4594
-26.3708
-32.5172
-44.884
-76.9384
-0.934607
-2.80955
-4.70188
-6.62381
-8.58857
-10.6109
-12.7081
-14.901
-17.2168
-19.6939
-22.3903
-25.3889
-28.7157
-31.5925
-27.4112
-0.954768
-2.86981
-4.8015
-6.76143
-8.76186
-10.8158
-12.9366
-15.1361
-17.4198
-19.7712
-22.1101
-24.178
-25.2254
-23.2009
-13.0499
-0.971068
-2.91837
-4.88128
-6.8706
-8.89758
-10.9737
-13.1096
-15.3121
-17.5751
-19.8563
-22.0171
-23.6746
-23.867
-20.4517
-9.76374
-0.983741
-2.95596
-4.94251
-6.95332
-8.99875
-11.0895
-13.2359
-15.4454
-17.7169
-20.024
-22.2726
-24.1876
-25.0128
-22.7521
-12.6156
-0.993083
-2.98348
-4.98668
-7.01167
-9.06804
-11.1662
-13.3176
-15.5349
-17.8331
-20.2314
-22.7588
-25.4562
-28.3004
-30.5208
-25.9493
-0.999448
-3.00197
-5.01551
-7.04793
-9.10789
-11.2054
-13.3528
-15.5676
-17.8789
-20.3481
-23.126
-26.6215
-32.02
-43.0046
-72.1478
-1.00326
-3.01268
-5.03102
-7.06475
-9.12126
-11.2094
-13.3408
-15.5325
-17.8143
-20.2496
-22.9938
-26.464
-31.8588
-42.8763
-72.0967
-1.005
-3.01709
-5.03562
-7.06544
-9.11222
-11.1829
-13.2864
-15.4341
-17.6422
-19.9357
-22.3562
-24.969
-27.7913
-30.1053
-25.7787
-1.00525
-3.01691
-5.03219
-7.05404
-9.08615
-11.1332
-13.2006
-15.2931
-17.4102
-19.5327
-21.5842
-23.3273
-24.0757
-21.9443
-12.2588
-1.00467
-3.01411
-5.02401
-7.03522
-9.04933
-11.0688
-13.0967
-15.1343
-17.1738
-19.178
-21.0255
-22.3753
-22.359
-19.0281
-9.03854
-1.00397
-3.01086
-5.01473
-7.01411
-9.00838
-10.9982
-12.9856
-14.9735
-16.9611
-18.9312
-20.8116
-22.3709
-22.9429
-20.7353
-11.4341
-1.00397
-3.00959
-5.00839
-6.99629
-8.97017
-10.9287
-12.8737
-14.8122
-16.7599
-18.746
-20.8197
-23.0513
-25.4563
-27.3675
-23.2509
-1.00554
-3.01296
-5.00942
-6.98793
-8.94227
-10.8682
-12.7657
-14.6439
-16.5314
-18.4991
-20.7174
-23.6101
-28.3115
-38.1846
-64.5007
-1.00963
-3.02383
-5.02274
-6.99608
-8.93377
-10.827
-12.6705
-14.4686
-16.2466
-18.0775
-20.1461
-22.9117
-27.5741
-37.5814
-64.2559
-1.01721
-3.0452
-5.05365
-7.02874
-8.95583
-10.8198
-12.6065
-14.3069
-15.9243
-17.4901
-19.0898
-20.8953
-23.1238
-25.4022
-22.425
-1.02922
-3.08005
-5.10754
-7.0945
-9.02142
-10.8658
-12.6021
-14.2022
-15.6373
-16.8784
-17.89
-18.5844
-18.6378
-16.8716
-9.67168
-1.04649
-3.13101
-5.18942
-7.20173
-9.144
-10.9865
-12.6917
-14.2117
-15.4844
-16.4256
-16.9096
-16.7179
-15.4147
-12.1136
-5.3509
-1.06959
-3.20002
-5.30316
-7.35738
-9.33558
-11.2022
-12.9095
-14.3924
-15.5611
-16.2897
-16.3981
-15.6226
-13.5786
-9.7592
-3.76538
-1.09876
-3.28789
-5.45072
-7.56562
-9.60435
-11.5282
-13.2828
-14.7909
-15.943
-16.584
-16.4997
-15.4076
-12.9749
-8.91442
-3.24704
-1.13371
-3.39395
-5.6314
-7.82655
-9.95265
-11.9714
-13.8267
-15.4363
-16.6793
-17.3815
-17.3007
-16.1231
-13.5012
-9.18526
-3.30269
-1.17362
-3.51574
-5.84133
-8.13521
-10.3752
-12.5277
-14.541
-16.3358
-17.7905
-18.7223
-18.8628
-17.8412
-15.2036
-10.5438
-3.86018
-1.21706
-3.64893
-6.07313
-8.48109
-10.8583
-13.1804
-15.4068
-17.4709
-19.2646
-20.6121
-21.2316
-20.6811
-18.3098
-13.3075
-5.13757
-1.26202
-3.78738
-6.31608
-8.8481
-11.3794
-13.8992
-16.3847
-18.7935
-21.0479
-23.007
-24.4123
-24.7849
-23.2426
-18.2707
-7.87681
-1.30603
-3.92342
-6.5566
-9.21541
-11.9083
-14.6413
-17.4156
-20.2228
-23.0358
-25.7858
-28.3098
-30.2178
-30.5568
-26.9986
-14.338
-1.34631
-4.04841
-6.7792
-9.55884
-12.4092
-15.3545
-18.4231
-21.6477
-25.0668
-28.7209
-32.6344
-36.7397
-40.5766
-42.0468
-31.9209
-1.38
-4.15341
-6.96776
-9.85303
-12.8437
-15.9819
-19.3217
-22.9369
-26.9341
-31.4755
-36.8251
-43.447
-52.2394
-65.147
-86.8056
154.699
115.496
91.7781
75.4599
63.1494
53.2727
45.0058
37.8676
31.5516
25.8478
20.6035
15.7019
11.0486
6.56398
2.17728
56.5502
73.7719
70.3167
62.7554
54.8946
47.5781
40.9236
34.8704
29.3227
24.1864
19.3775
14.8229
10.4576
6.22332
2.06598
24.9829
46.4045
51.7054
50.2574
46.2606
41.4229
36.4228
31.5214
26.8075
22.297
17.9747
13.8121
9.77542
5.82912
1.93702
13.2372
30.2312
37.7797
39.5284
38.2095
35.3795
31.8527
28.0415
24.1504
20.2765
16.4605
12.7135
9.03034
5.39717
1.79548
8.07514
20.6164
27.8807
30.9289
31.2069
29.8194
27.4794
24.6164
21.4809
18.2152
14.8981
11.5704
8.25037
4.94326
1.64647
5.41913
14.6658
20.9089
24.2524
25.3602
24.92
23.4686
21.3802
18.9013
16.1894
13.3428
10.4216
7.46131
4.48208
1.49475
3.86826
10.8007
15.9504
19.1279
20.5881
20.7223
19.8997
18.4146
16.483
14.2566
11.839
9.29977
6.68527
4.02644
1.34452
2.87573
8.17326
12.3611
15.1955
16.7364
17.1886
16.7904
15.7587
14.2692
12.4564
10.4194
8.23002
5.93989
3.58675
1.19922
2.19836
6.31633
9.71132
12.1611
13.6405
14.245
14.1208
13.4202
12.2796
10.8117
9.10553
7.23006
5.23813
3.17088
1.06148
1.71453
4.96134
7.71778
9.80026
11.1518
11.8071
11.8511
11.3871
10.5171
9.3321
7.90903
6.31082
4.58858
2.78422
0.933125
1.35723
3.94678
6.1921
7.94681
9.14643
9.79345
9.93387
9.63559
8.97301
8.0177
6.83399
5.47757
3.99598
2.42995
0.815278
1.08666
3.17117
5.00698
6.47866
7.52458
8.13141
8.3211
8.13692
7.63205
6.86175
5.87875
4.73115
3.46192
2.10942
0.708444
0.877725
2.56821
4.07463
5.30602
6.2075
6.75888
6.96778
6.86077
6.47526
5.85336
5.03769
4.06909
2.98562
1.82251
0.612642
0.713886
2.09302
3.33316
4.36238
5.13339
5.62403
5.8337
5.77786
5.48251
4.97942
4.30273
3.4867
2.56456
1.56804
0.527532
0.583805
1.71431
2.73809
3.59794
4.25387
4.68419
4.88387
4.86116
4.6339
4.22593
3.66444
2.97794
2.19509
1.34409
0.452517
0.479474
1.40968
2.25679
2.97505
3.53094
3.90443
4.08836
4.08642
3.91067
3.57897
3.11289
2.53603
1.8729
1.14828
0.386841
0.395092
1.16273
1.86492
2.46486
2.93458
3.25622
3.42184
3.43231
3.29565
3.02525
2.63821
2.15397
1.59339
0.977999
0.329663
0.326358
0.961205
1.54402
2.04504
2.44101
2.7163
2.86299
2.88029
2.77345
2.55248
2.23095
1.82488
1.35189
0.830583
0.28011
0.270025
0.795797
1.27988
1.69812
2.0312
2.26562
2.39393
2.41442
2.33043
2.14949
1.88237
1.54223
1.14392
0.703404
0.237321
0.223602
0.659324
1.06145
1.4103
1.68987
1.8886
1.99971
2.02105
1.9547
1.80631
1.58445
1.29994
0.965238
0.593963
0.200471
0.185148
0.546167
0.88
1.17058
1.40463
1.57238
1.66778
1.68855
1.6359
1.51411
1.33001
1.09248
0.811935
0.49994
0.16879
0.153131
0.45188
0.728572
0.970076
1.16543
1.30637
1.38764
1.407
1.36509
1.26516
1.11266
0.914858
0.68046
0.41921
0.141573
0.126332
0.372902
0.601568
0.801608
0.963984
1.08178
1.15047
1.16797
1.13455
1.05269
0.926735
0.762639
0.567619
0.349852
0.118177
0.103761
0.306351
0.494435
0.659284
0.793481
0.891284
0.948839
0.964271
0.937642
0.870821
0.767287
0.631883
0.470567
0.290147
0.0980285
0.0846138
0.249869
0.403432
0.538237
0.648243
0.728722
0.776446
0.789771
0.768629
0.714438
0.629959
0.519113
0.386776
0.238562
0.0806138
0.0682245
0.201505
0.325452
0.434407
0.523503
0.588899
0.627933