/*--------------------------------*- C++ -*----------------------------------*\
| =========                 |                                                 |
| \\      /  F ield         | OpenFOAM: The Open Source CFD Toolbox           |
|  \\    /   O peration     | Version:  5.x                                   |
|   \\  /    A nd           | Web:      www.OpenFOAM.org                      |
|    \\/     M anipulation  |                                                 |
\*---------------------------------------------------------------------------*/
FoamFile
{
    version     2.0;
    format      ascii;
    class       volScalarField;
    location    "6";
    object      gradTx;
}
// * * * * * * * * * * * * * * * * * * * * * * * * * * * * * * * * * * * * * //

dimensions      [0 -1 0 1 0 0 0];

internalField   nonuniform List<scalar> 
6300
(
953.569
950.819
945.312
937.032
925.963
912.089
895.402
875.91
853.648
828.69
801.16
771.249
739.217
705.403
670.218
956.265
953.522
948.029
939.767
928.715
914.85
898.156
878.63
856.295
831.213
803.496
773.325
740.957
706.734
671.079
961.647
958.922
953.46
945.238
934.226
920.388
903.69
884.108
861.641
836.323
808.241
777.554
744.509
709.455
672.84
969.699
967.003
961.595
953.446
942.509
928.732
912.055
892.421
869.789
844.149
815.544
784.096
750.03
713.699
675.589
980.39
977.74
972.418
964.385
953.58
939.924
923.325
903.681
880.896
854.892
825.644
793.21
757.771
719.679
679.471
993.677
991.092
985.897
978.041
967.445
954.005
937.586
918.031
895.169
868.831
838.884
805.281
768.123
727.735
684.715
1009.49
1007
1001.98
994.38
984.101
971.009
954.929
935.636
912.867
886.328
855.732
820.859
781.661
738.381
691.676
1027.74
1025.37
1020.59
1013.34
1003.51
990.948
975.428
956.664
934.282
907.832
876.805
840.716
799.234
752.409
700.914
1048.3
1046.08
1041.61
1034.83
1025.61
1013.78
999.117
981.253
959.712
933.858
902.891
865.915
822.105
771.064
713.334
1071.03
1068.99
1064.9
1058.68
1050.24
1039.41
1025.94
1009.46
989.4
964.94
934.934
897.897
852.158
796.364
730.48
1095.72
1093.9
1090.24
1084.7
1077.2
1067.61
1055.73
1041.19
1023.43
1001.51
973.954
938.529
892.217
831.709
755.155
1122.17
1120.59
1117.41
1112.62
1106.19
1098.05
1088.1
1076.08
1061.56
1043.67
1020.78
989.994
946.423
883.055
792.929
1150.15
1148.8
1146.12
1142.12
1136.82
1130.26
1122.46
1113.41
1103
1090.75
1075.46
1054.18
1020.37
961.104
856.221
1179.4
1178.29
1176.09
1172.84
1168.64
1163.63
1158
1152.06
1146.19
1140.82
1136.08
1130.84
1119.72
1084.71
977.003
1209.71
1208.8
1207.03
1204.46
1201.22
1197.54
1193.79
1190.56
1188.84
1190.19
1197.12
1213.33
1242.88
1280.95
1252.72
637.19
606.822
576.459
546.403
516.942
488.338
460.826
434.602
409.827
386.627
365.089
345.272
327.207
310.901
296.341
283.499
272.33
262.782
254.788
248.274
243.153
239.331
236.701
235.145
234.534
234.73
235.586
236.947
238.659
240.571
242.54
244.437
246.15
247.585
248.664
249.325
249.514
249.184
248.289
246.786
244.635
241.802
238.264
234.012
229.054
223.414
217.127
210.237
202.785
194.809
186.333
177.366
167.903
157.928
147.412
136.323
124.628
112.297
99.2991
85.6091
71.1985
56.0342
40.0743
23.2646
5.53661
-13.1923
-33.0181
-54.047
-76.3916
-100.166
-125.484
-152.45
-181.163
-211.71
-244.166
-278.593
-315.038
-353.531
-394.082
-436.672
-481.25
-527.726
-575.962
-625.768
-676.897
-729.044
-781.849
-834.905
-887.769
-939.98
637.587
606.781
575.985
545.517
515.677
486.74
458.944
432.49
407.538
384.21
362.59
342.73
324.656
308.369
293.852
281.071
269.983
260.529
252.644
246.253
241.271
237.602
235.141
233.771
233.361
233.769
234.845
236.429
238.359
240.476
242.631
244.69
246.539
248.084
249.255
249.992
250.25
249.985
249.153
247.708
245.606
242.806
239.281
235.018
230.026
224.334
217.987
211.035
203.532
195.521
187.031
178.072
168.636
158.7
148.231
137.19
125.541
113.251
100.293
86.6441
72.2819
57.1789
41.2979
24.5874
6.97958
-11.6102
-31.2821
-52.1478
-74.3262
-97.9382
-123.101
-149.926
-178.512
-208.949
-241.313
-275.67
-312.07
-350.549
-391.123
-433.784
-478.491
-525.163
-573.67
-623.83
-675.395
-728.058
-781.447
-835.137
-888.665
-941.54
638.392
606.689
575.006
543.695
513.084
483.47
455.103
428.19
402.889
379.312
357.535
337.598
319.513
303.27
288.844
276.192
265.265
256.002
248.335
242.19
237.483
234.121
231.999
231.001
230.995
231.836
233.361
235.401
237.778
240.316
242.85
245.235
247.352
249.113
250.456
251.338
251.728
251.591
250.888
249.566
247.57
244.845
241.349
237.062
231.996
226.19
219.706
212.619
205.002
196.915
188.396
179.456
170.081
160.234
149.867
138.929
127.372
115.163
102.278
88.7036
74.4301
59.4431
43.7157
27.203
9.83829
-8.46747
-27.8233
-48.3534
-70.1907
-93.4691
-118.317
-144.854
-173.184
-203.398
-235.577
-269.788
-306.09
-344.529
-385.138
-427.926
-472.875
-519.926
-568.969
-619.833
-672.278
-725.986
-780.567
-835.56
-890.451
-944.695
639.645
606.533
573.46
540.832
509.028
478.375
449.144
421.546
395.732
371.802
349.811
329.778
311.697
295.54
281.263
268.815
258.136
249.162
241.822
236.044
231.746
228.841
227.227
226.791
227.4
228.903
231.125
233.877
236.953
240.149
243.271
246.152
248.666
250.732
252.308
253.383
253.952
254.002
253.5
252.384
250.573
247.983
244.543
240.219
235.021
229.011
222.284
214.957
207.14
198.924
190.36
181.461
172.197
162.509
152.32
141.551
130.14
118.045
105.252
91.7671
77.6039
62.772
47.2638
31.046
14.0535
-3.81023
-22.6702
-42.6725
-63.9743
-86.7327
-111.095
-137.191
-165.131
-195.007
-226.899
-260.879
-297.014
-335.366
-375.992
-418.934
-464.207
-511.792
-561.614
-613.527
-667.304
-722.622
-779.056
-836.088
-893.126
-949.526
641.405
606.287
571.238
536.754
503.283
471.204
440.809
412.309
385.841
361.479
339.246
319.131
301.095
285.084
271.034
258.876
248.539
239.953
233.048
227.752
223.992
221.687
220.747
221.064
222.508
224.921
228.116
231.872
235.944
240.076
244.026
247.586
250.615
253.043
254.871
256.143
256.909
257.197
256.984
256.19
254.688
252.333
249.001
244.621
239.207
232.853
225.718
217.989
209.845
201.423
192.799
183.983
174.918
165.5
155.601
145.094
133.886
121.927
109.22
95.8043
81.7384
67.0731
51.8335
36.0046
19.5246
2.28381
-15.869
-35.116
-55.6548
-77.6803
-101.368
-126.863
-154.279
-183.701
-215.202
-248.852
-284.726
-322.909
-363.49
-406.558
-452.186
-500.41
-551.215
-604.504
-660.077
-717.61
-776.639
-836.566
-896.672
-956.164
643.764
605.906
568.168
531.183
495.507
461.579
429.716
400.12
372.895
348.068
325.613
305.471
287.56
271.789
258.065
246.299
236.406
228.311
221.943
217.237
214.13
212.558
212.446
213.702
216.207
219.804
224.287
229.4
234.836
240.256
245.329
249.774
253.415
256.206
258.224
259.617
260.543
261.103
261.294
261.002
260.017
258.08
254.955
250.503
244.735
237.809
229.996
221.61
212.94
204.202
195.508
186.855
178.139
169.178
159.749
149.643
138.707
126.882
114.203
100.775
86.7335
72.1994
57.2506
41.9009
26.0918
9.69292
-7.48932
-25.6957
-45.1898
-66.2283
-89.0311
-113.762
-140.527
-169.389
-200.398
-233.607
-269.098
-306.978
-347.386
-390.475
-436.399
-485.285
-537.21
-592.16
-649.994
-710.405
-772.89
-836.741
-901.056
-964.807
646.865
605.318
563.979
523.698
485.183
448.952
415.334
384.494
356.472
331.218
308.631
288.581
270.927
255.53
242.263
231.01
221.673
214.169
208.432
204.406
202.047
201.315
202.163
204.53
208.322
213.397
219.541
226.453
233.737
240.925
247.523
253.107
257.426
260.471
262.462
263.752
264.694
265.525
266.286
266.802
266.706
265.525
262.806
258.271
251.918
244.031
235.09
225.63
216.125
206.911
198.147
189.809
181.706
173.521
164.868
155.38
144.803
133.061
120.26
106.627
92.4349
77.9209
63.2438
48.4583
33.5085
18.2313
2.3673
-14.4176
-32.4964
-52.2301
-73.9113
-97.7241
-123.744
-151.977
-182.411
-215.064
-250.011
-287.391
-327.402
-370.289
-416.321
-465.758
-518.82
-575.631
-636.164
-700.175
-767.136
-836.201
-906.206
-975.75
650.93
604.393
558.231
513.641
471.543
432.538
396.928
364.789
336.04
310.508
287.978
268.224
251.027
236.192
223.547
212.95
204.288
197.473
192.444
189.163
187.612
187.786
189.683
193.295
198.58
205.441
213.679
222.957
232.767
242.43
251.164
258.251
263.261
266.241
267.697
268.375
268.994
270.035
271.618
273.469
274.945
275.17
273.262
268.645
261.297
251.762
240.921
229.703
218.881
208.963
200.164
192.415
185.385
178.531
171.181
162.678
152.572
140.762
127.508
113.282
98.5964
83.8753
69.3917
55.2515
41.3968
27.6154
13.5516
-1.27371
-17.4164
-35.423
-55.7159
-78.5006
-103.767
-131.384
-161.217
-193.206
-227.407
-263.997
-303.257
-345.555
-391.314
-440.986
-495.001
-553.71
-617.293
-685.657
-758.312
-834.264
-911.971
-989.441
656.307
602.894
550.191
499.963
453.423
411.21
373.505
340.185
310.957
285.458
263.312
244.167
227.712
213.685
201.869
192.093
184.231
178.193
173.929
171.42
170.684
171.764
174.724
179.638
186.561
195.491
206.307
218.684
231.998
245.259
257.165
266.371
272.006
274.193
274.038
273.07
272.674
273.75
276.555
280.662
284.975
287.875
287.607
282.938
273.813
261.364
247.283
233.197
220.326
209.394
200.662
193.977
188.803
184.248
179.145
172.28
162.786
150.538
136.151
120.594
104.806
89.485
75.0438
61.6328
49.1791
37.4067
25.8337
13.7691
0.35069
-15.3197
-33.9275
-55.6972
-80.3968
-107.593
-136.907
-168.148
-201.349
-236.741
-274.721
-315.815
-360.652
-409.934
-464.397
-524.738
-591.503
-664.924
-744.701
-829.752
-918.029
-1006.56
663.568
600.339
538.558
480.947
429.046
383.366
343.745
309.668
280.49
255.566
234.309
216.221
200.889
187.981
177.24
168.471
161.537
156.351
152.875
151.116
151.132
153.024
156.944
163.079
171.641
182.814
196.677
213.053
231.292
250.027
267.043
279.622
285.701
285.506
281.537
276.927
274.224
274.96
279.603
287.545
297.026
305.131
308.275
303.635
291.104
273.303
253.642
234.932
218.968
206.647
198.203
193.355
191.323
190.747
189.64
185.659
176.961
163.389
146.473
128.236
110.338
93.8251
79.2104
66.6341
55.98
46.9109
38.8244
30.7626
21.3627
9.01647
-7.58176
-28.6697
-53.4249
-80.7455
-109.812
-140.258
-172.122
-205.745
-241.685
-280.667
-323.566
-371.398
-425.303
-486.487
-556.096
-635.002
-723.454
-820.551
-923.668
-1028.2
673.696
595.661
520.891
453.681
395.682
346.771
305.977
272.074
243.879
220.374
200.731
184.296
170.563
159.147
149.762
142.198
136.317
132.038
129.338
128.25
128.868
131.358
135.964
143.019
152.951
166.255
183.418
204.726
229.863
257.257
283.299
302.216
308.419
302.24
289.948
278.023
270.807
270.533
277.888
292.199
311.045
329.516
340.138
335.68
315.972
287.909
258.621
232.702
212.354
198.309
190.556
188.667
191.739
198.002
204.266
205.825
198.146
181.048
158.693
135.386
113.872
95.428
80.4387
68.8652
60.4971
54.9995
51.7793
49.6834
46.6187
39.4773
25.2318
3.64252
-22.7539
-51.377
-80.7233
-110.317
-140.352
-171.401
-204.253
-239.862
-279.358
-324.096
-375.702
-436.076
-507.271
-591.301
-689.717
-802.639
-927.223
-1056.18
688.516
586.243
492.304
413.127
349.209
298.471
258.276
226.248
200.501
179.609
162.521
148.468
136.89
127.381
119.651
113.495
108.783
105.446
103.473
102.918
103.903
106.639
111.449
118.811
129.397
144.129
164.183
190.874
225.172
266.423
309.8
343.104
348.951
327.763
297.813
272.328
257.379
255.107
266.143
290.31
325.59
365.187
393.703
389.668
352.858
304.263
258.739
222.439
196.654
180.903
174.458
176.829
187.553
205.245
225.658
239.284
232.885
206.272
172.275
139.948
112.98
92.0538
76.7462
66.4791
60.8794
59.8074
63.1147
69.999
77.7448
80.1687
68.6214
42.879
11.1272
-20.9623
-51.2721
-79.7311
-107.112
-134.447
-162.838
-193.445
-227.586
-266.882
-313.452
-370.056
-439.934
-526.853
-635.053
-767.894
-924.438
-1093.77
711.742
564.785
442.431
350.581
283.735
234.971
198.793
171.365
150.121
133.357
119.931
109.066
100.229
93.0481
87.2649
82.7059
79.2624
76.8813
75.5628
75.364
76.4117
78.9249
83.2551
89.9516
99.8682
114.331
135.382
166.061
210.454
272.516
350.793
423.513
428.395
365.886
299.237
251.447
225.685
220.507
235.475
272.404
333.904
416.801
494.121
490.836
406.697
316.183
245.563
197.023
166.497
150.089
145.657
152.953
173.325
208.561
256.817
301.567
296.726
242.117
183.447
136.788
103.381
80.5857
65.7925
57.3699
54.7404
58.3076
69.2977
89.0724
116.533
140.977
132.451
90.7696
45.4963
6.89291
-24.4818
-50.6924
-73.9292
-95.9666
-118.219
-141.928
-168.375
-199.175
-236.734
-284.898
-348.035
-431.729
-544.872
-698.979
-903.19
-1147.44
751.639
507.876
348.605
252.005
192.205
153.336
126.701
107.567
93.2807
82.2898
73.6443
66.7397
61.1791
56.6963
53.1115
50.3061
48.2077
46.7829
46.0356
46.0108
46.8056
48.5906
51.6494
56.4511
63.7875
75.0399
92.7115
121.493
170.283
255.246
399.768
601.588
604.864
409.951
273.489
198.833
164.341
156.885
173.172
219.105
311.392
476.426
710.587
708.414
469.7
299.438
200.583
145.657
116.001
102.025
99.963
110.241
137.684
193.119
293.012
435.248
432.22
283.799
177.317
114.539
78.4998
57.5909
45.6628
39.9166
39.6768
46.117
62.8293
97.0757
159.662
249.258
244.022
143.83
70.2608
24.3405
-5.1246
-25.9319
-42.468
-57.1692
-71.4959
-86.455
-102.886
-121.719
-144.726
-178.158
-226.512
-294.174
-395.673
-557.877
-824.246
-1231.26
827.273
329.264
164.517
100.42
70.5243
54.0756
43.7988
36.7811
31.6902
27.8409
24.8468
22.4738
20.5734
19.048
17.8327
16.8854
16.1804
15.7065
15.4656
15.4749
15.7712
16.4195
17.5311
19.2976
22.0645
26.5016
34.0383
48.1039
78.0146
152.201
366.213
1065.54
1066.7
369.826
158.725
88.3749
64.0573
59.0645
68.1729
99.0472
184.11
436.486
1267.34
1266.58
434.112
179.853
92.3377
57.8962
42.9192
36.8
36.4957
42.8042
61.7311
113.648
268.219
778.093
777.061
265.077
108.245
53.7831
31.8267
21.6614
16.6298
14.5329
14.9927
19.1335
31.1098
64.2659
163.894
494.088
492.321
158.551
55.2091
18.0929
1.76681
-7.31937
-13.6454
-18.907
-23.8564
-28.8555
-33.9302
-38.2413
-37.6894
-49.9141
-77.1664
-107.876
-159.035
-266.741
-542.737
-1377.02
-996.037
-1055.04
-1111.05
-1163.48
-1211.88
-1255.93
-1295.44
-1330.32
-1360.56
-1386.22
-1407.38
-1424.16
-1436.63
-1444.9
-1449.01
-998.295
-1057.99
-1114.58
-1167.45
-1216.17
-1260.41
-1300
-1334.88
-1365.07
-1390.65
-1411.71
-1428.38
-1440.77
-1448.97
-1453.06
-1002.88
-1063.99
-1121.75
-1175.53
-1224.87
-1269.47
-1309.21
-1344.08
-1374.14
-1399.51
-1420.35
-1436.81
-1449.02
-1457.09
-1461.11
-1009.97
-1073.28
-1132.86
-1187.99
-1238.23
-1283.33
-1323.24
-1358.01
-1387.82
-1412.84
-1433.31
-1449.42
-1461.33
-1469.2
-1473.11
-1019.83
-1086.26
-1148.33
-1205.29
-1256.67
-1302.33
-1342.32
-1376.85
-1406.2
-1430.67
-1450.56
-1466.14
-1477.62
-1485.18
-1488.94
-1032.9
-1103.52
-1168.88
-1228.09
-1280.77
-1326.92
-1366.79
-1400.79
-1429.38
-1453
-1472.05
-1486.88
-1497.76
-1504.91
-1508.45
-1049.82
-1126
-1195.5
-1257.36
-1311.34
-1357.72
-1397.07
-1430.08
-1457.46
-1479.81
-1497.68
-1511.49
-1521.57
-1528.16
-1531.42
-1071.61
-1155.11
-1229.71
-1294.45
-1349.44
-1395.47
-1433.6
-1464.94
-1490.48
-1511.04
-1527.3
-1539.75
-1548.79
-1554.68
-1557.58
-1099.92
-1193.05
-1273.73
-1341.22
-1396.44
-1441.05
-1476.87
-1505.53
-1528.39
-1546.5
-1560.63
-1571.35
-1579.09
-1584.1
-1586.56
-1137.48
-1243.37
-1330.86
-1400.2
-1453.98
-1495.35
-1527.22
-1551.85
-1570.99
-1585.85
-1597.28
-1605.87
-1612.02
-1615.99
-1617.93
-1189.22
-1312.02
-1406.07
-1474.69
-1523.84
-1559.09
-1584.69
-1603.6
-1617.79
-1628.55
-1636.69
-1642.75
-1647.05
-1649.82
-1651.18
-1264.79
-1409.36
-1506.63
-1568.56
-1607.52
-1632.4
-1648.79
-1659.99
-1667.95
-1673.78
-1678.1
-1681.28
-1683.54
-1684.99
-1685.7
-1385.46
-1553.92
-1642.46
-1685.33
-1705.2
-1714.12
-1717.97
-1719.55
-1720.17
-1720.42
-1720.56
-1720.66
-1720.74
-1720.81
-1720.84
-1605.53
-1778.34
-1823.85
-1825.02
-1813.77
-1800.81
-1789.33
-1779.97
-1772.67
-1767.11
-1762.97
-1759.96
-1757.88
-1756.58
-1755.95
-2089.45
-2130
-2049.47
-1977.03
-1923.96
-1885.95
-1858.44
-1838.27
-1823.34
-1812.29
-1804.14
-1798.25
-1794.16
-1791.58
-1790.33
1238.26
1237.51
1236.06
1233.98
1231.42
1228.63
1226.05
1224.42
1225.04
1230.27
1244.49
1276.65
1347.92
1521.53
2043.48
1264.68
1264.05
1262.84
1261.11
1258.98
1256.7
1254.66
1253.58
1254.71
1260.41
1275.05
1307
1372.27
1498.29
1701.35
1291.48
1290.96
1289.93
1288.45
1286.61
1284.56
1282.57
1281.14
1281.17
1284.3
1293.53
1314.17
1354.38
1421.49
1500.97
1318.6
1318.16
1317.29
1316
1314.32
1312.31
1310.04
1307.65
1305.43
1303.88
1304.02
1307.71
1317.74
1336.04
1356.5
1345.98
1345.61
1344.88
1343.76
1342.22
1340.19
1337.53
1334
1329.17
1322.24
1312
1296.8
1275.31
1249.05
1226.96
1373.55
1373.27
1372.7
1371.77
1370.41
1368.44
1365.57
1361.21
1354.3
1342.85
1323.37
1290.19
1236.15
1159.09
1082.83
1401.28
1401.09
1400.69
1400.02
1398.95
1397.27
1394.58
1390.14
1382.53
1368.99
1344.2
1298.01
1212.93
1068.53
886.485
1429.07
1429
1428.83
1428.49
1427.87
1426.75
1424.76
1421.22
1414.81
1402.89
1379.83
1332.77
1230.87
1004.07
564.465
1456.87
1456.93
1457.02
1457.1
1457.07
1456.77
1455.97
1454.24
1450.87
1444.46
1432.08
1405.57
1335.48
1087.34
-62.0759
1484.57
1484.78
1485.17
1485.73
1486.39
1487.09
1487.76
1488.36
1488.96
1490.14
1494.09
1508.57
1563.68
1796.47
2934.74
1512.08
1512.44
1513.16
1514.22
1515.62
1517.37
1519.56
1522.41
1526.59
1533.83
1548.73
1583.29
1668.44
1876.7
2302.07
1539.28
1539.8
1540.84
1542.41
1544.54
1547.3
1550.83
1555.49
1562.03
1572.14
1589.65
1622.82
1687.64
1806.11
1965.64
1566.06
1566.74
1568.09
1570.16
1572.97
1576.62
1581.27
1587.2
1594.91
1605.24
1619.65
1640.29
1669.52
1706.93
1740.84
1592.33
1593.15
1594.8
1597.32
1600.75
1605.19
1610.76
1617.63
1625.91
1635.46
1645.26
1651.75
1645.65
1610.11
1540.46
1617.96
1618.92
1620.84
1623.77
1627.77
1632.91
1639.3
1647.01
1655.95
1665.43
1673.11
1671.87
1642.16
1536.92
1292.57
1642.88
1643.96
1646.12
1649.42
1653.92
1659.69
1666.85
1675.49
1685.55
1696.6
1707.08
1711.7
1691.07
1560.26
875.886
1667
1668.18
1670.56
1674.18
1679.11
1685.45
1693.33
1702.91
1714.39
1728.11
1745.06
1769.01
1816.42
1967.97
2662.59
1690.24
1691.51
1694.06
1697.96
1703.26
1710.07
1718.56
1728.95
1741.61
1757.3
1778.12
1809.94
1869.39
1998.48
2254.81
1712.54
1713.88
1716.58
1720.69
1726.28
1733.47
1742.42
1753.36
1766.63
1782.87
1803.48
1831.61
1873.92
1940.56
2025.98
1733.85
1735.25
1738.05
1742.32
1748.13
1755.58
1764.83
1776.08
1789.52
1805.34
1823.55
1843.35
1861.48
1869.53
1857.39
1754.14
1755.57
1758.44
1762.81
1768.76
1776.37
1785.8
1797.21
1810.69
1826.09
1842.46
1856.18
1855.98
1812.44
1681.32
1773.38
1774.82
1777.73
1782.15
1788.15
1795.83
1805.34
1816.83
1830.44
1846.09
1863.14
1878.6
1880.5
1816.11
1415.14
1791.55
1792.99
1795.9
1800.31
1806.3
1813.96
1823.44
1834.93
1848.68
1865.06
1884.86
1910.37
1951
2053.43
2477.47
1808.66
1810.09
1812.96
1817.32
1823.22
1830.76
1840.08
1851.39
1865.03
1881.59
1902.54
1931.56
1978.5
2067.35
2229.22
1824.72
1826.12
1828.92
1833.17
1838.92
1846.24
1855.27
1866.18
1879.26
1895.01
1914.54
1940.24
1976.81
2030.49
2094.36
1839.75
1841.1
1843.81
1847.92
1853.45
1860.48
1869.09
1879.4
1891.56
1905.73
1922.19
1941.3
1963.17
1986.47
2004.84
1853.78
1855.07
1857.67
1861.6
1866.88
1873.55
1881.67
1891.28
1902.38
1914.78
1927.94
1940.36
1948.46
1945.82
1929.04
1866.84
1868.08
1870.54
1874.26
1879.25
1885.54
1893.14
1902.07
1912.22
1923.22
1934.14
1942.35
1941.13
1914.89
1842.59
1878.99
1880.15
1882.48
1885.98
1890.66
1896.54
1903.63
1911.94
1921.38
1931.67
1942.14
1950.82
1951.11
1915.89
1706.9
1890.28
1891.36
1893.53
1896.8
1901.16
1906.62
1913.22
1920.96
1929.86
1939.92
1951.32
1965.02
1985.69
2037.49
2254.83
1900.74
1901.75
1903.76
1906.78
1910.81
1915.85
1921.94
1929.12
1937.46
1947.16
1958.84
1974.31
1998.57
2044.05
2126.9
1910.45
1911.37
1913.22
1915.99
1919.68
1924.29
1929.85
1936.41
1944.04
1952.95
1963.66
1977.41
1996.65
2024.59
2057.5
1919.45
1920.29
1921.97
1924.48
1927.83
1931.99
1937
1942.88
1949.66
1957.41
1966.31
1976.63
1988.6
2001.61
2011.93
1927.8
1928.56
1930.07
1932.33
1935.33
1939.05
1943.49
1948.66
1954.52
1961
1967.89
1974.64
1979.76
1980.42
1974.51
1935.57
1936.24
1937.59
1939.6
1942.25
1945.53
1949.41
1953.89
1958.88
1964.22
1969.51
1973.69
1973.95
1963.72
1933.98
1942.8
1943.4
1944.58
1946.35
1948.66
1951.51
1954.86
1958.69
1962.93
1967.41
1971.84
1975.4
1975.35
1960.5
1873.77
1949.56
1950.08
1951.11
1952.64
1954.63
1957.07
1959.92
1963.15
1966.72
1970.55
1974.7
1979.52
1986.97
2007.12
2095.59
1955.89
1956.34
1957.22
1958.53
1960.22
1962.27
1964.65
1967.32
1970.25
1973.42
1977.02
1981.75
1989.7
2006.23
2038.53
1961.85
1962.23
1962.98
1964.07
1965.49
1967.18
1969.11
1971.24
1973.53
1975.91
1978.5
1981.67
1986.39
1994.31
2004.86
1967.49
1967.8
1968.43
1969.33
1970.49
1971.85
1973.37
1975
1976.66
1978.19
1979.5
1980.43
1980.8
1980.49
1979.49
1972.84
1973.1
1973.61
1974.34
1975.27
1976.33
1977.5
1978.69
1979.79
1980.57
1980.71
1979.51
1975.61
1967.08
1954.37
1977.96
1978.17
1978.58
1979.16
1979.87
1980.69
1981.54
1982.37
1983.05
1983.33
1982.78
1980.38
1973.57
1956.48
1921.39
1982.87
1983.04
1983.35
1983.8
1984.34
1984.94
1985.55
1986.11
1986.52
1986.59
1986.07
1984.23
1978.61
1958.31
1864.99
1987.61
1987.73
1987.97
1988.31
1988.7
1989.12
1989.53
1989.89
1990.13
1990.21
1990.21
1990.62
1993.78
2010.77
2100.56
1992.2
1992.29
1992.47
1992.7
1992.97
1993.24
1993.49
1993.68
1993.79
1993.82
1993.99
1995.05
1999.27
2012.61
2043.57
1996.67
1996.74
1996.85
1997.01
1997.17
1997.31
1997.42
1997.47
1997.43
1997.28
1997.1
1997.2
1998.37
2002.16
2008.97
2001.05
2001.08
2001.15
2001.23
2001.31
2001.35
2001.34
2001.26
2001.07
2000.68
1999.96
1998.55
1995.59
1989.53
1980.01
2005.33
2005.35
2005.38
2005.4
2005.4
2005.35
2005.25
2005.07
2004.78
2004.25
2003.22
2000.9
1994.9
1979.23
1945.33
2009.55
2009.55
2009.54
2009.52
2009.45
2009.33
2009.15
2008.91
2008.58
2008.1
2007.34
2005.73
2000.86
1981.53
1887.99
2013.72
2013.7
2013.67
2013.59
2013.47
2013.29
2013.05
2012.75
2012.42
2012.09
2011.98
2012.75
2016.81
2035.3
2127.44
2017.84
2017.81
2017.75
2017.64
2017.47
2017.23
2016.93
2016.56
2016.18
2015.86
2015.96
2017.41
2022.7
2037.85
2070.84
2021.93
2021.89
2021.8
2021.66
2021.45
2021.16
2020.79
2020.34
2019.82
2019.28
2018.94
2019.34
2021.68
2027.96
2037.98
2025.99
2025.94
2025.84
2025.67
2025.43
2025.09
2024.65
2024.1
2023.41
2022.51
2021.36
2019.86
2017.87
2015.41
2012.9
2030.03
2029.98
2029.86
2029.67
2029.4
2029.03
2028.53
2027.91
2027.07
2025.87
2023.97
2020.65
2014.34
2002.82
1986.91
2034.06
2034
2033.87
2033.67
2033.38
2032.98
2032.47
2031.8
2030.93
2029.64
2027.52
2023.44
2014.37
1993.23
1950.66
2038.08
2038.01
2037.88
2037.68
2037.38
2036.97
2036.45
2035.8
2035
2033.93
2032.39
2029.63
2022.74
1998.43
1885.67
2042.09
2042.02
2041.89
2041.68
2041.38
2040.97
2040.46
2039.86
2039.19
2038.5
2038.05
2038.62
2043.15
2065.01
2175.34
2046.09
2046.03
2045.9
2045.7
2045.4
2044.99
2044.49
2043.91
2043.32
2042.85
2042.96
2044.82
2051.47
2070.11
2110.18
2050.09
2050.03
2049.91
2049.72
2049.43
2049.03
2048.53
2047.94
2047.3
2046.74
2046.6
2047.63
2051.42
2060.29
2073.58
2054.07
2054.02
2053.92
2053.74
2053.47
2053.09
2052.57
2051.94
2051.18
2050.29
2049.36
2048.49
2047.79
2047.34
2046.94
2058.04
2058.01
2057.93
2057.78
2057.54
2057.17
2056.66
2055.98
2055.07
2053.83
2052.05
2049.17
2043.93
2034.32
2020.74
2061.99
2061.97
2061.92
2061.82
2061.63
2061.31
2060.83
2060.13
2059.14
2057.69
2055.44
2051.44
2043.06
2024.01
1985.83
2065.91
2065.91
2065.91
2065.87
2065.75
2065.51
2065.09
2064.44
2063.47
2062.07
2060.01
2056.68
2049.57
2026.92
1925.1
2069.77
2069.81
2069.87
2069.92
2069.91
2069.78
2069.47
2068.92
2068.06
2066.84
2065.42
2064.5
2066.82
2084.76
2182.78
2073.56
2073.64
2073.79
2073.95
2074.09
2074.12
2073.98
2073.57
2072.82
2071.7
2070.45
2070.01
2073.19
2086.93
2120.8
2077.25
2077.39
2077.64
2077.96
2078.29
2078.54
2078.62
2078.42
2077.79
2076.6
2074.86
2072.96
2072.17
2075.1
2083.02
2080.8
2081.01
2081.39
2081.9
2082.48
2083.03
2083.42
2083.52
2083.1
2081.84
2079.35
2075.09
2068.52
2059.76
2051.4
2084.17
2084.45
2085
2085.75
2086.64
2087.56
2088.39
2088.94
2088.93
2087.89
2085.02
2078.78
2066.35
2044.1
2014.64
2087.29
2087.67
2088.41
2089.45
2090.72
2092.12
2093.5
2094.7
2095.42
2095.17
2092.99
2086.71
2070.97
2033.4
1958.09
2090.11
2090.6
2091.56
2092.94
2094.67
2096.63
2098.71
2100.75
2102.54
2103.73
2103.76
2101.15
2090.7
2048.87
1849.89
2092.54
2093.16
2094.38
2096.15
2098.39
2101.01
2103.9
2106.94
2110.01
2113.06
2116.32
2121
2132.16
2173.44
2370.95
2094.49
2095.26
2096.77
2098.97
2101.8
2105.15
2108.94
2113.06
2117.44
2122.18
2127.86
2136.3
2152.67
2189.45
2263.05
2095.87
2096.8
2098.63
2101.31
2104.79
2108.95
2113.71
2118.94
2124.58
2130.62
2137.42
2146.06
2158.97
2179.86
2206.9
2096.56
2097.66
2099.84
2103.06
2107.24
2112.29
2118.1
2124.52
2131.38
2138.48
2145.67
2152.79
2159.68
2165.95
2170.18
2096.44
2097.73
2100.3
2104.09
2109.04
2115.06
2122.02
2129.74
2137.95
2146.24
2153.92
2159.63
2160.78
2153.41
2137.04
2095.38
2096.87
2099.85
2104.26
2110.05
2117.13
2125.37
2134.57
2144.42
2154.39
2163.49
2169.59
2167.76
2147.08
2093.19
2093.24
2094.95
2098.35
2103.43
2110.12
2118.35
2128
2138.9
2150.76
2163.1
2175.09
2185
2187.8
2163.74
2012.57
2089.87
2091.8
2095.65
2101.42
2109.06
2118.53
2129.73
2142.53
2156.72
2171.99
2188.1
2205.29
2226.45
2268.64
2429.04
2085.12
2087.27
2091.58
2098.06
2106.69
2117.45
2130.31
2145.16
2161.87
2180.25
2200.32
2222.77
2250.46
2291.4
2356.12
2078.83
2081.2
2085.97
2093.15
2102.78
2114.88
2129.45
2146.46
2165.8
2187.29
2210.83
2236.57
2265.22
2297.6
2328.8
2070.85
2073.43
2078.63
2086.5
2097.11
2110.54
2126.86
2146.1
2168.18
2192.86
2219.78
2248.3
2277.34
2304.56
2323.8
2061.03
2063.8
2069.39
2077.89
2089.42
2104.14
2122.2
2143.72
2168.69
2196.84
2227.57
2259.61
2290.68
2317
2332.83
2049.24
2052.17
2058.09
2067.13
2079.48
2095.38
2115.11
2138.91
2166.93
2198.99
2234.41
2271.53
2307.26
2336.68
2353.51
2035.39
2038.42
2044.57
2054.02
2067.01
2083.91
2105.14
2131.14
2162.31
2198.75
2240
2284.38
2328.18
2365.06
2386.53
2019.39
2022.46
2028.73
2038.39
2051.79
2069.39
2091.8
2119.74
2153.97
2195.14
2243.39
2297.57
2353.87
2404.07
2435.12
2001.2
2004.25
2010.48
2020.12
2033.6
2051.49
2074.59
2103.92
2140.77
2186.55
2242.6
2309.25
2383.73
2456.34
2505.93
1980.87
1983.8
1989.8
1999.15
2012.3
2029.93
2053
2082.85
2121.3
2170.79
2234.42
2315.42
2414.84
2524.53
2611.82
1958.45
1961.17
1966.76
1975.49
1987.85
2004.55
2026.67
2055.76
2094.11
2145.15
2214.13
2308.76
2438.78
2608.22
2778.98
1934.11
1936.52
1941.48
1949.26
1960.32
1975.37
1995.46
2022.2
2058.06
2107.02
2175.97
2277.46
2435.28
2690.93
3065.38
1908.06
1910.07
1914.2
1920.71
1929.98
1942.63
1959.59
1982.27
2012.85
2054.96
2115.17
2206.98
2363.8
2691.08
3612.45
-3448.1
-2563.23
-2248.8
-2098.52
-2011.09
-1954.28
-1914.99
-1886.8
-1866.18
-1850.95
-1839.74
-1831.6
-1825.95
-1822.37
-1820.64
-2919.99
-2560.86
-2315.93
-2165.25
-2068.98
-2004.15
-1958.6
-1925.62
-1901.31
-1883.26
-1869.88
-1860.14
-1853.33
-1849.02
-1846.92
-2642.25
-2479.09
-2317.52
-2194.12
-2104.96
-2040.57
-1993.41
-1958.35
-1932.04
-1912.24
-1897.43
-1886.56
-1878.92
-1874.06
-1871.7
-2478.79
-2396.14
-2292.52
-2199.15
-2123.68
-2064.95
-2019.73
-1984.94
-1958.19
-1937.71
-1922.17
-1910.66
-1902.52
-1897.31
-1894.77
-2373.72
-2327.67
-2260.33
-2191.66
-2130.7
-2079.87
-2038.72
-2005.88
-1979.93
-1959.66
-1944.05
-1932.36
-1924.01
-1918.65
-1916.02
-2301.6
-2273.92
-2228.97
-2178.73
-2130.62
-2088.01
-2051.86
-2021.96
-1997.68
-1978.3
-1963.14
-1951.64
-1943.37
-1938.02
-1935.39
-2249.71
-2232.08
-2201.21
-2164.25
-2126.64
-2091.59
-2060.59
-2034.07
-2011.96
-1993.94
-1979.62
-1968.62
-1960.63
-1955.43
-1952.87
-2211.05
-2199.35
-2177.6
-2150.15
-2120.82
-2092.29
-2066.13
-2043.05
-2023.34
-2006.95
-1993.72
-1983.43
-1975.89
-1970.95
-1968.51
-2181.5
-2173.53
-2157.88
-2137.27
-2114.36
-2091.28
-2069.43
-2049.64
-2032.34
-2017.7
-2005.7
-1996.25
-1989.27
-1984.68
-1982.39
-2158.48
-2152.98
-2141.53
-2125.91
-2107.97
-2089.34
-2071.23
-2054.42
-2039.44
-2026.54
-2015.82
-2007.29
-2000.94
-1996.72
-1994.62
-2140.28
-2136.47
-2128.01
-2116.08
-2101.98
-2086.97
-2072.03
-2057.88
-2045.03
-2033.8
-2024.34
-2016.75
-2011.04
-2007.24
-2005.34
-2125.73
-2123.12
-2116.83
-2107.67
-2096.57
-2084.48
-2072.2
-2060.36
-2049.43
-2039.75
-2031.5
-2024.82
-2019.76
-2016.37
-2014.66
-2113.98
-2112.25
-2107.58
-2100.52
-2091.77
-2082.05
-2071.99
-2062.13
-2052.91
-2044.63
-2037.51
-2031.68
-2027.24
-2024.25
-2022.75
-2104.42
-2103.36
-2099.91
-2094.48
-2087.58
-2079.78
-2071.57
-2063.4
-2055.66
-2048.63
-2042.54
-2037.51
-2033.65
-2031.04
-2029.72
-2096.61
-2096.04
-2093.53
-2089.38
-2083.96
-2077.71
-2071.04
-2064.3
-2057.84
-2051.93
-2046.75
-2042.44
-2039.12
-2036.86
-2035.72
-2090.18
-2090.01
-2088.23
-2085.08
-2080.85
-2075.87
-2070.47
-2064.94
-2059.59
-2054.64
-2050.27
-2046.61
-2043.78
-2041.84
-2040.86
-2084.88
-2085.01
-2083.82
-2081.47
-2078.18
-2074.24
-2069.9
-2065.4
-2060.99
-2056.88
-2053.22
-2050.14
-2047.74
-2046.1
-2045.26
-2080.49
-2080.86
-2080.13
-2078.42
-2075.92
-2072.83
-2069.36
-2065.72
-2062.12
-2058.73
-2055.7
-2053.12
-2051.11
-2049.72
-2049.02
-2076.84
-2077.4
-2077.04
-2075.86
-2073.98
-2071.6
-2068.87
-2065.95
-2063.03
-2060.27
-2057.77
-2055.64
-2053.96
-2052.81
-2052.21
-2073.79
-2074.51
-2074.45
-2073.69
-2072.34
-2070.54
-2068.42
-2066.12
-2063.78
-2061.55
-2059.51
-2057.77
-2056.39
-2055.43
-2054.94
-2071.24
-2072.09
-2072.28
-2071.87
-2070.95
-2069.63
-2068.02
-2066.23
-2064.39
-2062.61
-2060.98
-2059.57
-2058.44
-2057.66
-2057.26
-2069.11
-2070.06
-2070.45
-2070.33
-2069.76
-2068.85
-2067.67
-2066.31
-2064.89
-2063.5
-2062.22
-2061.09
-2060.19
-2059.56
-2059.23
-2067.3
-2068.34
-2068.91
-2069.02
-2068.75
-2068.18
-2067.36
-2066.37
-2065.31
-2064.25
-2063.26
-2062.39
-2061.68
-2061.18
-2060.92
-2065.78
-2066.89
-2067.59
-2067.91
-2067.89
-2067.6
-2067.09
-2066.41
-2065.66
-2064.89
-2064.15
-2063.49
-2062.95
-2062.56
-2062.36
-2064.48
-2065.65
-2066.47
-2066.96
-2067.15
-2067.1
-2066.85
-2066.45
-2065.95
-2065.43
-2064.91
-2064.43
-2064.04
-2063.75
-2063.6
-2063.37
-2064.59
-2065.51
-2066.14
-2066.52
-2066.67
-2066.65
-2066.47
-2066.2
-2065.89
-2065.56
-2065.25
-2064.98
-2064.78
-2064.67
-2062.4
-2063.67
-2064.68
-2065.43
-2065.96
-2066.3
-2066.47
-2066.49
-2066.41
-2066.29
-2066.13
-2065.95
-2065.79
-2065.67
-2065.6
-2061.55
-2062.86
-2063.94
-2064.81
-2065.47
-2065.97
-2066.3
-2066.5
-2066.6
-2066.64
-2066.62
-2066.58
-2066.51
-2066.46
-2066.42
-2060.79
-2062.13
-2063.29