/*--------------------------------*- C++ -*----------------------------------*\
| =========                 |                                                 |
| \\      /  F ield         | OpenFOAM: The Open Source CFD Toolbox           |
|  \\    /   O peration     | Version:  5.x                                   |
|   \\  /    A nd           | Web:      www.OpenFOAM.org                      |
|    \\/     M anipulation  |                                                 |
\*---------------------------------------------------------------------------*/
FoamFile
{
    version     2.0;
    format      ascii;
    class       volScalarField;
    location    "6";
    object      gradTy;
}
// * * * * * * * * * * * * * * * * * * * * * * * * * * * * * * * * * * * * * //

dimensions      [0 -1 0 1 0 0 0];

internalField   nonuniform List<scalar> 
6300
(
1477.8
2432.03
3382.14
4325.37
5258.94
6180.05
7085.88
7973.61
8840.42
9683.55
10500.3
11288.2
12044.9
12768.4
13457
2.01774
6.05969
10.1201
14.2079
18.3265
22.4708
26.6249
30.7581
34.8228
38.7514
42.4563
45.8321
48.7613
51.1244
52.8136
3.35553
10.0786
16.8361
23.6452
30.5147
37.4397
44.3968
51.3387
58.1879
64.8326
71.1243
76.8807
81.8951
85.9534
88.8597
4.68114
14.0626
23.4993
33.0211
42.646
52.3746
62.182
72.0095
81.7548
91.2637
100.324
108.667
115.98
121.929
126.204
5.98742
17.9905
30.0763
42.292
54.6715
67.228
79.9439
92.7587
105.554
118.138
130.236
141.478
151.421
159.572
165.457
7.26501
21.8349
36.522
51.3971
66.5174
81.9187
97.6032
113.523
129.558
145.494
160.994
175.582
188.644
199.471
207.346
8.5024
25.5608
42.778
60.2542
78.0789
96.3222
115.022
134.165
153.655
173.278
192.655
211.199
228.09
242.31
252.764
9.68596
29.1266
48.773
68.7602
89.2179
110.264
131.993
154.452
177.61
201.297
225.139
248.457
270.194
288.9
302.877
10.8003
32.4853
54.4249
76.7921
99.7638
123.518
148.226
174.033
201.023
229.151
258.132
287.28
315.313
340.203
359.267
11.8296
35.5877
59.6462
84.2157
109.522
135.811
163.351
192.421
223.288
256.138
290.942
327.201
363.556
397.314
424.201
12.7592
38.3881
64.3537
90.8983
118.292
146.848
176.936
209
243.555
281.158
322.281
367.008
414.378
461.273
501.069
13.5777
40.85
68.4793
96.7271
125.894
156.343
188.536
223.075
260.761
302.64
350
404.151
465.655
532.306
595.05
14.2789
42.953
71.9832
101.632
132.206
164.087
197.779
233.991
273.757
318.626
370.909
433.919
511.76
607.215
713.414
14.863
44.6978
74.8649
105.607
137.205
170.009
204.49
241.339
281.637
327.179
381.073
448.831
540.221
671.342
860.063
15.3376
46.1083
77.1682
108.721
140.991
174.244
208.823
245.225
284.258
327.365
377.352
440.085
528.915
677.831
987.611
14055.3
14573.7
15066.6
15534.1
15976.6
16394.6
16789.1
17161.1
17511.7
17842.2
18154.1
18448.6
18727.4
18991.9
19243.5
19483.7
19713.9
19935.6
20150
20358.5
20562.1
20762.2
20959.6
21155.4
21350.3
21545.3
21740.8
21937.3
22135.2
22334.8
22536.1
22739.1
22943.7
23149.7
23356.8
23564.6
23772.9
23981.1
24188.8
24395.6
24600.9
24804.2
25004.8
25202.1
25395.6
25584.7
25768.7
25947.3
26119.8
26285.9
26445.1
26597
26741.3
26877.5
27005.1
27123.8
27233.1
27332.3
27421
27498.6
27564.6
27618.2
27658.9
27686
27698.8
27696.4
27678.1
27642.9
27589.6
27517.3
27424.5
27310.1
27172.6
27010.4
26822
26605.8
26360.1
26083.2
25773.4
25428.9
25048
24629.1
24170.6
23671.1
23129.3
22544.2
21915
21241.4
20523.3
19761.1
53.6688
53.8925
53.5578
52.6816
51.3006
49.467
47.2435
44.6985
41.9007
38.9162
35.8053
32.6212
29.4096
26.2088
23.0505
19.9608
16.9619
14.0731
11.3119
8.69567
6.2423
3.97057
1.90049
0.0527479
-1.55227
-2.89613
-3.96452
-4.74963
-5.25233
-5.48364
-5.46478
-5.22542
-4.80014
-4.22375
-3.52646
-2.73042
-1.84844
-0.885459
0.157814
1.28002
2.47446
3.72595
5.0103
6.29666
7.55231
8.7485
9.86584
10.8977
11.8512
12.7452
13.6065
14.465
15.3487
16.2792
17.27
18.3249
19.4411
20.6117
21.8301
23.0941
24.4089
25.7872
27.2495
28.8217
30.5316
32.4064
34.4689
36.7354
39.2136
41.9028
44.7947
47.8749
51.125
54.5246
58.0517
61.6822
65.389
69.1389
72.8907
76.5922
80.1785
83.571
86.6784
89.3987
91.6243
93.2481
94.172
94.3159
93.6257
92.0807
90.3294
90.7087
90.1231
88.6042
86.2192
83.063
79.2484
74.8967
70.1287
65.0584
59.7885
54.4089
48.9951
43.6098
38.304
33.1194
28.0905
23.2474
18.6178
14.2291
10.11
6.29197
2.80886
-0.303133
-3.00742
-5.26989
-7.06287
-8.36986
-9.19006
-9.54179
-9.46316
-9.00923
-8.24513
-7.23641
-6.03898
-4.6917
-3.21367
-1.60732
0.133878
2.01508
4.03005
6.15436
8.34392
10.5398
12.6781
14.7025
16.5751
18.2837
19.8429
21.2901
22.678
24.0645
25.5025
27.0324
28.6768
30.4397
32.3107
34.2716
36.3054
38.4043
40.5746
42.8393
45.2355
47.8109
50.6176
53.7058
57.1176
60.8824
65.0137
69.509
74.3516
79.5142
84.9639
90.6651
96.5819
102.677
108.907
115.224
121.56
127.833
133.936
139.736
145.078
149.783
153.663
156.526
158.193
158.518
157.401
154.801
128.364
128.911
128.029
125.771
122.245
117.603
112.023
105.691
98.7885
91.4844
83.9273
76.2437
68.5383
60.8956
53.383
46.054
38.9523
32.1154
25.5782
19.3757
13.5463
8.13318
3.18523
-1.24348
-5.09598
-8.31671
-10.8579
-12.6878
-13.7991
-14.2162
-13.9985
-13.2363
-12.039
-10.5174
-8.76401
-6.83802
-4.76053
-2.52029
-0.0887098
2.56032
5.43092
8.49146
11.6711
14.8683
17.9704
20.8774
23.5229
25.8871
27.9978
29.9225
31.7537
33.5915
35.5258
37.6225
39.9145
42.4007
45.0525
47.8282
50.6887
53.6127
56.6059
59.7029
62.9642
66.4678
70.2989
74.5397
79.2583
84.5016
90.2895
96.6148
103.447
110.739
118.439
126.494
134.854
143.472
152.3
161.275
170.317
179.315
188.124
196.557
204.387
211.351
217.161
221.518
224.141
224.792
223.304
219.608
168.428
169.16
167.905
164.75
159.865
153.482
145.868
137.292
128.013
118.261
108.234
98.0964
87.9782
77.9818
68.1857
58.65
49.422
40.5417
32.0464
23.9754
16.3737
9.29544
2.80502
-3.02223
-8.10276
-12.3503
-15.6855
-18.0486
-19.4157
-19.813
-19.3263
-18.098
-16.3081
-14.1408
-11.7462
-9.21135
-6.55076
-3.71802
-0.633865
2.77681
6.54826
10.6468
14.9623
19.3231
23.5329
27.4176
30.8646
33.8442
36.4091
38.6777
40.808
42.9672
45.3028
47.9188
50.8601
54.1101
57.6031
61.2495
64.9672
68.7083
72.4739
76.3163
80.3301
84.6385
89.3759
94.6704
100.629
107.321
114.776
122.975
131.863
141.361
151.387
161.865
172.735
183.95
195.462
207.213
219.118
231.051
242.833
254.225
264.922
274.561
282.728
288.986
292.909
294.124
292.365
287.515
211.316
212.258
210.508
206.208
199.629
191.125
181.086
169.896
157.907
145.422
132.69
119.91
107.232
94.7696
82.604
70.7939
59.3828
48.4059
37.8965
27.8925
18.4414
9.60537
1.46447
-5.88131
-12.3137
-17.7024
-21.917
-24.848
-26.4329
-26.6868
-25.7261
-23.7726
-21.125
-18.096
-14.9349
-11.7704
-8.59378
-5.28278
-1.65437
2.46839
7.18884
12.4837
18.1818
23.9884
29.5566
34.5808
38.8721
42.391
45.2393
47.6244
49.8128
52.0807
54.6678
57.7379
61.352
65.4605
69.9234
74.5585
79.2022
83.7585
88.2213
92.6722
97.2612
102.181
107.639
113.834
120.929
129.031
138.178
148.33
159.386
171.21
183.669
196.656
210.105
223.982
238.262
252.911
267.86
282.984
298.084
312.872
326.961
339.868
351.022
359.796
365.552
367.715
365.856
359.77
258.03
259.215
256.77
250.935
242.15
230.965
217.949
203.641
188.507
172.929
157.207
141.566
126.168
111.122
96.5032
82.3569
68.7127
55.5916
43.0143
31.0095
19.6201
8.91128
-1.02357
-10.0578
-18.0296
-24.7464
-29.9985
-33.5869
-35.3679
-35.3107
-33.5566
-30.448
-26.4927
-22.2431
-18.1303
-14.3489
-10.8323
-7.30677
-3.38892
1.29704
6.9997
13.7372
21.2419
28.9934
36.3596
42.7952
47.9874
51.8992
54.7317
56.8497
58.6987
60.73
63.3322
66.7685
71.1267
76.2947
81.9896
87.8488
93.5567
98.9366
103.979
108.822
113.709
118.94
124.834
131.694
139.77
149.228
160.121
172.373
185.793
200.135
215.177
230.768
246.848
263.419
280.516
298.162
316.334
334.936
353.768
372.506
390.684
407.68
422.726
434.931
443.349
447.08
445.413
437.984
309.918
311.385
307.898
299.896
288.119
273.429
256.667
238.571
219.743
200.643
181.609
162.876
144.597
126.864
109.726
93.2017
77.2948
62.0001
47.3149
33.2476
19.8269
7.11147
-4.79921
-15.7543
-25.5425
-33.889
-40.4647
-44.9176
-46.9385
-46.3672
-43.3266
-38.3316
-32.2733
-26.1822
-20.8381
-16.5354
-13.0733
-9.88539
-6.21927
-1.32795
5.33085
13.8961
23.9564
34.5631
44.512
52.8092
58.9557
62.9702
65.2621
66.4711
67.3312
68.5669
70.8046
74.481
79.744
86.3791
93.8275
101.365
108.392
114.608
120.031
124.917
129.668
134.751
140.647
147.809
156.626
167.365
180.115
194.737
210.874
228.057
245.896
264.18
282.882
302.1
321.979
342.652
364.187
386.553
409.582
432.943
456.102
478.295
498.512
515.513
527.888
534.209
533.262
524.357
368.894
370.674
365.515
354.28
338.27
318.865
297.294
274.546
251.359
228.254
205.574
183.53
162.239
141.749
122.064
103.16
84.9978
67.5342
50.7297
34.5596
19.0237
4.15907
-9.94408
-23.1235
-35.1233
-45.5732
-53.9791
-59.7415
-62.2329
-60.9704
-55.9017
-47.7376
-38.0925
-29.0371
-22.0379
-17.503
-14.9113
-13.145
-10.8065
-6.49092
0.92383
11.9095
25.8908
41.0867
55.0491
65.9263
72.9999
76.5275
77.3574
76.6002
75.4279
74.9659
76.2111
79.9142
86.3909
95.2972
105.542
115.622
124.398
131.426
136.86
141.211
145.151
149.393
154.637
161.546
170.716
182.606
197.413
214.922
234.446
255.034
275.972
296.986
318.171
339.823
362.294
385.894
410.837
437.204
464.909
493.66
522.899
551.742
578.918
602.739
621.13
631.788
632.557
622.04
437.89
439.936
431.862
415.52
393.294
367.402
339.595
311.128
282.836
255.229
228.598
203.078
178.706
155.454
133.258
112.032
91.6789
72.1034
53.2164
34.9446
17.2409
0.0980892
-16.4304
-32.2022
-46.9459
-60.2103
-71.3092
-79.2842
-82.9413
-81.0633
-72.9425
-59.2853
-43.0719
-28.941
-19.6995
-15.6831
-15.5715
-17.2395
-18.2523
-16.1288
-8.63805
5.59615
26.0622
49.3723
70.0138
84.505
92.1345
93.9534
91.7216
87.3101
82.4847
78.889
78.06
81.3355
89.521
102.269
117.475
131.736
142.9
150.52
155.226
158.075
160.178
162.571
166.206
172.002
180.866
193.624
210.795
232.18
256.459
281.48
305.909
329.515
352.756
376.335
400.948
427.166
455.399
485.89
518.693
553.634
590.225
627.547
664.111
697.741
725.463
743.561
748.057
735.899
521.835
523.747
510.088
485.202
453.571
418.671
382.826
347.447
313.31
280.789
250.013
220.965
193.551
167.633
143.051
119.641
97.2374
75.6792
54.8161
34.5116
14.6512
-4.84553
-24.0037
-42.7578
-60.8943
-77.9607
-93.1319
-105.039
-111.614
-110.139
-97.9499
-74.5085
-45.0479
-21.8007
-9.83437
-8.23759
-13.6667
-22.2745
-30.2109
-33.4918
-27.9071
-9.68832
22.1401
61.5015
93.8347
112.963
119.635
117.21
109.223
98.6151
87.7702
78.8278
73.9985
75.6858
86.0801
105.701
130.767
152.305
166.502
173.806
176.262
176.008
174.786
173.954
174.657
178.037
185.404
198.279
218.101
245.264
277.394
308.766
337.018
362.56
386.838
411.343
437.277
465.519
496.692
531.225
569.377
611.208
656.474
704.417
753.5
801.219
843.625
874.886
887.505
874.245
630.179
629.949
604.449
564.566
518.532
471.277
425.366
381.957
341.442
303.826
268.928
236.492
206.237
177.881
151.154
125.801
101.577
78.2547
55.6131
33.442
11.5416
-10.2719
-32.1528
-54.1959
-76.376
-98.4315
-119.646
-138.461
-151.866
-154.635
-139.15
-98.3906
-38.0695
1.58985
14.9683
9.33077
-7.17875
-28.2703
-48.8669
-63.6141
-65.3623
-44.5646
7.37535
83.7542
136.673
159.359
160.234
148.477
130.501
110.262
90.3182
72.8467
60.5561
57.5011
69.3554
101.293
149.14
183.443
200.031
204.072
201.2
195.331
188.831
183.125
179.252
178.328
182.008
192.927
214.832
251.189
299.416
340.538
372.021
397.413
420.58
444.281
470.267
499.634
533.128
571.328
614.74
663.814
718.841
779.621
844.823
912.318
977.8
1033.02
1064.18
1053.05
784.799
772.506
719.493
652.757
585.224
521.921
464.278
412.275
365.377
322.924
284.277
248.861
216.171
185.769
157.267
130.319
104.609
79.8401
55.7239
31.9752
8.30098
-15.6061
-40.0723
-65.4392
-92.0386
-120.114
-149.613
-179.674
-207.431
-225.414
-216.745
-150.441
-1.34158
62.82
67.1485
42.5494
5.90294
-34.9825
-75.9491
-112.457
-135.286
-124.289
-42.5876
139.781
223.034
237.149
219.013
188.686
155.028
121.475
89.2957
59.3956
33.8057
17.8385
23.7006
73.9661
187.004
240.078
251.61
244.28
230.437
215.547
201.718
189.644
179.582
171.975
168.174
171.737
190.737
240.002
331.645
386.169
415.771
435.447
453.524
473.903
498.356
527.773
562.755
603.891
651.913
707.808
772.882
848.413
932.797
1026.27
1126.7
1225.75
1301.71
1309.24
1050.53
973.653
854.26
742.058
645.792
564.383
495.046
435.221
382.892
336.529
294.963
257.292
222.802
190.912
161.135
133.052
106.285
80.4837
55.306
30.4027
5.39839
-20.1311
-46.6894
-74.9011
-105.568
-139.738
-178.759
-224.191
-277.057
-334.557
-377.32
-321.707
157.701
210.21
160.985
93.1176
25.0917
-41.5724
-109.444
-180.991
-253.908
-305.819
-237.504
338.532
408.947
361.377
295.339
233.689
179.4
130.708
84.9925
39.74
-6.79792
-53.2546
-85.8915
-43.7522
311.214
356.527
330.347
293.858
261.176
234.229
212.072
193.26
176.375
160.137
143.73
128.314
123.058
167.781
417.317
467.673
473.801
475.767
483.135
497.641
519.279
547.878
583.495
626.513
677.722
738.551
811.833
904.421
1007.65
1130.14
1277.53
1451.68
1637.73
1752.05
1676.23
1235.97
978.617
808.37
684.929
589.429
512.086
447.346
391.796
343.203
300.021
261.128
225.676
193
162.556
133.88
106.563
80.2235
54.4886
28.9725
3.25051
-23.1748
-50.9246
-80.8252
-114.048
-152.369
-198.666
-257.993
-339.997
-464.908
-679.536
-1103.22
931.471
504.087
281.657
143.909
42.3171
-46.4233
-137.641
-247.544
-402.768
-660.463
-1163.53
1265.36
764.742
512.182
365.333
268.081
195.706
135.648
80.0181
21.9324
-47.5192
-144.247
-303.158
-611.94
881.308
575.91
423.911
337.942
283.643
246.003
217.599
194.093
172.225
148.535
117.849
70.2523
-16.6022
-199.378
789.786
612.845
537.802
508.287
502.441
511.085
530.15
557.846
593.547
637.307
689.639
751.32
822.939
945.062
1054.73
1198.13
1389.77
1660.38
2076.95
2799.54
18874.8
17847.3
16761.8
15621.7
14430.8
13193.6
11914.5
10598.2
9249.3
7872.53
6472.43
5053.44
3619.9
2176.04
726.03
89.4581
85.4715
80.5116
74.7723
68.4634
61.7875
54.9227
48.0122
41.1604
34.4342
27.8675
21.4659
15.2136
9.07835
3.01759
150.34
143.528
135.048
125.25
114.511
103.188
91.5878
79.9546
68.4609
57.2136
46.2627
35.6111
25.2259
15.048
5.00107
213.159
203.244
190.893
176.662
161.137
144.858
128.282
111.755
95.5135
79.6965
64.3589
49.4903
35.0312
20.8869
6.93983
278.843
265.38
248.603
229.357
208.504
186.816
164.918
143.261
122.137
101.697
81.985
62.96
44.5218
26.5284
8.81147
348.51
330.813
308.766
283.643
256.691
228.973
201.301
174.225
148.067
122.964
98.9207
75.8417
53.5673
31.8935
10.5895
423.575
400.579
371.991
339.745
305.631
271.074
237.077
204.26
172.93
143.164
114.886
87.9159
62.0111
36.8885
12.2427
505.908
475.929
438.865
397.707
355.005
312.606
271.668
232.801
196.218
161.866
129.535
98.9205
69.6704
41.4058
13.7357
598.078
558.345
509.817
457.199
404.063
352.665
304.182
259.055
217.267
178.54
142.459
108.556
76.3412
45.327
15.0296
703.794
649.517
584.82
517.178
451.357
389.783
333.321
281.959
235.25
192.558
153.199
116.496
81.8082
48.5298
16.0847
828.73
751.078
662.74
575.309
494.385
421.767
357.339
300.196
249.202
203.236
161.274
122.416
85.8621
50.8974
16.8636
981.639
863.303
739.736
626.913
529.088
445.545
374.059
312.271
258.116
209.896
166.239
126.025
88.3232
52.332
17.3352
1174.93
980.709
805.939
663.492
549.48
457.241
381.065
316.701
261.083
211.984
167.751
127.116
89.0699
52.7701
17.4799
1415.85
1078.63
839.772
671.607
548.073
452.848
376.24
312.372
257.519
209.195
165.655
125.613
88.0666
52.1969
17.2936
1627.15
1078.13
802.879
635.06
518.331
429.816
358.657
299.014
247.414
201.611
160.055
121.607
85.3836
50.6556
16.791
15.6915
47.155
78.859
110.962
143.62
176.987
211.224
246.519
283.149
321.625
363.047
409.976
468.546
553.782
703.115
15.9509
47.9199
80.086
112.566
145.452
178.792
212.561
246.618
280.635
313.975
345.467
372.818
390.493
380.571
270.443
16.1633
48.5465
81.0924
113.885
146.965
180.292
213.69
246.738
278.582
307.596
330.747
342.365
331.596
276.932
136.897
16.3361
49.0589
81.925
115.001
148.299
181.737
215.055
247.685
278.485
305.278
324.022
327.446
303.169
232.568
96.2349
16.4735
49.4705
82.6095
115.958
149.532
183.256
216.891
249.894
281.161
308.538
327.926
331.754
306.895
233.845
94.5525
16.5758
49.7821
83.1464
116.754
150.654
184.832
219.159
253.3
286.527
317.335
342.624
355.972
344.076
281.115
127.459
16.6399
49.9827
83.512
117.343
151.579
186.297
221.548
257.333
293.564
329.95
365.606
397.705
416.709
391.36
230.681
16.6598
50.0526
83.6654
117.648
152.161
187.386
223.561
261.049
300.483
343.056
391.052
448.517
520.128
595.571
542.702
16.6287
49.9686
83.5594
117.582
152.243
187.808
224.654
263.407
305.214
352.383
409.912
489.49
620.868
888.868
1571.75
16.5399
49.7093
83.1517
117.068
151.693
187.331
224.415
263.636
306.213
354.501
413.448
494.474
626.713
894.027
1573.95
16.3888
49.2592
82.4131
116.058
150.435
185.844
222.683
261.525
303.239
349.203
401.637
463.879
538.735
612.627
550.304
16.1729
48.6111
81.3312
114.537
148.457
183.357
219.553
257.412
297.304
339.4
383.004
424.508
451.409
425.802
247.675
15.8923
47.7659
79.9101
112.517
145.793
179.963
215.261
251.879
289.829
328.539
365.814
395.267
400.53
344.88
165.333
15.5494
46.7315
78.1658
110.028
142.503
175.782
210.045
245.414
281.816
318.663
354.046
382.812
391.941
349.987
187.931
15.1482
45.5205
76.1221
107.111
138.651
170.911
204.055
238.222
273.487
309.794
346.863
383.983
418.812
438.487
358.997
14.6939
44.149
73.8073
103.808
134.296
165.422
197.348
230.261
264.425
300.387
339.634
386.731
456.194
595.84
973.459
14.1925
42.6353
71.2525
100.164
129.493
159.372
189.951
221.423
254.107
288.688
326.945
373.935
444.824
587.915
970.687
13.6505
40.9992
68.4917
96.226
124.303
152.831
181.928
211.739
242.465
274.427
308.181
344.53
383.302
413.526
350.406
13.075
39.2622
65.5612
92.0475
118.798
145.89
173.404
201.414
229.956
258.914
287.606
313.434
327.703
303.948
172.958
12.4734
37.4467
62.4991
87.6832
113.051
138.652
164.531
190.713
217.152
243.579
269.012
290.355
298.502
268.829
144.759
11.8532
35.5753
59.344
83.1892
107.139
131.217
155.444
179.828
204.352
228.926
253.252
276.431
295.554
299.257
231.449
11.2218
33.6706
56.1344
78.6208
101.134
123.675
146.242
168.84
191.512
214.438
238.281
265.316
303.308
379.337
592.499
10.5865
31.7548
52.9078
74.0318
95.1083
116.112
137.016
157.798
178.489
199.308
221.087
246.584
284.639
364.176
586.134
9.95432
29.849
49.7001
69.4742
89.1302
108.617
127.87
146.814
165.373
183.507
201.307
219.126
237.155
250.102
209.623
9.33168
27.9727
46.545
64.997
83.2677
101.281
118.936
136.096
152.548
167.932
181.509
191.516
193.193
173.123
96.1393
8.72439
26.1437
43.4726
60.6445
77.5823
94.1907
110.345
125.865
140.464
153.607
164.186
169.687
164.329
135.664
62.7188
8.13745
24.377
40.5085
56.4537
72.1241
87.4141
102.191
116.273
129.387
141.062
150.385
155.396
151.647
128.953
65.7498
7.575
22.685
37.6732
52.4529
66.9289
80.9926
94.5174
107.351
119.306
130.147
139.576
147.186
152.119
150.371
116.208
7.04027
21.0773
34.9822
48.6625
62.0191
74.9443
87.3228
99.038
109.998
120.212
130.028
140.832
157.229
194.296
304.341
6.53575
19.5611
32.447
45.0966
57.4082
69.275
80.588
91.2489
101.206
110.552
119.792
130.592
147.984
187.542
301.778
6.06323
18.1418
30.0756
41.7651
53.106
63.9899
74.3057
83.9482
92.8378
100.964
108.473
115.774
123.346
128.925
107.871
5.62399
16.823
27.8741
38.6755
49.1212
59.0992
68.491
77.1705
84.9996
91.8063
97.299
100.766
100.09
88.8047
49.1614
5.2188
15.607
25.846
35.8333
45.4614
54.6158
63.1711
70.9839
77.8722
83.561
87.5318
88.6374
84.2029
68.3775
31.202
4.84798
14.4948
23.9932
33.241
42.1312
50.549
58.3677
65.4401
71.579
76.5101
79.7558
80.3572
76.2273
62.778
30.7631
4.51139
13.4859
22.3147
30.8976
39.1298
46.8993
54.0838
60.5459
66.1261
70.6312
73.8183
75.3649
74.7262
70.0737
50.8196
4.20844
12.5786
20.8076
28.7987
36.4509
43.6572
50.303
56.266
61.422
65.6701
69.0228
71.8934
76.0163
87.5138
128.092
3.93811
11.7696
19.4664
26.9361
34.0829
40.8059
46.9984
52.549
57.3509
61.3339
64.5656
67.5562
72.1902
84.7658
127.059
3.69898
11.0548
18.2836
25.2989
32.0108
38.3251
44.1419
49.3547
53.8516
57.5229
60.2799
62.0823
62.8543
61.3874
47.4807
3.48929
10.4287
17.2503
23.8737
30.2165
36.1921
41.7077
46.6607
50.9293
54.351
56.6619
57.329
55.0785
46.6534
24.1942
3.30701
9.88518
16.3555
22.6451
28.6794
34.381
39.6673
44.4454
48.5992
51.9549
54.1906
54.607
51.5963
41.67
18.9168
3.14987
9.41726
15.5875
21.5955
27.3756
32.8611
37.9831
42.6677
46.828
50.3418
52.9884
54.2709
52.9224
45.5994
24.1142
3.01546
9.01759
14.9335
20.7061
26.279
31.5968
36.6066
41.2586
45.5109
49.3365
52.7396
55.769
58.4049
59.3702
47.8869
2.90131
8.67865
14.3805
19.9575
25.3621
30.55
35.4825
40.1319
44.4956
48.6312
52.7574
57.5485
65.0566
81.7958
130.203
2.805
8.39305
13.9157
19.3309
24.5988
29.6843
34.5593
39.2088
43.6445
47.9394
52.321
57.4503
65.3087
82.2439
130.47
2.72424
8.15383
13.5273
18.8088
23.9655
28.9689
33.7974
38.4394
42.8977
47.1947
51.3738
55.4664
59.2686
60.9775
48.9303
2.65693
7.95463
13.2044
18.3759
23.4419
28.3792
33.1702
37.8035
42.2694
46.5398
50.4954
53.6941
54.6931
49.2753
26.9929
2.60119
7.78979
12.9376
18.019
23.0112
27.8954
32.6578
37.2899
41.7838
46.1115
50.1519
53.459
54.5844
49.2943
27.0772
2.55538
7.65442
12.7187
17.7267
22.6592
27.5008
32.2415
36.8787
41.4209
45.8911
50.327
54.7493
58.9421
61.0785
49.346
2.51809
7.5443
12.541
17.4897
22.3741
27.1811
31.9026
36.5401
41.1156
45.7034
50.5213
56.2106
64.7407
82.5074
132.015
2.48811
7.45586
12.3985
17.3002
22.1466
26.9255
31.6278
36.2512
40.8098
45.3652
50.1206
55.7114
64.1392
81.9129
131.719
2.46439
7.38604
12.2865
17.1522
21.9701
26.728
31.4136
36.014
40.5142
44.8976
49.1499
53.2542
57.0616
59.0927
48.2557
2.44601
7.33215
12.2008
17.0403
21.8394
26.5858
31.2647
35.8532
40.3075
44.5308
48.2923
51.0149
51.2304
45.2225
24.2998
2.43209
7.29162
12.1372
16.9596
21.7493
26.4956
31.1847
35.7926
40.269
44.494
48.1666
50.5276
49.7329
41.7199
19.5697
2.4218
7.26198
12.0919
16.9047
21.6933
26.4505
31.1673
35.8305
40.4132
44.8501
48.962
52.2427
53.2592
48.0448
26.6423
2.41428
7.24066
12.0605
16.8695
21.6633
26.4385
31.1935
35.9314
40.6671
45.4413
50.3452
55.5422
61.125
65.6227
55.8618
2.40865
7.22507
12.0388
16.8478
21.6503
26.4457
31.2374
36.0408
40.9027
45.9522
51.5351
58.5866
69.7586
93.1182
155.902
2.40402
7.21253
12.0223
16.8337
21.6463
26.4604
31.2792
36.1165
41.016
46.1026
51.7158
58.783
69.9448
93.2578
155.956
2.39941
7.20025
12.0068
16.8215
21.6452
26.4768
31.3139
36.1554
41.0073
45.8968
50.8975
56.1485
61.7085
66.0693
56.0375
2.39376
7.18513
11.9875
16.806
21.6425
26.4943
31.3515
36.1936
40.9798
45.6231
49.9157
53.3114
54.3185
48.891
26.9959
2.38576
7.16346
11.9588
16.7807
21.633
26.5127
31.4051
36.2769
41.0586
45.6015
49.5665
52.1431
51.4084
43.159
20.2496
2.37382
7.13056
11.9136
16.7368
21.6081
26.5267
31.4785
36.4291
41.3102
45.9892
50.1902
53.2836
53.7264
47.6158
25.7227
2.35587
7.08042
11.8422
16.6619
21.5537
26.522
31.5579
36.6353
41.7089
46.7166
51.5911
56.2743
60.6044
63.0409
51.7223
2.32933
7.00536
11.7322
16.5394
21.4493
26.4742
31.613
36.8496
42.1599
47.5438
53.1323
59.5194
68.8068
88.028
141.706
2.29102
6.89591
11.5681
16.3478
21.2681
26.3512
31.6044
37.0174
42.5654
48.236
54.1259
60.7591
70.1207
89.0993
142.139
2.23708
6.74057
11.3307
16.0608
20.9769
26.1136
31.489
37.0958
42.8911
48.7824
54.6097
60.1122
64.7653
66.5296
53.1795
2.16304
6.52581
10.9975
15.6466
20.5351
25.7139
31.2168
37.0474
43.1548
49.3793
55.3254
60.0621
61.4236
54.4646
28.8164
2.06375
6.23613
10.5423
15.068
19.8941
25.0924
30.7207
36.8107
43.3416
50.1745
56.8865
62.3615
63.8663
55.3838
26.6679
1.9335
5.85424
9.93561
14.2826
18.9968
24.1752
29.9075
36.2716
43.3227
51.0582
59.3115
67.4227
73.2494
70.3581
41.6185
1.76614
5.36145
9.1456
13.2436
17.7792
22.8759
28.6583
35.2589
42.8323
51.5863
61.8392
74.075
88.6906
103.286
94.416
1.55519
4.73812
8.13867
11.902
16.1739
21.1025
26.8436
33.5736
41.5252
51.0774
62.9933
79.0787
104.149
152.513
272.19
1.29405
3.96421
6.88074
10.2086
14.1142
18.7671
24.3443
31.0424
39.1095
48.9302
61.2548
77.846
103.436
152.22
272.132
0.976093
3.01972
5.33803
8.11529
11.5373
15.7917
21.0687
27.5627
35.4785
45.047
56.5559
70.3667
86.6203
102.535
94.3283
0.594793
1.88495
3.4774
5.57537
8.38379
12.1081
16.9499
23.0975
30.7018
39.8187
50.2606
61.1935
70.0421
69.6028
41.8387
0.143801
0.540704
1.26647
2.54313
4.59565
7.64995
11.9263
17.6228
24.8764
33.6725
43.6264
53.4694
59.9154
55.6479
28.1786
-0.382952
-1.03148
-1.32633
-1.02692
0.113066
2.34472
5.91822
11.0683
17.9817
26.7239
37.0709
48.1056
57.2298
57.8058
34.5798
-0.991072
-2.84885
-4.33111
-5.17977
-5.12644
-3.89097
-1.1832
3.29103
9.81855
18.6623
30.039
44.0694
60.4809
76.4929
72.8791
-1.68541
-4.92657
-7.77519
-9.95808
-11.1857
-11.1478
-9.5099
-5.9107
0.0483913
8.84299
21.1653
38.3802
64.0094
108.808
209.888
-2.46964
-7.27644
-11.6809
-15.3988
-18.1228
-19.5143
-19.1972
-16.7499
-11.6895
-3.42484
8.89481
26.8482
54.225
102.037
207.412
-3.34574
-9.90526
-16.0626
-21.5288
-25.9839
-29.0661
-30.3625
-29.4021
-25.6512
-18.5074
-7.28722
8.77243
30.2493
55.2889
64.995
-4.31331
-12.8129
-20.9236
-28.3599
-34.7971
-39.8567
-43.0936
-43.9908
-41.9676
-36.4194
-26.8291
-13.0647
3.79922
19.1882
19.5874
-5.36893
-15.9902
-26.2521
-35.8837
-44.5658
-51.9114
-57.4477
-60.6057
-60.7302
-57.1367
-49.2682
-37.0534
-21.6262
-6.50303
1.66134
-6.50536
-19.4164
-32.0175
-44.0658
-55.2613
-65.2211
-73.4516
-79.3252
-82.0728
-80.8209
-74.724
-63.2716
-46.8397
-27.3614
-8.28759
-7.71085
-23.0572
-38.166
-52.8388
-66.8134
-79.7298
-91.0902
-100.213
-106.19
-107.867
-103.897
-92.9459
-74.1674
-47.9381
-16.5011
-8.96844
-26.8625
-44.6162
-62.0955
-79.0986
-95.317
-110.28
-123.283
-133.291
-138.833
-137.914
-128.054
-106.667
-72.1301
-25.8012
-10.2556
-30.7645
-51.256
-71.6813
-91.9271
-111.773
-130.829
-148.43
-163.491
-174.282
-178.136
-171.163
-148.297
-104.509
-38.7627
-11.544
-34.6778
-57.9408
-81.39
-105.031
-128.777
-152.384
-175.336
-196.651
-214.544
-225.871
-225.306
-204.452
-152.135
-59.9031
-12.8005
-38.5008
-64.495
-90.964
-118.059
-145.874
-174.39
-203.375
-232.184
-259.361
-281.86
-293.533
-282.45
-227.478
-100.191
-13.9877
-42.1188
-70.7181
-100.101
-130.585
-162.481
-196.066
-231.532
-268.843
-307.419
-345.362
-377.558
-390.921
-353.032
-191.24
-15.0665
-45.4108
-76.3956
-108.472
-142.129
-177.91
-216.431
-258.401
-304.619
-355.91
-412.847
-474.652
-534.975
-564.618
-435.541
-15.9985
-48.2572
-81.3137
-115.744
-152.195
-191.431
-234.396
-282.315
-336.863
-400.474
-476.943
-572.763
-700.324
-886.413
-1195.11
1149.52
856.469
679.749
558.47
467.139
393.956
332.753
279.938
233.225
191.051
152.282
116.05
81.6567
48.5116
16.0913
419.96
547.058
520.926
464.592
406.205
351.95
302.655
257.847
216.801
178.811
143.252
109.576
77.3045
46.0032
15.2717
185.4
344.037
383.06
372.125
342.387
306.487
269.431
233.136
198.248
164.878
132.908
102.125
72.2761
43.0977
14.3213
98.1708
224.069
279.875
292.703
282.838
261.818
235.67
207.44
178.634
149.967
121.736
94.0207
66.7805
39.912
13.2774
59.8577
152.769
206.526
229.03
231.025
220.702
203.347
182.136
158.919
134.748
110.203
85.5839
61.0248
36.5627
12.178
40.1566
108.655
154.872
179.594
187.757
184.464
173.694
158.218
139.861
119.785
98.7183
77.1026
55.1999
33.1586
11.0581
28.6589
80.0102
118.14
141.65
152.439
153.411
147.303
136.297
121.991
105.507
87.6113
68.8182
49.4699
29.7946
9.94904
21.3038
60.5444
91.5563
112.537
123.934
127.269
124.31
116.662
105.629
92.2058
77.1249
60.9173
43.9654
26.5479
8.87618
16.286
46.791
71.9359
90.0751
101.025
105.494
104.567
99.3742
90.9245
80.0528
67.4186
53.5315
38.7829
23.4769
7.85908
12.7032
36.7583
57.1783
72.6031
82.6117
87.4619
87.7842
84.3447
77.8989
69.1211
58.5802
46.7424
33.9863
20.6219
6.91139
10.0584
29.249
45.8877
58.8899
67.7781
72.5713
73.6108
71.4001
66.4902
59.4116
50.6406
40.5897
29.6111
18.0066
6.04145
8.05637
23.5107
37.121
48.0316
55.7859
60.2852
61.6921
60.3276
56.5856
50.8755
43.5882
35.08
25.6695
15.6412
5.25309
6.51135
19.0522
30.2278
39.3636
46.0523
50.1444
51.6961
50.9041
48.0458
43.4332
37.3823
30.1958
22.1562
13.5251
4.54655
5.30071
15.5412
24.7501
32.3935
38.1205
41.7662
43.3258
42.9139
40.7229
36.9884
31.9637
25.903
19.0531
11.6499
3.91941
4.34054
12.746
20.3586
26.7533
31.6326
34.8353
36.3234
36.1578
34.4705
31.4385
27.2635
22.1575
16.3336
10.0017
3.36735
3.57162
10.501
16.8121
22.1645
26.3082
29.094
30.4681
30.4573
29.1508
26.6813
23.2091
18.9098
13.9662
8.5631
2.88488
2.95107
8.68509
13.931
18.4142
21.9259
24.3323
25.5736
25.6557
24.6379
22.6197
19.7283
16.109
11.9176
7.3153
2.46591
2.44718
7.20784
11.5791
15.3381
18.3106
20.3789
21.4833
21.6171
20.819
19.1637
16.7524
13.705
10.1539
6.23887
2.10411
2.03606
6.0008
9.652
12.8078
15.3226
17.0943
18.0663
18.225
17.5949
16.2322
14.2176
11.6504
8.64259
5.31485
1.79325
1.69944
5.01134
8.0687
10.7222
12.8502
14.3647
15.2137
15.3801
14.879
13.7528
12.0663
9.90149
7.35321
4.52529
1.52743
1.42318
4.19853
6.76564
9.00129
10.8036
12.0969
12.8346
12.9983
12.5968
11.6622
10.2468
8.4186
6.25782
3.85364
1.30115
1.19622
3.53022
5.69262
7.58111
9.11008
10.2148
10.8537
11.0088
10.6844
9.90533
8.71379
7.16645
5.33132
3.28489
1.10942
1.00983
2.98101
4.80971
6.41045
7.71102
8.65599
9.20871
9.35201
9.08761
8.43467
7.42767
6.11401
4.55146
2.80568
0.9478
0.857091
2.53072
4.08504
5.44815
6.55881
7.36944
7.84789
7.97822
7.76051
7.20976
6.3544
5.23432
3.89879
2.40427
0.812359
0.732508
2.16326
3.49314
4.66112
5.61493
6.31352
6.72876
6.8461
6.66463
6.19634
5.46493
4.50423
3.35649
2.0705
0.699691
0.631722
1.86586
3.0137
4.02285
4.84829
5.45442
5.81653
5.92151
5.76796
5.36568
4.7347
3.90405
2.91022
1.79562
0.606874
0.551296
1.62844
2.63061
3.51224
4.23405
4.76489
5.08297
5.17657
5.04414
4.69394
4.14324
3.41725
2.54787
1.57228
0.531428
0.488565
1.44315
2.33133
3.11274
3.7526
4.22329
4.5055
4.58879
4.47175
4.16162
3.67365
3.03016
2.25939
1.39431
0.471285
0.441517
1.30408
2.10634
2.81175
3.38887
3.81286
4.06644
4.14042
4.03373
3.75306
3.3123
2.73164
2.03654
1.25668
0.424745
0.408729
1.207
1.94882
2.60012
3.1318
3.52111
3.75249
3.81791
3.71689
3.45602
3.04842
2.51284
1.87274
1.15532
0.390439
0.389319
1.14929
1.85442
2.47189
2.974
3.3395
3.55425
3.61148
3.51151
3.26133
2.87381
2.36694
1.76288
1.08707
0.367294
0.38294
1.12986
1.82123
2.4242
2.91159
3.26314
3.46601
3.5148
3.41104
3.16254
2.78256
2.28893
1.70314
1.04956