/*--------------------------------*- C++ -*----------------------------------*\
| =========                 |                                                 |
| \\      /  F ield         | OpenFOAM: The Open Source CFD Toolbox           |
|  \\    /   O peration     | Version:  5.x                                   |
|   \\  /    A nd           | Web:      www.OpenFOAM.org                      |
|    \\/     M anipulation  |                                                 |
\*---------------------------------------------------------------------------*/
FoamFile
{
    version     2.0;
    format      ascii;
    class       volScalarField;
    location    "6";
    object      T;
}
// * * * * * * * * * * * * * * * * * * * * * * * * * * * * * * * * * * * * * //

dimensions      [0 0 0 1 0 0 0];

internalField   nonuniform List<scalar> 
6300
(
14.7713
24.3001
33.7877
43.2063
52.5283
61.7256
70.7701
79.6336
88.2883
96.7066
104.862
112.73
120.287
127.514
134.395
14.7847
24.3405
33.8552
43.3011
52.6505
61.8754
70.9475
79.8385
88.5201
96.9644
105.144
113.034
120.611
127.854
134.746
14.8116
24.4213
33.9901
43.4905
52.8948
62.175
71.3026
80.2488
88.9848
97.4816
105.711
113.646
121.262
128.537
135.451
14.8519
24.5421
34.1919
43.774
53.2608
62.6242
71.8355
80.8653
89.6839
98.2611
106.567
114.572
122.249
129.573
136.523
14.9053
24.7026
34.4601
44.1509
53.7478
63.2225
72.5462
81.689
90.6198
99.3069
107.718
115.82
123.582
130.975
137.975
14.9716
24.9019
34.7934
44.6199
54.3543
63.9688
73.4344
82.7205
91.795
100.624
109.172
117.402
125.277
132.764
139.832
15.0506
25.1392
35.1905
45.1789
55.0781
64.8609
74.4983
83.9595
93.211
102.217
110.938
119.331
127.355
134.965
142.122
15.1417
25.4131
35.649
45.825
55.9158
65.8952
75.7348
85.4038
94.8681
104.089
113.025
121.626
129.839
137.61
144.887
15.2443
25.7218
36.166
46.5541
56.8625
67.0662
77.1382
87.0485
96.7632
106.243
115.44
124.301
132.759
140.743
148.18
15.3577
26.0628
36.7375
47.3608
57.9111
68.3656
78.6993
88.8844
98.8885
108.672
118.187
127.371
136.145
144.414
152.073
15.4809
26.4335
37.3589
48.2384
59.0529
69.7824
80.4052
90.8969
101.229
111.366
121.259
130.845
140.03
148.689
156.664
15.6128
26.8306
38.0246
49.1788
60.277
71.3025
82.238
93.0644
103.76
114.296
124.633
134.711
144.433
153.64
162.094
15.7524
27.2505
38.7285
50.1729
61.5708
72.9093
84.1759
95.3584
106.444
117.418
128.259
138.928
149.343
159.335
168.565
15.8984
27.6897
39.4642
51.2114
62.9211
74.5843
86.1936
97.7443
109.235
120.668
132.051
143.39
154.668
165.784
176.362
16.0497
28.1445
40.2258
52.2851
64.3149
76.3094
88.2657
100.185
112.077
123.962
135.881
147.904
160.147
172.762
185.766
140.375
145.559
150.489
155.166
159.595
163.782
167.734
171.462
174.978
178.293
181.421
184.378
187.176
189.831
192.358
194.77
197.083
199.309
201.462
203.555
205.6
207.608
209.589
211.553
213.508
215.462
217.42
219.388
221.369
223.366
225.379
227.408
229.453
231.511
233.579
235.655
237.735
239.814
241.888
243.952
246.001
248.029
250.031
252
253.931
255.818
257.655
259.437
261.159
262.816
264.405
265.922
267.362
268.72
269.994
271.177
272.266
273.254
274.137
274.909
275.564
276.096
276.498
276.764
276.886
276.856
276.666
276.306
275.765
275.033
274.096
272.941
271.555
269.922
268.026
265.852
263.383
260.602
257.491
254.034
250.213
246.013
241.418
236.413
230.988
225.132
218.837
212.101
204.922
197.305
140.731
145.916
150.844
155.516
159.936
164.111
168.048
171.76
175.256
178.552
181.66
184.595
187.372
190.006
192.512
194.904
197.196
199.403
201.538
203.614
205.642
207.635
209.603
211.554
213.499
215.444
217.395
219.358
221.335
223.33
225.343
227.374
229.421
231.483
233.556
235.637
237.723
239.808
241.889
243.961
246.018
248.054
250.064
252.042
253.981
255.876
257.72
259.509
261.238
262.901
264.496
266.018
267.464
268.829
270.109
271.3
272.396
273.392
274.283
275.063
275.727
276.268
276.68
276.956
277.09
277.073
276.896
276.551
276.027
275.313
274.395
273.261
271.896
270.286
268.414
266.264
263.819
261.063
257.977
254.544
250.747
246.569
241.994
237.008
231.597
225.751
219.463
212.727
205.544
197.916
141.448
146.636
151.56
156.22
160.621
164.771
168.679
172.356
175.816
179.071
182.138
185.03
187.764
190.355
192.819
195.169
197.422
199.59
201.689
203.729
205.725
207.687
209.627
211.554
213.477
215.404
217.341
219.293
221.264
223.256
225.27
227.304
229.357
231.426
233.509
235.601
237.698
239.796
241.891
243.978
246.05
248.104
250.131
252.126
254.082
255.993
257.852
259.655
261.396
263.071
264.678
266.211
267.669
269.046
270.339
271.544
272.655
273.666
274.574
275.371
276.052
276.612
277.043
277.34
277.496
277.504
277.355
277.04
276.549
275.871
274.992
273.899
272.577
271.012
269.187
267.086
264.691
261.985
258.949
255.566
251.817
247.684
243.151
238.201
232.821
226.997
220.721
213.987
206.795
199.147
142.538
147.73
152.646
157.288
161.66
165.772
169.633
173.258
176.659
179.853
182.856
185.683
188.352
190.878
193.278
195.566
197.758
199.868
201.911
203.899
205.845
207.761
209.659
211.548
213.439
215.338
217.254
219.19
221.152
223.139
225.154
227.194
229.257
231.338
233.435
235.544
237.658
239.776
241.892
244.001
246.098
248.177
250.231
252.253
254.235
256.17
258.052
259.875
261.634
263.327
264.95
266.5
267.974
269.37
270.683
271.908
273.042
274.077
275.009
275.832
276.539
277.125
277.585
277.913
278.102
278.147
278.039
277.769
277.328
276.703
275.882
274.851
273.596
272.099
270.345
268.317
265.997
263.367
260.408
257.101
253.426
249.364
244.896
240.004
234.67
228.882
222.627
215.898
208.692
201.012
144.016
149.215
154.12
158.735
163.066
167.123
170.92
174.47
177.791
180.901
183.816
186.555
189.135
191.573
193.886
196.09
198.201
200.233
202.2
204.117
205.996
207.85
209.691
211.529
213.375
215.238
217.124
219.04
220.988
222.972
224.99
227.039
229.116
231.216
233.333
235.464
237.603
239.746
241.889
244.029
246.159
248.274
250.365
252.424
254.442
256.41
258.322
260.172
261.956
263.67
265.313
266.883
268.379
269.798
271.137
272.392
273.556
274.623
275.588
276.443
277.184
277.806
278.302
278.67
278.902
278.995
278.94
278.731
278.355
277.803
277.061
276.113
274.946
273.542
271.884
269.955
267.737
265.21
262.355
259.152
255.579
251.615
247.239
242.428
237.164
231.427
225.204
218.483
211.261
203.539
145.906
151.114
156.005
160.583
164.858
168.841
172.551
176.003
179.219
182.218
185.02
187.645
190.112
192.438
194.641
196.739
198.746
200.679
202.552
204.378
206.172
207.947
209.715
211.488
213.276
215.091
216.94
218.829
220.763
222.743
224.767
226.832
228.93
231.056
233.2
235.359
237.527
239.702
241.879
244.057
246.229
248.39
250.531
252.639
254.706
256.718
258.669
260.552
262.363
264.101
265.766
267.359
268.88
270.328
271.7
272.991
274.194
275.302
276.309
277.206
277.988
278.651
279.191
279.605
279.89
280.04
280.051
279.915
279.623
279.162
278.519
277.678
276.623
275.336
273.8
271.996
269.907
267.511
264.79
261.722
258.282
254.448
250.194
245.495
240.325
234.662
228.485
221.78
214.539
206.763
148.242
153.46
158.33
162.859
167.059
170.946
174.541
177.868
180.95
183.809
186.47
188.953
191.28
193.469
195.538
197.506
199.389
201.201
202.958
204.675
206.365
208.042
209.72
211.412
213.129
214.884
216.686
218.543
220.46
222.438
224.475
226.564
228.694
230.854
233.035
235.228
237.431
239.64
241.856
244.078
246.303
248.523
250.728
252.903
255.033
257.102
259.1
261.02
262.86
264.622
266.309
267.925
269.472
270.953
272.364
273.701
274.954
276.114
277.172
278.119
278.949
279.659
280.248
280.713
281.055
281.272
281.359
281.311
281.119
280.77
280.248
279.538
278.62
277.475
276.087
274.435
272.502
270.268
267.712
264.812
261.541
257.873
253.778
249.226
244.184
238.623
232.515
225.838
218.578
210.734
151.067
156.298
161.14
165.602
169.701
173.461
176.91
180.076
182.989
185.677
188.165
190.476
192.635
194.66
196.571
198.386
200.121
201.791
203.412
204.998
206.565
208.125
209.694
211.287
212.916
214.596
216.34
218.158
220.056
222.037
224.096
226.223
228.401
230.611
232.838
235.072
237.311
239.556
241.811
244.083
246.369
248.665
250.955
253.219
255.433
257.574
259.629
261.59
263.457
265.238
266.94
268.574
270.147
271.663
273.122
274.516
275.834
277.059
278.18
279.184
280.068
280.828
281.466
281.984
282.386
282.674
282.847
282.9
282.826
282.61
282.235
281.681
280.927
279.952
278.737
277.265
275.517
273.475
271.117
268.42
265.358
261.898
258.008
253.648
248.78
243.36
237.352
230.722
223.448
215.522
154.44
159.688
164.488
168.857
172.821
176.414
179.675
182.639
185.344
187.822
190.102
192.211
194.171
196.006
197.733
199.37
200.934
202.441
203.904
205.34
206.761
208.184
209.624
211.096
212.618
214.206
215.876
217.644
219.521
221.511
223.609
225.797
228.048
230.33
232.618
234.898
237.169
239.442
241.732
244.052
246.409
248.801
251.207
253.595
255.923
258.158
260.279
262.279
264.166
265.952
267.656
269.296
270.888
272.443
273.959
275.428
276.831
278.142
279.34
280.411
281.349
282.157
282.841
283.408
283.868
284.228
284.492
284.658
284.721
284.664
284.466
284.099
283.537
282.759
281.744
280.477
278.942
277.121
274.996
272.543
269.732
266.532
262.9
258.792
254.155
248.933
243.073
236.522
229.243
221.221
158.445
163.711
168.45
172.687
176.466
179.838
182.855
185.567
188.017
190.242
192.276
194.147
195.88
197.495
199.013
200.449
201.821
203.142
204.426
205.689
206.945
208.208
209.495
210.824
212.213
213.685
215.26
216.963
218.811
220.818
222.978
225.268
227.639
230.03
232.397
234.722
237.013
239.293
241.595
243.953
246.388
248.903
251.473
254.041
256.534
258.893
261.089
263.12
265.004
266.77
268.448
270.073
271.671
273.262
274.85
276.422
277.944
279.372
280.668
281.813
282.805
283.652
284.369
284.972
285.479
285.905
286.261
286.552
286.774
286.908
286.924
286.782
286.446
285.891
285.1
284.061
282.763
281.193
279.334
277.164
274.656
271.772
268.466
264.683
260.358
255.415
249.774
243.357
236.099
227.963
163.198
168.486
173.126
177.168
180.687
183.762
186.467
188.862
191.001
192.927
194.674
196.272
197.746
199.115
200.398
201.611
202.768
203.883
204.969
206.039
207.106
208.186
209.295
210.452
211.679
213.002
214.45
216.059
217.862
219.89
222.15
224.611
227.187
229.752
232.224
234.584
236.858
239.097
241.367
243.729
246.237
248.913
251.729
254.582
257.323
259.848
262.122
264.159
266
267.698
269.305
270.874
272.45
274.069
275.75
277.474
279.18
280.776
282.198
283.421
284.454
285.319
286.044
286.66
287.192
287.668
288.109
288.531
288.937
289.308
289.595
289.728
289.656
289.349
288.799
288.004
286.961
285.665
284.104
282.26
280.106
277.604
274.705
271.343
267.437
262.888
257.582
251.393
244.204
235.939
168.881
174.186
178.652
182.391
185.537
188.211
190.512
192.516
194.283
195.858
197.276
198.566
199.751
200.848
201.874
202.842
203.765
204.655
205.523
206.38
207.238
208.111
209.015
209.969
210.996
212.126
213.398
214.862
216.579
218.615
221.019
223.778
226.738
229.594
232.2
234.557
236.739
238.847
240.991
243.283
245.83
248.709
251.916
255.271
258.41
261.152
263.482
265.464
267.189
268.742
270.204
271.65
273.151
274.775
276.572
278.536
280.56
282.418
283.998
285.289
286.33
287.172
287.864
288.451
288.972
289.466
289.969
290.518
291.136
291.814
292.472
292.957
293.187
293.143
292.837
292.288
291.508
290.503
289.268
287.789
286.043
283.996
281.595
278.772
275.428
271.439
266.647
260.855
253.849
245.448
175.802
181.085
185.215
188.459
191.058
193.188
194.974
196.501
197.83
199.003
200.053
201.002
201.87
202.673
203.421
204.127
204.8
205.448
206.081
206.707
207.337
207.981
208.652
209.368
210.152
211.033
212.057
213.289
214.825
216.797
219.367
222.643
226.425
229.783
232.523
234.771
236.714
238.532
240.389
242.457
244.929
248.022
251.876
256.257
260.057
263.035
265.326
267.128
268.61
269.903
271.112
272.331
273.661
275.219
277.137
279.5
282.163
284.445
286.198
287.503
288.478
289.226
289.821
290.322
290.777
291.234
291.749
292.389
293.234
294.332
295.583
296.539
297.096
297.297
297.211
296.889
296.366
295.657
294.767
293.687
292.401
290.881
289.082
286.935
284.333
281.135
277.138
272.053
265.488
257
184.577
189.636
193.042
195.446
197.242
198.65
199.798
200.762
201.59
202.316
202.962
203.544
204.074
204.563
205.019
205.448
205.858
206.252
206.637
207.019
207.404
207.799
208.214
208.66
209.155
209.723
210.405
211.268
212.43
214.106
216.684
220.769
226.711
230.85
233.543
235.408
236.857
238.148
239.472
241.034
243.124
246.224
251.064
258.067
262.871
265.895
267.862
269.238
270.289
271.171
271.99
272.837
273.827
275.132
277.046
280.016
284.3
287.219
289.03
290.175
290.939
291.483
291.899
292.244
292.564
292.905
293.333
293.952
294.951
296.614
299.105
300.681
301.502
301.852
301.908
301.766
301.475
301.058
300.523
299.867
299.082
298.152
297.053
295.74
294.084
291.965
289.181
285.37
279.883
271.633
196.812
200.558
202.3
203.3
203.974
204.476
204.875
205.206
205.488
205.734
205.952
206.148
206.326
206.491
206.644
206.788
206.925
207.058
207.187
207.315
207.445
207.578
207.719
207.87
208.04
208.238
208.482
208.806
209.284
210.106
211.82
216.209
229.579
233.988
235.743
236.633
237.216
237.701
238.2
238.837
239.851
241.905
247.126
263.028
268.236
270.263
271.233
271.802
272.198
272.517
272.811
273.125
273.525
274.154
275.419
278.625
288.387
291.576
292.805
293.38
293.702
293.91
294.063
294.187
294.305
294.437
294.624
294.956
295.695
297.687
303.93
305.893
306.572
306.813
306.874
306.842
306.752
306.615
306.436
306.217
305.956
305.652
305.318
305.024
304.486
303.737
302.688
301.087
298.243
292.041
188.451
178.189
167.35
155.968
144.081
131.73
118.962
105.822
92.3557
78.6104
64.6313
50.4627
36.1482
21.7301
7.25021
189.045
178.757
167.885
156.465
144.536
132.142
119.328
106.142
92.6303
78.8403
64.8174
50.6061
36.2498
21.7908
7.27038
190.24
179.898
168.961
157.463
145.45
132.966
120.06
106.782
93.1789
79.2991
65.1886
50.892
36.4524
21.9116
7.31056
192.052
181.627
170.586
158.97
146.826
134.206
121.16
107.741
93.9995
79.9846
65.7427
51.3184
36.7544
22.0917
7.3704
194.504
183.963
172.778
160.997
148.673
135.863
122.626
109.017
95.0891
80.893
66.4758
51.8818
37.153
22.3294
7.44936
197.629
186.935
175.558
163.557
150.997
137.942
124.458
110.606
96.4423
82.0185
67.3824
52.5776
37.6448
22.6223
7.54663
201.474
190.58
178.954
166.67
153.806
140.443
126.652
112.501
98.0505
83.3523
68.4542
53.3987
38.2244
22.9673
7.66115
206.1
194.947
182.998
170.352
157.109
143.363
129.2
114.691
99.9009
84.8818
69.6801
54.3359
38.885
23.3601
7.79149
211.592
200.098
187.731
174.624
160.907
146.695
132.085
117.157
101.975
86.5896
71.0449
55.3771
39.6178
23.7954
7.93586
218.062
206.113
193.194
179.496
165.19
150.417
135.283
119.872
104.246
88.4526
72.5292
56.507
40.4118
24.2666
8.09208
225.668
213.089
199.427
184.967
169.934
154.491
138.752
122.797
106.68
90.4408
74.1089
57.707
41.254
24.766
8.25755
234.636
221.135
206.449
191.002
175.078
158.852
142.43
125.876
109.23
92.5173
75.7547
58.9553
42.1291
25.2846
8.42935
245.301
230.355
214.222
197.505
180.515
163.401
146.233
129.042
111.842
94.6387
77.4336
60.2275
43.0204
25.8126
8.60426
258.135
240.749
222.568
204.272
186.068
167.997
150.051
132.21
114.452
96.757
79.1097
61.4976
43.9105
26.34
8.77895
273.617
251.927
231.018
210.938
191.477
172.458
153.758
135.289
116.993
98.8226
80.7468
62.7397
44.7818
26.8565
8.95013
16.1922
28.5729
40.9424
53.2941
65.6221
77.9225
90.1947
102.443
114.683
126.944
139.288
151.834
164.821
178.792
195.252
16.3242
28.9694
41.6052
54.2262
66.8274
79.4059
91.9615
104.499
117.033
129.593
142.241
155.094
168.381
182.54
198.347
16.4581
29.3716
42.2772
55.1702
68.0463
80.9024
93.7374
106.554
119.36
132.177
145.046
158.048
171.33
185.135
199.759
16.5936
29.7785
42.9568
56.1242
69.2768
82.4107
95.523
108.611
121.676
134.72
147.754
160.8
173.908
187.155
200.629
16.7303
30.1892
43.6426
57.0869
70.5179
83.9313
97.3216
110.682
124.002
137.265
150.447
163.505
176.382
189.011
201.363
16.8681
30.603
44.3336
58.0569
71.769
85.465
99.1378
112.776
126.362
139.862
153.219
166.33
179.023
191.053
202.205
17.0066
31.0189
45.0284
59.0328
73.0288
87.0118
100.974
114.904
128.777
142.554
156.157
169.438
182.117
193.697
203.488
17.1454
31.436
45.7255
60.0126
74.2953
88.57
102.83
117.065
131.255
145.361
159.313
172.958
185.968
197.575
206.049
17.2843
31.8531
46.4228
60.9936
75.5649
90.1349
104.7
119.254
133.785
148.272
162.674
176.913
190.786
203.623
212.533
17.4226
32.2688
47.1181
61.9723
76.8327
91.7001
106.575
121.455
136.342
151.235
166.144
181.116
196.316
212.39
232.245
17.5599
32.6816
47.8087
62.9447
78.0931
93.2571
108.441
123.648
138.889
154.18
169.565
185.155
201.231
218.523
238.765
17.6957
33.0898
48.4917
63.9066
79.3399
94.7975
110.286
125.814
141.396
157.055
172.838
188.848
205.295
222.6
241.417
17.8295
33.4918
49.1642
64.8537
80.5674
96.3131
112.1
127.938
143.844
159.837
175.949
192.23
208.755
225.62
242.893
17.9606
33.8859
49.8235
65.7819
81.7698
97.7969
113.874
130.012
146.226
162.53
178.935
195.435
211.97
228.348
244.172
18.0886
34.2706
50.467
66.6875
82.9424
99.2428
115.601
132.029
148.541
165.148
181.849
198.61
215.287
231.453
246.025
18.2131
34.6446
51.0922
67.5671
84.0807
100.645
117.275
133.982
150.784
167.693
184.716
201.835
218.95
235.656
250.156
18.3335
35.0065
51.6971
68.4176
85.1807
102
118.89
135.866
152.948
170.154
187.51
205.055
222.89
241.384
262.25
18.4496
35.3552
52.2798
69.2364
86.2389
103.302
120.44
137.673
155.019
172.505
190.165
208.067
226.364
245.455
266.334
18.561
35.6898
52.8386
70.0214
87.2524
104.547
121.922
139.395
156.989
174.728
192.646
210.798
229.278
248.276
268.09
18.6675
36.0095
53.3724
70.7706
88.2189
105.733
123.33
141.03
158.852
176.82
194.959
213.291
231.826
250.521
269.216
18.7689
36.3139
53.8803
71.4828
89.1366
106.858
124.664
142.574
160.608
178.788
197.13
215.637
234.254
252.756
270.502
18.8651
36.6025
54.3615
72.1571
90.0045
107.92
125.921
144.027
162.258
180.636
199.18
217.898
236.752
255.508
273.074
18.956
36.8751
54.8159
72.7931
90.8221
108.919
127.101
145.388
163.8
182.362
201.101
220.059
239.309
259.079
280.377
19.0415
37.1317
55.2433
73.3909
91.5896
109.855
128.205
146.657
165.233
183.957
202.864
222.008
241.496
261.578
282.843
19.1219
37.3726
55.6442
73.951
92.3076
110.729
129.233
147.835
166.556
185.42
204.456
223.711
243.261
263.247
283.871
19.1971
37.5979
56.0191
74.4742
92.9774
111.543
130.187
148.925
167.775
186.756
205.89
225.2
244.716
264.463
284.445
19.2673
37.8083
56.3687
74.9617
93.6007
112.299
131.072
149.933
168.897
187.98
207.193
226.539
246
265.508
284.916
19.3327
38.0042
56.6942
75.4151
94.1795
113
131.89
150.863
169.932
189.107
208.396
227.79
247.243
266.613
285.541
19.3935
38.1864
56.9966
75.836
94.7162
113.649
132.647
151.722
170.886
190.149
209.519
228.992
248.535
268.014
286.853
19.45
38.3555
57.2772
76.2261
95.2131
114.249
133.346
152.514
171.765
191.111
210.563
230.137
249.864
269.851
290.613
19.5024
38.5124
57.5374
76.5876
95.673
114.804
133.99
153.243
172.572
191.992
211.516
231.169
251.002
271.14
291.883
19.5511
38.6579
57.7785
76.9222
96.0982
115.316
134.584
153.913
173.312
192.794
212.371
232.067
251.919
272
292.411
19.5962
38.7928
58.002
77.2322
96.4917
115.789
135.132
154.529
173.989
193.522
213.137
232.848
252.67
272.62
292.702
19.6381
38.918
58.2093
77.5194
96.8559
116.226
135.637
155.096
174.61
194.186
213.83
233.544
253.323
273.139
292.931
19.677
39.0343
58.4019
77.7862
97.1938
116.631
136.104
155.619
175.182
194.797
214.466
234.187
253.94
273.666
293.215
19.7132
39.1427
58.5812
78.0344
97.5081
117.008
136.538
156.105
175.712
195.363
215.06
234.8
254.568
274.307
293.778
19.7471
39.244
58.7486
78.2662
97.8014
117.359
136.943
156.557
176.206
195.892
215.617
235.386
255.207
275.125
295.35
19.7789
39.3389
58.9056
78.4833
98.0761
117.688
137.322
156.981
176.668
196.386
216.136
235.926
255.771
275.72
295.896
19.8088
39.4282
59.0534
78.6878
98.3349
117.998
137.678
157.38
177.103
196.85
216.622
236.42
256.255
276.148
296.141
19.837
39.5127
59.1931
78.8812
98.5798
118.291
138.017
157.758
177.517
197.292
217.081
236.882
256.689
276.498
296.299
19.8639
39.593
59.326
79.0652
98.8129
118.571
138.34
158.121
177.913
197.716
217.525
237.33
257.115
276.843
296.456
19.8895
39.6697
59.4529
79.2412
99.036
118.839
138.65
158.47
178.297
198.131
217.964
237.786
257.571
277.258
296.701
19.9141
39.7433
59.5749
79.4103
99.2508
119.097
138.95
158.808
178.672
198.538
218.404
238.26
258.088
277.832
297.254
19.9379
39.8143
59.6926
79.5738
99.4587
119.348
139.241
159.138
179.039
198.941
218.843
238.745
258.656
278.621
298.871
19.9609
39.8832
59.8068
79.7325
99.6608
119.592
139.526
159.462
179.399
199.337
219.276
239.217
259.177
279.203
299.429
19.9833
39.9502
59.918
79.8873
99.8581
119.831
139.804
159.779
179.754
199.728
219.699
239.67
259.643
279.637
299.687
20.0052
40.0157
60.0269
80.0388
100.052
120.065
140.078
160.092
180.104
200.113
220.117
240.112
260.088
280.024
299.879
20.0266
40.08
60.1337
80.1876
100.242
120.296
140.349
160.401
180.45
200.496
220.535
240.561
260.553
280.459
300.138
20.0478
40.1433
60.2388
80.3342
100.429
120.523
140.616
160.706
180.794
200.878
220.956
241.025
261.071
281.042
300.701
20.0686
40.2058
60.3427
80.4791
100.615
120.749
140.88
161.01
181.135
201.258
221.377
241.498
261.632
281.834
302.338
20.0892
40.2676
60.4455
80.6226
100.798
120.972
141.143
161.311
181.474
201.634
221.791
241.953
262.14
282.407
302.897
20.1097
40.3289
60.5475
80.765
100.981
121.194
141.404
161.61
181.811
202.006
222.196
242.385
262.583
282.819
303.142
20.13
40.3898
60.6488
80.9066
101.162
121.415
141.664
161.908
182.146
202.376
222.596
242.804
262.993
283.161
303.302
20.1502
40.4504
60.7497
81.0476
101.343
121.636
141.924
162.206
182.482
202.748
222.999
243.227
263.412
283.514
303.468
20.1704
40.5108
60.8504
81.1883
101.524
121.856
142.184
162.505
182.82
203.124
223.412
243.674
263.881
283.962
303.746
20.1905
40.5711
60.9508
81.3288
101.704
122.076
142.444
162.805
183.16
203.505
223.838
244.153
264.431
284.608
304.4
20.2105
40.6312
61.051
81.4691
101.885
122.297
142.704
163.106
183.501
203.89
224.271
244.651
265.044
285.514
306.344
20.2305
40.6913
61.1511
81.6093
102.065
122.517
142.965
163.407
183.843
204.273
224.7
245.133
265.597
286.162
306.999
20.2505
40.7512
61.2511
81.7495
102.245
122.738
143.226
163.709
184.185
204.655
225.12
245.586
266.072
286.615
307.278
20.2704
40.811
61.3509
81.8894
102.426
122.959
143.487
164.01
184.526
205.034
225.532
246.021
266.502
286.977
307.449
20.2903
40.8706
61.4504
82.0291
102.606
123.18
143.749
164.313
184.869
205.415
225.946
246.456
266.929
287.334
307.615
20.31
40.9299
61.5495
82.1684
102.786
123.401
144.012
164.617
185.215
205.8
226.369
246.909
267.397
287.77
307.877
20.3295
40.9886
61.6478
82.3068
102.965
123.622
144.275
164.924
185.564
206.193
226.806
247.393
267.939
288.385
308.477
20.3488
41.0466
61.745
82.444
103.143
123.842
144.539
165.232
185.917
206.593
227.254
247.901
268.544
289.238
310.239
20.3677
41.1036
61.8406
82.5793
103.32
124.061
144.802
165.541
186.274
206.997
227.708
248.406
269.108
289.87
310.846
20.3861
41.159
61.9339
82.7117
103.493
124.277
145.064
165.85
186.632
207.406
228.164
248.903
269.624
290.346
311.126
20.4038
41.2123
62.0239
82.8401
103.662
124.49
145.322
166.158
186.993
207.82
228.63
249.407
270.132
290.778
311.327
20.4205
41.2629
62.1096
82.9628
103.825
124.696
145.576
166.463
187.355
208.242
229.112
249.942
270.688
291.269
311.57
20.436
41.3099
62.1895
83.0781
103.979
124.893
145.821
166.763
187.715
208.671
229.618
250.531
271.352
291.95
312.02
20.4499
41.3523
62.262
83.1836
104.121
125.077
146.053
167.051
188.068
209.102
230.143
251.177
272.166
292.991
313.144
20.4619
41.3889
62.3251
83.2765
104.248
125.244
146.268
167.322
188.407
209.522
230.668
251.849
273.088
294.492
316.557
20.4715
41.4183
62.3767
83.3537
104.356
125.39
146.459
167.568
188.72
209.917
231.164
252.474
273.89
295.528
317.679
20.4782
41.4392
62.4141
83.4117
104.44
125.507
146.619
167.782
188.998
210.273
231.611
253.022
274.532
296.201
318.129
20.4814
41.4498
62.4346
83.4466
104.496
125.591
146.742
167.953
189.232
210.581
232.002
253.494
275.057
296.688
318.376
20.4806
41.4482
62.4352
83.4541
104.517
125.635
146.818
168.075
189.413
210.834
232.338
253.913
275.53
297.128
318.599
20.475
41.4326
62.4125
83.4295
104.498
125.631
146.84
168.138
189.532
211.026
232.62
254.296
276.011
297.651
318.953
20.4641
41.4007
62.363
83.3678
104.432
125.57
146.798
168.13
189.577
211.145
232.838
254.647
276.538
298.403
319.813
20.4469
41.3505
62.2829
83.2636
104.311
125.445
146.682
168.039
189.533
211.174
232.972
254.936
277.078
299.465
322.451
20.4229
41.2795
62.1683
83.1111
104.129
125.245
146.479
167.851
189.382
211.088
232.987
255.095
277.442
300.104
323.27
20.3912
41.1854
62.0152
82.9047
103.878
124.96
146.176
167.549
189.105
210.865
232.851
255.082
277.582
300.386
323.534
20.351
41.0659
61.8196
82.6385
103.55
124.581
145.76
167.118
188.682
210.481
232.54
254.877
277.506
300.424
323.597
20.3017
40.9189
61.5777
82.3067
103.135
124.095
145.218
166.539
188.093
209.913
232.03
254.464
277.222
300.278
323.562
20.2426
40.7423
61.286
81.9041
102.629
123.494
144.536
165.796
187.314
209.134
231.294
253.822
276.725
299.968
323.459
20.1732
40.5346
60.9416
81.426
102.022
122.766
143.7
164.869
186.323
208.115
230.298
252.915
275.986
299.479
323.287
20.0931
40.2946
60.5424
80.8691
101.31
121.905
142.698
163.741
185.093
206.82
228.996
251.688
274.947
298.766
323.029
20.0022
40.0218
60.0873
80.2313
100.49
120.903
141.52
162.395
183.598
205.211
227.329
250.063
273.514
297.737
322.641
19.9007
39.7166
59.5767
79.5126
99.5597
119.759
140.158
160.819
181.815
203.245
225.231
247.933
271.54
296.23
322.03
19.7889
39.3802
59.0124
78.7153
98.5222
118.472
138.613
159.006
179.728
200.888
222.631
245.17
268.807
293.946
320.971
19.6676
39.0146
58.3981
77.8443
97.3833
117.051
136.891
156.96
177.335
198.121
219.475
241.64
265.024
290.346
318.843
19.5378
38.6233
57.7391
76.9074
96.1533
115.507
135.006
154.699
174.651
194.956
215.751
237.26
259.89
284.536
313.712
289.256
261.446
237.992
216.47
196.021
176.249
156.936
137.949
119.2
100.625
82.1805
63.8306
45.5484
27.3117
9.10105
294.198
267.067
242.981
220.748
199.676
179.369
159.593
140.197
121.08
102.171
83.4151
64.7731
46.2124
27.7064
9.23204
296.256
270.564
246.674
224.214
202.791
182.114
161.98
142.246
122.813
103.605
84.568
65.6569
46.8369
28.0784
9.35558
297.288
272.801
249.365
226.951
205.382
184.477
164.083
144.082
124.384
104.919
85.6303
66.4752
47.417
28.4247
9.47073
297.892
274.299
251.338
229.092
207.505
186.478
165.908
145.704
125.79
106.105
86.597
67.2239
47.9499
28.7436
9.57687
298.285
275.347
252.807
230.768
209.233
188.155
167.472
147.118
127.033
107.164
87.467
67.9016
48.4341
29.0341
9.67369
298.561
276.109
253.92
232.085
210.634
189.552
168.803
148.341
128.121
108.101
88.2423
68.5089
48.8699
29.2963
9.76117
298.763
276.681
254.776
233.129
211.773
190.712
169.927
149.39
129.066
108.923
88.9272
69.0485
49.2586
29.5307
9.83951
298.916
277.119
255.445
233.961
212.7
191.674
170.874
150.285
129.882
109.638
89.5277
69.5242
49.6026
29.7387
9.90911
299.035
277.46
255.975
234.63
213.457
192.47
171.67
151.046
130.582
110.257
90.0508
69.9407
49.905
29.922
9.97049
299.128
277.731
256.398
235.171
214.077
193.131
172.338
151.691
131.18
110.79
90.504
70.3033
50.1691
30.0824
10.0243
299.202
277.948
256.74
235.611
214.587
193.68
172.897
152.236
131.69
111.247
90.8948
70.6172
50.3985
30.2221
10.0712
299.262
278.123
257.017
235.971
215.007
194.136
173.366
152.696
132.123
111.638
91.2305
70.8879
50.5969
30.3431
10.1118
299.311
278.265
257.244
236.267
215.354
194.516
173.759
153.084
132.491
111.971
91.5179
71.1205
50.7678
30.4475
10.147
299.35
278.382
257.43
236.511
215.642
194.832
174.088
153.411
132.802
112.255
91.7632
71.3196
50.9144
30.5373
10.1772
299.383
278.478
257.583
236.713
215.881
195.096
174.364
153.687
133.065
112.495
91.9723
71.4898
51.04
30.6142
10.2031
299.41
278.557
257.71
236.881
216.081
195.317
174.596
153.919
133.288
112.699
92.15
71.6348
51.1472
30.68
10.2253
299.432
278.623
257.815
237.02
216.247
195.502
174.79
154.115
133.476
112.872
92.3011
71.7583
51.2386
30.7361
10.2442
299.451
278.677
257.903
237.136
216.386
195.657
174.954
154.279
133.635
113.019
92.4292
71.8632
51.3164
30.784
10.2603
299.466
278.723
257.976
237.234
216.502
195.787
175.091
154.418
133.769
113.143
92.538
71.9524
51.3827
30.8247
10.2741
299.479
278.761
258.037
237.315
216.6
195.896
175.207
154.536
133.883
113.248
92.6303
72.0282
51.439
30.8594
10.2858
299.49
278.793
258.089
237.384
216.682
195.988
175.305
154.635
133.979
113.337
92.7088
72.0927
51.4869
30.8889
10.2958
299.499
278.82
258.132
237.441
216.752
196.066
175.388
154.719
134.061
113.413
92.7756
72.1477
51.5278
30.9141
10.3043
299.507
278.842
258.169
237.49
216.811
196.133
175.459
154.791
134.13
113.478
92.8326
72.1946
51.5628
30.9357
10.3116
299.513
278.862
258.2
237.532
216.861
196.189
175.519
154.852
134.19
113.533
92.8815
72.2349
51.5928
30.9542
10.3178
299.519
278.878
258.227
237.568
216.904
196.238
175.571
154.905
134.241
113.581
92.9237
72.2697
51.6187
30.9702
10.3232
299.524
278.893
258.25
237.599
216.942
196.28
175.616
154.951
134.286
113.623
92.9604
72.3
51.6413
30.9841
10.3279
299.528
278.906
258.271
237.627
216.975
196.317
175.656
154.991
134.325
113.659
92.9927
72.3267
51.6612
30.9964
10.3321
299.532
278.917
258.289
237.651
217.004
196.35
175.691
155.027
134.361
113.692
93.0216
72.3505
51.679
31.0074
10.3358
299.536
278.927
258.306
237.674
217.031
196.381
175.723
155.06
134.393
113.722
93.0479
72.3722
51.6952
31.0174
10.3391
299.539
278.937
258.322
237.695
217.057
196.409
175.753
155.091
134.423
113.749
93.0724
72.3924
51.7102
31.0266
10.3423
299.542
278.946
258.337
237.715
217.081
196.436
175.783
155.12
134.451
113.776
93.0958
72.4116
51.7245
31.0355
10.3453
299.545
278.956
258.352
237.735
217.105
196.464
175.811
155.149
134.479
113.802
93.1188
72.4305
51.7386
31.0441
10.3482
299.548
278.966
258.368
237.756
217.13
196.491
175.841
155.179
134.508
113.829
93.142
72.4496
51.7527
31.0528
10.3511
299.552
278.976
258.385
237.778
217.156
196.521
175.871
155.21
134.538
113.856
93.1661
72.4693
51.7673
31.0618
10.3542
299.556
278.988
258.403
237.802
217.185
196.553
175.905
155.244
134.57
113.886
93.1917
72.4901
51.7828
31.0713
10.3574
299.56
279.001
258.424
237.829
217.217
196.588
175.942
155.28
134.605
113.918