/*--------------------------------*- C++ -*----------------------------------*\
| =========                 |                                                 |
| \\      /  F ield         | OpenFOAM: The Open Source CFD Toolbox           |
|  \\    /   O peration     | Version:  5.x                                   |
|   \\  /    A nd           | Web:      www.OpenFOAM.org                      |
|    \\/     M anipulation  |                                                 |
\*---------------------------------------------------------------------------*/
FoamFile
{
    version     2.0;
    format      ascii;
    class       volScalarField;
    location    "1";
    object      gradTy;
}
// * * * * * * * * * * * * * * * * * * * * * * * * * * * * * * * * * * * * * //

dimensions      [0 -1 0 1 0 0 0];

internalField   nonuniform List<scalar> 
6300
(
9503.63
26487.2
43399.7
60193.2
76819.1
93228.3
109371
125196
140652
155688
170255
184305
197793
210680
222932
34.6101
104.037
174.063
245.015
317.106
390.384
464.668
539.483
614.004
687.01
756.876
821.613
878.985
926.699
962.658
57.452
172.724
289.066
407.079
527.179
649.509
773.839
899.445
1025
1148.48
1267.12
1377.48
1475.63
1557.47
1619.19
79.9219
240.329
402.382
567.03
734.984
906.591
1081.68
1259.39
1437.99
1614.69
1785.54
1945.47
2088.49
2208.22
2298.65
101.823
306.272
513.075
723.637
939.088
1160.13
1386.83
1618.37
1852.78
2086.63
2314.74
2530.2
2724.46
2888.12
3012.01
122.918
369.839
619.975
875.308
1137.54
1407.93
1687.03
1974.36
2268.01
2564.13
2856.44
3135.91
3390.83
3607.55
3772.27
142.916
430.167
721.639
1020.02
1327.76
1646.92
1978.87
2323.89
2680.61
3045.26
3410.76
3765.95
4095.13
4378.74
4595.74
161.487
486.246
816.346
1155.29
1506.48
1873.01
2257.5
2661.54
3085.08
3525.29
3975.15
4421.73
4844.72
5216.23
5503.7
178.263
536.952
902.149
1278.26
1669.73
2081.03
2516.4
2979.51
3472.65
3995.41
4542.53
5100.79
5645.44
6137.43
6525.38
192.865
581.113
976.981
1385.76
1813.05
2264.81
2747.38
3267.22
3830.35
4440.9
5098.43
5793.14
6498.43
7162.23
7702.85
204.935
617.614
1038.83
1474.66
1931.75
2417.62
2940.87
3511.42
4140.35
4839.09
5616.83
6474.5
7392.47
8309.71
9099.45
214.182
645.533
1086
1542.18
2021.54
2532.86
3086.86
3696.99
4380.27
5157.94
6054.9
7095.11
8286.71
9584.1
10812.7
220.426
664.292
1117.37
1586.42
2079.22
2605.22
3176.49
3809.15
4525.49
5357.17
6349.29
7563.81
9074.56
10926.6
12980.8
223.642
673.789
1132.7
1606.8
2103.56
2632.13
3204.52
3837.35
4555.05
5395.59
6420.84
7735.74
9520.47
12066
15684.7
223.978
674.479
1132.74
1604.41
2095.91
2615.04
3171.89
3780.41
4461.48
5248.9
6202.27
7437.26
9204.92
12131.6
18069.1
233559
242752
251473
259721
267501
274822
281697
288142
294175
299816
305089
310016
314620
318927
322958
326736
330286
333627
336781
339766
342603
345306
347894
350379
352777
355097
357351
359548
361694
363796
365859
367884
369876
371834
373758
375650
377507
379328
381112
382857
384559
386217
387827
389385
390888
392333
393714
395030
396277
397451
398548
399566
400501
401347
402102
402759
403313
403759
404089
404297
404374
404314
404106
403742
403211
402502
401601
400497
399172
397611
395797
393708
391326
388629
385592
382193
378406
374206
369566
364460
358860
352742
346080
338852
331036
322616
313578
303915
293624
282708
983.357
992.304
991.257
980.501
960.689
932.769
897.898
857.337
812.363
764.203
713.976
662.668
611.116
560.016
509.924
461.284
414.439
369.657
327.148
287.086
249.619
214.883
183.007
154.115
128.32
105.713
86.3456
70.2154
57.2456
47.2751
40.0582
35.279
32.5813
31.6078
32.0408
33.6332
36.2213
39.7168
44.08
49.284
55.2779
61.9618
69.1796
76.7338
84.4169
92.0523
99.5307
106.835
114.043
121.32
128.883
136.972
145.813
155.585
166.407
178.334
191.374
205.515
220.753
237.127
254.736
273.747
294.389
316.932
341.664
368.864
398.769
431.56
467.339
506.134
547.898
592.53
639.881
689.77
741.977
796.234
852.191
909.389
967.213
1024.86
1081.32
1135.35
1185.51
1230.19
1267.7
1296.39
1314.72
1321.48
1315.83
1297.47
1654.62
1669.74
1667.56
1648.6
1614.06
1565.69
1505.56
1435.91
1359
1276.94
1191.66
1104.8
1017.78
931.718
847.529
765.914
687.415
612.443
541.322
474.317
411.657
353.559
300.238
251.909
208.776
171.015
138.745
111.986
90.6282
74.4039
62.8795
55.4821
51.555
50.4386
51.5545
54.4706
58.9269
64.8176
72.1344
80.8893
91.0378
102.424
114.766
127.683
140.767
153.664
166.155
178.201
189.955
201.733
213.956
227.081
241.528
257.624
275.57
295.434
317.188
340.758
366.092
393.223
422.305
453.627
487.597
524.708
565.485
610.435
659.992
714.473
774.06
838.785
908.554
983.171
1062.38
1145.87
1233.31
1324.3
1418.29
1514.6
1612.25
1709.96
1806.03
1898.38
1984.53
2061.69
2126.87
2177.09
2209.6
2222.17
2213.26
2182.28
2350.31
2371.9
2367.8
2338.89
2287.13
2215.3
2126.68
2024.71
1912.8
1794.08
1671.34
1546.93
1422.79
1300.47
1181.18
1065.82
955.077
849.457
749.351
655.075
566.914
485.15
410.079
342.019
281.297
228.217
183.014
145.786
116.428
94.5738
79.5672
70.4964
66.289
65.8612
68.281
72.8929
79.3675
87.6624
97.9121
110.278
124.801
141.292
159.3
178.165
197.154
215.625
233.179
249.743
265.587
281.258
297.482
315.033
334.613
356.744
381.712
409.557
440.131
473.204
508.59
546.256
586.395
629.438
676.028
726.947
783.039
845.113
913.857
989.768
1073.11
1163.9
1261.94
1366.91
1478.4
1595.98
1719.24
1847.69
1980.74
2117.54
2256.88
2397.05
2535.73
2669.97
2796.14
2910.06
3007.19
3082.9
3132.84
3153.41
3142.11
3097.94
3082.34
3110.9
3103.59
3061.9
2988.92
2888.94
2766.85
2627.69
2476.26
2316.88
2153.28
1988.52
1825.05
1664.75
1509.05
1358.97
1215.26
1078.44
948.902
826.955
712.895
607.042
509.77
421.515
342.77
274.037
215.761
168.218
131.392
104.852
87.6773
78.4776
75.5501
77.1526
81.8187
88.5994
97.151
107.654
120.6
136.516
155.682
177.923
202.539
228.403
254.215
278.832
301.548
322.244
341.385
359.905
379.012
399.982
423.941
451.697
483.628
519.665
559.392
602.239
647.722
695.647
746.22
800.06
858.138
921.65
991.888
1070.09
1157.3
1254.26
1361.31
1478.43
1605.23
1741.12
1885.49
2037.77
2197.5
2364.28
2537.59
2716.62
2900.1
3086.04
3271.59
3452.91
3625.11
3782.35
3918.1
4025.53
4098.1
4130.23
4118
4059.73
3865.07
3901.26
3888.65
3829.7
3729.36
3594.18
3431.38
3248.13
3050.98
2845.62
2636.76
2428.14
2222.62
2022.31
1828.72
1642.87
1465.44
1296.88
1137.46
987.424
847.014
716.544
596.447
487.297
389.808
304.789
233.045
175.212
131.541
101.644
84.3028
77.4265
78.2872
84.0303
92.3075
101.75
112.116
124.114
138.997
158.056
182.109
211.103
243.946
278.674
312.95
344.723
372.769
396.922
418.016
437.641
457.801
480.569
507.748
540.587
579.58
624.41
674.11
727.428
783.292
841.178
901.29
964.533
1032.37
1106.61
1189.21
1282.02
1386.63
1504.11
1634.94
1778.92
1935.29
2103
2281.04
2468.66
2665.47
2871.3
3086
3309.1
3539.55
3775.36
4013.31
4248.74
4475.36
4685.31
4869.49
5018.07
5121.32
5170.68
5159.92
5086.22
4716.91
4761.64
4740.19
4656.87
4519.75
4338.97
4125.19
3888.41
3637.38
3379.29
3119.82
2863.24
2612.64
2370.17
2137.22
1914.64
1702.88
1502.16
1312.55
1134.08
966.88
811.181
667.44
536.374
418.984
316.527
230.401
161.925
111.968
80.4725
65.9745
65.3506
74.1094
87.3736
101.231
113.682
124.841
136.523
151.478
172.497
201.508
238.821
282.715
329.667
375.348
416.037
449.649
476.052
496.809
514.649
532.88
554.852
583.458
620.677
667.19
722.21
783.689
849.027
916.022
983.579
1051.93
1122.47
1197.45
1279.61
1371.87
1477.03
1597.44
1734.78
1889.66
2061.58
2249.02
2449.99
2662.74
2886.26
3120.36
3365.47
3622.19
3890.87
4171.14
4461.42
4758.5
5057.07
5349.38
5625.17
5871.92
6075.63
6221.9
6297.47
6292.22
6201.21
5662.64
5716.99
5680.53
5561.21
5372.71
5131.02
4851.83
4548.94
4233.66
3914.7
3598.48
3289.51
2990.78
2704.16
2430.65
2170.69
1924.32
1691.35
1471.49
1264.46
1070.12
888.551
720.145
565.732
426.642
304.737
202.34
121.972
65.8139
34.8324
27.6757
39.7717
63.4507
89.8671
112.182
127.472
136.808
144.208
155.212
175.402
208.919
257.02
317.025
382.423
444.861
497.456
536.816
563.214
579.702
590.986
602.462
619.472
646.66
687.281
742.459
810.62
887.633
968.162
1047.87
1124.77
1199.34
1273.93
1352.11
1437.99
1535.9
1649.96
1783.81
1940.06
2119.72
2321.75
2543.12
2779.85
3028.75
3288.4
3559.17
3842.65
4140.88
4455.66
4787.98
5137.35
5501.18
5874.03
6246.8
6606.41
6935.9
7215.47
7423.82
7540.18
7547.55
7436.7
6737.8
6802.74
6739.79
6564.79
6301.88
5976.7
5612.22
5226.98
4834.88
4445.81
4066.36
3700.69
3351.18
3018.95
2704.29
2406.92
2126.23
1861.44
1611.74
1376.38
1154.81
946.797
752.547
572.884
409.421
264.735
142.443
47.0489
-16.6976
-45.2166
-38.4476
-2.58883
48.7452
98.1585
133.133
149.718
151.44
146.577
145.584
158.975
195.174
257.904
343.382
439.236
528.323
597.693
642.394
664.384
669.825
666.782
663.804
669.164
690.247
732.657
798.772
886.033
986.271
1088.24
1183.55
1269.11
1346.48
1420.03
1495.45
1578.85
1676.42
1794.18
1937.69
2111.36
2317.28
2553.77
2814.77
3091.85
3378.91
3674.12
3979.27
4298.16
4635.26
4994.72
5379.74
5791.89
6230.32
6690.47
7162.56
7630.34
8071.08
8457.18
8757.46
8939.11
8972.36
8838.63
7997.02
8072.19
7959.88
7694.44
7320.22
6878.53
6402.11
5914.52
5431.48
4962.82
4514.18
4088.42
3686.52
3308.32
2952.93
2619.04
2305.18
2009.77
1731.3
1468.41
1219.98
985.24
763.979
556.753
365.22
192.554
43.8928
-73.3616
-149.846
-175.988
-146.369
-67.1467
36.8871
127.318
180.639
193.432
175.619
143.433
115.302
109.752
143.265
226.047
354.793
505.759
640.122
733.374
780.58
789.276
772.058
742.378
713.047
696.131
703.048
743.833
824.585
942.723
1082.39
1217.92
1333.24
1425.26
1499.16
1563.47
1627.29
1699.32
1787.88
1901.31
2048.1
2236.19
2470.78
2750.41
3063.15
3389.34
3717.15
4045.34
4379.34
4727.2
5097.15
5496.67
5932.07
6408.24
6927.79
7489.27
8084.03
8692.71
9284.39
9821.89
10261.3
10551.1
10637
10478.1
9532.51
9610.98
9399.94
8980.18
8435.23
7829.88
7207.67
6595.11
6007
5450.64
4928.78
4441.53
3987.53
3564.66
3170.42
2802.21
2457.43
2133.59
1828.36
1539.58
1265.39
1004.26
755.198
518.036
293.878
85.8455
-99.8316
-252.42
-355.422
-386.988
-325.655
-167.376
44.6653
209.955
286.542
281.253
220.533
134.483
52.5313
4.29615
20.4055
127.974
334.142
596.088
810.984
935.202
974.047
951.302
892.049
817.281
744.226
688.601
666.915
697.313
796.435
968.311
1184.37
1376.65
1516.45
1607.46
1665.6
1707.58
1747.3
1795.95
1863.49
1960.37
2098.99
2293.96
2559.29
2899.23
3292
3684.26
4054.6
4407.92
4759.17
5124.07
5516.11
5946.54
6425.27
6961.63
7564.37
8239.59
8984.87
9778.9
10575
11327.1
11979.9
12455.8
12653.5
12474
11521.2
11566
11139.9
10445.6
9636.65
8805
7998.81
7240.02
6536.37
5888.37
5293.15
4746.4
4243.4
3779.47
3350.17
2951.38
2579.31
2230.45
1901.55
1589.62
1291.87
1005.78
729.197
460.527
199.262
-53.0897
-291.225
-502.892
-663.868
-731.765
-644.55
-345.042
119.732
420.275
510.297
448.842
301.872
119.587
-58.8357
-193.869
-234.23
-112.192
233.007
753.941
1112.14
1259.66
1255.87
1165.56
1034.04
889.383
749.976
631.875
555.47
551.539
663.251
930.046
1320.39
1610.78
1769.76
1836.87
1855.18
1854.84
1854.33
1865.26
1896.71
1959.19
2068.59
2250.26
2540.18
2971.73
3521.27
4010.44
4416.19
4773.08
5118.9
5481.37
5879.27
6326.34
6834.89
7418.81
8095.91
8888.3
9814.7
10861.2
11928.2
12974.2
13952.2
14760.2
15212.1
15053.6
14372.1
14198.4
13265.3
12075.5
10870
9742.83
8721.14
7805.06
6985.18
6249.75
5587.4
4988
4442.78
3944.21
3485.81
3061.95
2667.66
2298.46
1950.25
1619.18
1301.53
993.638
691.82
392.397
91.8759
-212.414
-520.634
-826.245
-1106.22
-1299.77
-1269.02
-760.584
431.36
933.796
952.218
739.622
434.121
99.201
-232.599
-528.276
-722.646
-673.677
-121.227
1145.97
1716.46
1801.7
1661.99
1438.84
1194.66
953.638
724.776
514.859
339.431
239.029
306.574
713.74
1600.27
2034.11
2155.39
2136.57
2071.65
2002.36
1944.94
1905.05
1885.29
1890.48
1934.13
2050.66
2317.09
2874.23
3837.31
4456.49
4847.83
5153.87
5454.3
5787.27
6171.2
6617.14
7135.5
7741.25
8460.84
9343.36
10470.9
11913.2
13310.7
14718.1
16168.2
17576.5
18648.3
18742.1
19293.5
17923.1
15759.3
13727.2
11989.8
10528.1
9290.79
8231.02
7311.87
6505.43
5790.6
5151.22
4574.65
4050.81
3571.47
3129.73
2719.68
2336.08
1974.14
1629.31
1297.06
972.681
650.954
325.828
-10.0779
-366.053
-753.747
-1186.44
-1672.93
-2190.65
-2581.26
-2160.3
1735.86
2144.24
1726.75
1164.15
608.729
74.3437
-458.326
-1008.49
-1561.38
-1960.12
-1504.77
2540.94
3019.1
2667.2
2187.79
1741.95
1350.31
999.96
671.894
347.792
14.9842
-315.679
-539.477
-193.103
2531.91
2907.45
2742.73
2502.63
2294.42
2132.76
2010.32
1915.82
1837.95
1766.36
1694.72
1635.16
1675.29
2192.05
4648.26
5230.25
5401.89
5542.27
5742.4
6019.29
6373.3
6803.09
7309.68
7899.12
8590.45
9444.85
10672.8
13028.8
14677.8
16399.3
18443.1
20875.8
23491.3
25093.1
30911
22789.1
18062.9
14953.2
12712
10989.3
9604.17
8453.91
7475.74
6628.74
5884.77
5223.64
4630.28
4093.07
3602.73
3151.67
2733.44
2342.36
1973.27
1621.21
1281.2
947.852
614.959
274.783
-83.1077
-473.963
-921.984
-1469.04
-2194.53
-3264.36
-5061.92
-8564.14
8062.66
4543.8
2710.13
1578.29
753.046
47.069
-658.751
-1484.6
-2621.85
-4476.19
-8058.24
9072.64
5516.37
3715.68
2664.67
1966.5
1446.01
1013.75
612.88
192.847
-312.958
-1024.68
-2206.97
-4525.52
6846.79
4558.83
3438.69
2822.82
2450.22
2206.73
2035.51
1902.68
1781.64
1642.39
1437.97
1076.19
347.231
-1282.93
8157.71
6594.46
6000.48
5844.15
5919.47
6139.77
6465.73
6877.88
7363.94
7909.62
8484.51
9007.73
9249.24
15161.4
15939.2
17614.9
20156.7
23910
29792
40070.7
270022
255320
239792
223484
206451
188755
170459
151630
132335
112639
92607.8
72305.9
51794.9
31135.9
10388.4
1263.55
1209.78
1141.5
1061.56
973.038
878.919
781.816
683.836
586.52
490.859
397.363
306.144
217.002
129.5
43.0453
2124.39
2032.29
1915.33
1778.69
1627.87
1468.11
1303.95
1138.95
975.655
815.663
659.725
507.931
359.85
214.677
71.3473
3013.92
2879.41
2708.64
2509.79
2291.45
2061.55
1826.77
1592.21
1361.38
1136.32
917.886
705.975
499.785
298.014
99.021
3946.03
3762.54
3529.79
3260.19
2966.39
2659.69
2349.21
2041.61
1741.19
1450.24
1169.43
898.241
635.276
378.564
125.747
4937.36
4694.72
4387.57
4034.6
3654.05
3261.45
2868.64
2483.71
2111.42
1753.9
1411.26
1082.2
764.463
455.196
151.145
6008.68
5691.15
5290.95
4836.39
4353.56
3863.23
3380.06
2913.04
2466.79
2042.57
1639.39
1254.73
885.12
526.574
174.771
7187.05
6769.79
6248.28
5666.09
5060.25
4457.61
3875.06
3321.46
2800
2310.12
1848.92
1412.1
994.644
591.166
196.117
8509.64
7952.04
7265.71
6518.9
5763.28
5031.51
4340.75
3697.44
3101.44
2548.87
2033.95
1550.02
1090.12
647.28
214.632
10030.4
9262.49
8343.13
7380.1
6442.09
5564.08
4758.68
4025.84
3359.2
2749.79
2187.86
1663.79
1168.44
693.158
229.745
11829.8
10723.9
9463.71
8215.82
7060.51
6023.69
5103.76
4287.77
3559.53
2903.05
2303.75
1748.73
1226.6
727.12
240.916
14031.5
12338.4
10571.2
8958.23
7559.89
6365.95
5344.5
4461.66
3687.89
2998.94
2375.21
1800.67
1262
747.756
247.699
16810.1
14026.2
11523.7
9485.24
7854.34
6535.27
5446.2
4526.14
3731.17
3029.44
2397.3
1816.61
1272.91
754.149
249.809
20263.8
15431.5
12011.2
9604.06
7836.37
6474.13
5378.49
4465.22
3680.95
2990.13
2367.77
1795.43
1258.77
746.073
247.186
23279.6
15423.7
11484.5
9082.7
7412.35
6145.92
5128.01
4274.97
3537.06
2882.16
2288.06
1738.43
1220.59
724.14
240.033
222.122
668.503
1121.37
1585.31
2065.34
2567.21
3097.87
3666.29
4284.92
4972.85
5762.33
6713.77
7951.86
9759.02
12821.9
218.775
658.034
1102.43
1555.43
2020.53
2501.26
3001.07
3523.12
4069.75
4641.22
5232.35
5821.3
6327.02
6431.33
4782.22
214.231
643.964
1077.46
1517.06
1964.76
2421.93
2888.68
3362.72
3837.1
4295.68
4703.63
4986.4
4980.54
4321.01
2239.08
208.795
627.247
1048.2
1472.98
1902.32
2335.84
2771.1
3201.92
3615.23
3985.07
4261.64
4351.7
4087.75
3198.25
1359.89
202.748
608.762
1016.21
1425.65
1836.88
2248.42
2656.46
3053.15
3423.35
3739.01
3948.96
3962.61
3629.19
2734.25
1092.72
196.332
589.246
982.797
1376.99
1771.14
2163.32
2549.59
2922.6
3269.2
3566.17
3772.44
3814.3
3560.4
2788.59
1203.23
189.73
569.257
948.878
1328.3
1706.67
2082.22
2451.81
2810.25
3149.32
3456.18
3709.87
3871.21
3851.08
3407.75
1883.87
183.074
549.172
915.042
1280.27
1644.08
2005.16
2361.64
2711.19
3051.66
3382.98
3711.21
4053.97
4435.46
4777.12
4122.64
176.443
529.216
881.597
1233.16
1583.29
1931.21
2276.19
2618.29
2960.16
3311.8
3702.24
4209.65
5047.27
6838.02
11632.6
169.883
509.507
848.668
1186.98
1523.96
1859.21
2192.65
2525.41
2861.73
3213.54
3611.85
4135.8
4996.93
6812.58
11626.2
163.416
490.093
816.288
1141.64
1465.76
1788.37
2109.48
2429.95
2752.37
3082.86
3434.03
3827.6
4283.5
4704.89
4107.65
157.051
470.995
784.454
1097.08
1408.53
1718.46
2026.67
2333.03
2637.27
2937.67
3226.6
3475.94
3593.83
3304.36
1879.23
150.79
452.214
753.16
1053.29
1352.26
1649.67
1945.04
2237.47
2524.7
2800.32
3046.52
3215.42
3186.9
2692.32
1271.12
144.633
433.746
722.395
1010.26
1296.99
1582.21
1865.36
2145.43
2420.05
2683.28
2919.99
3091.87
3103.49
2723.69
1441.45
138.577
415.582
692.141
967.954
1242.72
1516.1
1787.73
2057.06
2323.19
2584.55
2838.37
3079.51
3291.82
3381.69
2723.34
132.616
397.706
662.37
926.33
1189.33
1451.13
1711.59
1970.8
2229.55
2490.93
2765.45
3087.08
3565.08
4559.27
7330.44
126.748
380.106
633.052
885.326
1136.7
1387.01
1636.24
1884.76
2133.96
2388.08
2659.7
2985.97
3479.82
4502.82
7311.64
120.969
362.769
604.163
844.897
1084.75
1323.56
1561.29
1798.15
2034.83
2272.97
2515.89
2768.38
3027.03
3206.19
2666.94
115.277
345.692
575.695
805.027
1033.45
1260.78
1486.86
1711.57
1934.58
2154.43
2365.31
2546.4
2629.35
2408.39
1351.85
109.674
328.878
547.657
765.735
982.853
1198.78
1413.28
1626.05
1836.39
2041.99
2235.28
2392.45
2442.57
2190.75
1180.59
104.163
312.339
520.068
727.055
933.016
1137.68
1340.8
1542.13
1741.37
1937.94
2130.18
2312.64
2465.29
2499.57
1947.43
98.7486
296.089
492.956
689.035
884.01
1077.57
1269.46
1459.53
1648.07
1836.75
2031.68
2253.34
2569.98
3215.33
5035.34
93.4367
280.145
466.356
651.73
835.915
1018.55
1199.28
1377.87
1554.53
1731.07
1914.43
2127.83
2446.1
3114.9
4993
88.2325
264.526
440.302
615.2
788.83
960.762
1130.49
1297.44
1460.94
1620.46
1776.12
1929.26
2078.46
2174.25
1801.95
83.1405
249.247
414.824
579.499
742.86
904.421
1063.54
1219.27
1369.96
1512.39
1639.35
1733.21
1747.64
1558.36
854.795
78.1631
234.315
389.938
544.662
698.077
849.696
998.852
1144.48
1284.59
1414.88
1525.38
1592.08
1558.06
1299.37
606.141
73.3006
219.731
365.645
510.688
654.484
796.606
936.52
1073.43
1205.91
1330.97
1441.65
1520.7
1524.29
1341.95
717.847
68.551
205.487
341.926
477.538
611.997
744.983
876.191
1005.35
1132.25
1256.9
1379.72
1501.52
1619.42
1691.11
1393.04
63.9112
191.573
318.755
445.151
570.483
694.533
817.213
938.735
1060.04
1183.96
1318.32
1484.86
1746.39
2296.77
3795.76
59.3785
177.977
296.105
413.468
529.816
644.981
758.974
872.192
985.925
1103.65
1234.42
1402.05
1672.5
2243.29
3775.58
54.9519
164.696
273.964
382.462
489.935
596.201
701.222
805.223
908.947
1014.2
1124.79
1247.66
1389.81
1521.73
1327.64
50.6335
151.735
252.342
352.145
450.861
548.253
644.141
738.395
830.847
920.95
1006.55
1079.77
1114.06
1026.34
588.619
46.4283
139.109
231.266
322.565
412.686
501.326
588.17
672.787
754.335
830.783
896.853
938.855
922.948
773.916
363.083
42.3439
126.843
210.779
293.79
375.523
455.632
533.733
609.294
681.348
747.809
803.857
838.14
824.286
703.298
356.531
38.39
114.966
190.932
265.896
339.482
411.327
481.058
548.238
612.248
672.083
726.008
770.906
800.098
789.568
604.425
34.5782
103.511
171.78
238.96
304.652
368.493
430.161
489.395
546.07
600.503
654.492
714.682
803.647
997.317
1563.47
30.922
92.5201
153.387
213.061
271.114
327.178
380.971
432.352
481.486
529.295
578.757
638.616
734.703
946.779
1544.25
27.4374
82.039
135.829
188.294
238.969
287.459
333.478
376.9
417.867
457.013
495.899
537.541
585.445
628.992
541.826
24.144
72.1252
119.195
164.779
208.354
249.476
287.817
323.189
355.562
384.987
411.222
432.253
439.406
402.224
231.658
21.0651
62.8486
103.601
142.669
179.454
213.444
244.244
271.598
295.353
315.246
330.242
336.715
324.29
268.231
124.884
18.2287
54.2926
89.1843
122.155
152.509
179.644
203.088
222.54
237.868
248.963
255.248
254.386
239.564
194.938
92.0566
15.6675
46.5555
76.1092
103.466
127.812
148.424
164.724
176.372
183.356
186.063
185.264
181.808
175.59
162.143
115.657
13.4183
39.7493
64.5668
86.8769
105.72
120.209
129.609
133.467
131.838
125.627
117.163
111.178
116.667
152.308
267.607
11.5216
33.9979
54.7715
72.7031
86.6581
95.5375
98.3536
94.3917
83.5213
66.7689
47.3635
32.5921
36.8125
87.1449
240.468
10.0193
29.4314
46.9544
61.2967
71.1268
75.0807
71.8102
60.1232
39.3001
9.75568
-25.6456
-59.1827
-75.0724
-49.5594
22.9438
8.95224
26.1781
41.3489
53.0277
59.68
59.6417
51.1108
32.2002
1.13784
-43.1973
-99.9545
-163.225
-215.728
-218.918
-112.383
8.35617
24.352
38.1688
48.2509
52.8808
50.0991
37.6143
12.7098
-27.8132
-87.5382
-169.757
-274.767
-390.655
-464.503
-329.829
8.25693
24.0377
37.5806
47.2591
51.2268
47.2908
32.7342
4.05386
-43.443
-116.28
-223.759
-378.79
-594.816
-854.935
-911.874
8.66572
25.2748
39.6725
50.229
55.0566
51.8507
37.6504
8.4485
-41.4962
-120.991
-244.776
-440.497
-768.411
-1386.53
-2800.01
9.57492
28.0444
44.427
57.1706
64.4569
64.0348
52.9689
27.2267
-19.0548
-94.9791
-215.881
-410.458
-740.545
-1365.89
-2792.18
10.9553
32.2596
51.7024
67.8937
79.1994
83.5961
78.4605
60.2431
23.9401
-37.7727
-135.872
-286.376
-507.72
-789.127
-886.405
12.7554
37.7639
61.2293
81.9999
98.727
109.761
113.015
105.79
84.5442
44.6577
-19.5262
-113.164
-233.259
-340.318
-279.366
14.9032
44.3359
72.621
98.9041
122.195
141.309
154.823
161.044
158.053
143.912
117.214
78.3493
32.0713
-8.25559
-18.0466
17.3093
51.7012
85.3964
117.876
148.548
176.729
201.672
222.662
239.263
251.833
262.337
274.93
293.181
302.521
211.369
19.8718
59.5471
99.0097
138.095
176.617
214.378
251.243
287.297
323.231
361.132
405.937
467.49
560.371
682.97
670.979
22.481
67.5378
112.879
158.698
205.201
252.634
301.353
351.983
405.792
465.578
537.828
638.191
806.784
1156.71
2054
25.0237
75.3287
126.413
178.82
233.129
289.982
350.117
414.434
484.162
561.316
650.115
761.4
927.108
1250.05
2090.76
27.3871
82.5769
139.026
197.615
259.283
325.042
395.962
473.107
557.34
648.921
746.716
846.714
938.08
983.575
793.017
29.4617
88.9502
150.152
214.27
282.594
356.511
437.476
526.841
625.392
732.173
841.736
937.946
980.791
880.866
464.185
31.1444
94.1346
159.254
228.006
302.02
383.088
473.155
574.191
687.714
813.473
945.998
1066.19
1122.59
998.049
490.636
32.341
97.8428
165.836
238.091
316.553
403.421
501.225
612.873
741.541
890.072
1058.82
1238.72
1390.01
1381.1
846.146
32.9698
99.8248
169.464
243.874
325.26
416.172
519.695
639.751
781.589
952.647
1163.92
1431.13
1768.72
2129.49
2005.39
32.9646
99.8787
169.787
244.826
327.368
420.183
526.708
651.528
801.374
987.333
1230.21
1574.73
2131.39
3214.69
5863.82
32.2776
97.8599
166.56
240.584
322.363
414.702
521.046
645.96
796.123
982.548
1225.97
1571.09
2128.44
3212.67
5863.07
30.8805
93.6848
159.648
230.977
310.051
399.53
502.53
622.905
765.742
938.249
1151.19
1420.16
1759.74
2123.2
2003
28.7622
87.3261
149.027
216.016
290.545
375.009
471.998
584.307
714.824
865.955
1037.58
1220.31
1374.57
1369.74
841.5
25.926
78.8012
134.752
195.846
264.175
341.837
430.883
533.131
649.665
779.522
916.362
1040.34
1100.01
979.882
481.981
22.3839
68.1543
116.927
170.683
231.362
300.809
380.661
472.107
575.341
688.342
804.19
905.171
950.433
852.484
446.173
18.1508
55.4376
95.6658
140.747
192.506
252.609
322.455
402.979
494.327
595.296
702.47
808.84
900.472
939.382
747.981
13.239
40.6942
71.0611
106.212
147.903
197.703
256.905
326.422
406.733
498.06
601.456
722.913
887.322
1186.45
1955.95
7.65436
23.9459
43.1629
67.1748
97.7192
136.331
184.267
242.462
311.599
392.57
488.054
607.343
780.856
1107.23
1925.5
1.393
5.18384
11.9647
23.6434
41.9873
68.5489
104.585
150.999
208.361
277.131
358.281
454.307
568.484
686.748
648.207
-5.56022
-15.6365
-22.6037
-24.4728
-19.3951
-5.74504
17.7772
52.0308
97.3155
153.228
218.328
288.845
353.484
375.403
244.657
-13.2325
-38.5973
-60.6808
-77.3682
-86.6724
-86.8245
-76.4008
-54.4997
-20.993
23.0778
74.7629
127.633
168.329
170.246
90.2104
-21.6628
-63.8178
-102.473
-135.345
-160.246
-175.177
-178.465
-168.992
-146.522
-112.23
-69.4827
-24.9634
10.2615
22.1366
5.54135
-30.8997
-91.4493
-148.25
-198.811
-240.685
-271.541
-289.308
-292.41
-280.149
-253.281
-214.818
-170.952
-131.431
-106.059
-82.8783
-40.9982
-121.665
-198.326
-268.263
-328.714
-376.923
-410.248
-426.397
-423.806
-402.258
-363.76
-313.767
-263.127
-232.55
-270.157
-52.0136
-154.643
-253.038
-344.254
-425.187
-492.568
-543.032
-573.296
-580.516
-562.882
-520.538
-456.872
-380.703
-311.439
-298.354
-63.9931
-190.54
-312.702
-427.34
-531.011
-619.89
-689.758
-736.099
-754.371
-740.547
-691.983
-608.508
-493.299
-351.072
-171.429
-76.9656
-229.462
-377.556
-517.993
-647.046
-760.342
-852.741
-918.298
-950.402
-942.218
-887.541
-782.041
-624.504
-416.521
-157.704
-90.9279
-271.42
-447.691
-616.503
-773.959
-915.231
-1034.28
-1123.63
-1174.3
-1176.06
-1118.27
-991.582
-790.616
-517.159
-183.216
-105.831
-316.287
-522.972
-722.847
-912.047
-1085.48
-1236.35
-1355.72
-1432.05
-1451.14
-1396.72
-1252.59
-1006.96
-659.718
-231.253
-121.564
-363.752
-602.946
-836.554
-1061.02
-1271.3
-1460.21
-1617.59
-1729.45
-1777.14
-1737.36
-1583.96
-1293.78
-858.612
-302.904
-137.943
-413.274
-686.761
-956.556
-1219.78
-1471.89
-1705.86
-1910.97
-2071.28
-2163.77
-2156.77
-2010.21
-1681.2
-1141.15
-409.324
-154.699
-464.052
-773.103
-1081.07
-1386.17
-1684.99
-1971.45
-2235.35
-2460.08
-2619.35
-2672.98
-2563.04
-2215.07
-1556.78
-576.012
-171.479
-515.016
-860.157
-1207.51
-1556.86
-1906.57
-2252.59
-2586.81
-2894.21
-3148.15
-3302.64
-3281.04
-2964.32
-2196.29
-861.592
-187.849
-564.84
-945.634
-1332.5
-1727.21
-2130.61
-2541.82
-2956.75
-3365.3
-3745.85
-4054.42
-4203.82
-4026.85
-3229.2
-1416.9
-203.314
-611.997
-1026.85
-1451.98
-1891.45
-2349.13
-2828.32
-3330.97
-3855.69
-4393.37
-4916.54
-5353.05
-5520.2
-4966.62
-2681.51
-217.343
-654.845
-1100.88
-1561.43
-2042.95
-2552.58
-3098.41
-3689.7
-4336.89
-5050.77
-5838.61
-6689.08
-7513.8
-7906.3
-6083.43
-229.408
-691.741
-1164.78
-1656.25
-2174.82
-2730.75
-3336.77
-4009.45
-4771.61
-5656.59
-6716.9
-8042.75
-9807.17
-12384.1
-16668.4
16440.8
12251.1
9723.13
7987.73
6680.86
5633.75
4758.17
4002.69
3334.6
2731.51
2177.18
1659.15
1167.43
693.556
230.052
6006.65
7825.11
7451.3
6645.17
5809.66
5033.35
4328.09
3687.11
3100.02
2556.71
2048.22
1566.7
1105.27
657.733
218.348
2651.87
4921.11
5479.26
5322.66
4897.06
4383.35
3853.15
3333.92
2834.88
2357.62
1900.42
1460.23
1033.43
616.218
204.767
1404.22
3205.09
4003.3
4186.67
4045.39
3744.57
3370.42
2966.54
2554.49
2144.47
1740.73
1344.39
954.869
570.68
189.846
856.202
2185.2
2954.09
3275.9
3304.3
3156.52
2908.15
2604.68
2272.57
1926.86
1575.82
1223.75
872.569
522.789
174.124
574.389
1554.16
2215.19
2568.73
2685.38
2638.16
2484.02
2262.6
1999.99
1712.85
1411.56
1102.45
789.257
474.099
158.107
409.912
1144.38
1689.72
2025.92
2180.14
2193.93
2106.49
1949
1744.35
1508.58
1252.66
983.925
707.276
425.969
142.239
304.685
865.892
1309.39
1609.39
1772.3
1819.9
1777.49
1668.05
1510.23
1318.25
1102.59
870.856
628.499
379.503
126.884
232.89
669.101
1028.64
1287.97
1444.47
1508.29
1494.96
1420.63
1299.76
1144.29
963.65
765.124
554.305
335.537
112.322
181.616
525.522
817.434
1037.9
1180.92
1250.18
1254.71
1205.46
1113.27
987.763
837.084
667.896
485.607
294.645
98.7482
143.756
418.023
655.8
841.577
968.537
1036.96
1051.74
1020.07
949.854
848.671
723.333
579.738
422.913
257.167
86.2814
115.086
335.846
530.245
686.057
796.759
860.95
880.967
861.404
807.901
726.315
622.231
500.742
366.395
223.247
74.9761
92.9478
271.959
431.464
561.829
657.243
715.576
737.643
726.266
685.414
619.55
533.189
430.654
315.974
192.876
64.8351
75.5861
221.605
352.898
461.847
543.446
595.353
617.51
611.563
580.268
526.993
455.355
368.981
271.387
165.93
55.8228
61.7994
181.468
289.832
380.835
450.243
495.763
516.867
514.436
490.359
447.166
387.736
315.086
232.248
142.206
47.8765
50.7389
149.173
238.809
314.803
373.607
413.107
432.545
432.318
413.704
378.597
329.28
268.251
198.103
121.454
40.9163
41.7893
122.982
197.248
260.693
310.361
344.363
361.861
362.951
348.484
319.879
278.943
227.737
168.463
103.399
34.8533
34.4947
101.594
163.191
216.139
257.981
287.064
302.554
304.37
293.068
269.709
235.728
192.816
142.837
87.7559
29.5951
28.5107
84.0239
135.134
179.288
214.45
239.193
252.731
254.886
246.012
226.905
198.703
162.794
120.748
74.248
25.0504
23.5728
69.5076
111.9
148.675
178.144
199.091
210.801
213.049
206.052
190.408
167.02
137.028
101.747
62.6101
21.1318
19.4745
57.448
92.5624
123.127
147.749
165.395
175.433
177.622
172.088
159.28
139.916
114.929
85.4176
52.5956
17.7575
16.0528
47.3713
76.3797
101.702
122.19
136.976
145.508
147.55
143.167
132.696
116.709
95.9679
71.3833
43.9786
14.8524
13.1769
38.8965
62.753
83.6294
100.583
112.893
120.083
121.932
118.466
109.937
96.7993
79.6704
59.304
36.5548
12.3484
10.7405
31.7137
51.1925
68.2762
82.1975
92.36
98.3602
99.9981
97.2735
90.3741
79.6553
65.6169
48.8761
30.1411
10.1842
8.65635
25.5668
41.2925
55.1151
66.4173
74.7118
79.6614
81.0883
78.9752
73.4578
64.8121
53.4363
39.8303
24.5742
8.30523
6.85094
20.241
32.7114
43.7007
52.7212
59.3817
63.4037
64.6316
63.0356
58.7092
51.8606
42.8008
31.9278
19.7092
6.66283
5.26155
15.5523
25.1563
33.6501
40.6601
45.8793
49.0815
50.1309
48.9874
45.7076
40.4407
33.4212
24.9574
15.4175
5.2139
3.83303
11.339
18.3698
24.6268
29.8385
33.7731
36.2496
37.1482
36.4181
34.0814
30.234
25.0414
18.7318
11.5851
3.9202
2.51519
7.45407
12.1184
16.3261
19.9001
22.6752
24.5088
25.2919
24.9598
23.5001
20.9577
17.4343
13.0853
8.11132
2.74786
1.2604
3.75836
6.18166
8.46239
10.5124
12.2267
13.4928
14.2053
14.2798
13.6664
12.3586
10.3974
7.87041
4.90653
1.66692
0.0209721
0.112986
0.341471
0.755576
1.35402
2.08485
2.85657
3.5567
4.07256
4.31036
4.20938
3.75015
2.95646
1.89174
0.650918
-1.25376
-3.62871
-5.63013
-7.08263
-7.90042
-8.09004
-7.73498
-6.96907
-5.9466
-4.81517
-3.69534
-2.66839
-1.77189
-1.00236
-0.323249
-2.62108
-7.63141
-11.9855
-15.3651
-17.5953
-18.648
-18.6171
-17.6784
-16.0468
-13.9377
-11.5401
-9.00014
-6.41492
-3.83542
-1.27538
-4.14994
-12.0915
-19.0204
-24.4494
-28.1124
-29.9636
-30.135
-28.8746