/*--------------------------------*- C++ -*----------------------------------*\
| =========                 |                                                 |
| \\      /  F ield         | OpenFOAM: The Open Source CFD Toolbox           |
|  \\    /   O peration     | Version:  5.x                                   |
|   \\  /    A nd           | Web:      www.OpenFOAM.org                      |
|    \\/     M anipulation  |                                                 |
\*---------------------------------------------------------------------------*/
FoamFile
{
    version     2.0;
    format      ascii;
    class       volScalarField;
    location    "1";
    object      gradTx;
}
// * * * * * * * * * * * * * * * * * * * * * * * * * * * * * * * * * * * * * //

dimensions      [0 -1 0 1 0 0 0];

internalField   nonuniform List<scalar> 
6300
(
16972.3
16924.8
16829.4
16685.9
16493.4
16251.2
15958.8
15615.7
15221.9
14778.2
14286.2
13748.7
13170
12555.8
11913.3
17018.6
16971.3
16876.5
16733.6
16541.8
16300.4
16008.4
15665.3
15270.8
14825.4
14330.6
13788.9
13204.6
12583.3
11932.5
17110.9
17064.2
16970.4
16828.9
16638.7
16398.8
16107.9
15765.1
15369.5
14921.1
14420.8
13870.8
13275.1
12639.5
11971.8
17248.8
17202.9
17110.8
16971.7
16784.2
16547
16258.3
15916.4
15519.8
15067.6
14559.6
13997.4
13384.6
12726.9
12032.9
17431.2
17386.7
17297.1
17161.5
16978.3
16745.5
16460.7
16121.4
15724.8
15268.6
14751.6
14173.8
13537.9
12849.7
12118.6
17656.9
17614.2
17528.2
17397.7
17220.7
16994.8
16716.6
16382.4
15988.1
15529.5
15003.2
14407.2
13742.5
13014.4
12233.5
17923.9
17883.7
17802.6
17679.1
17510.9
17295
17027.2
16702.4
16314.5
15857.1
15323.3
14708.1
14009.5
13231.1
12384.5
18229.9
18192.9
18118.1
18003.8
17847.6
17645.9
17393.5
17084.1
16709.5
16259.7
15723.9
15091.5
14355.3
13515
12582.7
18571.7
18538.6
18471.6
18369.2
18228.6
18046
17815.7
17529.9
17178.3
16747.1
16219.8
15577.7
14804
13890.1
12845.4
18945.2
18916.8
18859.4
18771.4
18650.4
18492.5
18292
18040.4
17725.4
17329.5
16829.2
16194.4
15391.9
14395
13202.3
19345.6
19322.7
19276.3
19205.3
19107.7
18980.3
18818.1
18612.9
18352
18015.2
17572
16977.7
16173.1
15094.5
13706.9
19767.7
19750.7
19716.4
19664.3
19593.4
19501.6
19385.8
19239.9
19053
18806
18464.7
17970.1
17227.1
16102
14464.5
20205.4
20194.5
20172.9
20140.8
20098.4
20045.7
19982.2
19906.3
19812.9
19689.8
19509.2
19209.5
18662.1
17620.5
15708.4
20652.4
20647.6
20638.5
20626.2
20612.2
20598.9
20589.7
20588.9
20601.1
20629.8
20671.3
20695.3
20589.9
20008.2
18036.5
21102.8
21103.6
21105.9
21111.7
21123.7
21146.6
21187.5
21256.9
21371.2
21555.6
21849.3
22309.2
22992.4
23784.7
23263.9
11307
10746.6
10183.4
9622.9
9070.18
8530
8006.53
7503.28
7023.09
6568.12
6139.88
5739.29
5366.79
5022.36
4705.66
4416.03
4152.62
3914.39
3700.14
3508.6
3338.37
3188
3055.93
2940.55
2840.18
2753.09
2677.52
2611.68
2553.82
2502.24
2455.39
2411.82
2370.29
2329.73
2289.28
2248.19
2205.85
2161.72
2115.3
2066.12
2013.74
1957.76
1897.85
1833.77
1765.41
1692.73
1615.77
1534.6
1449.28
1359.81
1266.09
1167.89
1064.86
956.575
842.49
722.029
594.591
459.569
316.352
164.317
2.79489
-168.953
-351.772
-546.641
-754.688
-977.188
-1215.55
-1471.31
-1746.05
-2041.41
-2359.02
-2700.47
-3067.28
-3460.88
-3882.58
-4333.56
-4814.79
-5327.05
-5870.78
-6446.01
-7052.3
-7688.54
-8352.91
-9042.74
-9754.5
-10483.7
-11225.1
-11972.6
-12719.7
-13459.4
11318
10749.8
10178.9
9610.96
9051.47
8505.33
7976.82
7469.53
6986.28
6529.16
6099.61
5698.44
5325.97
4982.08
4666.32
4377.96
4116.07
3879.54
3667.18
3477.64
3309.54
3161.4
3031.66
2918.71
2820.84
2736.31
2663.3
2599.99
2544.56
2495.26
2450.46
2408.69
2368.69
2329.41
2290.01
2249.81
2208.25
2164.85
2119.11
2070.57
2018.76
1963.25
1903.68
1839.8
1771.49
1698.75
1621.69
1540.45
1455.15
1365.83
1272.43
1174.73
1072.36
964.847
851.605
732.02
605.465
471.331
329.026
177.961
17.5172
-152.999
-334.395
-527.627
-733.819
-954.268
-1190.42
-1443.85
-1716.22
-2009.21
-2324.51
-2663.74
-3028.46
-3420.14
-3840.12
-4289.63
-4769.74
-5281.32
-5824.94
-6400.8
-7008.61
-7647.43
-8315.58
-9010.49
-9728.61
-10465.4
-11215.4
-11972.4
-12729.3
-13478.9
11340.3
10756.1
10169.3
9586.22
9012.9
8454.65
7916.01
7400.64
6911.33
6450.06
6018.03
5615.86
5243.6
4900.93
4587.18
4301.45
4042.67
3809.64
3601.06
3415.56
3251.73
3108.06
2983.01
2874.92
2782.1
2702.72
2634.92
2576.76
2526.29
2481.62
2440.99
2402.84
2365.88
2329.08
2291.71
2253.2
2213.15
2171.15
2126.78
2079.56
2028.95
1974.44
1915.57
1852.06
1783.79
1710.87
1633.51
1552.02
1466.67
1377.62
1284.87
1188.2
1087.2
981.288
869.789
751.99
627.208
494.823
354.287
205.096
46.7396
-121.369
-299.95
-489.911
-692.369
-908.661
-1140.32
-1389.02
-1656.56
-1944.74
-2255.35
-2590.09
-2950.6
-3338.37
-3754.83
-4201.3
-4679.01
-5189.03
-5732.21
-6309.08
-6919.71
-7563.51
-8239.1
-8944.11
-9675.07
-10427.3
-11195
-11971.3
-12748.5
-13518.5
11374.8
10765.3
10153.5
9546.76
8951.98
8375.12
7821.09
7293.66
6795.52
6328.35
5893.04
5489.78
5118.26
4777.78
4467.35
4185.82
3931.9
3704.23
3501.43
3322.04
3164.63
3027.7
2909.68
2808.95
2723.77
2652.27
2592.47
2542.25
2499.46
2461.97
2427.76
2395.11
2362.64
2329.41
2294.84
2258.65
2220.67
2180.69
2138.4
2093.26
2044.61
1991.73
1933.99
1871
1802.67
1729.22
1651.14
1569.01
1483.38
1394.63
1302.85
1207.82
1109.02
1005.7
896.977
781.962
659.854
530.016
391.984
245.416
90.0015
-74.6482
-249.097
-434.161
-630.946
-840.86
-1065.58
-1306.97
-1567.05
-1847.82
-2151.25
-2479.15
-2833.22
-3215.02
-3626.01
-4067.65
-4541.38
-5048.57
-5590.51
-6168.27
-6782.5
-7433.23
-8119.61
-8839.68
-9590.13
-10366.1
-11161.4
-11968
-12777.2
-13579.2
11422.6
10777.1
10129.6
9489.41
8864.6
8262.11
7687.3
7143.98
6634.58
6160.3
5721.45
5317.6
4947.86
4611
4305.6
4030.13
3783.03
3562.77
3367.8
3196.64
3047.82
2919.86
2811.25
2720.38
2645.53
2584.78
2536.01
2496.86
2464.83
2437.39
2412.1
2386.91
2360.32
2331.47
2300.14
2266.51
2230.87
2193.4
2153.92
2111.83
2066.17
2015.84
1959.82
1897.48
1828.75
1754.1
1674.45
1590.91
1504.48
1415.89
1325.4
1232.76
1137.25
1037.81
933.163
822.093
703.585
576.974
441.949
298.462
146.558
-13.8093
-182.939
-361.497
-550.571
-751.681
-966.732
-1197.92
-1447.61
-1718.14
-2011.73
-2330.35
-2675.71
-3049.36
-3452.78
-3887.5
-4355.19
-4857.66
-5396.81
-5974.47
-6592.21
-7251.02
-7950.98
-8690.84
-9467.66
-10276.5
-11110.4
-11960.2
-12815.1
-13663.1
11485.8
10790.8
10094.7
9409.15
8744.43
8108.64
7507.59
6944.96
6422.55
5940.78
5499.01
5095.9
4729.74
4398.58
4100.42
3833.28
3595.26
3384.6
3199.64
3038.84
2900.74
2783.95
2687.05
2608.55
2546.8
2499.86
2465.48
2441.01
2423.43
2409.51
2396.11
2380.55
2361.05
2336.93
2308.58
2277.05
2243.53
2208.83
2173.03
2135.35
2094.29
2047.96
1994.57
1933.01
1863.18
1786.02
1703.23
1616.81
1528.58
1439.79
1350.94
1261.73
1171.08
1077.32
978.538
872.879
758.943
636.013
504.074
363.613
215.298
59.6534
-103.19
-273.66
-452.82
-642.368
-844.575
-1062.15
-1298.04
-1555.13
-1836.02
-2142.84
-2477.25
-2840.59
-3234.19
-3659.55
-4118.57
-4613.55
-5147.21
-5722.48
-6342.25
-7009.01
-7724.28
-8488.1
-9298.32
-10150.1
-11035.7
-11944.1
-12861.8
-13773.2
11567.3
10805.4
10043.8
9298.26
8581.97
7904.54
7272.04
6687.5
6151.57
5663.24
5220.47
4820.63
4460.86
4138.32
3850.27
3594.2
3367.84
3169.19
2996.46
2848.11
2722.76
2619.18
2536.15
2472.42
2426.53
2396.67
2380.51
2375.05
2376.55
2380.7
2383.04
2379.69
2368.24
2348.3
2321.41
2290.28
2257.71
2225.66
2194.65
2163.56
2129.83
2090.04
2040.91
1980.29
1908.01
1825.88
1737.09
1645.2
1553.35
1463.64
1376.92
1292.7
1209.27
1124
1033.75
935.529
827.208
707.992
578.448
440.06
294.584
143.485
-12.4456
-173.291
-340.079
-514.779
-700.224
-899.94
-1117.83
-1357.72
-1622.84
-1915.46
-2236.92
-2588.04
-2969.6
-3382.86
-3829.83
-4313.4
-4837.3
-5405.95
-6024.14
-6696.57
-7427.1
-8217.88
-9068.35
-9974.33
-10927.3
-11913.9
-12916.4
-13914
11671.6
10818.7
9968.97
9144.62
8362.95
7635.17
6966.92
6359.58
5811.61
5319.71
4879.74
4487.29
4138.06
3828.08
3553.78
3312.07
3100.29
2916.2
2757.95
2624.04
2513.26
2424.62
2357.28
2310.41
2282.98
2273.56
2279.96
2298.89
2325.68
2354.32
2377.96
2390.31
2387.48
2369.48
2340.15
2305.38
2270.94
2240.8
2216.2
2195.39
2173.88
2145.4
2103.58
2044.17
1966.83
1875.18
1775.25
1673.41
1574.89
1483.07
1399.19
1322.43
1250.06
1177.8
1100.38
1012.68
911.123
794.812
665.537
526.698
381.961
234.277
85.3833
-64.3483
-215.921
-371.681
-535.275
-711.494
-905.869
-1123.89
-1369.92
-1646.38
-1953.73
-2291.45
-2659.14
-3057.36
-3488.08
-3954.82
-4462.55
-5017.64
-5627.47
-6299.95
-7042.57
-7861.05
-8757.75
-9730.16
-10769.5
-11859.7
-12977.3
-14092.4
11805.9
10826.8
9856.84
8928.88
8065.74
7279.48
6573.55
5945.7
5390.48
4901.03
4470.24
4091.39
3758.44
3466.16
3210.11
2986.61
2792.63
2625.78
2484.19
2366.47
2271.67
2199.21
2148.77
2120.21
2113.33
2127.51
2161.19
2211.22
2271.98
2334.94
2388.96
2422.62
2428.36
2406.77
2366.53
2319.83
2277.79
2247.75
2232.09
2228.01
2227.77
2219.77
2191.39
2133.69
2046.04
1936.23
1816
1696.67
1586.67
1490.95
1411.1
1345.73
1290.65
1238.96
1181.76
1109.74
1016.26
900.28
766.381
621.816
473.577
326.81
184.426
47.2567
-85.7149
-217.28
-352.112
-496.855
-659.802
-849.639
-1073.11
-1332.7
-1626.67
-1951.54
-2304.5
-2684.81
-3094.22
-3536.88
-4019.27
-4550.1
-5140.13
-5801.83
-6548.24
-7390.96
-8337.47
-9388.84
-10537.6
-11765.4
-13040.6
-14319.3
11981.3
10821.1
9683.42
8619.13
7657.25
6807.58
6067.24
5426.78
4874.21
4397.48
3985.6
3629.07
3319.97
3051.81
2819.35
2618.4
2445.72
2298.8
2175.87
2075.72
1997.76
1941.9
1908.59
1898.65
1913.2
1953.19
2018.74
2107.92
2214.96
2328.22
2429.12
2494.95
2508.37
2470.74
2402.02
2327.35
2267.17
2233.77
2231.08
2254.9
2292.6
2323.25
2321.18
2266.1
2156.97
2012.06
1855.28
1706.32
1577.77
1475.85
1402.05
1354.16
1326.26
1308.03
1284.43
1237.68
1153.78
1031.54
882.578
722.224
563.068
413.031
275.964
152.823
42.4757
-58.1625
-154.659
-255.979
-374.978
-526.905
-724.229
-969.415
-1255.01
-1571.02
-1910.29
-2270.17
-2652.21
-3061.44
-3505.95
-3996.93
-4549.18
-5181.27
-5914.72
-6770.82
-7765.55
-8906.5
-10191.2
-11601.9
-13097.9
-14611.8
12217
10782.3
9403.54
8161.28
7086.65
6177.75
5416.75
4780.94
4248.43
3800.27
3420.96
3098.2
2822.32
2585.84
2382.98
2209.31
2061.5
1937.13
1834.57
1752.88
1691.86
1652.01
1634.58
1641.7
1676.29
1741.91
1842.1
1978.73
2148.83
2339.11
2519.57
2642.53
2661.71
2579.28
2445.87
2313.81
2217.79
2175.37
2191.67
2261.57
2367.32
2473.6
2527.04
2476.09
2319.18
2104.78
1883.08
1686.44
1530.4
1420.14
1355.6
1333.73
1347.89
1384.81
1420.42
1419.1
1346.5
1201.31
1015.18
820.913
639.428
480.573
347.446
239.962
156.679
94.987
49.7355
10.3525
-42.7344
-138.787
-306.398
-547.899
-839.461
-1156.9
-1486.27
-1823.44
-2170.85
-2534.97
-2925.39
-3355.23
-3842.89
-4414.34
-5104.12
-5950.53
-6982.45
-8216.52
-9662.57
-11314.5
-13128.2
-14998.5
12547.9
10662
8926.46
7461.48
6276.9
5334.5
4585.52
3985.98
3500.85
3103.61
2774.66
2499.57
2267.73
2071.28
1904.4
1762.81
1643.38
1543.92
1463.06
1400.16
1355.37
1329.67
1325.12
1345.07
1394.57
1480.74
1612.82
1801.21
2053.48
2363.94
2692.65
2939.33
2961.17
2761
2487.58
2248.14
2091.05
2032.17
2074.85
2216.35
2441.01
2699.74
2882.92
2838.31
2563.91
2207.74
1874.6
1607.93
1416.95
1298.46
1247.63
1261.38
1336.71
1463.45
1609.63
1703.2
1643.78
1430.04
1159.55
901.202
683.212
511.073
382.005
292.246
239.781
224.444
245.654
296.385
351.342
352.338
217.812
-54.2877
-386.615
-725.538
-1050.92
-1361.85
-1665.24
-1970.45
-2287.84
-2630.01
-3015.63
-3476.68
-4067.56
-4862.64
-5907.73
-7220.64
-8836.67
-10793.5
-13076.1
-15530
13043.7
10324.7
8059.09
6357.35
5117.89
4212.35
3538.77
3026.01
2626.45
2308.4
2050.6
1838.5
1662
1513.96
1389.28
1284.28
1196.38
1123.82
1065.57
1021.27
991.265
976.8
980.275
1005.78
1059.95
1153.33
1302.33
1531.56
1874.19
2362.29
2983.64
3559.67
3580.09
3047.96
2480.15
2063.7
1822.69
1742.52
1815.52
2051.09
2465.34
3034.29
3566.4
3531.05
2926.04
2277.25
1770.16
1420.24
1198.99
1079.26
1046.59
1100.33
1251.49
1514.15
1874.63
2207.67
2163.38
1740.56
1286.49
923.412
660.988
479.557
359.954
290.818
269.4
301.24
399.015
576.265
823.035
1038.52
940.045
525.998
75.7134
-313.643
-636.329
-911.009
-1156.89
-1388.22
-1614.43
-1842.01
-2079.5
-2351.79
-2736.63
-3414.35
-4446.9
-5787.71
-7519.28
-9802.71
-12776.2
-16303.7
13857.1
9333.88
6379.05
4587.16
3477.68
2755.86
2260.19
1902.82
1634.47
1426.28
1260.56
1126.03
1015.18
922.917
845.696
781.028
727.187
683.034
647.927
621.7
604.718
598.02
603.631
625.137
668.8
745.726
876.223
1098.51
1485.25
2168.58
3339.67
4979.79
4994.43
3386.02
2254.57
1626.43
1322.54
1232.11
1321.88
1628.29
2266.53
3421.44
5066.5
5043.54
3350.79
2142.37
1439.16
1047.13
834.704
734.594
721.095
798.969
1005.71
1424.02
2179.28
3255.63
3228.22
2096.18
1282.51
800.722
522.159
359.021
265.231
220.667
222.3
283.047
437.865
755.931
1339.64
2176.6
2116.52
1158.34
450.241
2.2345
-290.838
-501.581
-669.4
-813.28
-938.902
-1039.6
-1093.1
-1064.66
-983.735
-1454.84
-2541.86
-3791.61
-5406.6
-7817.45
-11677.4
-17525
15336.2
6083.82
3023.95
1833.93
1278.99
973.504
782.308
651.301
555.737
482.885
425.548
379.357
341.511
310.144
283.978
262.13
243.993
229.171
217.447
208.778
203.314
201.47
204.052
212.542
229.696
260.926
317.871
428.542
669.135
1272.3
3020.05
8740.21
8745.55
3037.02
1304.04
722.074
514.921
462.051
516.121
727.427
1323.38
3102.23
8967.69
8959.7
3077.55
1279.67
659.858
415.265
308.597
265.16
263.991
312.036
455.32
848.792
2021.72
5893.33
5884.04
1993.54
800.709
385.442
217.145
138.633
99.6251
83.9807
90.0528
129.354
241.569
552.953
1491.31
4606.09
4585.88
1430.35
450.133
94.972
-63.9012
-153.934
-216.336
-264.567
-299.188
-305.088
-224.624
146.98
1564.12
1391.7
-402.317
-1269.3
-2147.5
-3744.95
-7715.39
-19649.9
-14255.6
-15095.3
-15893.7
-16642.3
-17334.1
-17964.4
-18530.2
-19030.1
-19463.7
-19831.9
-20135.6
-20376.4
-20555.5
-20674.2
-20733.3
-14285.4
-15135.4
-15942.5
-16697.8
-17394.4
-18027.6
-18594.8
-19094.9
-19527.9
-19894.8
-20197.2
-20436.5
-20614.5
-20732.3
-20791
-14346.3
-15217.3
-16042
-16810.7
-17516.7
-18155.6
-18725.3
-19225.4
-19656.7
-20021
-20320.3
-20556.7
-20732.1
-20848.1
-20905.9
-14440.7
-15344.5
-16196.1
-16985.2
-17705
-18351.6
-18924
-19423.2
-19851.2
-20210.8
-20504.9
-20736.4
-20907.7
-21020.8
-21077
-14572.5
-15522.6
-16411.6
-17227.9
-17965
-18620.3
-19194.6
-19690.7
-20112.6
-20464.5
-20750.7
-20974.8
-21140.1
-21248.9
-21302.9
-14748.2
-15760.7
-16698.5
-17548.6
-18305.5
-18968.7
-19542.1
-20031.2
-20442.5
-20782.5
-21056.9
-21270.6
-21427.4
-21530.3
-21581.3
-14977.6
-16072.4
-17071.7
-17961.5
-18738.1
-19405.7
-19972.4
-20448
-20842.4
-21164.7
-21422.4
-21621.6
-21767.1
-21862.2
-21909.2
-15275.8
-16478.4
-17553.2
-18486
-19278.6
-19942.2
-20492.3
-20944.5
-21313
-21609.9
-21844.8
-22024.8
-22155.6
-22240.7
-22282.7
-15667.2
-17011.2
-18175.4
-19149.5
-19946.6
-20590.9
-21108.5
-21523
-21853.7
-22115.7
-22320.4
-22475.9
-22588
-22660.8
-22696.5
-16192.3
-17722.4
-18986.4
-19988.5
-20766
-21364.8
-21826.3
-22183.8
-22461.6
-22677.4
-22843.6
-22968.7
-23058.3
-23116.2
-23144.6
-16923.4
-18698.4
-20057.8
-21050.5
-21762.7
-22274.3
-22646.8
-22922.5
-23129.8
-23287.1
-23406.4
-23495.3
-23558.7
-23599.5
-23619.4
-18001
-20088.5
-21494.4
-22391.7
-22958.1
-23321.5
-23562.2
-23728
-23846.3
-23933.2
-23997.9
-24045.8
-24079.9
-24101.9
-24112.6
-19731.6
-22158.7
-23438
-24061.8
-24354.9
-24489.7
-24551
-24579.1
-24592.5
-24599.8
-24604.7
-24608.5
-24611.6
-24613.8
-24614.9
-22892.5
-25374.9
-26035.3
-26061
-25908.1
-25729.6
-25571.4
-25443
-25343
-25267
-25210.8
-25170.2
-25142.4
-25125
-25116.6
-29832.1
-30411.3
-29265.5
-28236.7
-27484.9
-26947.6
-26560
-26276.7
-26067.6
-25912.9
-25799.4
-25717.5
-25660.9
-25625.3
-25608.1
21513.5
21518.7
21529.9
21549.5
21581.2
21630.9
21707.8
21826.7
22011.3
22302.7
22775.5
23582.3
25093.2
28448.4
38168
21882.3
21890.7
21908.5
21938.1
21983.5
22051.1
22150.7
22297.9
22518.2
22854.7
23384.3
24249.5
25721.1
28267
32142.1
22244.2
22255
22277.7
22314.6
22369.4
22448
22559.4
22717.2
22943.1
23271.5
23758.9
24494.5
25601.6
27161.1
28823.4
22597.5
22610
22636.1
22677.5
22737.6
22821
22934.7
23088.2
23295.6
23576.8
23959.9
24480.3
25166.6
25982.4
26675.4
22940.9
22954.5
22982.5
23026.4
23088.4
23172
23281.1
23420.7
23595.7
23810.2
24064.4
24349.6
24640.3
24887.9
25025
23273.7
23287.9
23316.8
23361.4
23423.2
23504
23605.3
23727.3
23867.2
24014.8
24146.2
24213.8
24142.9
23868.7
23486.2
23595.6
23609.9
23639
23683.3
23743.7
23820.7
23913.8
24020.3
24132
24229.6
24271.2
24172.9
23785.6
22923.5
21698.4
23906.2
23920.5
23949.3
23992.9
24051.5
24125
24212
24308.6
24405.5
24481.9
24492.1
24331.5
23756.7
22229.4
19076.5
24205.8
24219.9
24248.2
24290.9
24347.8
24418.7
24502.2
24595.3
24691.8
24779.2
24830.3
24776.4
24388.2
22662.9
14282
24494.3
24508.2
24536
24577.7
24633.2
24702.4
24784.5
24878.5
24983.4
25100.3
25240.3
25452.3
25947
27717.1
36086.4
24771.9
24785.6
24812.8
24853.6
24908
24975.9
25057.4
25152.9
25265.3
25404.3
25598.9
25930.7
26618.9
28187.2
31318.4
25038.9
25052.2
25078.9
25118.9
25172.1
25238.8
25319.2
25414.3
25527.5
25668.4
25860.9
26160.2
26678.1
27570.6
28742.6
25295.3
25308.4
25334.5
25373.7
25425.8
25491
25569.5
25661.7
25769.1
25895.4
26047.4
26236.7
26475.9
26758.4
26998.7
25541.4
25554.2
25579.8
25618.1
25669.1
25732.8
25809
25897.3
25996.5
26103.2
26206.8
26277.2
26242.2
25974.1
25439.8
25777.3
25789.9
25815
25852.5
25902.4
25964.6
26038.9
26124
26217.4
26312
26387.9
26389.6
26169.1
25373.4
23527.8
26003.2
26015.5
26040.1
26076.9
26125.9
26187
26259.8
26343.5
26436.1
26532.6
26619.3
26655.1
26494
25500.4
20352.2
26219.2
26231.3
26255.5
26291.6
26339.8
26399.9
26471.9
26555.6
26650.8
26758.6
26884.7
27056
27395.9
28511.2
33697.6
26425.6
26437.4
26461.1
26496.7
26544
26603.3
26674.6
26758.3
26855.5
26970.7
27117.5
27338.5
27758.1
28693.6
30584.7
26622.3
26634
26657.2
26692.1
26738.6
26797
26867.4
26950.2
27046.5
27159.5
27297.6
27481.9
27760.7
28211.1
28803.3
26809.7
26821.1
26843.9
26878.1
26923.8
26981.1
27050.3
27131.4
27224.6
27329.6
27444.2
27558.5
27643
27629
27451.2
26987.8
26999
27021.3
27054.8
27099.5
27155.7
27223.5
27302.8
27393.1
27491.9
27589.6
27654.7
27592.6
27159.4
25993.8
27156.8
27167.7
27189.5
27222.2
27266
27320.9
27387.3
27465.2
27554.4
27653.6
27756.4
27837.8
27798.8
27197.4
23745.4
27316.8
27327.5
27348.8
27380.7
27423.3
27476.9
27541.8
27618.3
27707.4
27811.6
27936.8
28103.2
28394.3
29213.9
32782.5
27468.1
27478.5
27499.2
27530.2
27571.7
27623.7
27686.7
27761.3
27848.7
27953.5
28087.1
28280.8
28621.4
29319.8
30653
27610.8
27620.9
27641
27671.1
27711.3
27761.6
27822.3
27893.7
27976.6
28074.2
28194.1
28355.2
28598.5
28983.5
29469
27745.1
27754.9
27774.4
27803.6
27842.4
27890.9
27949.1
28016.6
28093
28178
28271.1
28371.1
28475.7
28575.8
28642.1
27871.2
27880.7
27899.6
27927.9
27965.5
28012.2
28068
28131.8
28202
28274.9
28341.8
28382.4
28354.5
28190.2
27881.1
27989.3
27998.5
28016.8
28044.3
28080.7
28126
28179.8
28241.1
28307.6
28374.5
28429.2
28440
28326.7
27903.8
26925.6
28099.5
28108.5
28126.3
28152.9
28188.3
28232.4
28285
28345.2
28411.6
28481.1
28545.6
28582.2
28512.5
28001.6
25311
28202.2
28210.9
28228.2
28254
28288.5
28331.6
28383.3
28443.5
28512
28589.7
28680
28796.7
29003.3
29611.6
32330.5
28297.3
28305.8
28322.6
28347.7
28381.3
28423.4
28474.3
28534.3
28604.5
28688.2
28794.3
28947.2
29213.6
29754.1
30777.3
28385.2
28393.4
28409.6
28434
28466.6
28507.7
28557.5
28616.6
28686.1
28769.6
28874.5
29017.5
29231.7
29559.8
29956.1
28466
28473.9
28489.6
28513.1
28544.7
28584.4
28632.7
28689.9
28756.6
28834.6
28926.6
29036.8
29169
29316.3
29431.5
28539.8
28547.4
28562.5
28585.2
28615.6
28653.9
28700.4
28755
28817.8
28888.4
28964.6
29039.3
29094.2
29093.2
29008.6
28607
28614.2
28628.7
28650.4
28679.5
28716.3
28760.8
28812.9
28872
28936.7
29001.9
29053.9
29056.7
28926.5
28548.3
28667.6
28674.5
28688.3
28709
28736.8
28771.9
28814.5
28864.4
28921
28983.2
29046.9
29101
29109.8
28930.1
27846.9
28722
28728.6
28741.6
28761.1
28787.5
28820.9
28861.6
28909.5
28964.6
29027.1
29097.1
29178.1
29292.2
29559.6
30666.7
28770.5
28776.6
28788.7
28807.1
28831.9
28863.4
28902.1
28948.1
29001.8
29064.2
29138
29231
29366.6
29604.8
30023.4
28813.3
28818.9
28830.1
28847.1
28870.1
28899.6
28936.1
28979.8
29031.4
29092.1
29164.2
29252.8
29368.4
29523.3
29691
28850.7
28855.8
28866
28881.4
28902.5
28929.6
28963.5
29004.6
29053.3
29110.6
29177.4
29254.5
29341.6
29431.6
29495.2
28883.2
28887.7
28896.6
28910.3
28929.1
28953.6
28984.5
29022.4
29067.8
29121.2
29182.1
29247.8
29311.3
29357.1
29363.4
28911.2
28914.9
28922.5
28934.2
28950.4
28971.8
28999.3
29033.6
29075.3
29125.1
29181.9
29241.4
29292
29308.7
29256
28935.1
28938
28944
28953.4
28966.6
28984.4
29007.8
29038
29075.8
29122.7
29178.5
29239.7
29294.9
29307.2
29131.9
28955.5
28957.5
28961.8
28968.5
28978.1
28991.7
29010.3
29035.4
29068.8
29112.9
29169.9
29241
29326.3
29434.5
29663
28973
28974.1
28976.3
28980
28985.6
28994.1
29006.9
29025.6
29052.8
29092.6
29150
29231
29340.4
29476.9
29615.9
28988.3
28988.3
28988.3
28988.6
28989.6
28992.3
28997.9
29008.3
29026.8
29058.7
29112.4
29199.8
29334.3
29516.2
29685.2
29002.3
29001.1
28998.7
28995.2
28991.1
28987
28984
28984
28990
29008.4
29050
29134.5
29294
29563
29892
29015.6
29013.2
29008.2
29000.9
28991.2
28979.5
28966.7
28953.8
28943.2
28940.5
28956.4
29015.7
29176.2
29566.9
30347.2
29029.2
29025.5
29018
29006.6
28991.1
28971.6
28948
28920.5
28889.7
28858.1
28831.3
28825.3
28897.2
29298.8
31364.3
29043.9
29039
29029
29013.7
28992.5
28965
28930.5
28887.8
28835.4
28771.1
28690.2
28579.3
28387.8
27873.9
25716
29060.5
29054.5
29042.3
29023.3
28996.9
28962
28917.3
28860.5
28787.9
28694.1
28568.4
28388
28101
27589.1
26709.4
29079.9
29073
29058.7
29036.6
29005.6
28964.4
28911.1
28842.4
28753.7
28637.9
28483
28269.5
27968.9
27558.3
27112.3
29102.6
29094.9
29079.2
29054.6
29020
28973.9
28914
28836.7
28736.9
28607.4
28436.8
28209.9
27911.7
27550.7
27225.8
29129.3
29121.1
29104.2
29077.9
29040.9
28991.6
28927.5
28845.1
28739.4
28603.8
28428.4
28198.5
27896.7
27516.5
27134.2
29160.1
29151.7
29134.3
29107.2
29069
29018.2
28952.3
28868.1
28761.2
28626.6
28456.1
28235.6
27934.7
27482.5
26797.6
29195.4
29187
29169.7
29142.6
29104.5
29053.8
28988.3
28905.1
28800.9
28672.8
28517
28327.2
28076.3
27608.7
26005.9
29235.2
29227
29210.3
29184.1
29147.3
29098.3
29035.1
28955.1
28855.9
28736.6
28599.9
28459.8
28366.8
28521.9
29907.9
29279.1
29271.5
29255.9
29231.5
29197.1
29151.3
29092
29016.8
28923.3
28811.1
28683.7
28558
28483.5
28578.4
29007.9
29326.8
29320
29306.1
29284.3
29253.5
29212.2
29158.5
29089.6
29002.4
28894.4
28764.8
28619.2
28480.9
28401
28427.5
29377.7
29372.1
29360.3
29341.9
29315.7
29280.4
29233.9
29173.4
29094.5
28991.3
28855.2
28673.9
28435.9
28147.9
27887
29431.2
29426.8
29417.7
29403.3
29382.7
29354.8
29317.7
29268.4
29201.8
29109.7
28975.4
28766.4
28424.1
27874.3
27186.9
29486.2
29483.3
29477.2
29467.5
29453.5
29434.3
29408.5
29373.7
29325.5
29255.7
29145.7
28949.9
28554.6
27694.7
26030.9
29541.9
29540.5
29537.7
29533.1
29526.3
29516.9
29504
29486.6
29462.6
29428.3
29374.1
29270.4
29006
28071.6
23741.2
29596.9
29597.3
29598
29598.8
29599.6
29600.4
29601.3
29602.5
29605.3
29613.1
29635.2
29700.9
29921.2
30805.1
35077.6
29650.3
29652.4
29656.7
29663
29671.4
29682.4
29696.7
29715.8
29743.1
29786.5
29864.5
30022.4
30374
31183.8
32790.1
29700.7
29704.6
29712.4
29724.1
29740
29760.8
29787.4
29821.9
29868.1
29934.3
30036.8
30208
30507.1
31007.8
31639.1
29747
29752.7
29763.9
29780.9
29803.9
29833.6
29871.2
29918.2
29977.8
30055.4
30159.8
30303.3
30498.5
30739.5
30947.4
29788
29795.3
29810
29832
29861.7
29899.7
29946.8
30004.2
30073.4
30156.6
30254.2
30361
30456.7
30492.7
30420.8
29822.5
29831.5
29849.4
29876.3
29912.4
29958
30013.9
30080.4
30158
30246.2
30340.5
30425.1
30454.6
30319.3
29865.2
29849.3
29859.9
29881
29912.7
29954.9
30008
30072.1
30147.4
30233.7
30330
30432.1
30526.1
30565.5
30365.7
29014.7
29867.4
29879.6
29904
29940.3
29988.6
30048.9
30121.2
30205.3
30301
30408.4
30527.9
30663.4
30840.9
31209.8
32634.5
29875.7
29889.5
29917.1
29958.2
30012.6
30080.1
30160.6
30253.5
30358.8
30477.1
30611.1
30770.1
30982
31319.5
31875.4
29872.9
29888.4
29919.3
29965.3
30026
30101
30189.9
30291.8
30406.1
30533.4
30675.6
30838.5
31034.6
31276.3
31522
29858
29875.3
29909.7
29960.8
30028.2
30111.1
30208.7
30319.8
30443.1
30577.9
30724.1
30882.7
31054.2
31228.9
31358.7
29829.7
29848.9
29887
29943.7
30018.1
30109.6
30216.8
30337.9
30470.7
30613.2
30762.7
30916.5
31070.1
31211.2
31305
29786.8
29808
29850.1
29912.7
29995
30095.9
30213.9
30346.4
30490.4
30642.1
30796.8
30949.1
31093.4
31224.9
31335.7
29727.8
29751.1
29797.6
29866.6
29957.5
30069.1
30199.4
30345.6
30503.3
30667.6
30831.3
30986
31124.2
31251.6
31462.4
29651.2
29676.9
29727.9
29804
29904.4
30028
30172.6
30335.1
30510.5
30692.1
30870.6
31033
31161.1
31219.1
31082.6
29555.6
29583.6
29639.6
29723.2
29833.9
29970.9
30132.2
30314.3
30512
30717.6
30919.6
31102.5
31245.4
31320.3
31298.6
29439.1
29469.6
29530.6
29622.1
29744
29895.7
30075.8
30281.3
30506.8
30744.1
30980.6
31198.6
31375.6
31487.3
31518
29300.2
29333.1
29399.1
29498.6
29632
29799.5
30000.5
30232.9
30492.1
30770
31053.1
31321.7
31550
31709.3
31777.1
29137.2
29172.3
29243
29350.2
29495
29678.7
29902.1
30164.6
30463.1
30790.8
31134.4
31471.6
31771
31993.5
32101.6
28948.4
28985.5
29060.3
29174.4
29329.8
29529.2
29775.3
30069.9
30412.6
30799.4
31218.6
31646.5
32044.1
32355.7
32519.6
28732.7
28771.1
28849
28968.5
29132.7
29346.1
29613.6
29940.3
30330.2
30784.2
31295.3
31841.3
32375.4
32819.2
33069.6
28489.1
28528.1
28607.6
28730.2
28900.3
29124.1
29409.4
29765.3
30201.9
30728.2
31346.5
32042.8
32768.3
33415.6
33811.6
28217.1
28255.8
28334.9
28457.6
28629.5
28858.3
29154.9
29533.1
30010.2
30606.8
31342.3
32222.8
33214
34185.1
34846.9
27917
27954.2
28030.5
28149.6
28317.8
28544.4
28842.6
29230.7
29734.1
30387.8
31235.8
32324.8
33672.2
35167.9
36359.9
27589.9
27624.3
27695.1
27806.3
27964.4
28179.5
28466.5
28846.8
29352.6
30032.6
30960.6
32245.8
34026.2
36360
38718.7
27237.6
27268
27330.5
27429.1
27570.2
27763.6
28024.4
28374.5
28848.8
29503.8
30436.1
31821.7
33994.3
37533.4
42733.3
26863
26888
26939.6
27021.2
27138.4
27300
27518.9
27814.7
28218.3
28781.1
29595.4
30849.8
33011.8
37552
50376.8
-49253.4
-36606.8
-32117.1
-29975.1
-28731.6
-27925.1
-27368.8
-26970.9
-26680.1
-26465.8
-26308.2
-26194.3
-26115.4
-26065.5
-26041.4
-41699.7
-36572.6
-33077.5
-30929.9
-29559.8
-28638.7
-27992.7
-27526.1
-27182.6
-26927.7
-26739.3
-26602.3
-26506.9
-26446.5
-26417.2
-37726.9
-35402.9
-33100.4
-31343.1
-30074.7
-29159.8
-28490.7
-27994.3
-27622.1
-27342.3
-27133.2
-26980.1
-26872.8
-26804.6
-26771.4
-35388.8
-34216.4
-32742.9
-31415.1
-30342.6
-29508.6
-28867.2
-28374.6
-27996.2
-27706.4
-27487.1
-27324.8
-27210.2
-27137.1
-27101.4
-33885.8
-33237
-32282.4
-31308
-30443.2
-29722.2
-29139
-28674.2
-28307.2
-28020.4
-27800
-27635
-27517.6
-27442.1
-27405.2
-32854.3
-32468.2
-31834
-31123.2
-30442.1
-29838.7
-29327.1
-28904.3
-28561
-28287.1
-28073
-27910.9
-27794.4
-27719.1
-27682.1
-32112
-31869.7
-31437
-30916.2
-30385.3
-29890
-29452
-29077.6
-28765.3
-28510.8
-28308.6
-28153.6
-28041.2
-27968.1
-27932
-31559.1
-31401.7
-31099.4
-30714.6
-30302.1
-29900.1
-29531.2
-29206.1
-28928
-28696.8
-28510.2
-28365.3
-28259.3
-28190
-28155.6
-31136.6
-31032.4
-30817.4
-30530.5
-30209.9
-29885.7
-29578.5
-29300.3
-29056.8
-28850.5
-28681.5
-28548.7
-28450.7
-28386.1
-28354
-30807.4
-30738.5
-30583.7
-30368
-30118.5
-29858
-29604.2
-29368.7
-29158.3
-28976.9
-28826.2
-28706.5
-28617.3
-28558.3
-28528.8
-30547.3
-30502.6
-30390.4
-30227.5
-30033
-29824.2
-29615.8
-29418.1
-29238.2
-29080.6
-28948
-28841.6
-28761.7
-28708.5
-28681.9
-30339.3
-30311.8
-30230.7
-30107.4
-29955.7
-29788.7
-29618.3
-29453.6
-29301.2
-29165.7
-29050.3
-28956.8
-28886.1
-28838.8
-28815
-30171.5
-30156.6
-30098.6
-30005.5
-29887.2
-29754.1
-29615.4
-29479
-29350.8
-29235.4
-29136
-29054.8
-28993
-28951.3
-28930.4
-30035.2
-30029.7
-29989.1
-29919.3
-29827.5
-29721.7
-29609.4
-29497.1
-29390.1
-29292.5
-29207.7
-29137.8
-29084.3
-29048.1
-29029.8
-29923.8
-29925.5
-29898.4
-29846.7
-29776
-29692.3
-29601.9
-29510.1
-29421.3
-29339.5
-29267.7
-29208.1
-29162.2
-29131
-29115.2
-29832.5
-29839.7
-29823
-29785.6
-29731.8
-29666.2
-29593.9
-29519.2
-29446.1
-29378
-29317.8
-29267.4
-29228.4
-29201.7
-29188.2
-29757.3
-29768.8
-29760.3
-29734.3
-29694.1
-29643.2
-29585.9
-29525.8
-29466
-29409.8
-29359.6
-29317.4
-29284.5
-29262
-29250.5
-29695.2
-29710.2
-29708.2
-29691.3
-29662
-29623.3
-29578.4
-29530.4
-29482
-29436
-29394.6
-29359.5
-29332
-29313.1
-29303.4
-29643.8
-29661.6
-29664.9
-29655.3
-29635
-29606.1
-29571.5
-29533.7
-29494.9
-29457.6
-29423.7
-29394.8
-29372
-29356.3
-29348.3
-29601.4
-29621.3
-29628.8
-29625.2
-29612.1
-29591.4
-29565.3
-29536
-29505.4
-29475.4
-29448
-29424.4
-29405.8
-29392.8
-29386.2
-29566.3
-29588
-29598.9
-29600.1
-29592.9
-29578.9
-29559.8
-29537.6
-29513.8
-29490.1
-29468.2
-29449.2
-29434.1
-29423.5
-29418.1
-29537.3
-29560.4
-29574.1
-29579.3
-29576.9
-29568.3
-29555.1
-29538.8
-29520.6
-29502.2
-29484.9
-29469.8
-29457.7
-29449.2
-29444.8
-29513.4
-29537.7
-29553.6
-29562
-29563.5
-29559.4
-29551
-29539.6
-29526.2
-29512.2
-29498.8
-29487
-29477.4
-29470.6
-29467.1
-29493.9
-29519.1
-29536.8
-29547.7
-29552.5
-29552
-29547.6
-29540.1
-29530.6
-29520.3
-29510.2
-29501.1
-29493.6
-29488.3
-29485.5
-29478
-29504
-29523.2
-29536.1
-29543.5
-29546
-29544.7
-29540.5
-29534.2
-29526.8
-29519.4
-29512.6
-29506.9
-29502.9
-29500.7
-29465.4
-29491.9
-29512.2
-29526.8
-29536.2
-29541
-29542.2
-29540.7
-29537
-29532.1
-29526.9
-29521.9
-29517.7
-29514.6
-29512.9
-29455.5
-29482.4
-29503.6
-29519.5
-29530.4
-29537.1
-29540.3
-29540.8
-29539.1
-29536.2
-29532.7
-29529.2
-29526.2
-29523.9
-29522.7
-29448
-29475.3
-29497.1
-29513.9
-29526
-29534
-29538.7
-29540.8
-29540.7
-29539.2
-29537.1
-29534.8
-29532.7
-29531.1
-29530.1
-29442.8
-29470.3
-29492.5
-29509.9
-29522.8
-29531.7
-29537.5
-29540.6
-29541.7
-29541.3
-29540.2
-29538.8
-29537.4
-29536.2
-29535.6
-29439.7
-29467.3
-29489.7
-29507.4
-29520.7
-29530.2
-29536.5
-29540.4
-29542.2
-29542.5