/*--------------------------------*- C++ -*----------------------------------*\
| =========                 |                                                 |
| \\      /  F ield         | OpenFOAM: The Open Source CFD Toolbox           |
|  \\    /   O peration     | Version:  5.x                                   |
|   \\  /    A nd           | Web:      www.OpenFOAM.org                      |
|    \\/     M anipulation  |                                                 |
\*---------------------------------------------------------------------------*/
FoamFile
{
    version     2.0;
    format      ascii;
    class       volScalarField;
    location    "1";
    object      T;
}
// * * * * * * * * * * * * * * * * * * * * * * * * * * * * * * * * * * * * * //

dimensions      [0 0 0 1 0 0 0];

internalField   nonuniform List<scalar> 
6300
(
94.9207
264.525
433.416
601.114
767.133
930.981
1092.16
1250.16
1404.47
1554.6
1700.04
1840.32
1975.01
2103.72
2226.13
95.1519
265.22
434.578
602.749
769.249
933.585
1095.26
1253.75
1408.56
1559.17
1705.07
1845.78
1980.85
2109.87
2232.52
95.6129
266.606
436.897
606.014
773.475
938.789
1101.45
1260.95
1416.75
1568.34
1715.17
1856.75
1992.59
2122.25
2245.38
96.301
268.674
440.359
610.891
779.793
946.576
1110.73
1271.74
1429.06
1582.14
1730.41
1873.33
2010.36
2141.02
2264.9
97.2114
271.412
444.945
617.354
788.175
956.92
1123.08
1286.14
1445.51
1600.63
1750.88
1895.66
2034.36
2166.42
2291.35
98.3374
274.8
450.621
625.364
798.575
969.778
1138.47
1304.11
1466.12
1623.87
1776.71
1923.93
2064.85
2198.78
2325.14
99.6697
278.809
457.344
634.861
810.925
985.079
1156.83
1325.62
1490.87
1651.91
1808.01
1958.38
2102.18
2238.57
2366.8
101.196
283.403
465.054
645.764
825.13
1002.72
1178.05
1350.59
1519.73
1684.78
1844.92
1999.25
2146.75
2286.36
2417.05
102.899
288.534
473.671
657.967
841.055
1022.54
1201.98
1378.85
1552.57
1722.42
1887.52
2046.81
2199.07
2342.89
2476.87
104.761
294.142
483.097
671.329
858.525
1044.34
1228.38
1410.18
1589.18
1764.68
1935.77
2101.27
2259.66
2409.11
2547.56
106.757
300.156
493.211
685.682
877.316
1067.84
1256.92
1444.2
1629.18
1811.24
1989.49
2162.68
2329.04
2486.14
2630.93
108.86
306.494
503.873
700.822
897.16
1092.69
1287.19
1480.41
1671.99
1861.47
2048.11
2230.76
2407.51
2575.3
2729.55
111.04
313.067
514.931
716.525
917.747
1118.49
1318.66
1518.14
1716.79
1914.4
2110.58
2304.58
2494.77
2677.82
2847.18
113.268
319.78
526.221
732.551
938.744
1144.79
1350.72
1556.59
1762.5
1968.61
2175.1
2382.04
2589
2793.83
2989.17
115.513
326.543
537.585
748.661
959.818
1171.14
1382.75
1594.88
1807.89
2022.31
2239
2459.29
2685.18
2919.14
3160.88
2332.33
2424.23
2511.44
2593.96
2671.82
2745.13
2813.99
2878.57
2939.04
2995.62
3048.51
3097.95
3144.17
3187.4
3227.87
3265.82
3301.47
3335.04
3366.71
3396.7
3425.19
3452.34
3478.32
3503.28
3527.33
3550.61
3573.22
3595.24
3616.75
3637.8
3658.45
3678.72
3698.65
3718.23
3737.48
3756.38
3774.95
3793.15
3810.97
3828.4
3845.41
3861.97
3878.04
3893.6
3908.6
3923.02
3936.81
3949.95
3962.39
3974.1
3985.05
3995.21
4004.52
4012.95
4020.46
4026.99
4032.5
4036.9
4040.16
4042.18
4042.89
4042.22
4040.08
4036.36
4030.97
4023.78
4014.68
4003.52
3990.16
3974.42
3956.14
3935.11
3911.13
3883.98
3853.45
3819.27
3781.22
3739.03
3692.44
3641.18
3585
3523.64
3456.86
3384.43
3306.15
3221.85
3131.42
3034.77
2931.88
2822.77
2338.86
2430.82
2518.02
2600.46
2678.2
2751.32
2819.96
2884.27
2944.45
3000.71
3053.27
3102.37
3148.24
3191.13
3231.28
3268.9
3304.24
3337.51
3368.9
3398.63
3426.86
3453.78
3479.55
3504.31
3528.2
3551.33
3573.8
3595.71
3617.14
3638.12
3658.72
3678.97
3698.87
3718.44
3737.69
3756.61
3775.19
3793.41
3811.27
3828.73
3845.78
3862.38
3878.5
3894.11
3909.16
3923.63
3937.48
3950.66
3963.15
3974.91
3985.91
3996.12
4005.49
4013.99
4021.57
4028.19
4033.77
4038.28
4041.63
4043.76
4044.6
4044.05
4042.05
4038.48
4033.25
4026.25
4017.35
4006.41
3993.28
3977.8
3959.8
3939.06
3915.4
3888.59
3858.4
3824.59
3786.9
3745.09
3698.88
3648.01
3592.2
3531.2
3464.74
3392.61
3314.57
3230.46
3140.15
3043.54
2940.61
2831.38
2352
2444.08
2531.27
2613.57
2691.04
2763.78
2831.95
2895.71
2955.29
3010.9
3062.79
3111.2
3156.39
3198.6
3238.07
3275.05
3309.76
3342.43
3373.26
3402.45
3430.18
3456.64
3481.98
3506.36
3529.9
3552.73
3574.94
3596.64
3617.89
3638.75
3659.25
3679.43
3699.3
3718.86
3738.12
3757.06
3775.67
3793.94
3811.86
3829.39
3846.52
3863.2
3879.42
3895.13
3910.29
3924.86
3938.8
3952.09
3964.67
3976.53
3987.63
3997.94
4007.44
4016.06
4023.79
4030.56
4036.32
4041.01
4044.57
4046.92
4047.99
4047.7
4045.97
4042.7
4037.8
4031.16
4022.66
4012.15
3999.51
3984.55
3967.09
3946.96
3923.93
3897.78
3868.29
3835.2
3798.26
3757.22
3711.78
3661.68
3606.63
3546.35
3480.57
3409.03
3331.5
3247.78
3157.71
3061.2
2958.19
2848.72
2371.95
2464.21
2551.37
2633.44
2710.48
2782.64
2850.07
2912.99
2971.63
3026.25
3077.1
3124.46
3168.6
3209.77
3248.23
3284.22
3317.99
3349.75
3379.73
3408.11
3435.1
3460.86
3485.56
3509.35
3532.37
3554.75
3576.58
3597.95
3618.95
3639.61
3659.98
3680.07
3699.9
3719.45
3738.72
3757.7
3776.37
3794.71
3812.71
3830.35
3847.6
3864.43
3880.8
3896.66
3911.98
3926.71
3940.8
3954.22
3966.95
3978.95
3990.19
4000.66
4010.32
4019.14
4027.08
4034.09
4040.12
4045.09
4048.95
4051.63
4053.04
4053.13
4051.8
4048.97
4044.56
4038.46
4030.55
4020.7
4008.76
3994.58
3977.97
3958.73
3936.65
3911.51
3883.06
3851.07
3815.27
3775.38
3731.13
3682.21
3628.32
3569.17
3504.44
3433.84
3357.11
3274
3184.34
3087.98
2984.87
2875.03
2399
2491.52
2578.62
2660.34
2736.78
2808.09
2874.48
2936.21
2993.55
3046.79
3096.22
3142.14
3184.85
3224.61
3261.7
3296.37
3328.86
3359.42
3388.24
3415.55
3441.52
3466.34
3490.19
3513.2
3535.53
3557.29
3578.61
3599.56
3620.22
3640.64
3660.84
3680.84
3700.62
3720.18
3739.48
3758.51
3777.26
3795.7
3813.81
3831.59
3849.01
3866.03
3882.61
3898.69
3914.23
3929.17
3943.47
3957.08
3969.98
3982.16
3993.58
4004.25
4014.13
4023.2
4031.42
4038.75
4045.13
4050.48
4054.74
4057.84
4059.72
4060.29
4059.49
4057.24
4053.46
4048.06
4040.93
4031.95
4020.97
4007.82
3992.33
3974.29
3953.49
3929.7
3902.67
3872.15
3837.88
3799.57
3756.92
3709.62
3657.34
3599.75
3536.49
3467.23
3391.65
3309.44
3220.37
3124.27
3021.03
2910.68
2433.59
2526.43
2613.44
2694.67
2770.26
2840.41
2905.4
2965.54
3021.15
3072.58
3120.17
3164.23
3205.1
3243.06
3278.41
3311.4
3342.3
3371.32
3398.71
3424.65
3449.35
3473
3495.75
3517.78
3539.23
3560.23
3580.89
3601.32
3621.58
3641.71
3661.73
3681.64
3701.41
3721
3740.36
3759.47
3778.31
3796.86
3815.12
3833.08
3850.71
3867.99
3884.85
3901.23
3917.06
3932.28
3946.83
3960.67
3973.78
3986.15
3997.77
4008.66
4018.8
4028.18
4036.76
4044.49
4051.31
4057.14
4061.91
4065.54
4067.97
4069.13
4068.96
4067.41
4064.4
4059.86
4053.69
4045.78
4035.99
4024.15
4010.07
3993.55
3974.36
3952.26
3927.01
3898.36
3866.02
3829.72
3789.13
3743.93
3693.75
3638.22
3576.94
3509.49
3435.47
3354.51
3266.3
3170.59
3067.23
2956.22
2476.31
2569.54
2656.4
2736.94
2811.37
2879.97
2943.11
3001.17
3054.57
3103.7
3148.95
3190.71
3229.3
3265.05
3298.27
3329.22
3358.17
3385.36
3410.99
3435.3
3458.46
3480.68
3502.11
3522.94
3543.32
3563.39
3583.27
3603.06
3622.85
3642.67
3662.53
3682.39
3702.19
3721.86
3741.33
3760.55
3779.5
3798.18
3816.59
3834.76
3852.65
3870.25
3887.49
3904.27
3920.49
3936.07
3950.92
3965.02
3978.34
3990.91
4002.74
4013.86
4024.28
4034.01
4043.02
4051.24
4058.61
4065.03
4070.41
4074.67
4077.74
4079.58
4080.13
4079.37
4077.25
4073.7
4068.67
4062.03
4053.67
4043.4
4031.04
4016.35
3999.11
3979.07
3955.98
3929.58
3899.6
3865.75
3827.71
3785.13
3737.61
3684.72
3626
3560.94
3489.04
3409.8
3322.8
3227.68
3124.23
3012.41
2527.93
2621.66
2708.25
2787.81
2860.66
2927.19
2987.91
3043.31
3093.9
3140.17
3182.56
3221.5
3257.35
3290.47
3321.15
3349.7
3376.35
3401.37
3424.96
3447.33
3468.69
3489.22
3509.1
3528.51
3547.61
3566.56
3585.5
3604.56
3623.82
3643.32
3663.05
3682.95
3702.89
3722.74
3742.38
3761.75
3780.81
3799.59
3818.15
3836.53
3854.74
3872.76
3890.5
3907.82
3924.57
3940.6
3955.82
3970.19
3983.71
3996.44
4008.43
4019.76
4030.47
4040.59
4050.1
4058.93
4066.98
4074.12
4080.23
4085.21
4089
4091.58
4092.91
4093
4091.84
4089.4
4085.64
4080.48
4073.78
4065.38
4055.05
4042.55
4027.61
4009.99
3989.42
3965.67
3938.47
3907.53
3872.55
3833.16
3788.92
3739.37
3683.93
3621.99
3552.91
3476.03
3390.74
3296.54
3193.08
3080.25
2589.56
2683.88
2770.01
2848.16
2918.82
2982.59
3040.15
3092.15
3139.24
3181.99
3220.92
3256.5
3289.11
3319.14
3346.88
3372.64
3396.66
3419.18
3440.42
3460.59
3479.86
3498.45
3516.52
3534.26
3551.85
3569.48
3587.31
3605.5
3624.17
3643.37
3663.08
3683.18
3703.46
3723.66
3743.57
3763.1
3782.24
3801.06
3819.7
3838.26
3856.83
3875.39
3893.83
3911.92
3929.39
3946.02
3961.66
3976.28
3989.94
4002.73
4014.79
4026.25
4037.22
4047.76
4057.87
4067.45
4076.36
4084.39
4091.37
4097.16
4101.73
4105.06
4107.18
4108.13
4107.96
4106.7
4104.34
4100.83
4096.06
4089.84
4081.9
4071.95
4059.69
4044.84
4027.16
4006.43
3982.42
3954.86
3923.47
3887.87
3847.63
3802.2
3750.94
3693.07
3627.75
3554.11
3471.27
3378.48
3275.18
3161.14
2662.69
2757.72
2843.04
2919.11
2986.69
3046.73
3100.15
3147.85
3190.6
3229.09
3263.89
3295.51
3324.37
3350.84
3375.24
3397.83
3418.88
3438.6
3457.19
3474.86
3491.79
3508.16
3524.15
3539.97
3555.8
3571.85
3588.35
3605.5
3623.48
3642.41
3662.29
3682.9
3703.87
3724.71
3745.05
3764.74
3783.84
3802.53
3821.07
3839.71
3858.65
3877.92
3897.37
3916.61
3935.14
3952.56
3968.67
3983.48
3997.11
4009.77
4021.71
4033.14
4044.28
4055.25
4066.08
4076.65
4086.7
4095.88
4103.9
4110.59
4115.93
4119.98
4122.82
4124.58
4125.36
4125.28
4124.4
4122.71
4120.13
4116.46
4111.35
4104.39
4095.19
4083.47
4069.01
4051.63
4031.17
4007.43
3980.15
3948.99
3913.53
3873.18
3827.18
3774.6
3714.33
3645.17
3565.89
3475.32
3372.52
3257.02
2749.5
2845.33
2929.2
3002.05
3065.22
3120.16
3168.19
3210.44
3247.87
3281.25
3311.21
3338.26
3362.84
3385.3
3405.94
3425.02
3442.76
3459.38
3475.05
3489.95
3504.26
3518.15
3531.8
3545.39
3559.16
3573.33
3588.19
3604.03
3621.17
3639.85
3660.15
3681.84
3704.2
3726.2
3747.18
3766.97
3785.75
3803.93
3822
3840.46
3859.7
3879.91
3900.92
3922.03
3942.19
3960.68
3977.27
3992.07
4005.38
4017.58
4029.05
4040.17
4051.28
4062.63
4074.36
4086.31
4098.01
4108.75
4118.03
4125.67
4131.71
4136.33
4139.72
4142.12
4143.72
4144.73
4145.3
4145.56
4145.48
4144.84
4143.16
4139.74
4134.03
4125.75
4114.75
4100.98
4084.36
4064.8
4042.11
4016.04
3986.19
3951.99
3912.62
3866.92
3813.44
3750.55
3676.5
3589.5
3487.92
3370.7
2853.34
2949.94
3031.04
3098.71
3155.4
3203.33
3244.31
3279.75
3310.74
3338.1
3362.47
3384.34
3404.13
3422.14
3438.65
3453.88
3468.03
3481.27
3493.76
3505.65
3517.09
3528.24
3539.26
3550.33
3561.67
3573.57
3586.35
3600.45
3616.37
3634.67
3655.77
3679.55
3704.76
3728.9
3750.78
3770.36
3788.25
3805.22
3822.12
3839.8
3859.06
3880.48
3904.05
3928.53
3951.36
3971.26
3988.15
4002.5
4014.95
4026.12
4036.59
4046.91
4057.61
4069.19
4082.01
4096.02
4110.39
4123.42
4134.23
4142.74
4149.25
4154.13
4157.76
4160.49
4162.63
4164.49
4166.38
4168.59
4171.32
4174.44
4177.19
4178.07
4176.28
4171.63
4164.19
4154.11
4141.49
4126.36
4108.65
4088.23
4064.82
4037.97
4006.87
3970.17
3925.83
3871.71
3805.49
3724.43
3625.59
3506.5
2979.92
3076.65
3152
3210.96
3257.96
3296.26
3328.16
3355.24
3378.6
3399.02
3417.07
3433.19
3447.71
3460.89
3472.94
3484.05
3494.35
3503.99
3513.08
3521.75
3530.1
3538.27
3546.38
3554.6
3563.14
3572.27
3582.37
3593.98
3607.89
3625.21
3647.26
3674.94
3706.59
3734.61
3757.39
3775.94
3791.79
3806.32
3820.83
3836.58
3855.01
3877.67
3905.58
3937.11
3964.43
3985.88
4002.39
4015.38
4026.06
4035.36
4044.05
4052.81
4062.39
4073.66
4087.62
4104.91
4124.42
4140.96
4153.43
4162.41
4168.82
4173.42
4176.81
4179.42
4181.66
4183.91
4186.68
4190.56
4196.28
4204.28
4213.59
4219.95
4222.36
4221.21
4217.13
4210.6
4201.94
4191.32
4178.81
4164.41
4148.11
4129.76
4108.91
4084.15
4052.01
4010.03
3955.54
3884.71
3792.16
3671.77
3140.78
3233.9
3296.35
3340.22
3372.8
3398.18
3418.73
3435.85
3450.44
3463.09
3474.21
3484.1
3492.98
3501.02
3508.36
3515.12
3521.38
3527.24
3532.76
3538.04
3543.13
3548.11
3553.09
3558.17
3563.51
3569.32
3575.94
3583.92
3594.25
3608.68
3630.39
3664.34
3713.39
3747.58
3769.82
3785.16
3796.93
3807.2
3817.46
3829.23
3844.6
3867.01
3901.63
3951.45
3985.69
4007.29
4021.39
4031.28
4038.84
4045.19
4051.09
4057.21
4064.4
4073.97
4088.14
4110.29
4142.4
4164.1
4177.33
4185.47
4190.68
4194.18
4196.66
4198.6
4200.34
4202.3
4205.06
4209.6
4217.66
4231.93
4253.93
4267.2
4273.24
4274.7
4273.28
4269.86
4264.92
4258.7
4251.36
4243.05
4234.04
4224.83
4216.29
4208.44
4192.04
4166.07
4128.85
4075.96
3998.56
3881.34
3365.79
3435.11
3467.19
3485.51
3497.75
3506.82
3513.98
3519.86
3524.83
3529.12
3532.88
3536.22
3539.21
3541.91
3544.37
3546.64
3548.74
3550.71
3552.56
3554.33
3556.04
3557.72
3559.4
3561.12
3562.94
3564.95
3567.29
3570.25
3574.43
3581.4
3595.64
3631.73
3741.31
3777.49
3791.93
3799.23
3803.96
3807.81
3811.66
3816.41
3823.78
3838.47
3875.49
3987.93
4024.82
4039.22
4046.14
4050.22
4053.07
4055.36
4057.49
4059.76
4062.69
4067.35
4076.83
4101.05
4175.05
4199.11
4208.28
4212.46
4214.7
4216.08
4217.01
4217.74
4218.41
4219.24
4220.57
4223.27
4229.79
4248.12
4306.55
4324.55
4330.39
4332.05
4331.98
4330.99
4329.41
4327.38
4325
4322.4
4319.92
4318.65
4322.37
4344.72
4345.56
4338.02
4324.41
4302.22
4261.99
4173.63
2696.03
2549.18
2394.12
2231.31
2061.28
1884.63
1701.99
1514.02
1321.39
1124.75
924.751
722.036
517.224
310.926
103.74
2704.42
2557.22
2401.71
2238.37
2067.75
1890.48
1707.2
1518.58
1325.3
1128.02
927.405
724.081
518.674
311.792
104.028
2721.3
2573.38
2416.95
2252.54
2080.74
1902.2
1717.63
1527.7
1333.12
1134.56
932.699
728.159
521.564
313.516
104.601
2746.9
2597.86
2440.01
2273.94
2100.31
1919.84
1733.28
1541.36
1344.81
1144.34
940.6
734.24
525.871
316.085
105.455
2781.58
2630.97
2471.13
2302.74
2126.57
1943.44
1754.16
1559.54
1360.35
1157.29
951.056
742.278
531.56
319.476
106.582
2825.82
2673.11
2510.61
2339.14
2159.64
1973.03
1780.26
1582.19
1379.64
1173.34
963.988
752.205
538.577
323.656
107.97
2880.33
2724.86
2558.88
2383.43
2199.65
2008.66
1811.53
1609.22
1402.57
1192.37
979.281
763.922
546.849
328.58
109.605
2946
2786.94
2616.43
2435.87
2246.71
2050.3
1847.86
1640.45
1428.97
1214.19
996.776
777.299
556.279
334.188
111.465
3024.07
2860.26
2683.84
2496.75
2300.85
2097.82
1889.04
1675.65
1458.57
1238.57
1016.26
792.164
566.742
340.404
113.527
3116.19
2945.98
2761.74
2566.25
2361.97
2150.93
1934.68
1714.4
1491
1265.17
1037.46
808.3
578.082
347.134
115.758
3224.67
3045.51
2850.71
2644.35
2429.7
2209.1
1984.21
1756.16
1525.76
1293.57
1060.02
825.44
590.111
354.267
118.122
3352.79
3160.45
2951.02
2730.57
2503.18
2271.4
2036.75
1800.16
1562.19
1323.23
1083.53
843.274
602.614
361.676
120.576
3505.3
3292.28
3062.13
2823.52
2580.89
2336.42
2091.1
1845.4
1599.52
1353.55
1107.52
861.453
615.351
369.222
123.076
3688.99
3440.98
3181.49
2920.27
2660.27
2402.11
2145.68
1890.68
1636.82
1383.82
1131.48
879.606
628.072
376.759
125.573
3910.58
3600.91
3302.35
3015.6
2737.62
2465.9
2198.67
1934.7
1673.14
1413.35
1154.88
897.362
640.526
384.143
128.02
117.562
332.709
547.935
763.308
978.925
1194.93
1411.54
1629.09
1848.08
2069.31
2294.13
2524.82
2765.78
3026.69
3334.74
119.401
338.245
557.215
776.415
995.977
1216.09
1437
1659.1
1882.96
2109.46
2340.05
2577.15
2825.04
3091.57
3390.38
121.208
343.676
566.309
789.231
1012.6
1236.62
1461.56
1687.81
1915.91
2146.67
2381.34
2621.85
2871.23
3133.88
3414.45
122.972
348.978
575.173
801.699
1028.72
1256.45
1485.14
1715.14
1946.91
2181.06
2418.44
2660.25
2908.05
3163.59
3427.7
124.688
354.131
583.779
813.781
1044.31
1275.55
1507.75
1741.17
1976.16
2213.09
2452.36
2694.37
2939.35
3187.18
3437.11
126.351
359.124
592.11
825.46
1059.34
1293.92
1529.42
1766.03
2003.96
2243.37
2484.26
2726.3
2968.54
3209.16
3445.91
127.96
363.951
600.159
836.731
1073.83
1311.61
1550.24
1789.88
2030.65
2272.52
2515.24
2757.95
2998.69
3233.66
3457.17
129.513
368.611
607.924
847.598
1087.78
1328.63
1570.28
1812.87
2056.45
2300.98
2546.09
2790.82
3032.72
3265.95
3477.31
131.011
373.104
615.409
858.069
1101.23
1345.02
1589.6
1835.07
2081.51
2328.91
2577.09
2825.51
3072.62
3313.28
3525.88
132.454
377.432
622.617
868.151
1114.17
1360.81
1608.22
1856.51
2105.79
2356.17
2607.8
2860.98
3116.84
3379.92
3671.18
133.843
381.596
629.554
877.852
1126.63
1376.01
1626.14
1877.16
2129.2
2382.46
2637.29
2894.44
3155.9
3426.82
3719.65
135.178
385.6
636.222
887.178
1138.6
1390.62
1643.38
1897
2151.66
2407.55
2665.03
2924.77
3188.23
3458.33
3739.65
136.46
389.446
642.628
896.136
1150.1
1404.65
1659.92
1916.04
2173.16
2431.43
2691.06
2952.37
3215.8
3481.89
3750.97
137.691
393.137
648.775
904.733
1161.14
1418.12
1675.79
1934.3
2193.74
2454.23
2715.8
2978.36
3241.35
3503.21
3760.83
138.871
396.675
654.668
912.974
1171.72
1431.02
1691.01
1951.8
2213.49
2476.15
2739.73
3003.91
3267.52
3527.29
3774.99
140
400.063
660.311
920.866
1181.85
1443.38
1705.59
1968.58
2232.46
2497.3
2763.11
3029.69
3296.21
3559.57
3806.22
141.081
403.303
665.707
928.413
1191.54
1455.21
1719.54
1984.65
2250.65
2517.66
2785.82
3055.36
3326.94
3603.27
3897.16
142.113
406.398
670.861
935.621
1200.79
1466.5
1732.86
1999.99
2268.03
2537.1
2807.44
3079.45
3354.21
3634.61
3928.08
143.097
409.35
675.777
942.495
1209.62
1477.27
1745.56
2014.62
2284.56
2555.55
2827.75
3101.5
3377.39
3656.71
3941.61
144.034
412.16
680.456
949.038
1218.02
1487.51
1757.64
2028.52
2300.27
2573.01
2846.86
3121.89
3398.03
3674.75
3950.61
144.925
414.831
684.904
955.257
1226
1497.25
1769.11
2041.72
2315.17
2589.58
2865.01
3141.37
3418.1
3693.22
3961.29
145.77
417.365
689.124
961.156
1233.57
1506.48
1779.99
2054.22
2329.29
2605.31
2882.36
3160.44
3439.12
3716.41
3983.07
146.571
419.766
693.12
966.741
1240.73
1515.21
1790.27
2066.04
2342.64
2620.19
2898.87
3178.93
3460.93
3746.81
4045.21
147.327
422.034
696.897
972.018
1247.5
1523.45
1799.98
2077.19
2355.2
2634.16
2914.27
3195.9
3479.89
3768.33
4066.29
148.041
424.174
700.459
976.994
1253.88
1531.22
1809.11
2087.67
2366.99
2647.2
2928.47
3211.08
3495.58
3783.05
4075.24
148.713
426.189
703.811
981.676
1259.88
1538.52
1817.7
2097.51
2378.03
2659.37
2941.59
3224.79
3509.02
3794.3
4080.53
149.344
428.08
706.958
986.072
1265.52
1545.38
1825.76
2106.74
2388.4
2670.78
2953.89
3237.62
3521.54
3804.71
4085.35
149.935
429.851
709.905
990.188
1270.79
1551.8
1833.31
2115.4
2398.13
2681.55
2965.62
3250.13
3534.42
3816.67
4092.5
150.487
431.504
712.656
994.031
1275.72
1557.8
1840.36
2123.5
2407.27
2691.73
2976.89
3262.64
3548.53
3832.89
4108.56
151
433.044
715.217
997.607
1280.3
1563.38
1846.93
2131.04
2415.8
2701.28
2987.59
3274.88
3563.53
3854.95
4155.76
151.476
434.471
717.591
1000.92
1284.55
1568.55
1853.01
2138.03
2423.7
2710.12
2997.46
3286.01
3576.41
3870.28
4171.49
151.916
435.789
719.783
1003.98
1288.46
1573.31
1858.62
2144.46
2430.95
2718.19
3006.34
3295.68
3586.69
3880.31
4177.89
152.32
437
721.797
1006.79
1292.06
1577.68
1863.75
2150.34
2437.55
2725.47
3014.24
3304
3594.98
3887.39
4181.3
152.69
438.107
723.638
1009.36
1295.34
1581.67
1868.42
2155.68
2443.52
2732.03
3021.29
3311.32
3602.07
3893.21
4183.94
153.026
439.114
725.31
1011.69
1298.32
1585.28
1872.64
2160.49
2448.9
2737.94
3027.64
3317.97
3608.71
3899.11
4187.24
153.33
440.023
726.82
1013.79
1301
1588.52
1876.44
2164.81
2453.72
2743.23
3033.39
3324.17
3615.41
3906.37
4194.01
153.602
440.839
728.173
1015.67
1303.4
1591.42
1879.81
2168.65
2458
2747.94
3038.54
3329.88
3622.11
3915.73
4213.3
153.845
441.565
729.376
1017.34
1305.52
1593.98
1882.79
2172.02
2461.75
2752.05
3043.03
3334.82
3627.65
3922.15
4219.75
154.059
442.206
730.437
1018.81
1307.38
1596.21
1885.37
2174.93
2464.97
2755.56
3046.81
3338.84
3631.87
3926.21
4222.33
154.247
442.767
731.363
1020.09
1308.99
1598.14
1887.58
2177.41
2467.68
2758.47
3049.89
3342.02
3634.98
3928.85
4223.61
154.41
443.254
732.164
1021.19
1310.37
1599.77
1889.44
2179.46
2469.89
2760.81
3052.31
3344.46
3637.27
3930.68
4224.41
154.551
443.672
732.849
1022.12
1311.53
1601.13
1890.97
2181.11
2471.64
2762.62
3054.14
3346.26
3638.97
3932.1
4225.14
154.672
444.03
733.432
1022.91
1312.5
1602.24
1892.19
2182.4
2472.95
2763.92
3055.4
3347.49
3640.2
3933.38
4226.34
154.775
444.335
733.925
1023.57
1313.29
1603.13
1893.13
2183.34
2473.84
2764.71
3056.09
3348.11
3640.91
3934.64
4229.6
154.864
444.596
734.345
1024.12
1313.94
1603.83
1893.83
2183.97
2474.34
2765.03
3056.19
3348.03
3640.81
3934.84
4230.35
154.942
444.825
734.708
1024.59
1314.48
1604.38
1894.33
2184.34
2474.49
2764.88
3055.67
3347.13
3639.66
3933.81
4229.99
155.013
445.033
735.034
1025.01
1314.94
1604.83
1894.68
2184.51
2474.36
2764.31
3054.53
3345.31
3637.21
3931.19
4228.48
155.081
445.231
735.344
1025.4
1315.36
1605.22
1894.95
2184.55
2474.03
2763.42
3052.84
3342.55
3633.15
3926.07
4224.49
155.15
445.433
735.66
1025.79
1315.79
1605.62
1895.22
2184.58
2473.63
2762.37
3050.8
3339
3627.3
3916.94
4213.28
155.225
445.652
736.005
1026.23
1316.28
1606.08
1895.58
2184.69
2473.34
2761.4
3048.76
3335.2
3620.34
3902.96
4177.82
155.31
445.901
736.401
1026.75
1316.87
1606.68
1896.11
2185.03
2473.32
2760.79
3047.2
3332.15
3614.96
3894.17
4166.74
155.408
446.19
736.867
1027.36
1317.6
1607.48
1896.89
2185.7
2473.74
2760.77
3046.49
3330.43
3611.88
3889.81
4163.05
155.523
446.53
737.421
1028.11
1318.51
1608.51
1897.99
2186.79
2474.73
2761.53
3046.87
3330.27
3611.07
3888.5
4162.08
155.656
446.929
738.077
1029.01
1319.64
1609.83
1899.47
2188.38
2476.37
2763.17
3048.45
3331.74
3612.42
3889.67
4162.75
155.811
447.392
738.845
1030.08
1320.99
1611.46
1901.35
2190.5
2478.71
2765.73
3051.24
3334.85
3615.96
3893.54
4165.61
155.988
447.921
739.728
1031.31
1322.58
1613.4
1903.66
2193.17
2481.76
2769.19
3055.21
3339.53
3621.76
3901.05
4173.93
156.186
448.517
740.726
1032.72
1324.41
1615.67
1906.37
2196.37
2485.48
2773.49
3060.21
3345.49
3629.4
3912.82
4199.84
156.405
449.177
741.834
1034.29
1326.46
1618.24
1909.49
2200.08
2489.83
2778.54
3066.05
3352.22
3637.21
3921.89
4208.78
156.642
449.894
743.043
1036.02
1328.73
1621.09
1912.97
2204.26
2494.77
2784.3
3072.65
3359.6
3645.04
3929.22
4213.06
156.896
450.659
744.337
1037.87
1331.17
1624.18
1916.78
2208.86
2500.25
2790.75
3080.08
3367.85
3653.55
3936.57
4216.51
157.161
451.462
745.697
1039.82
1333.76
1627.47
1920.86
2213.83
2506.23
2797.86
3088.42
3377.37
3663.75
3945.85
4221.24
157.435
452.29
747.101
1041.83
1336.45
1630.9
1925.14
2219.07
2512.61
2805.58
3097.72
3388.5
3676.72
3959.59
4230.62
157.711
453.126
748.522
1043.88
1339.18
1634.41
1929.52
2224.49
2519.25
2813.74
3107.82
3401.22
3693.23
3981.34
4254.66
157.984
453.955
749.931
1045.91
1341.91
1637.91
1933.91
2229.93
2525.97
2822.04
3118.23
3414.74
3712.24
4013.17
4328.35
158.249
454.757
751.298
1047.89
1344.56
1641.32
1938.21
2235.25
2532.52
2830.12
3128.25
3427.41
3728.7
4034.89
4352.38
158.499
455.516
752.592
1049.76
1347.07
1644.57
1942.29
2240.31
2538.73
2837.68
3137.41
3438.41
3741.57
4048.55
4361.73
158.728
456.213
753.781
1051.49
1349.4
1647.57
1946.07
2244.99
2544.44
2844.55
3145.54
3447.74
3751.61
4057.72
4366.4
158.931
456.829
754.837
1053.03
1351.48
1650.26
1949.47
2249.2
2549.56
2850.67
3152.69
3455.75
3759.91
4064.88
4369.76
159.101
457.349
755.73
1054.34
1353.26
1652.58
1952.42
2252.86
2554.03
2856.02
3158.95
3462.83
3767.45
4071.92
4373.84
159.233
457.753
756.432
1055.37
1354.69
1654.47
1954.85
2255.92
2557.79
2860.59
3164.39
3469.23
3774.92
4080.54
4382.23
159.322
458.027
756.915
1056.11
1355.72
1655.88
1956.7
2258.3
2560.8
2864.32
3168.97
3474.88
3782.24
4091.7
4406.44
159.361
458.152
757.151
1056.49
1356.31
1656.74
1957.92
2259.96
2562.99
2867.13
3172.53
3479.35
3787.93
4098.99
4414.32
159.345
458.113
757.114
1056.5
1356.42
1657.02
1958.44
2260.82
2564.28
2868.94
3174.94
3482.45
3791.71
4103.14
4417.24
159.268
457.892
756.774
1056.09
1355.99
1656.65
1958.21
2260.82
2564.61
2869.69
3176.17
3484.17
3793.82
4105.25
4418.4
159.125
457.47
756.103
1055.21
1354.98
1655.57
1957.17
2259.91
2563.93
2869.32
3176.19
3484.58
3794.52
4105.98
4418.74
158.907
456.828
755.067
1053.83
1353.32
1653.73
1955.24
2258.01
2562.17
2867.81
3175.01
3483.75
3793.99
4105.62
4418.49
158.61
455.946
753.632
1051.9
1350.96
1651.05
1952.35
2255.04
2559.26
2865.1
3172.61
3481.73
3792.33
4104.21
4417.36
158.224
454.8
751.761
1049.36
1347.84
1647.45
1948.4
2250.9
2555.1
2861.11
3168.95
3478.52
3789.61
4101.74
4413.99
157.743
453.368
749.415
1046.16
1343.88
1642.84
1943.3
2245.48
2549.58
2855.72
3163.93
3474.11
3785.98
4099.02
4412.39
157.157
451.625
746.549
1042.24
1338.99
1637.12
1936.9
2238.63
2542.53
2848.77
3157.41
3468.38
3781.38
4095.89
4411.13
156.46
449.544
743.122
1037.53
1333.09
1630.17
1929.08
2230.18
2533.74
2840.02
3149.14
3461.08
3775.58
4092.08
4409.76
155.642
447.101
739.088
1031.96
1326.09
1621.86
1919.67
2219.9
2522.96
2829.17
3138.78
3451.85
3768.21
4087.27
4408.08
154.696
444.273
734.406
1025.48
1317.89
1612.07
1908.48
2207.58
2509.87
2815.83
3125.86
3440.2
3758.79
4081.09
4405.91
153.616
441.039
729.039
1018.02
1308.41
1600.67
1895.33
2192.95
2494.14
2799.55
3109.82
3425.45
3746.64
4072.96
4403.03
152.397
437.385
722.96
1009.54
1297.56
1587.54
1880.05
2175.73
2475.35
2779.77
3089.92
3406.7
3730.77
4062.07
4399.08
151.038
433.304
716.154
1000
1285.31
1572.59
1862.47
2155.69
2453.13
2755.89
3065.27
3382.74
3709.73
4047.02
4393.43
149.539
428.801
708.624
989.411
1271.62
1555.77
1842.5
2132.62
2427.12
2727.3
3034.87
3352.02
3681.37
4025.46
4384.73
147.907
423.89
700.393
977.793
1256.52
1537.08
1820.11
2106.41
2397.05
2693.46
2997.7
3312.67
3642.61
3993.2
4369.81
146.15
418.601
691.51
965.211
1240.09
1516.61
1795.36
2077.1
2362.86
2654.08
2952.93
3262.8
3589.36
3942.68
4340.03
144.284
412.976
682.045
951.769
1222.47
1494.54
1768.47
2044.92
2324.76
2609.28
2900.39
3201.19
3517.38
3861.43
4268.42
4134.25
3737.07
3402.11
3094.73
2802.61
2520.1
2244.11
1972.72
1704.69
1439.12
1175.37
912.957
651.487
390.65
130.177
4204.93
3817.47
3473.47
3155.92
2854.88
2564.72
2282.1
2004.87
1731.58
1461.22
1193.03
926.432
660.98
396.294
132.05
4234.36
3867.49
3526.3
3205.48
2899.44
2603.99
2316.24
2034.18
1756.36
1481.73
1209.51
939.069
669.908
401.612
133.816
4249.12
3899.49
3564.8
3244.63
2936.49
2637.78
2346.32
2060.43
1778.83
1500.51
1224.7
950.769
678.204
406.564
135.463
4257.76
3920.91
3593.02
3275.26
2966.86
2666.4
2372.42
2083.62
1798.93
1517.47
1238.52
961.475
685.823
411.124
136.98
4263.39
3935.91
3614.03
3299.23
2991.57
2690.39
2394.79
2103.85
1816.7
1532.63
1250.96
971.165
692.747
415.278
138.365
4267.34
3946.81
3629.94
3318.07
3011.62
2710.37
2413.82
2121.33
1832.26
1546.02
1262.05
979.849
698.977
419.025
139.615
4270.23
3954.98
3642.19
3332.99
3027.9
2726.95
2429.9
2136.33
1845.78
1557.77
1271.84
987.564
704.534
422.377
140.735
4272.41
3961.24
3651.76
3344.9
3041.16
2740.7
2443.44
2149.13
1857.44
1567.99
1280.43
994.364
709.452
425.35
141.73
4274.11
3966.13
3659.34
3354.46
3051.98
2752.09
2454.81
2160.01
1867.44
1576.84
1287.9
1000.32
713.773
427.969
142.607
4275.44
3970
3665.39
3362.2
3060.84
2761.54
2464.35
2169.22
1875.99
1584.46
1294.38
1005.5
717.546
430.261
143.376
4276.5
3973.1
3670.27
3368.49
3068.12
2769.37
2472.34
2177.01
1883.27
1590.98
1299.96
1009.98
720.821
432.255
144.045
4277.36
3975.6
3674.23
3373.63
3074.12
2775.89
2479.04
2183.58
1889.45
1596.56
1304.75
1013.84
723.652
433.982
144.626
4278.05
3977.63
3677.46
3377.85
3079.07
2781.3
2484.64
2189.11
1894.69
1601.31
1308.84
1017.16
726.088
435.47
145.126
4278.62
3979.29
3680.11
3381.33
3083.17
2785.81
2489.33
2193.77
1899.13
1605.34
1312.34
1019.99
728.175
436.747
145.556
4279.08
3980.66
3682.29
3384.2
3086.58
2789.56
2493.25
2197.69
1902.87
1608.76
1315.31
1022.41
729.958
437.84
145.924
4279.46
3981.78
3684.09
3386.57
3089.4
2792.69
2496.54
2200.98
1906.02
1611.65
1317.82
1024.46
731.477
438.772
146.238
4279.78
3982.71
3685.58
3388.54
3091.75
2795.3
2499.28
2203.73
1908.68
1614.09
1319.96
1026.2
732.766
439.563
146.505
4280.04
3983.47
3686.81
3390.18
3093.7
2797.48
2501.58
2206.05
1910.91
1616.15
1321.75
1027.68
733.858
440.234
146.731
4280.25
3984.11
3687.83
3391.53
3095.32
2799.29
2503.5
2207.98
1912.78
1617.88
1323.27
1028.92
734.779
440.801
146.922
4280.43
3984.63
3688.67
3392.65
3096.67
2800.8
2505.09
2209.6
1914.34
1619.32
1324.54
1029.96
735.553
441.278
147.083
4280.58
3985.07
3689.37
3393.58
3097.79
2802.05
2506.42
2210.94
1915.64
1620.53
1325.6
1030.83
736.202
441.678
147.218
4280.7
3985.42
3689.95
3394.35
3098.71
2803.08
2507.52
2212.06
1916.73
1621.53
1326.48
1031.56
736.743
442.011
147.331
4280.8
3985.71
3690.42
3394.98
3099.46
2803.93
2508.42
2212.98
1917.62
1622.36
1327.21
1032.16
737.191
442.287
147.424
4280.88
3985.95
3690.8
3395.49
3100.08
2804.62
2509.16
2213.72
1918.35
1623.04
1327.81
1032.65
737.558
442.513
147.501
4280.94
3986.14
3691.1
3395.9
3100.57
2805.17
2509.75
2214.33
1918.93
1623.59
1328.29
1033.05
737.855
442.696
147.563
4280.99
3986.29
3691.34
3396.22
3100.95
2805.61
2510.21
2214.8
1919.4
1624.02
1328.67
1033.37
738.09
442.842
147.612
4281.03
3986.4
3691.52
3396.46
3101.25
2805.94
2510.57
2215.16
1919.75
1624.35
1328.97
1033.61
738.27
442.953
147.649
4281.06
3986.48
3691.65
3396.63
3101.45
2806.17
2510.82
2215.42
1920
1624.59
1329.18
1033.78
738.402
443.035
147.677
4281.07
3986.52
3691.73
3396.73
3101.58
2806.31
2510.97
2215.58
1920.17
1624.74
1329.32
1033.9
738.489
443.088
147.695
4281.08
3986.54
3691.75
3396.77
3101.63
2806.37
2511.04
2215.66
1920.24
1624.81
1329.38
1033.96
738.533
443.116
147.705
4281.07
3986.53
3691.73
3396.74
3101.6
2806.35
2511.02
2215.64
1920.23
1624.81
1329.39
1033.96
738.538
443.12
147.706
4281.06
3986.48
3691.66
3396.65
3101.5
2806.24
2510.91
2215.54
1920.14
1624.73
1329.32
1033.91
738.504
443.1
147.699
4281.03
3986.4
3691.53
3396.49
3101.31
2806.04
2510.71
2215.35
1919.97
1624.58
1329.19
1033.81
738.431
443.056
147.685
4280.99
3986.28
3691.34
3396.24
3101.03
2805.74
2510.41
2215.06
1919.7
1624.35
1329
1033.66
738.319
442.989
147.662
4280.93
3986.11
3691.08
3395.91
3100.64
2805.33
2510
2214.67
1919.34
1624.03
1328.73
1033.45
738.168
442.898
147.632
4280.85
3985.89
3690.73
3395.46
3100.14
2804.8
2509.47
2214.16
1918.88