/*--------------------------------*- C++ -*----------------------------------*\
| =========                 |                                                 |
| \\      /  F ield         | OpenFOAM: The Open Source CFD Toolbox           |
|  \\    /   O peration     | Version:  5.x                                   |
|   \\  /    A nd           | Web:      www.OpenFOAM.org                      |
|    \\/     M anipulation  |                                                 |
\*---------------------------------------------------------------------------*/
FoamFile
{
    version     2.0;
    format      ascii;
    class       volScalarField;
    location    "3.6";
    object      gradTx;
}
// * * * * * * * * * * * * * * * * * * * * * * * * * * * * * * * * * * * * * //

dimensions      [0 -1 0 1 0 0 0];

internalField   nonuniform List<scalar> 
6300
(
3345.82
3336.28
3317.15
3288.38
3249.88
3201.57
3143.37
3075.29
2997.39
2909.9
2813.23
2707.99
2595.07
2475.65
2351.15
3355.25
3345.74
3326.68
3298
3259.58
3211.33
3153.15
3084.99
3006.88
2918.99
2821.69
2715.56
2601.49
2480.64
2354.5
3374.07
3364.63
3345.72
3317.22
3279.01
3230.92
3172.8
3104.52
3026.03
2937.4
2838.88
2731
2614.59
2490.84
2361.33
3402.2
3392.89
3374.22
3346.04
3308.19
3260.43
3202.5
3134.17
3055.22
2965.58
2865.33
2754.86
2634.92
2506.73
2371.98
3439.52
3430.4
3412.1
3384.43
3347.16
3299.98
3242.5
3174.31
3095.01
3004.26
2901.91
2788.1
2663.43
2529.09
2386.97
3485.82
3476.99
3459.22
3432.3
3395.94
3349.71
3293.09
3225.45
3146.13
3054.44
2949.84
2832.1
2701.5
2559.15
2407.14
3540.85
3532.39
3515.35
3489.5
3454.46
3409.72
3354.58
3288.18
3209.5
3117.42
3010.82
2888.84
2751.22
2598.78
2433.79
3604.2
3596.24
3580.18
3555.77
3522.58
3480
3427.2
3363.06
3286.17
3194.81
3087.08
2961.13
2815.68
2650.85
2468.97
3675.4
3668.06
3653.24
3630.69
3599.95
3560.39
3511.04
3450.58
3377.19
3288.47
3181.45
3052.79
2899.43
2719.86
2515.95
3753.82
3747.22
3733.91
3713.65
3686.04
3650.43
3605.87
3550.91
3483.41
3400.31
3297.34
3169.05
3009.29
2813.12
2580.34
3838.7
3832.96
3821.4
3803.85
3779.99
3749.31
3710.98
3663.64
3605.12
3531.88
3438.45
3316.65
3155.46
2942.9
2672.25
3929.19
3924.39
3914.76
3900.22
3880.63
3855.71
3824.96
3787.44
3741.4
3683.54
3607.82
3503.51
3352.91
3130.66
2811.75
4024.34
4020.51
4012.89
4001.51
3986.45
3967.79
3945.57
3919.63
3889.36
3852.92
3805.64
3736.56
3621.88
3414.95
3043.48
4123.18
4120.3
4114.63
4106.34
4095.74
4083.31
4069.74
4056.02
4043.36
4033.02
4025.12
4015.1
3982.97
3863.67
3482.1
4224.76
4222.74
4218.84
4213.33
4206.72
4199.82
4193.94
4191.18
4194.92
4210.54
4246.57
4315.59
4431.09
4574.51
4476.69
2234.08
2126.24
2018.24
1911.13
1805.93
1703.57
1604.87
1510.53
1421.12
1337.05
1258.65
1186.11
1119.54
1058.94
1004.27
955.406
912.201
874.452
841.927
814.36
791.456
772.887
758.296
747.293
739.456
734.335
731.456
730.332
730.475
731.409
732.69
733.918
734.749
734.897
734.134
732.278
729.18
724.715
718.764
711.216
701.97
690.939
678.065
663.326
646.741
628.371
608.308
586.658
563.527
539
513.127
485.92
457.346
427.334
395.787
362.593
327.634
290.794
251.964
211.034
167.887
122.39
74.381
23.6598
-30.0159
-86.9317
-147.412
-211.812
-280.506
-353.873
-432.288
-516.107
-605.661
-701.251
-803.144
-911.567
-1026.7
-1148.68
-1277.55
-1413.29
-1555.76
-1704.68
-1859.62
-2019.97
-2184.91
-2353.44
-2524.36
-2696.33
-2867.87
-3037.45
2235.79
2126.41
2016.88
1908.31
1801.78
1698.24
1598.54
1503.4
1413.36
1328.85
1250.17
1177.49
1110.89
1050.37
995.859
947.23
904.312
866.902
834.76
807.62
785.187
767.135
753.106
742.711
735.523
731.084
728.907
728.487
729.314
730.888
732.745
734.47
735.712
736.19
735.688
734.045
731.132
726.835
721.043
713.644
704.522
693.576
680.734
665.967
649.295
630.795
610.578
588.778
565.525
540.924
515.038
487.879
459.406
429.536
398.153
365.129
330.337
293.657
254.986
214.224
171.271
126.01
78.29
27.9195
-25.3432
-81.7897
-141.757
-205.616
-273.761
-346.588
-424.487
-507.825
-596.944
-692.148
-793.71
-901.867
-1016.81
-1138.7
-1267.61
-1403.55
-1546.41
-1695.96
-1851.78
-2013.28
-2179.67
-2349.91
-2522.78
-2696.86
-2870.61
-3042.4
2239.26
2126.72
2014.05
1902.51
1793.25
1687.32
1585.61
1488.85
1397.58
1312.21
1233
1160.06
1093.45
1033.12
978.948
930.794
888.463
851.734
820.362
794.076
772.584
755.563
742.661
733.487
727.608
724.553
723.806
724.826
727.054
729.94
732.97
735.697
737.754
738.871
738.867
737.622
735.055
731.087
725.62
718.533
709.681
698.926
686.159
671.331
654.468
635.674
615.112
592.975
569.45
544.686
518.772
491.72
463.47
433.906
402.873
370.206
335.751
299.385
261.015
220.568
177.982
133.172
86.0196
36.3492
-16.0785
-71.5689
-130.486
-193.237
-260.257
-331.981
-408.832
-491.199
-579.436
-673.859
-774.747
-882.352
-996.896
-1118.57
-1247.51
-1383.79
-1527.39
-1678.13
-1835.69
-1999.51
-2168.8
-2342.52
-2519.36
-2697.78
-2876.08
-3052.42
2244.64
2127.12
2009.54
1893.34
1779.86
1670.26
1565.5
1466.33
1373.27
1286.67
1206.73
1133.5
1066.94
1006.94
953.343
905.943
864.518
828.826
798.611
773.604
753.516
738.038
726.825
719.493
715.607
714.674
716.141
719.405
723.825
728.762
733.614
737.866
741.128
743.149
743.811
743.084
740.976
737.476
732.513
725.943
717.564
707.156
694.535
679.608
662.406
643.084
621.9
599.156
575.145
550.094
524.133
497.273
469.418
440.384
409.939
377.849
343.914
307.997
270.029
229.994
187.892
143.709
97.3781
48.7546
-2.39706
-56.4056
-113.682
-174.7
-239.963
-309.976
-385.213
-466.098
-552.998
-646.232
-746.081
-852.81
-966.676
-1087.93
-1216.79
-1353.45
-1498.01
-1650.44
-1810.51
-1977.78
-2151.49
-2330.56
-2513.58
-2698.81
-2884.26
-3067.79
2252.15
2127.54
2002.97
1880.2
1760.82
1646.17
1537.3
1434.95
1339.6
1251.51
1170.76
1097.28
1030.94
971.519
918.779
872.457
832.288
798.002
769.335
746.021
727.788
714.346
705.377
700.516
699.332
701.318
705.869
712.295
719.831
727.684
735.099
741.441
746.267
749.364
750.733
750.514
748.883
745.953
741.7
735.939
728.35
718.553
706.214
691.146
673.378
653.161
630.919
607.149
582.323
556.801
530.775
504.249
477.054
448.884
419.368
388.143
354.924
319.557
282.02
242.393
200.8
157.341
112.041
64.8051
15.4047
-36.5279
-91.482
-150.037
-212.815
-280.431
-353.442
-432.313
-517.417
-609.051
-707.477
-812.958
-925.783
-1046.28
-1174.8
-1311.69
-1457.26
-1611.67
-1774.92
-1946.71
-2126.38
-2312.84
-2504.53
-2699.42
-2895.11
-3088.94
2262.14
2127.84
1993.74
1862.1
1734.9
1613.7
1499.64
1393.43
1295.44
1205.75
1124.27
1050.76
984.935
926.444
874.94
830.084
791.556
759.061
732.326
711.099
695.136
684.191
677.993
676.22
678.474
684.244
692.877
703.567
715.361
727.217
738.11
747.179
753.875
758.048
759.922
759.955
758.639
756.315
753.04
748.548
742.295
733.592
721.806
706.555
687.857
666.138
642.122
616.647
590.49
564.22
538.123
512.179
486.082
459.314
431.252
401.299
369.022
334.236
297.015
257.622
216.393
173.626
129.492
83.9766
36.8585
-12.2917
-64.0876
-119.28
-178.687
-243.104
-313.214
-389.533
-472.408
-562.063
-658.686
-762.498
-873.809
-993.039
-1120.71
-1257.4
-1403.7
-1560.12
-1726.97
-1904.22
-2091.43
-2287.52
-2490.79
-2698.81
-2908.55
-3116.57
2275.15
2127.77
1980.88
1837.54
1700.26
1570.9
1450.63
1340.03
1239.26
1148.12
1066.24
993.152
928.334
871.276
821.5
778.571
742.112
711.799
687.361
668.572
655.237
647.18
644.213
646.105
652.533
663.025
676.904
693.229
710.78
728.115
743.727
756.314
765.095
770.021
771.742
771.318
769.828
768.025
766.112
763.673
759.746
753.054
742.366
726.91
706.67
682.408
655.407
627.114
598.805
571.375
545.24
520.316
496.066
471.6
445.849
417.795
386.726
352.416
315.136
275.491
234.199
191.881
148.934
105.459
61.2431
15.7608
-31.7933
-82.4449
-137.334
-197.563
-264.027
-337.295
-417.613
-505.018
-599.514
-701.207
-810.397
-927.609
-1053.58
-1189.22
-1335.54
-1493.51
-1663.96
-1847.35
-2043.6
-2251.8
-2470.11
-2695.62
-2924.38
-3151.7
2292
2126.9
1962.87
1804.19
1654.17
1514.95
1387.63
1272.46
1169.16
1077.11
995.524
923.595
860.525
805.594
758.17
717.715
683.793
656.055
634.241
618.168
607.718
602.819
603.418
609.439
620.717
636.911
657.39
681.104
706.49
731.473
753.678
770.908
781.843
786.588
786.63
784.196
781.448
779.871
779.921
780.921
781.16
778.249
769.771
754.135
731.259
702.601
670.539
637.59
605.839
576.653
550.601
527.472
506.348
485.725
463.752
438.623
409.09
374.869
336.656
295.731
253.479
211.041
169.136
128.012
87.4553
46.8024
4.96846
-39.4984
-88.28
-143.03
-205.026
-274.889
-352.59
-437.741
-529.953
-629.092
-735.4
-849.527
-972.492
-1105.64
-1250.53
-1408.87
-1582.24
-1771.92
-1978.48
-2201.45
-2439.01
-2687.66
-2942.17
-3195.88
2313.98
2124.41
1937.08
1758.31
1592.47
1441.83
1307.07
1187.75
1082.82
990.978
910.876
841.246
780.966
729.075
684.776
647.431
616.545
591.757
572.832
559.647
552.185
550.521
554.797
565.184
581.804
604.609
633.197
666.551
702.758
738.814
770.77
794.547
807.485
809.905
805.063
797.504
791.362
789.352
792.342
799.245
807.089
811.438
807.465
791.767
764.154
727.678
686.931
646.325
609.164
577.404
551.739
531.73
515.897
501.784
486.19
465.786
438.194
403.065
362.077
317.877
273.026
229.433
188.212
149.752
113.809
79.5493
45.5279
9.66943
-30.6215
-78.0519
-134.684
-201.18
-276.819
-360.275
-450.395
-546.625
-649.116
-758.682
-876.708
-1005.08
-1146.13
-1302.51
-1477
-1672.13
-1889.65
-2130.02
-2391.84
-2671.17
-2961.02
-3251.5
2343.19
2118.62
1898.89
1693.77
1508.79
1345.81
1204.24
1082.28
977.603
887.914
811.115
745.407
689.301
641.597
601.347
567.823
540.494
518.999
503.139
492.867
488.286
489.651
497.361
511.937
533.966
563.963
602.122
647.872
699.226
752.036
799.62
833.771
848.252
843.655
827.389
808.751
795.305
791.608
799.109
816.194
838.029
856.591
862.02
846.537
809.791
758.889
703.105
650.081
604.694
569.368
544.719
529.963
522.957
519.964
515.545
503.288
478.145
439.692
392.116
340.954
290.76
244.407
203.313
167.868
137.742
111.957
88.7381
65.2266
37.3259
0.186432
-50.1244
-114.292
-189.777
-273.193
-362.017
-455.116
-552.618
-655.622
-765.986
-886.243
-1019.62
-1170.04
-1341.99
-1540.02
-1767.84
-2027.63
-2319.37
-2639.45
-2978.87
-3322.38
2383.22
2105.76
1839.61
1600.17
1393.39
1218.87
1073.15
951.852
850.767
766.255
695.352
635.712
585.514
543.364
508.21
479.277
456.024
438.111
425.384
417.875
415.81
419.629
430.021
447.944
474.636
511.547
560.099
621.104
693.578
772.764
847.79
901.3
916.467
894.187
853.108
812.498
785.189
777.719
792.052
826.281
873.658
920.633
946.668
931.901
875.792
797.109
715.285
642.826
585.72
545.941
523.438
517.026
524.224
540.184
556.178
559.333
537.252
489.447
427.309
362.635
302.956
251.804
210.278
178.326
155.423
140.672
132.374
127.109
118.583
97.3995
54.3982
-11.0949
-91.3021
-178.307
-267.464
-357.246
-448.172
-541.937
-640.988
-748.479
-868.509
-1006.5
-1169.39
-1364.97
-1599.93
-1879.16
-2206.01
-2579.81
-2990.74
-3414.87
2440.71
2076.55
1741.79
1459.5
1231.5
1050.43
906.847
792.3
700.041
624.976
563.346
512.397
470.118
435.039
406.096
382.536
363.849
349.739
340.101
335.031
334.845
340.131
351.823
371.31
400.578
442.352
500.127
577.804
678.246
799.46
926.921
1024.02
1038.58
971.763
878.127
797.07
746.485
732.411
756.327
817.412
909.843
1014.8
1090.04
1076.77
974.276
839.829
713.963
613.447
541.78
497.625
478.973
484.477
512.864
560.34
615.289
651.704
633.39
559.832
466.146
377.115
302.869
245.34
203.454
175.752
161.369
160.095
171.643
193.693
218.073
226.035
191.316
113.299
16.9729
-80.3102
-171.993
-257.711
-339.618
-420.616
-503.808
-592.629
-691.505
-807.063
-949.649
-1133.18
-1368.21
-1662.04
-2024.99
-2466.6
-2983.53
-3540.3
2529.05
2004.91
1568.34
1240.58
1002.01
827.934
698.704
600.624
524.528
464.328
415.939
376.581
344.336
317.862
296.219
278.763
265.073
254.915
248.231
245.143
245.991
251.399
262.389
280.579
308.501
350.105
411.481
501.705
632.987
817.137
1049.75
1265.55
1277.87
1087.93
885.01
737.74
655.186
632.378
667.056
763.385
927.957
1151.75
1360.84
1350.1
1118.74
870.171
676.117
542.506
458.211
412.57
399.714
418.963
474.003
569.722
701.075
822.869
809.064
659.189
498.272
370.296
278.703
216.345
176.202
153.997
148.437
161.056
195.79
256.922
341.206
416.134
390.588
264.063
126.634
9.63285
-85.1019
-163.649
-232.354
-296.118
-358.498
-422.271
-490.448
-568.671
-670.905
-827.196
-1051.77
-1345.3
-1730.64
-2244.86
-2918.83
-3720.63
2677.9
1807.09
1238.17
893.169
679.634
540.833
445.682
377.268
326.109
286.655
255.511
230.511
210.233
193.715
180.304
169.559
161.202
155.082
151.172
149.578
150.564
154.621
162.578
175.824
196.716
229.374
281.281
366.47
511.58
765.005
1196.77
1800.06
1808.39
1222.74
811.74
585.199
477.838
449.545
488.991
611.068
860.766
1309.83
1948.17
1941.09
1287.96
821.986
551.214
400.539
318.968
280.292
274.215
301.902
376.553
527.776
800.609
1189.27
1180.66
774.43
482.952
311.075
212.437
155.354
123.119
108.272
109.326
130.171
181.926
286.814
477.809
750.916
735.268
430.532
206.882
67.5194
-21.5122
-83.7492
-132.191
-173.598
-211.166
-245.551
-274.9
-295.669
-314.283
-422.837
-635.99
-896.334
-1250.61
-1793.04
-2669.98
-4002.79
2955.44
1174.5
585.496
356.418
249.612
190.858
154.142
129.051
110.823
97.008
86.2245
77.6352
70.7068
65.0877
60.542
56.9132
54.1027
52.0592
50.7756
50.2928
50.7118
52.2206
55.1458
60.0555
67.9797
80.9187
103.149
144.938
234.185
456.049
1096.75
3191.25
3194.21
1106
472.835
261.023
186.616
169.158
191.926
274.958
506.461
1195.33
3464.84
3462.35
1187.63
492.69
253.355
159.051
117.949
101.066
100.089
117.203
168.832
310.696
733.327
2127.73
2124.8
724.409
295.392
146.386
86.3251
58.581
44.9952
39.6494
41.7171
54.7743
91.5479
192.709
496.169
1501.5
1496.23
480.237
165.756
52.9328
3.49805
-23.7089
-42.1489
-56.598
-68.4032
-76.0694
-71.6879
-25.7475
171.889
132.18
-152.219
-312.066
-499.588
-859.432
-1764.58
-4491.76
-3219.66
-3411.58
-3593.83
-3764.49
-3922.06
-4065.48
-4194.12
-4307.68
-4406.14
-4489.68
-4558.57
-4613.16
-4653.76
-4680.66
-4694.06
-3226.93
-3421.14
-3605.31
-3777.46
-3936.08
-4080.14
-4209.07
-4322.65
-4420.93
-4504.18
-4572.74
-4627
-4667.32
-4694.02
-4707.31
-3241.73
-3440.63
-3628.71
-3803.85
-3964.53
-4109.81
-4239.24
-4352.77
-4450.63
-4533.24
-4601.07
-4654.63
-4694.36
-4720.63
-4733.7
-3264.61
-3470.83
-3664.93
-3844.58
-4008.27
-4155.2
-4285.17
-4398.42
-4495.46
-4576.93
-4643.54
-4695.95
-4734.72
-4760.31
-4773.03
-3296.49
-3513.06
-3715.47
-3901.15
-4068.64
-4217.42
-4347.7
-4460.15
-4555.7
-4635.35
-4700.08
-4750.76
-4788.12
-4812.71
-4824.92
-3338.81
-3569.34
-3782.62
-3975.8
-4147.59
-4298.01
-4427.92
-4538.65
-4631.7
-4708.55
-4770.52
-4818.75
-4854.14
-4877.36
-4888.86
-3393.79
-3642.75
-3869.76
-4071.69
-4247.78
-4398.98
-4527.18
-4634.68
-4723.76
-4796.46
-4854.55
-4899.42
-4932.18
-4953.59
-4964.17
-3464.86
-3738
-3981.87
-4193.3
-4372.74
-4522.81
-4647.02
-4749
-4832.03
-4898.85
-4951.64
-4992.07
-5021.4
-5040.5
-5049.91
-3557.5
-3862.41
-4126.28
-4346.77
-4526.95
-4672.34
-4788.93
-4882.13
-4956.37
-5015.11
-5060.92
-5095.67
-5120.71
-5136.94
-5144.92
-3680.89
-4027.75
-4313.93
-4540.43
-4715.8
-4850.52
-4954.1
-5034.07
-5096.08
-5144.16
-5181.1
-5208.83
-5228.67
-5241.48
-5247.75
-3851.43
-4253.64
-4561.13
-4785.08
-4945.15
-5059.7
-5142.69
-5203.82
-5249.58
-5284.18
-5310.31
-5329.72
-5343.51
-5352.38
-5356.72
-4101.05
-4574.12
-4891.73
-5093.44
-5219.9
-5300.3
-5352.97
-5388.8
-5414.09
-5432.49
-5446.08
-5456.06
-5463.12
-5467.65
-5469.87
-4499.73
-5049.91
-5338.1
-5476.9
-5540.54
-5568.45
-5579.94
-5584.14
-5585.33
-5585.45
-5585.3
-5585.15
-5585.08
-5585.07
-5585.07
-5225.31
-5787.53
-5933.68
-5935.35
-5896.76
-5852.86
-5813.99
-5782.32
-5757.5
-5738.52
-5724.33
-5713.99
-5706.82
-5702.3
-5700.12
-6815.46
-6941.04
-6673.59
-6433.85
-6258.13
-6132.06
-6040.66
-5973.47
-5923.66
-5886.64
-5859.31
-5839.49
-5825.72
-5817.04
-5812.83
4319.59
4318.25
4315.71
4312.29
4308.59
4305.55
4304.78
4309
4322.81
4354.44
4419.19
4548.28
4816.13
5447.13
7318.75
4406.64
4405.8
4404.27
4402.36
4400.62
4399.98
4401.99
4409.33
4426.61
4462.15
4531.32
4663.33
4913.88
5378.75
6113.47
4494.16
4493.73
4493
4492.2
4491.77
4492.45
4495.4
4502.65
4517.62
4546.39
4599.7
4695.96
4862.65
5122.86
5419.95
4581.88
4581.78
4581.66
4581.67
4582.06
4583.22
4585.73
4590.49
4598.94
4613.47
4638.14
4679.58
4746.37
4841.21
4934.29
4669.55
4669.74
4670.12
4670.76
4671.7
4672.94
4674.39
4675.67
4675.93
4673.38
4664.82
4645.49
4610.48
4560.67
4514.84
4757
4757.44
4758.3
4759.54
4761.01
4762.41
4763.04
4761.46
4754.77
4737.34
4698.86
4622.16
4484.76
4277.25
4065.14
4844.03
4844.74
4846.11
4848.03
4850.26
4852.29
4853.11
4850.69
4840.95
4815.81
4759.32
4640.89
4407.61
3996.93
3469.71
4930.47
4931.47
4933.42
4936.2
4939.53
4942.9
4945.33
4944.87
4937.7
4915.93
4862.67
4739.26
4453.56
3797.42
2509.75
5016.1
5017.43
5020.05
5023.86
5028.64
5034.05
5039.43
5043.61
5044.46
5037.81
5014.63
4950.2
4756.67
4036.36
657.185
5100.69
5102.38
5105.74
5110.71
5117.2
5125.1
5134.24
5144.55
5156.29
5171.07
5195.1
5250.67
5425.48
6121.65
9481.02
5184
5186.06
5190.18
5196.37
5204.66
5215.16
5228.14
5244.39
5265.88
5297.78
5353.54
5468.21
5732.13
6357.33
7618.06
5265.77
5268.19
5273.07
5280.45
5290.47
5303.36
5319.65
5340.46
5368.11
5407.79
5470.95
5581.98
5787.74
6151.54
6632.36
5345.73
5348.51
5354.09
5362.58
5374.14
5389.08
5407.93
5431.64
5461.85
5501.38
5555
5629.82
5733.49
5864.33
5982.34
5423.66
5426.75
5432.97
5442.44
5455.33
5471.94
5492.71
5518.2
5548.98
5585.05
5624.2
5657.47
5660.26
5585.89
5416.04
5499.33
5502.69
5509.47
5519.79
5533.81
5551.8
5574.09
5600.97
5632.29
5666.45
5697.35
5706.17
5640.47
5373.64
4733.58
5572.55
5576.15
5583.4
5594.42
5609.39
5628.54
5652.17
5680.52
5713.5
5749.97
5785.72
5806.48
5760.22
5420.44
3608.43
5643.14
5646.94
5654.58
5666.19
5681.92
5702.04
5726.84
5756.72
5792.14
5833.87
5884.35
5953.2
6083.69
6489.5
8335.62
5710.99
5714.94
5722.88
5734.94
5751.28
5772.14
5797.87
5828.96
5866.25
5911.57
5970.1
6056.95
6215.83
6558.18
7237.87
5775.97
5780.03
5788.2
5800.59
5817.36
5838.73
5865.05
5896.77
5934.62
5979.96
6036.03
6110.54
6220.44
6392.46
6614
5838.01
5842.14
5850.46
5863.06
5880.09
5901.76
5928.35
5960.2
5997.63
6040.76
6089.04
6139.4
6181.76
6192.19
6145.88
5897.06
5901.23
5909.62
5922.32
5939.46
5961.23
5987.87
6019.63
6056.53
6097.85
6140.47
6173.68
6165.12
6031.18
5647.51
5953.08
5957.26
5965.65
5978.35
5995.46
6017.18
6043.72
6075.36
6112.21
6153.89
6198.29
6236.81
6235.41
6043.46
4884.6
6006.08
6010.23
6018.57
6031.16
6048.13
6069.63
6095.91
6127.33
6164.39
6207.92
6260.06
6327.5
6437.9
6727.06
7945.34
6056.07
6060.17
6068.39
6080.8
6097.49
6118.61
6144.41
6175.27
6211.9
6255.83
6311.06
6388.22
6516.12
6765.27
7227.58
6103.1
6107.12
6115.18
6127.33
6143.64
6164.22
6189.26
6219.07
6254.18
6295.77
6346.69
6413.54
6510
6655.3
6832.83
6147.2
6151.13
6158.99
6170.82
6186.67
6206.59
6230.67
6259.05
6291.81
6329.09
6371.12
6418.14
6469.83
6522.8
6563.32
6188.46
6192.28
6199.91
6211.39
6226.72
6245.91
6268.98
6295.84
6326.16
6358.96
6391.94
6419.35
6428.62
6398.8
6323.9
6226.94
6230.64
6238.03
6249.13
6263.93
6282.42
6304.53
6330.11
6358.61
6388.59
6416.48
6432.99
6414.42
6305.94
6034.44
6262.73
6266.3
6273.45
6284.17
6298.44
6316.25
6337.55
6362.22
6389.87
6419.52
6448.79
6470.85
6462.52
6326.15
5558.41
6295.91
6299.36
6306.25
6316.58
6330.34
6347.52
6368.11
6392.13
6419.58
6450.58
6485.98
6529.64
6599.4
6784.66
7578.14
6326.57
6329.89
6336.53
6346.47
6359.72
6376.27
6396.16
6419.53
6446.68
6478.43
6517.29
6570.17
6655.93
6820.63
7123.91
6354.79
6357.99
6364.37
6373.93
6386.66
6402.55
6421.67
6444.18
6470.41
6501.21
6538.73
6587.71
6657.5
6760.23
6882.25
6380.68
6383.74
6389.87
6399.05
6411.24
6426.45
6444.71
6466.1
6490.81
6519.19
6552.07
6590.65
6636.05
6686.27
6727.29
6404.3
6407.25
6413.13
6421.92
6433.59
6448.1
6465.44
6485.59
6508.5
6533.92
6561.29
6588.71
6611.13
6618.54
6602.78
6425.75
6428.58
6434.23
6442.65
6453.81
6467.64
6484.09
6503.05
6524.27
6547.17
6570.35
6590.07
6596.5
6566.76
6469.27
6445.12
6447.84
6453.26
6461.34
6472.02
6485.23
6500.87
6518.8
6538.73
6560.07
6581.69
6600.51
6606.85
6561.86
6270.02
6462.47
6465.09
6470.3
6478.08
6488.34
6500.99
6515.94
6533.03
6552.04
6572.66
6594.83
6619.46
6652.71
6728.23
7035
6477.87
6480.4
6485.44
6492.94
6502.84
6515.03
6529.4
6545.81
6564.06
6584.03
6606.13
6632.29
6669.08
6733.87
6849.96
6491.4
6493.85
6498.74
6506.01
6515.59
6527.41
6541.32
6557.17
6574.75
6593.81
6614.46
6637.59
6665.88
6703.76
6747.43
6503.1
6505.49
6510.24
6517.32
6526.66
6538.19
6551.77
6567.22
6584.24
6602.35
6620.94
6639.17
6655.89
6669.48
6677.11
6513.02
6515.35
6519.99
6526.92
6536.08
6547.4
6560.79
6576.05
6592.83
6610.42
6627.54
6641.66
6647.93
6639.2
6613.98
6521.2
6523.48
6528.02
6534.82
6543.85
6555.05
6568.38
6583.71
6600.72
6618.68
6636.1
6649.44
6650.28
6620.23
6535.2
6527.67
6529.9
6534.36
6541.04
6549.95
6561.09
6574.47
6590.08
6607.78
6627.18
6647.38
6665.75
6673.96
6639.3
6399.24
6532.48
6534.66
6539.02
6545.58
6554.37
6565.44
6578.89
6594.86
6613.51
6635.02
6659.81
6688.97
6727.27
6800.87
7062.32
6535.65
6537.77
6542.01
6548.43
6557.05
6568
6581.45
6597.67
6617.1
6640.44
6669.08
6705.69
6755.97
6831.87
6944.87
6537.23
6539.27
6543.38
6549.59
6557.99
6568.7
6581.96
6598.14
6617.84
6642.06
6672.69
6712.8
6766.75
6836.99
6907.68
6537.26
6539.22
6543.15
6549.11
6557.17
6567.49
6580.31
6596.03
6615.28
6639.13
6669.59
6710.16
6766.12
6841.66
6921.37
6535.81
6537.66
6541.38
6547.02
6554.65
6564.42
6576.54
6591.36
6609.39
6631.47
6659.37
6696.69
6751.79
6843.31
6992.2
6532.96
6534.68
6538.15
6543.4
6550.51
6559.58
6570.78
6584.34
6600.53
6619.67
6642.48
6670.76
6712.05
6804.98
7168.18
6528.79
6530.37
6533.54
6538.36
6544.86
6553.13
6563.27
6575.39
6589.47
6605.21
6621.66
6635.67
6636.36
6578.85
6235.07
6523.39
6524.81
6527.67
6532
6537.84
6545.24
6554.28
6564.95
6577.12
6590.15
6602.44
6609.7
6600.99
6551.4
6428.01
6516.87
6518.13
6520.65
6524.46
6529.59
6536.1
6544.02
6553.37
6564.02
6575.48
6586.62
6594.69
6593.91
6575.12
6536.96
6509.36
6510.43
6512.59
6515.85
6520.25
6525.83
6532.65
6540.78
6550.22
6560.92
6572.82
6585.73
6599.24
6612.21
6621.09
6500.97
6501.86
6503.63
6506.32
6509.95
6514.57
6520.26
6527.15
6535.41
6545.42
6558.2
6576.24
6604.87
6652.03
6713.09
6491.84
6492.53
6493.9
6495.98
6498.81
6502.42
6506.92
6512.46
6519.26
6527.88
6539.84
6559.3
6597.55
6682.12
6849.19
6482.1
6482.58
6483.53
6484.99
6486.97
6489.53
6492.75
6496.76
6501.71
6507.9
6516.16
6529.19
6557.97
6654.83
7103.02
6471.89
6472.15
6472.68
6473.48
6474.59
6476.04
6477.9
6480.28
6483.17
6486.37
6489.06
6488.04
6471.05
6383.47
5938.7
6461.36
6461.4
6461.49
6461.61
6461.81
6462.11
6462.58
6463.31
6464.28
6465.1
6464.42
6457.86
6433.06
6360.07
6198.4
6450.66
6450.48
6450.11
6449.55
6448.8
6447.91
6446.95
6446.06
6445.34
6444.75
6443.77
6440.25
6428.46
6398.16
6347.62
6439.94
6439.53
6438.71
6437.44
6435.74
6433.61
6431.15
6428.55
6426.17
6424.56
6424.77
6428.26
6436.65
6450.24
6463.55
6429.35
6428.72
6427.45
6425.49
6422.8
6419.38
6415.3
6410.77
6406.29
6402.99
6403.39
6412.77
6441.14
6502.44
6590.58
6419.04
6418.21
6416.5
6413.86
6410.2
6405.46
6399.62
6392.81
6385.45
6378.72
6375.67
6383.96
6422.71
6535.97
6780.69
6409.15
6408.13
6406.03
6402.76
6398.18
6392.13
6384.46
6375.07
6364.02
6351.75
6339.95
6333.89
6352.46
6478.19
7142.71
6399.79
6398.62
6396.2
6392.39
6387
6379.75
6370.33
6358.34
6343.26
6324.31
6300.1
6266.58
6207.71
6046.19
5357.39
6391.08
6389.8
6387.14
6382.94
6376.92
6368.71
6357.82
6343.59
6325.01
6300.37
6266.58
6216.71
6134.08
5980.18
5707.04
6383.08
6381.75
6378.98
6374.55
6368.16
6359.33
6347.46
6331.69
6310.76
6282.64
6244.06
6189.4
6109.8
5996.74
5869.59
6375.82
6374.5
6371.75
6367.34
6360.88
6351.86
6339.61
6323.2
6301.3
6271.98
6232.52
6179.24
6108.59
6022.88
5946.48
6369.28
6368.06
6365.49
6361.32
6355.15
6346.44
6334.47
6318.33
6296.79
6268.17
6230.41
6180.96
6117.68
6042.4
5973.03
6363.38
6362.34
6360.13
6356.47
6350.97
6343.05
6332.03
6317.02
6296.96
6270.51
6236.21
6192.11
6134.92
6057.69
5954.18
6358
6357.23
6355.55
6352.68
6348.22
6341.6
6332.13
6319.02
6301.32
6278.09
6248.6
6212.13
6165.93
6091.12
5866.34
6352.94
6352.52
6351.56
6349.77
6346.73
6341.88
6334.56
6323.97
6309.28
6289.8
6265.61
6238.67
6216.62
6228.55
6410.38
6347.94
6347.98
6347.91
6347.47
6346.24
6343.65
6339.02
6331.54
6320.3
6304.54
6284.28
6261.55
6243.45
6247.65
6299.34
6342.69
6343.27
6344.28
6345.47
6346.42
6346.57
6345.22
6341.46
6334.19
6322.15
6304.39
6280.91
6254.51
6233.37
6227.94
6336.81
6338.01
6340.28
6343.37
6346.89
6350.29
6352.84
6353.57
6351.09
6343.47
6328.2
6301.99
6261.59
6207.83
6156.62
6329.86
6331.76
6335.44
6340.69
6347.16
6354.32
6361.48
6367.65
6371.25
6369.82
6359.32
6332.61
6277.66
6180.16
6053.66
6321.34
6324.01
6329.26
6336.9
6346.65
6358.07
6370.56
6383.23
6394.6
6402.17
6401.4
6382.52
6322.98
6172.33
5866.83
6310.73
6314.22
6321.13
6331.36
6344.68
6360.79
6379.25
6399.42
6420.26
6440.02
6455.74
6460.34
6431.27
6271.75
5471.89
6297.43
6301.77
6310.44
6323.37
6340.47
6361.57
6386.48
6414.87
6446.32
6480.38
6517.47
6561.19
6629.85
6815.56
7623.41
6280.85
6286.07
6296.5
6312.2
6333.16
6359.42
6390.99
6427.91
6470.22
6518.33
6574.27
6644.36
6746.78
6926.88
7242.65
6260.39
6266.45
6278.63
6297.05
6321.86
6353.27
6391.52
6436.91
6489.72
6550.51
6620.91
6704.69
6809.39
6943.55
7085.74
6235.46
6242.31
6256.14
6277.15
6305.65
6342.05
6386.81
6440.44
6503.31
6575.69
6657.9
6750.09
6851.18
6954.19
7032.21
6205.49
6213.06
6228.37
6251.73
6283.64
6324.7
6375.66
6437.24
6509.94
6593.69
6687.62
6788.93
6891.25
6981.76
7037.51
6169.99
6178.15
6194.69
6220.07
6254.93
6300.17
6356.83
6426.02
6508.52
6604.29
6711.87
6826.66
6939.13
7033.06
7086.2
6128.55
6137.14
6154.59
6181.49
6218.69
6267.38
6329.02
6405.25
6497.49
6606.35
6730.73
6865.63
6999.53
7112.26
7176.49
6080.87
6089.68
6107.64
6135.43
6174.14
6225.27
6290.78
6373.04
6474.54
6597.3
6741.94
6904.88
7074.25
7224.73
7316.07
6026.81
6035.59
6053.55
6081.48
6120.64
6172.85
6240.61
6327.17
6436.44
6572.73
6740.08
6939.28
7161.73
7377.87
7523.76
5966.36
5974.85
5992.24
6019.4
6057.73
6109.31
6177.1
6265.23
6379.19
6526.26
6715.75
6957.12
7253.23
7579.37
7837.45
5899.75
5907.64
5923.84
5949.24
5985.29
6034.19
6099.19
6185.03
6298.57
6450.01
6655.03
6936.56
7323.49
7827.71
8335.04
5827.39
5834.38
5848.76
5871.37
5903.59
5947.57
6006.53
6085.29
6191.25
6336.23
6540.82
6842.4
7311.95
8073.46
9189.6
5749.9
5755.71
5767.66
5786.5
5813.41
5850.25
5899.83
5966.39
6056.45
6180.74
6358.92
6631.2
7097.31
8072.48
10823.9
-11258.1
-8358.51
-7326.27
-6831.91
-6543.72
-6356.06
-6226.04
-6132.6
-6064.09
-6013.39
-5975.97
-5948.81
-5929.9
-5917.94
-5912.15
-9528.23
-8350.17
-7545.92
-7050.47
-6733.41
-6519.53
-6369
-6259.85
-6179.25
-6119.28
-6074.78
-6042.33
-6019.65
-6005.27
-5998.29
-8618.36
-8082.08
-7550.98
-7145
-6851.3
-6638.89
-6483.09
-6367.13
-6279.98
-6214.29
-6165.08
-6128.92
-6103.52
-6087.35
-6079.48
-8082.84
-7810.23
-7468.99
-7161.41
-6912.61
-6718.78
-6569.35
-6454.28
-6365.69
-6297.74
-6246.16
-6207.91
-6180.84
-6163.53
-6155.09
-7738.58
-7585.86
-7363.46
-7136.84
-6935.61
-6767.69
-6631.61
-6522.91
-6436.95
-6369.68
-6317.86
-6278.99
-6251.26
-6233.43
-6224.71
-7502.32
-7409.74
-7260.71
-7094.48
-6935.34
-6794.37
-6674.68
-6575.62
-6495.1
-6430.77
-6380.41
-6342.18
-6314.68
-6296.89
-6288.15
-7332.3
-7272.65
-7169.76
-7047.04
-6922.32
-6806.11
-6703.29
-6615.3
-6541.9
-6482.02
-6434.39
-6397.79
-6371.23
-6353.93
-6345.41
-7205.65
-7165.45
-7092.43
-7000.85
-6903.25
-6808.41
-6721.43
-6644.74
-6579.17
-6524.63
-6480.57
-6446.3
-6421.2
-6404.76
-6396.63
-7108.88
-7080.89
-7027.84
-6958.67
-6882.12
-6805.11
-6732.26
-6666.31
-6608.67
-6559.83
-6519.79
-6488.29
-6465.02
-6449.69
-6442.07
-7033.5
-7013.57
-6974.31
-6921.48
-6861.19
-6798.76
-6738.15
-6681.99
-6631.92
-6588.79
-6552.94
-6524.43
-6503.19
-6489.12
-6482.11
-6973.92
-6959.54
-6930.05
-6889.3
-6841.61
-6791.02
-6740.79
-6693.31
-6650.22
-6612.54
-6580.84
-6555.37
-6536.26
-6523.52
-6517.16
-6926.29
-6915.85
-6893.48
-6861.79
-6823.9
-6782.88
-6741.37
-6701.43
-6664.63
-6632.02
-6604.26
-6581.77
-6564.76
-6553.37
-6547.66
-6887.87
-6880.31
-6863.22
-6838.44
-6808.23
-6774.95
-6740.7
-6707.25
-6676
-6647.98
-6623.89
-6604.2
-6589.22
-6579.14
-6574.07
-6856.66
-6851.26
-6838.16
-6818.7
-6794.56
-6767.54
-6739.33
-6711.4
-6684.99
-6661.06
-6640.31
-6623.22
-6610.13
-6601.29
-6596.84
-6831.16
-6827.4
-6817.38
-6802.08
-6782.75
-6760.81
-6737.61
-6714.35
-6692.13
-6671.81
-6654.04
-6639.3
-6627.96
-6620.27
-6616.39
-6810.24
-6807.74
-6800.12
-6788.09
-6772.63
-6754.83
-6735.77
-6716.46
-6697.83
-6680.65
-6665.51
-6652.89
-6643.12
-6636.48
-6633.11
-6793.01
-6791.51
-6785.77
-6776.35
-6763.99
-6749.57
-6733.94
-6717.95
-6702.38
-6687.92
-6675.1
-6664.34
-6655.98
-6650.27
-6647.37
-6778.79
-6778.07
-6773.84
-6766.51
-6756.66
-6745
-6732.22
-6719.01
-6706.05
-6693.92
-6683.1
-6673.97
-6666.85
-6661.98
-6659.5
-6767.03
-6766.94
-6763.91
-6758.26
-6750.46
-6741.06
-6730.64
-6719.76
-6709
-6698.87
-6689.77
-6682.07
-6676.03
-6671.88
-6669.77
-6757.31
-6757.72
-6755.65
-6751.36
-6745.22
-6737.69
-6729.22
-6720.29
-6711.39
-6702.95
-6695.34
-6688.85
-6683.76
-6680.25
-6678.45
-6749.26
-6750.07
-6748.79
-6745.61
-6740.83
-6734.82
-6727.98
-6720.67
-6713.32
-6706.32
-6699.97
-6694.53
-6690.24
-6687.28
-6685.76
-6742.61
-6743.75
-6743.1
-6740.82
-6737.15
-6732.4
-6726.89
-6720.93
-6714.9
-6709.1
-6703.81
-6699.27
-6695.67
-6693.17
-6691.89
-6737.12
-6738.53
-6738.4
-6736.85
-6734.08
-6730.37
-6725.96
-6721.12
-6716.17
-6711.38
-6706.99
-6703.2
-6700.18
-6698.09
-6697.01
-6732.63
-6734.25
-6734.53
-6733.58
-6731.55
-6728.67
-6725.17
-6721.25
-6717.2
-6713.25
-6709.61
-6706.45
-6703.92
-6702.16
-6701.25
-6728.97
-6730.77
-6731.38
-6730.9
-6729.47
-6727.27
-6724.5
-6721.34
-6718.02
-6714.77
-6711.74
-6709.1
-6706.98
-6705.5
-6704.73
-6726.03
-6727.97
-6728.84
-6728.74
-6727.78
-6726.13
-6723.95
-6721.4
-6718.68
-6715.99
-6713.46
-6711.25
-6709.46
-6708.21
-6707.56
-6723.72
-6725.76
-6726.84
-6727.03
-6726.45
-6725.22
-6723.51
-6721.43
-6719.18
-6716.94
-6714.82
-6712.95
-6711.43
-6710.36
-6709.81
-6721.96
-6724.07
-6725.31
-6725.73
-6725.42
-6724.52
-6723.15
-6721.44
-6719.56
-6717.67
-6715.86
-6714.26
-6712.95
-6712.03
-6711.55
-6720.69
-6722.86