/*--------------------------------*- C++ -*----------------------------------*\
| =========                 |                                                 |
| \\      /  F ield         | OpenFOAM: The Open Source CFD Toolbox           |
|  \\    /   O peration     | Version:  5.x                                   |
|   \\  /    A nd           | Web:      www.OpenFOAM.org                      |
|    \\/     M anipulation  |                                                 |
\*---------------------------------------------------------------------------*/
FoamFile
{
    version     2.0;
    format      ascii;
    class       volScalarField;
    location    "3.6";
    object      gradTy;
}
// * * * * * * * * * * * * * * * * * * * * * * * * * * * * * * * * * * * * * //

dimensions      [0 -1 0 1 0 0 0];

internalField   nonuniform List<scalar> 
6300
(
2676.46
6024.61
9358.48
12668.4
15944.9
19177.9
22357.8
25474.4
28518
31478.7
34346.9
37113.6
39770.5
42310.2
44726.8
7.05399
21.1908
35.4107
49.7562
64.2492
78.8815
93.6034
108.312
122.842
136.954
150.334
162.606
173.345
182.119
188.537
11.7243
35.2254
58.8779
82.7623
106.926
131.368
156.019
180.719
205.199
229.065
251.786
272.708
291.084
306.143
317.171
16.3417
49.1072
82.1113
115.486
149.322
183.643
218.38
253.339
288.166
322.315
355.03
385.346
412.131
434.185
450.377
20.8766
62.7489
104.971
147.746
191.229
235.496
280.513
326.083
371.801
416.99
460.663
501.501
537.896
568.073
590.313
25.2913
76.0392
127.275
179.294
232.345
286.594
342.084
398.672
455.952
513.168
569.115
622.083
669.861
709.882
739.547
29.5401
88.8396
148.79
209.805
272.256
336.443
402.547
470.554
540.154
610.596
680.527
747.833
809.557
862.018
901.255
33.569
100.986
169.238
238.874
310.422
384.364
461.093
540.83
623.496
708.515
794.542
879.14
958.489
1027.35
1079.58
37.3179
112.294
188.298
266.025
346.184
429.487
516.617
608.16
704.464
805.4
909.957
1015.66
1117.88
1209.27
1280.15
40.7246
122.573
205.628
290.735
378.792
470.769
567.713
670.707
780.776
898.636
1024.19
1155.64
1288.05
1411.67
1511.09
43.7315
131.639
220.901
312.486
407.467
507.072
612.738
726.156
849.271
984.143
1132.5
1294.62
1466.97
1638.23
1784.51
46.2923
139.349
233.846
330.832
431.505
537.296
649.99
771.884
905.978
1056.13
1227.02
1423.32
1646.93
1889.73
2118.99
48.3801
145.613
244.293
345.483
450.413
560.6
678.019
805.387
946.594
1107.35
1296.08
1524.65
1807.66
2154.71
2540.67
49.9937
150.427
252.225
356.382
464.051
576.653
696.077
825.025
967.627
1130.58
1325.25
1571.51
1904.27
2380.72
3063.83
51.1595
153.874
257.789
363.76
472.741
585.864
704.588
830.981
968.278
1122.05
1302.78
1531.82
1857.11
2399.99
3519.91
46825.1
48642.4
50369
52005
53551.8
55011.4
56386.7
57681
58898.3
60043
61119.9
62133.7
63089.5
63992.4
64847.3
65659.2
66432.8
67172.9
67883.9
68570.2
69235.6
69884
70518.9
71143.5
71760.6
72372.7
72981.8
73589.7
74197.5
74806.1
75416.1
76027.3
76639.7
77252.7
77865.6
78477.6
79087.6
79694.5
80297.2
80894.3
81484.6
82066.4
82638.3
83198.7
83746.1
84278.8
84795.4
85294.5
85774.9
86235.4
86674.8
87092.2
87486.3
87856.2
88200.4
88517.8
88806.8
89066.1
89293.9
89488.5
89648.3
89771.2
89855.3
89898.4
89898.2
89852.3
89757.6
89611.3
89409.8
89149.4
88826.1
88435.4
87972.8
87433.3
86811.6
86102.5
85300.4
84399.6
83394.3
82278.6
81046.9
79693.5
78213.1
76600.7
74852
72963.5
70932.6
68757.6
66438.2
63975.5
191.984
193.167
192.379
189.679
185.194
179.11
171.649
163.056
153.576
143.444
132.877
122.064
111.168
100.325
89.6477
79.227
69.1384
59.4461
50.207
41.4748
33.3034
25.7481
18.8669
12.7189
7.36158
2.84587
-0.790202
-3.52873
-5.37853
-6.3795
-6.60283
-6.14574
-5.12088
-3.64197
-1.80918
0.301854
2.64442
5.19722
7.95431
10.9112
14.0515
17.3373
20.7073
24.0823
27.3783
30.5216
33.4641
36.1919
38.728
41.1275
43.4671
45.8313
48.2998
50.9351
53.7767
56.8398
60.1203
63.6043
67.2796
71.1465
75.2252
79.5586
84.2101
89.2575
94.7846
100.872
107.587
114.977
123.066
131.851
141.31
151.399
162.066
173.252
184.893
196.917
209.239
221.755
234.329
246.787
258.911
270.431
281.037
290.378
298.088
303.802
307.186
307.971
305.977
301.135
323.083
325.084
323.677
318.97
311.2
300.704
287.882
273.168
256.992
239.761
221.845
203.563
185.186
166.936
148.994
131.505
114.588
98.3433
82.8586
68.2192
54.5115
41.8271
30.2641
19.926
10.9161
3.32973
-2.75853
-7.3083
-10.3275
-11.8823
-12.0997
-11.1587
-9.26972
-6.64541
-3.47017
0.123101
4.06199
8.32701
12.93
17.8851
23.1794
28.7535
34.4956
40.2541
45.8639
51.1794
56.1052
60.6148
64.7542
68.6317
72.3961
76.2102
80.2243
84.5533
89.2646
94.3757
99.8646
105.69
111.814
118.226
124.956
132.077
139.705
147.984
157.068
167.106
178.221
190.501
203.985
218.666
234.495
251.394
269.268
288.015
307.531
327.706
348.411
369.488
390.724
411.839
432.472
452.173
470.405
486.561
499.992
510.045
516.116
517.71
514.494
506.338
459.032
461.902
459.72
452.667
441.128
425.641
406.836
385.379
361.92
337.062
311.337
285.198
259.02
233.104
207.689
182.963
159.075
136.15
114.298
93.628
74.2527
56.2981
39.9051
25.2282
12.4293
1.66493
-6.9333
-13.2827
-17.3756
-19.3013
-19.255
-17.5271
-14.4676
-10.4324
-5.72341
-0.543705
5.01949
10.9795
17.4082
24.3794
31.9134
39.9364
48.2691
56.6489
64.7817
72.4066
79.354
85.5788
91.1657
96.3065
101.261
106.309
111.702
117.628
124.184
131.375
139.131
147.351
155.941
164.856
174.128
183.871
194.269
205.555
217.982
231.791
247.183
264.294
283.183
303.829
326.141
349.987
375.213
401.67
429.22
457.728
487.048
516.989
547.288
577.58
607.37
636.022
662.755
686.662
706.752
722.011
731.483
734.368
730.115
718.503
602.158
605.971
602.753
592.8
576.717
555.33
529.584
500.446
468.838
435.585
401.398
366.864
332.452
298.528
265.371
233.193
202.156
172.391
144.018
117.154
91.9305
68.5037
47.0584
27.8101
10.9974
-3.13436
-14.3614
-22.5211
-27.5592
-29.5745
-28.8465
-25.8274
-21.0855
-15.2047
-8.66972
-1.77824
5.38984
12.9411
21.0886
30.0467
39.9261
50.6557
61.9566
73.381
84.4121
94.5907
103.624
111.442
118.2
124.229
129.971
135.888
142.392
149.775
158.168
167.535
177.709
188.459
199.575
210.947
222.599
234.697
247.529
261.459
276.881
294.172
313.643
335.501
359.826
386.564
415.552
446.563
479.356
513.722
549.497
586.551
624.757
663.94
703.83
744.009
783.873
822.599
859.135
892.22
920.431
942.272
956.297
961.265
956.298
941.021
755.28
760.142
755.465
741.737
719.92
691.276
657.196
619.052
578.102
535.432
491.939
448.334
405.163
362.83
321.627
281.764
243.388
206.617
171.553
138.306
107.011
77.8467
51.0398
26.8769
5.69759
-12.1231
-26.2125
-36.2606
-42.1014
-43.8036
-41.7427
-36.6144
-29.3491
-20.9249
-12.1354
-3.41731
5.20199
14.0374
23.5949
34.3803
46.7067
60.5441
75.4572
90.6702
105.26
118.414
129.633
138.822
146.27
152.556
158.416
164.611
171.805
180.454
190.734
202.521
215.444
229.023
242.828
256.62
270.41
284.452
299.193
315.196
333.071
353.395
376.645
403.135
432.971
466.036
502.029
540.549
581.21
623.719
667.904
713.688
761.03
809.843
859.922
910.859
961.98
1012.29
1060.45
1104.76
1143.25
1173.75
1194.11
1202.43
1197.28
1178.04
921.965
928.018
921.18
902.294
872.925
835.024
790.635
741.678
689.824
636.446
582.623
529.162
476.65
425.487
375.941
328.178
282.3
238.375
196.462
156.637
119.019
83.7885
51.2089
21.6431
-4.44188
-26.4876
-43.8855
-56.0606
-62.605
-63.4532
-59.0579
-50.4802
-39.2837
-27.1733
-15.5005
-4.91668
4.7002
14.0907
24.3301
36.4916
51.3077
68.8792
88.5211
108.851
128.171
145.018
158.557
168.7
176.009
181.49
186.37
191.888
199.114
208.776
221.123
235.859
252.226
269.249
286.087
302.283
317.845
333.189
349.024
366.225
385.72
408.389
434.966
465.936
501.451
541.276
584.845
631.432
680.382
731.28
783.984
838.557
895.156
953.898
1014.75
1077.41
1141.22
1205.05
1267.27
1325.66
1377.52
1419.78
1449.25
1462.93
1458.54
1434.92
1107.01
1114.43
1104.21
1077.92
1038.19
988.091
930.635
868.463
803.731
738.099
672.782
608.628
546.194
485.821
427.693
371.885
318.409
267.246
218.374
171.805
127.604
85.9276
47.0541
11.4143
-20.3799
-47.5263
-69.06
-83.949
-91.2912
-90.6335
-82.3754
-68.0973
-50.5144
-32.7718
-17.278
-5.00419
4.54358
12.9407
22.3161
34.7995
51.9595
74.2517
100.613
128.501
154.661
176.404
192.386
202.674
208.395
211.306
213.419
216.722
222.931
233.247
248.084
266.865
288.077
309.756
330.284
348.873
365.605
381.23
396.899
413.962
433.81
457.767
486.967
522.201
563.729
611.128
663.321
718.914
776.75
836.242
897.37
960.508
1026.19
1094.91
1166.96
1242.3
1320.41
1400.14
1479.57
1555.93
1625.59
1684.23
1727.08
1749.46
1747.45
1718.92
1317.27
1326.19
1310.37
1272.88
1218.35
1151.73
1077.4
998.908
918.913
839.28
761.254
685.606
612.764
542.919
476.1
412.233
351.189
292.818
236.977
183.567
132.559
84.0402
38.253
-4.34099
-42.9986
-76.634
-103.789
-122.691
-131.482
-128.744
-114.347
-90.4585
-61.9607
-35.1179
-14.4047
-1.15244
6.05744
10.3951
15.8389
26.3851
45.233
73.7759
110.519
150.65
187.52
216.094
234.426
243.232
244.836
242.278
238.765
237.376
240.841
251.217
269.373
294.378
323.26
351.924
377.279
398.14
414.965
429.207
442.77
457.688
475.983
499.594
530.279
569.402
617.549
674.073
736.897
803.158
870.727
938.835
1007.85
1078.78
1152.83
1231.1
1314.42
1403.19
1497.25
1595.62
1696.27
1795.83
1889.52
1971.36
2034.37
2071.05
2074.54
2040.47
1563.23
1573.53
1547.69
1492.31
1415.91
1326.42
1230.11
1131.48
1033.52
938.1
846.255
758.497
674.977
595.62
520.218
448.482
380.089
314.714
252.05
191.841
133.907
78.1946
24.831
-25.7858
-72.8693
-115.092
-150.421
-176.007
-188.294
-183.658
-160.003
-119.475
-71.0419
-28.6561
-0.80692
11.3807
11.6877
6.2364
1.99354
5.99457
24.523
61.4687
115.519
177.471
232.297
270.503
290.156
294.131
287.24
274.595
261.021
251.01
248.767
257.95
280.767
316.273
358.723
398.822
430.708
453.182
468.006
478.123
486.649
496.511
510.46
531.19
561.395
603.561
659.262
727.899
805.472
885.467
963.876
1040.06
1115.52
1192.51
1273.33
1359.96
1453.95
1556.39
1667.79
1787.75
1914.47
2044.09
2170.43
2285.52
2379.48
2440.38
2455.61
2415.61
1862.55
1872.87
1827.5
1741.95
1632.27
1510.88
1386.12
1263.05
1144.47
1031.75
925.355
825.271
731.18
642.618
559.048
479.909
404.642
332.706
263.592
196.841
132.062
68.9733
7.46226
-52.3083
-109.727
-163.464
-211.069
-248.46
-269.46
-265.943
-229.94
-159.859
-71.402
-1.24966
35.3542
41.0321
25.6202
0.348872
-23.7108
-35.3031
-22.6957
24.5418
109.149
214.562
301.013
351.633
368.464
360.681
337.935
308.253
278.149
253.465
240.243
245.055
273.89
328.175
397.571
457.545
497.688
519.238
527.821
529.329
528.598
529.446
535.168
549.135
575.283
618.222
682.338
768.845
870.545
970.045
1060.2
1142.34
1220.94
1300.69
1385.44
1478.19
1581.28
1696.67
1825.96
1970.1
2128.44
2297.05
2467.47
2630.07
2772.13
2875.39
2916.18
2871.51
2249.13
2252.34
2165.08
2026.29
1865.42
1700.14
1539.64
1388.1
1246.95
1116.24
995.346
883.392
779.404
682.411
591.485
505.752
424.391
346.627
271.728
198.999
127.784
57.4835
-12.4078
-82.2101
-151.879
-220.656
-286.414
-344.504
-385.913
-394.997
-348.935
-226.696
-45.3938
74.4739
116.055
101.059
53.7569
-7.27638
-67.3606
-111.44
-119.774
-66.1906
72.8243
278.957
421.327
481.415
482.212
448.775
398.613
342.518
287.47
239.415
205.752
197.564
230.367
318.311
449.98
544.821
591.431
603.957
597.815
583.746
568.265
555.35
547.991
549.528
564.978
602.375
673.156
787.894
938.768
1068.05
1168.07
1249.67
1324.68
1401.63
1486.01
1581.48
1690.86
1816.89
1962.7
2131.94
2327.56
2547.34
2775.71
3004.14
3220.59
3400.29
3499.71
3460.22
2801.36
2762.02
2576.82
2342.34
2104.88
1882.45
1680.22
1498.14
1334.36
1186.54
1052.42
930.006
817.519
713.435
616.416
525.275
438.936
356.402
276.721
198.961
122.177
45.3936
-32.4149
-112.311
-195.32
-282.196
-372.801
-464.567
-548.913
-603.456
-577.625
-378.584
69.0739
262.921
278.218
207.599
101.659
-16.2741
-134.062
-239.054
-306.016
-279.951
-60.1601
435.153
660.106
696.556
645.237
560.932
467.814
375.255
286.704
204.623
134.558
91.0309
107.421
245.464
555.397
701.524
734.229
715.529
679.196
640.169
604.208
573.223
547.975
529.855
523.038
538.423
600.639
754.871
1038.04
1208.16
1302.4
1366.42
1425.59
1491.82
1570.56
1664.68
1776.41
1908.55
2065.64
2255.72
2491.8
2785.19
3083.76
3395.37
3721.84
4040.69
4283.15
4301.98
3751.42
3481.66
3059.42
2662.62
2322.62
2035.62
1791.72
1581.82
1398.74
1237.06
1092.64
962.299
843.52
734.275
632.875
537.877
448
362.068
278.953
197.522
116.578
34.7895
-49.4036
-137.913
-233.173
-338.348
-457.494
-595.29
-754.8
-927.625
-1055.71
-888.458
549.042
708.489
564.107
365.01
166.843
-25.465
-219.173
-421.407
-626.195
-772.653
-589.88
980.673
1170.33
1038.08
855.76
685.776
536.214
402.225
276.628
152.537
25.1606
-101.772
-190.694
-74.8956
896.692
1021.55
951.042
852.485
764.451
692.169
632.981
582.83
537.691
493.897
449.123
407.028
395.612
536.165
1300.08
1457.53
1480.23
1490.13
1516.31
1563.97
1632.93
1722.47
1832.53
1964.22
2121.03
2313.18
2573.47
3015.51
3372.95
3765.14
4233.98
4791.01
5388.51
5752.89
5989.93
4420.74
3505.27
2901.02
2463.95
2126.65
1854.2
1626.79
1432.27
1262.68
1112.55
977.904
855.761
743.788
640.092
543.083
451.365
363.663
278.748
195.373
112.189
27.6427
-60.1789
-153.794
-256.745
-374.373
-515.323
-694.732
-941.496
-1316.2
-1959.04
-3227.47
2869.39
1591.55
928.772
521.07
223.587
-32.6414
-291.999
-600.072
-1030.35
-1739.43
-3117.99
3514.66
2144.06
1451.67
1048.5
781.192
582.171
417.094
264.372
105.173
-84.8812
-349.314
-783.607
-1627.59
2457.25
1622.88
1208.21
974.258
826.994
725.29
648.715
585.195
525.447
459.325
371.326
231.431
-28.2761
-580.218
2435.41
1900.9
1676.43
1590.37
1576.06
1605.38
1665.61
1750.66
1857.44
1983.64
2125.45
2272.46
2393.3
3367.6
3611.99
4024.44
4618.99
5482.93
6829.38
9178.4
61111.3
57789.3
54278.6
50590.1
46736.6
42732
38591
34328.8
29960.7
25501.7
20966.8
16370.4
11726.7
7049.36
2352.01
292.736
279.829
263.685
244.951
224.324
202.475
179.995
157.356
134.905
112.863
91.3419
70.3604
49.867
29.7573
9.89121
492.038
469.963
442.345
410.35
375.227
338.159
300.166
262.052
224.389
187.529
151.638
116.726
82.6863
49.3252
16.3928
697.796
665.626
625.365
578.864
528.063
474.756
420.451
366.293
313.066
261.225
210.955
162.22
114.827
68.4642
22.7479
913.107
869.353
814.599
751.656
683.383
612.335
540.572
469.589
400.346
333.347
268.733
206.373
145.936
86.9567
28.8831
1141.68
1084.04
1011.99
929.751
841.451
750.607
659.893
571.125
485.366
403.071
324.253
248.6
175.587
104.543
34.7112
1388.2
1313.12
1219.54
1113.88
1002.04
888.728
777.248
669.634
566.899
469.304
376.594
288.183
203.266
120.916
40.1303
1658.82
1560.68
1439.16
1304.16
1164.08
1025
890.723
763.25
643.275
530.631
424.625
324.26
228.375
135.724
45.024
1961.98
1831.57
1672.23
1499.5
1325.1
1156.44
997.381
849.358
712.307
585.306
467.001
355.848
250.242
148.578
49.2653
2309.86
2131.29
1918.63
1696.44
1480.33
1278.23
1092.97
924.475
771.272
631.269
502.21
381.878
268.163
159.076
52.7236
2720.89
2465.05
2174.52
1887.25
1621.51
1383.15
1171.74
984.273
817.014
666.268
528.679
401.28
281.449
166.835
55.2761
3223.37
2833.44
2427.11
2056.47
1735.28
1461.09
1226.53
1023.84
846.22
688.089
544.942
413.102
289.511
171.534
56.8209
3857.31
3218.15
2643.9
2176.2
1802
1499.33
1249.43
1038.32
855.911
694.907
549.879
416.666
291.95
172.965
57.2937
4645.19
3537.85
2754.06
2202.36
1797.12
1484.77
1233.51
1024.05
844.177
685.729
542.986
411.721
288.65
171.08
56.6811
5331.91
3533.92
2632.06
2082
1699.31
1409.08
1175.75
980.18
810.992
660.826
524.598
398.572
279.842
166.021
55.0313
51.8928
156.014
261.143
367.963
477.176
589.523
705.828
827.096
954.75
1091.17
1240.98
1414.04
1632.89
1951.38
2502.78
52.3007
157.18
262.883
369.928
478.769
589.755
703.048
818.498
935.429
1052.27
1165.77
1268.88
1342.99
1324.7
953.857
52.5148
157.771
263.688
370.637
478.861
588.37
698.755
808.855
916.154
1015.66
1097.74
1143.84
1117.24
942.828
472.184
52.5709
157.901
263.772
370.453
478.05
586.364
694.645
801.142
902.277
991.12
1054.67
1069.26
994.094
766.656
319.472
52.4954
157.654
263.288
369.626
476.732
584.369
691.758
797.137
896.919
984.131
1045.57
1057
976.67
743.068
299.921
52.3033
157.073
262.311
368.259
475.035
582.532
690.255
797.003
900.269
995.019
1071.19
1108.42
1065.67
864.982
389.178
51.9976
156.165
260.835
366.31
472.826
580.528
689.416
799.273
909.512
1018.79
1123.82
1215.37
1264.34
1177.93
688.532
51.5721
154.904
258.798
363.63
469.784
577.687
687.891
801.265
919.405
1045.48
1185.81
1351.85
1556.98
1770.72
1604.31
51.0156
153.251
256.107
360.025
465.517
573.235
684.153
799.936
923.77
1062.25
1229.93
1461.16
1843.63
2627.46
4632.7
50.3168
151.166
252.673
355.323
459.694
566.549
677.022
793.003
917.95
1058.71
1229.91
1465.41
1851.52
2635.95
4636.68
49.468
148.622
248.441
349.419
452.137
557.337
666.052
779.831
901.133
1034.01
1185.2
1365.04
1582.77
1799.75
1618.64
48.4674
145.613
243.402
342.303
442.848
545.673
651.553
761.42
876.26
996.583
1120.58
1238.33
1314.5
1239.97
722.899
47.3197
142.155
237.587
334.039
431.969
531.877
634.27
739.542
847.566
956.584
1060.27
1140.48
1150.87
987.494
472.093
46.035
138.281
231.061
324.743
419.71
516.345
614.978
715.738
818.166
920.268
1016.25
1091.09
1107.88
979.463
519.047
44.6271
134.035
223.904
314.55
406.286
499.417
594.199
690.764
788.977
888.189
986.886
1082.01
1165.7
1201.97
967.155
43.1119
129.465
216.206
303.594
391.886
481.333
572.17
664.635
759.079
856.45
959.989
1080.85
1256.42
1612.71
2595.45
41.5063
124.623
208.054
292.005
376.679
462.277
549.003
637.12
727.136
820.413
921.05
1041.67
1221.61
1588.4
2586.9
39.8275
119.563
199.538
279.908
360.824
442.429
524.861
608.278
692.918
779.249
868.222
961.272
1057.04
1125.37
940.585
38.0923
114.334
190.744
267.428
344.486
421.999
500.026
578.576
657.515
736.239
812.547
878.974
911.49
838.086
472.299
36.3173
108.986
181.756
254.686
327.826
401.204
474.819
548.595
622.252
694.893
763.72
820.213
839.486
753.834
405.957
34.518
103.567
172.654
241.795
310.995
380.24
449.495
518.688
587.684
656.187
723.447
787.287
840.332
851.671
661.857
32.7091
98.1213
163.513
228.861
294.128
359.264
424.206
488.911
553.451
618.335
685.538
761.845
870.129
1089.19
1705.18
30.9039
92.6885
154.4
215.979
277.349
338.418
399.077
459.241
518.97
578.865
641.297
714.187
822.988
1051.04
1689.16
29.1146
87.3055
145.378
203.239
260.777
317.853
374.288
429.869
484.367
537.626
589.787
641.582
693.027
728.098
606.92
27.3517
82.0042
136.5
190.721
244.524
297.728
350.088
401.245
450.621
497.143
538.525
569.211
574.43
513.657
283.464
25.6239
76.8111
127.813
178.491
228.684
278.186
326.719
373.855
418.852
460.224
494.685
514.522
501.654
416.863
193.848
23.9378
71.7462
119.349
166.597
213.321
259.316
304.317
347.949
389.596
428.102
460.997
482.541
478.821
416.055
218.593
22.2985
66.8237
111.131
155.067
198.463
241.133
282.865
323.418
362.52
399.875
435.187
468.103
496.989
508.784
409.811
20.7087
62.0521
103.171
143.911
184.109
223.601
262.23
299.894
336.655
373.064
411.042
456.462
527.025
678.435
1101.48
19.1705
57.4361
95.4742
133.13
170.245
206.666
242.266
276.996
311.036
345.162
381.728
427.36
500.917
659.451
1094.3
17.6846
52.9781
88.043
122.724
156.863
190.303
222.905
254.577
285.357
315.568
346.119
378.866
415.8
448.586
386.484
16.2514
48.6788
80.8787
112.695
143.966
174.523
204.19
232.779
260.074
285.738
308.989
327.465
333.566
303.616
172.328
14.8706
44.5378
73.981
103.045
131.566
159.363
186.225
211.882
235.925
257.586
275.178
284.662
276.37
229.022
106.348
13.5414
40.5526
67.3471
93.7738
119.67
144.852
169.098
192.11
213.433
232.263
247
254.21
246.301
206.742
102.884
12.262
36.7182
60.9692
84.8718
108.271
130.994
152.83
173.513
192.675
209.787
224.055
234.262
238.218
229.121
170.195
11.0298
33.0267
54.834
76.3202
97.3449
117.753
137.366
155.974
173.347
189.292
203.937
218.663
239.209
286.115
432.978
9.84141
29.4675
48.9227
68.0904
86.8486
105.067
122.602
139.299
155.013
169.706
183.769
199.032
221.908
273.71
428.327
8.69253
26.0275
43.2122
60.1464
76.7293
92.8579
108.424
123.31
137.395
150.565
162.776
174.123
184.531
189.926
155.164
7.57864
22.6924
37.6765
52.4478
66.9278
81.0426
94.7206
107.883
120.416
132.098
142.391
149.875
150.647
134.043
73.3758
6.49517
19.4478
32.2895
44.9532
57.3822
69.5337
81.3796
92.8973
104.035
114.601
123.965
130.299
128.841
108.768
51.3748
5.43802
16.2808
27.0271
37.6229
48.0313
58.24
68.2702
78.1806
88.0566
97.9463
107.653
116.143
119.973
109.418
60.8762
4.40409
13.1814
21.87
30.4243
38.8211
47.0732
55.2477
63.4928
72.0748
81.4261
92.1956
105.235
121.104
136.461
121.225
3.39171
10.1439
16.8069
23.3362
29.7134
35.9628
42.1796
48.5757
55.5649
63.9287
75.1706
92.3738
122.606
184.766
339.375
2.40104
7.16866
11.8371
16.3548
20.6959
24.8775
28.99
33.2508
38.1063
44.4405
54.015
70.4773
101.952
168.893
333.035
1.43432
4.26237
6.97211
9.49678
11.7903
13.842
15.7003
17.5164
19.6261
22.7095
28.0853
38.1675
56.6861
85.5433
100.023
0.495723
1.4381
2.23558
2.79936
3.05344
2.94225
2.44218
1.58098
0.473902
-0.606741
-1.10372
0.0104968
4.25459
12.1952
16.0002
-0.408952
-1.28593
-2.33917
-3.68339
-5.42983
-7.68687
-10.5639
-14.1815
-18.6933
-24.3228
-31.4038
-40.3102
-50.7314
-58.2682
-43.1494
-1.27285
-3.88821
-6.71282
-9.8879
-13.5594
-17.8859
-23.0554
-29.322
-37.082
-47.0267
-60.4298
-79.5698
-107.709
-144.452
-151.722
-2.08874
-6.34617
-10.8446
-15.7495
-21.2361
-27.5012
-34.7861
-43.4258
-53.9527
-67.3265
-85.467
-112.571
-158.7
-251.088
-476.052
-2.84959
-8.63814
-14.6963
-21.2098
-28.3752
-36.4114
-45.5791
-56.2215
-68.8473
-84.3149
-104.277
-132.353
-177.553
-265.634
-481.849
-3.549
-10.7447
-18.2348
-26.221
-34.914
-44.5405
-55.3529
-67.6446
-81.7719
-98.1836
-117.452
-140.238
-166.619
-191.178
-171.087
-4.1814
-12.6491
-21.4325
-30.7461
-40.8102
-51.8524
-64.1063
-77.8003
-93.117
-110.073
-128.189
-145.625
-156.946
-147.717
-83.9817
-4.74197
-14.3371
-24.2667
-34.7563
-46.0345
-58.3312
-71.869
-86.8393
-103.334
-121.165
-139.405
-155.263
-161.545
-142.108
-69.2534
-5.2265
-15.7964
-26.7176
-38.2264
-50.561
-63.9588
-78.649
-94.8331
-112.636
-131.985
-152.288
-171.562
-184.012
-173.598
-100.119
-5.63127
-17.0158
-28.7672
-41.1323
-54.3605
-68.7023
-84.4069
-101.719
-120.882
-142.161
-165.904
-192.617
-222.371
-248.895
-219.017
-5.95293
-17.9853
-30.3985
-43.4498
-57.4003
-72.5158
-89.0671
-107.341
-127.682
-150.647
-177.482
-211.582
-262.994
-363.38
-621.371
-6.18856
-18.696
-31.5959
-45.1552
-59.6472
-75.3514
-92.5538
-111.552
-132.686
-156.474
-184.046
-218.555
-269.639
-368.448
-623.348
-6.33581
-19.1403
-32.3458
-46.2275
-61.0705
-77.169
-94.8201
-114.309
-135.882
-159.708
-185.83
-214.053
-243.177
-265.155
-225.546
-6.39318
-19.3131
-32.6377
-46.6486
-61.643
-77.9341
-95.8406
-115.654
-137.552
-161.39
-186.198
-208.97
-221.72
-204.668
-113.518
-6.36035
-19.2128
-32.4662
-46.4051
-61.3388
-77.6064
-95.5716
-115.591
-137.92
-162.447
-188.035
-210.899
-221.012
-195.681
-95.8722
-6.23882
-18.8428
-31.833
-45.491
-60.1347
-76.1327
-93.9149
-113.971
-136.812
-162.826
-191.826
-221.749
-244.983
-238.471
-142.098
-6.03263
-18.2138
-30.7517
-43.9146
-58.0193
-73.4564
-90.7226
-110.467
-133.56
-161.196
-195.048
-237.329
-289.699
-343.749
-318.807
-5.74923
-17.347
-29.2531
-41.7083
-55.0105
-69.5494
-85.857
-104.694
-127.216
-155.325
-192.502
-246.005
-333.365
-504.013
-921.102
-5.40031
-16.2767
-27.3913
-38.9395
-51.1769
-64.4569
-79.2862
-96.4232
-117.065
-143.239
-178.714
-231.283
-319.335
-493.337
-916.95
-5.00239
-15.0522
-25.2473
-35.7192
-46.6558
-58.3341
-71.168
-85.7832
-103.145
-124.785
-153.157
-192.041
-245.766
-309.526
-305.115
-4.57698
-13.7384
-22.9309
-32.205
-41.6577
-51.4571
-61.8711
-73.3036
-86.3359
-101.748
-120.41
-142.615
-165.364
-173.206
-114.117
-4.15033
-12.4149
-20.5784
-28.5963
-36.4586
-44.2037
-51.9277
-59.7844
-67.9561
-76.5508
-85.3154
-92.9299
-95.4413
-83.4815
-40.6431
-3.75269
-11.1739
-18.348
-25.126
-31.3818
-37.0168
-41.9554
-46.1209
-49.3687
-51.3343
-51.1321
-46.9122
-35.6947
-15.3142
6.0753
-3.41749
-10.1171
-16.4141
-22.0496
-26.7779
-30.3663
-32.5843
-33.1715
-31.7627
-27.7272
-19.8546
-5.89379
17.5457
52.0159
76.0067
-3.18027
-9.35233
-14.9609
-19.6345
-23.0079
-24.7208
-24.4097
-21.6847
-16.0741
-6.89413
7.07579
28.3896
62.9532
126.43
267.99
-3.07782
-8.99121
-14.1782
-18.154
-20.4338
-20.5345
-17.9752
-12.2763
-2.95571
10.5005
28.7828
53.3127
88.0827
146.338
275.919
-3.14735
-9.14651
-14.2576
-17.8821
-19.4155
-18.2497
-13.7849
-5.45654
7.20211
24.4322
46.0254
70.9703
96.7089
116.429
102.491
-3.42576
-9.93012
-15.3892
-19.0925
-20.313
-18.3093
-12.3415
-1.71655
14.0999
35.2264
60.8156
87.934
109.347
109.702
61.5593
-3.94876
-11.4507
-17.7593
-22.0555
-23.4888
-21.1729
-14.1944
-1.65272
17.2286
42.8217
74.4276
108.735
136.468
136.522
72.6172
-4.74978
-13.8106
-21.5451
-27.0336
-29.3054
-27.3226
-19.9697
-6.06015
15.6177
46.1498
86.0582
133.987
182.694
207.651
140.102
-5.85862
-17.1016
-26.9079
-34.2708
-38.1112
-37.2458
-30.3527
-15.9274
7.78092
42.8786
92.0242
158.58
245.3
342.914
355.209
-7.29968
-21.3996
-33.9833
-43.9781
-50.2171
-51.3955
-46.015
-32.2993
-8.03771
29.7666
85.8142
169.056
300.22
537.296
1072.09
-9.09013
-26.7588
-42.8712
-56.3157
-65.8674
-70.1375
-67.509
-56.0445
-33.3242
3.9057
60.6398
146.146
281.463
524.755
1067.62
-11.238
-33.206
-53.6247
-71.3761
-85.2132
-93.7054
-95.1791
-87.6498
-68.7405
-35.5713
15.4106
88.55
187.605
304.006
341.195
-13.7406
-40.7351
-66.2413
-89.1715
-108.295
-122.179
-129.138
-127.197
-114.105
-87.4796
-45.2733
12.8781
81.6081
138.156
114.376
-16.5828
-49.3029
-80.6555
-109.624
-135.034
-155.488
-169.31
-174.522
-168.906
-150.257
-117.086
-70.1997
-15.9979
28.0225
29.8575
-19.7356
-58.8244
-96.7324
-132.559
-165.231
-193.423
-215.486
-229.397
-232.787
-223.155
-198.464
-158.402
-106.578
-52.8563
-11.9371
-23.1551
-69.169
-114.26
-157.694
-198.551
-235.629
-267.341
-291.598
-305.734
-306.539
-290.541
-254.807
-198.502
-124.869
-41.9049
-26.781
-80.157
-132.941
-184.624
-234.502
-281.572
-324.384
-360.839
-387.956
-401.608
-396.337
-365.516
-302.476
-203.372
-72.4651
-30.5364
-91.5568
-152.391
-212.81
-272.407
-330.478
-385.844
-436.567
-479.534
-509.825
-519.876
-498.608
-431.497
-303.963
-112.765
-34.3281
-103.086
-172.129
-241.567
-311.372
-381.264
-450.526
-517.677
-579.908
-632.096
-665.155
-663.528
-602.471
-448.76
-176.905
-38.0487
-114.418
-191.591
-270.069
-350.276
-432.485
-516.667
-602.191
-687.241
-767.637
-834.504
-869.701
-837.769
-675.586
-297.954
-41.5803
-125.188
-210.144
-297.365
-387.782
-482.328
-581.864
-687.018
-797.781
-912.549
-1025.82
-1122.46
-1163.48
-1051.99
-570.58
-44.8005
-135.021
-227.121
-322.434
-422.414
-528.692
-643.14
-767.925
-905.51
-1058.47
-1228.63
-1413.8
-1595.06
-1685.22
-1301.35
-47.5899
-143.545
-241.863
-344.257
-452.66
-569.364
-697.212
-839.909
-1002.53
-1192.41
-1420.98
-1707.76
-2089.85
-2647.55
-3572.89
3764.11
2806.14
2227.78
1830.54
1531.25
1291.36
1090.72
917.569
764.426
626.172
499.091
380.335
267.612
158.985
52.7348
1375.37
1792.31
1707.08
1522.65
1331.37
1153.56
991.977
845.094
710.543
586.016
469.463
359.095
253.332
150.754
50.0457
607.283
1127.18
1255.22
1219.5
1122.1
1004.46
883.005
764.039
649.685
540.311
435.533
334.65
236.836
141.222
46.9274
321.602
734.136
917.064
959.158
926.86
857.987
772.29
679.765
585.357
491.405
398.889
308.067
218.808
130.771
43.5032
196.103
500.528
676.691
750.457
757.004
723.181
666.301
596.785
520.699
441.491
361.062
280.394
199.929
119.785
39.8965
131.56
355.982
507.414
588.421
615.169
604.372
569.074
518.357
458.199
392.418
323.393
252.575
180.822
108.618
36.2231
93.8864
262.115
387.032
464.054
499.394
502.566
482.544
446.473
399.596
345.589
286.962
225.401
162.026
97.5828
32.5847
69.7833
198.321
299.903
368.623
405.947
416.857
407.148
382.085
345.936
301.962
252.565
199.483
143.967
86.9311
29.0648
53.3378
153.243
235.59
294.988
330.836
345.457
342.408
325.387
297.705
262.096
220.721
175.25
126.963
76.8543
25.7273
41.5931
120.354
187.208
237.702
270.459
286.323
287.362
276.086
254.972
226.228
191.719
152.97
111.22
67.4836
22.6167
32.9211
95.7305
150.184
192.73
221.806
237.478
240.863
233.612
217.532
194.361
165.657
132.771
96.8554
58.8965
19.7602
26.3545
76.9083
121.426
157.107
182.459
197.16
201.744
197.265
185.014
166.331
142.496
114.674
83.9078
51.1257
17.1703
21.2842
62.2762
98.8017
128.655
150.504
163.863
168.917
166.312
156.958
141.876
122.1
98.6197
72.3583
44.1689
14.8473
17.3082
50.7447
80.8091
105.757
124.443
136.33
141.404
140.043
132.877
120.678
104.274
84.4949
62.1464
37.9973
12.7832
14.1512
41.5538
66.3678
87.2066
103.1
113.525
118.358
117.801
112.288
102.398
88.7892
72.1529
53.1837
32.5646
10.9635
11.6189
34.1598
54.6858
72.0882
85.5544
94.6
99.0517
99.0001
94.7378
86.6986
75.4052
61.4297
45.3658
27.8133
9.3699
9.57021
28.1642
45.172
59.7019
71.0767
78.8637
82.8711
83.121
79.8081
73.2572
63.8824
52.1554
38.5807
23.68
7.98196
7.9008
23.2696
37.3781
49.5055
59.0892
65.7506
69.2985
69.7143
67.1256
61.7753
53.9919
44.1632
32.7158
20.0998
6.77852
6.5318
19.2499
30.9591
41.0748
49.13
54.7983
57.8995
58.3928
56.3596
51.9819
45.5206
37.2942
27.6617
17.0091
5.73867
5.40263
15.9304
25.6461
34.0741
40.8276
45.6277
48.3106
48.8248
47.2205
43.6346
38.2742
31.4009
23.3156
14.3472
4.84235
4.4661
13.1745
21.2269
28.2357
33.881
37.9264
40.2268
40.7271
39.4566
36.5186
32.0779
26.3486
19.5823
12.0575
4.07086
3.68491
10.8739
17.5322
23.3437
28.0447
31.4364
33.3922
33.8583
32.8501
30.4455
26.7758
22.016
16.3753
10.0883
3.40697
3.02924
8.9417
14.4251
19.2225
23.1171
25.9431
27.5917
28.0127
27.2127
25.2504
22.2302
18.2946
13.6168
8.39291
2.83508
2.47491
7.3073
11.7943
15.7278
18.9311
21.267
22.6433
23.0146
22.382
20.7896
18.3199
15.0885
11.2374
6.92922
2.34116
2.0021
5.91267
9.54761
12.7401
15.3473
17.2571
18.3923
18.7133
18.2175
16.9376
14.9385
12.3125
9.17512
5.65982
1.91265
1.59428
4.70939
7.60807
10.1587
12.2477
13.7848
14.7066
14.979
14.5973
13.585
11.9921
9.89137
7.37525
4.55136
1.53837
1.23745
3.65637
5.91017
7.89782
9.53127
10.7396
11.4718
11.6989
11.4148
10.6356
9.3982
7.75869
5.78904
3.57417
1.20837
0.919481
2.71803
4.3971
5.88288
7.1101
8.02497
8.58762
8.77385
8.57622
8.00419
7.08359
5.85525
4.37312
2.7018
0.913748
0.629595
1.86269
3.0183
4.04757
4.90592
5.55508
5.96496
6.11544
5.99769
5.61498
4.98275
4.12812
3.08862
1.91051
0.646526
0.357854
1.06122
1.72737
2.33108
2.84718