/*--------------------------------*- C++ -*----------------------------------*\
| =========                 |                                                 |
| \\      /  F ield         | OpenFOAM: The Open Source CFD Toolbox           |
|  \\    /   O peration     | Version:  5.x                                   |
|   \\  /    A nd           | Web:      www.OpenFOAM.org                      |
|    \\/     M anipulation  |                                                 |
\*---------------------------------------------------------------------------*/
FoamFile
{
    version     2.0;
    format      ascii;
    class       volScalarField;
    location    "3.6";
    object      T;
}
// * * * * * * * * * * * * * * * * * * * * * * * * * * * * * * * * * * * * * //

dimensions      [0 0 0 1 0 0 0];

internalField   nonuniform List<scalar> 
6300
(
26.741
60.1754
93.4666
126.518
159.234
191.516
223.266
254.384
284.771
314.331
342.969
370.596
397.129
422.497
446.642
26.7881
60.3169
93.7029
126.85
159.663
192.042
223.89
255.105
285.589
315.243
343.969
371.676
398.28
423.706
447.893
26.8821
60.5992
94.1748
127.514
160.519
193.094
225.138
256.55
287.228
317.07
345.976
373.848
400.596
426.14
450.413
27.0226
61.0214
94.8805
128.506
161.801
194.67
227.01
258.72
289.693
319.824
349.005
377.131
404.102
429.829
454.237
27.2089
61.5814
95.817
129.823
163.506
196.767
229.505
261.617
292.991
323.517
353.077
381.555
408.839
434.823
459.42
27.4401
62.2764
96.9799
131.461
165.626
199.379
232.62
265.241
297.129
328.164
358.218
387.161
414.86
441.191
466.043
27.7148
63.1022
98.3625
133.409
168.153
202.498
236.347
269.59
302.11
333.78
364.459
393.997
422.236
449.021
474.211
28.0309
64.0531
99.9557
135.657
171.071
206.108
240.671
274.652
307.932
340.376
371.829
402.117
431.051
458.431
484.068
28.3862
65.1219
101.747
138.187
174.361
210.186
245.569
280.407
314.58
347.95
380.35
411.579
441.406
469.568
495.803
28.7773
66.299
103.722
140.977
177.995
214.698
251.003
286.816
322.022
356.484
390.028
422.431
453.409
482.616
509.671
29.2006
67.5733
105.86
144.001
181.937
219.601
256.923
293.821
330.196
365.923
400.834
434.692
467.167
497.801
526.025
29.6519
68.9318
108.14
147.227
186.144
224.839
263.258
301.339
339.007
376.167
412.678
448.323
482.748
515.381
545.361
30.1265
70.3603
110.537
150.618
190.567
230.347
269.923
309.258
348.315
387.046
425.374
463.158
500.105
535.596
568.404
30.6195
71.8441
113.026
154.137
195.152
236.051
276.819
317.446
357.939
398.314
438.599
478.816
518.901
558.475
596.175
31.1264
73.3689
115.581
157.746
199.848
241.88
283.844
325.759
367.668
409.657
451.879
494.589
538.191
583.21
629.681
467.614
485.783
503.051
519.421
534.903
549.519
563.296
576.267
588.472
599.953
610.756
620.93
630.525
639.589
648.174
656.327
664.097
671.53
678.671
685.562
692.244
698.753
705.125
711.392
717.58
723.716
729.819
735.907
741.991
748.081
754.181
760.293
766.413
772.539
778.662
784.774
790.866
796.927
802.945
808.907
814.799
820.606
826.314
831.907
837.37
842.686
847.843
852.825
857.62
862.217
866.603
870.769
874.702
878.391
881.824
884.988
887.868
890.448
892.714
894.648
896.231
897.446
898.271
898.686
898.666
898.185
897.217
895.728
893.686
891.053
887.789
883.849
879.187
873.754
867.499
860.368
852.307
843.257
833.162
821.964
809.607
796.035
781.196
765.041
747.53
728.626
708.306
686.553
663.367
638.756
468.888
487.065
504.328
520.68
536.133
550.709
564.437
577.352
589.494
600.908
611.641
621.744
631.266
640.259
648.772
656.856
664.559
671.928
679.008
685.841
692.468
698.927
705.254
711.479
717.632
723.738
729.817
735.886
741.958
748.041
754.14
760.254
766.381
772.516
778.651
784.777
790.885
796.963
802.999
808.98
814.893
820.722
826.452
832.068
837.552
842.889
848.065
853.066
857.878
862.491
866.894
871.075
875.025
878.732
882.184
885.368
888.269
890.873
893.164
895.123
896.734
897.978
898.834
899.282
899.299
898.86
897.936
896.497
894.509
891.935
888.733
884.86
880.269
874.911
868.733
861.682
853.702
844.735
834.724
823.609
811.331
797.835
783.065
766.972
749.511
730.644
710.346
688.598
665.398
640.754
471.454
489.647
506.899
523.214
538.607
553.102
566.729
579.529
591.543
602.822
613.414
623.371
632.748
641.596
649.967
657.911
665.48
672.719
679.675
686.392
692.91
699.268
705.503
711.646
717.727
723.773
729.803
735.836
741.884
747.954
754.049
760.17
766.311
772.466
778.626
784.78
790.919
797.031
803.104
809.125
815.08
820.953
826.728
832.389
837.917
843.297
848.512
853.549
858.395
863.039
867.473
871.686
875.668
879.41
882.9
886.125
889.07
891.72
894.06
896.071
897.736
899.037
899.955
900.471
900.561
900.203
899.368
898.028
896.148
893.69
890.615
886.877
882.428
877.219
871.197
864.307
856.491
847.692
837.849
826.9
814.785
801.444
786.816
770.849
753.491
734.702
714.449
692.713
669.486
644.778
475.349
493.567
510.801
527.059
542.357
556.723
570.195
582.815
594.634
605.703
616.078
625.815
634.97
643.597
651.752
659.486
666.851
673.895
680.665
687.205
693.558
699.764
705.859
711.878
717.85
723.804
729.762
735.74
741.752
747.804
753.898
760.031
766.196
772.383
778.581
784.78
790.966
797.129
803.257
809.338
815.356
821.297
827.142
832.873
838.469
843.913
849.187
854.278
859.173
863.864
868.341
872.599
876.629
880.423
883.969
887.255
890.267
892.987
895.4
897.488
899.233
900.619
901.628
902.242
902.441
902.202
901.501
900.307
898.589
896.308
893.423
889.888
885.654
880.671
874.884
868.236
860.67
852.125
842.538
831.845
819.981
806.879
792.473
776.703
759.511
740.845
720.668
698.952
675.688
650.881
480.634
498.885
516.093
532.268
547.43
561.614
574.866
587.236
598.782
609.563
619.64
629.075
637.928
646.258
654.12
661.571
668.661
675.442
681.961
688.264
694.395
700.394
706.301
712.151
717.976
723.806
729.665
735.571
741.536
747.568
753.664
759.819
766.022
772.257
778.511
784.769
791.02
797.251
803.452
809.612
815.718
821.752
827.694
833.522
839.213
844.745
850.099
855.26
860.218
864.966
869.498
873.812
877.902
881.763
885.384
888.752
891.853
894.668
897.179
899.368
901.218
902.715
903.841
904.582
904.921
904.839
904.312
903.314
901.811
899.767
897.138
893.876
889.932
885.253
879.782
873.461
866.232
858.032
848.794
838.452
826.933
814.164
800.072
784.582
767.626
749.142
729.079
707.4
684.089
659.148
487.393
505.686
522.856
538.915
553.891
567.83
580.786
592.824
604.01
614.415
624.106
633.152
641.619
649.568
657.059
664.15
670.894
677.343
683.545
689.548
695.397
701.134
706.8
712.434
718.07
723.742
729.474
735.29
741.201
747.212
753.321
759.514
765.774
772.079
778.408
784.744
791.074
797.388
803.679
809.939
816.155
822.31
828.382
834.34
840.157
845.805
851.26
856.507
861.537
866.348
870.941
875.317
879.477
883.418
887.132
890.606
893.821
896.756
899.391
901.706
903.685
905.313
906.579
907.471
907.978
908.086
907.774
907.017
905.786
904.039
901.734
898.819
895.242
890.946
885.874
879.968
873.166
865.404
856.615
846.726
835.658
823.33
809.656
794.548
777.919
759.691
739.794
718.177
694.814
669.702
495.74
514.088
531.203
547.102
561.828
575.44
588.01
599.617
610.344
620.271
629.479
638.042
646.032
653.514
660.553
667.206
673.529
679.575
685.392
691.031
696.535
701.951
707.322
712.688
718.09
723.564
729.14
734.845
740.694
746.692
752.829
759.087
765.435
771.839
778.268
784.701
791.124
797.532
803.924
810.3
816.652
822.963
829.203
835.335
841.318
847.113
852.692
858.037
863.143
868.017
872.666
877.104
881.338
885.372
889.198
892.803
896.162
899.248
902.035
904.5
906.627
908.404
909.825
910.886
911.582
911.907
911.845
911.377
910.471
909.088
907.178
904.687
901.557
897.727
893.14
887.735
881.453
874.229
865.993
856.669
846.172
834.41
821.281
806.677
790.491
772.617
752.961
731.449
708.034
682.709
505.832
524.246
541.28
556.961
571.35
584.53
596.599
607.658
617.807
627.144
635.759
643.736
651.152
658.078
664.578
670.714
676.54
682.11
687.474
692.681
697.777
702.81
707.824
712.867
717.982
723.212
728.597
734.168
739.948
745.943
752.14
758.505
764.988
771.535
778.098
784.646
791.168
797.67
804.166
810.669
817.181
823.688
830.152
836.517
842.721
848.705
854.431
859.881
865.057
869.978
874.668
879.155
883.459
887.594
891.555
895.323
898.865
902.141
905.113
907.752
910.042
911.977
913.559
914.796
915.693
916.253
916.473
916.336
915.815
914.865
913.431
911.448
908.849
905.571
901.554
896.739
891.069
884.482
876.91
868.274
858.483
847.432
835.002
821.061
805.469
788.086
768.779
747.436
723.984
698.4
517.88
536.376
553.287
568.661
582.592
595.202
606.623
616.986
626.418
635.033
642.935
650.215
656.955
663.231
669.107
674.644
679.897
684.919
689.76
694.467
699.087
703.67
708.263
712.916
717.682
722.613
727.759
733.166
738.868
744.879
751.182
757.725
764.424
771.183
777.923
784.601
791.215
797.79
804.37
810.996
817.691
824.448
831.215
837.905
844.411
850.641
856.539
862.09
867.311
872.243
876.935
881.438
885.797
890.037
894.16
898.14
901.923
905.443
908.641
911.478
913.939
916.028
917.763
919.165
920.259
921.062
921.584
921.821
921.745
921.31
920.445
919.066
917.092
914.452
911.087
906.945
901.977
896.127
889.332
881.515
872.581
862.413
850.872
837.796
823.003
806.302
787.503
766.438
742.983
717.088
532.177
550.77
567.487
582.418
595.717
607.565
618.147
627.636
636.185
643.929
650.984
657.448
663.407
668.936
674.1
678.958
683.564
687.967
692.214
696.352
700.428
704.49
708.589
712.78
717.122
721.679
726.521
731.715
737.319
743.368
749.853
756.695
763.749
770.833
777.81
784.623
791.289
797.878
804.483
811.196
818.086
825.163
832.362
839.53
846.471
853.027
859.119
864.745
869.954
874.824
879.444
883.902
888.276
892.618
896.942
901.211
905.33
909.18
912.659
915.715
918.341
920.561
922.415
923.95
925.212
926.245
927.078
927.724
928.166
928.346
928.169
927.511
926.264
924.348
921.711
918.314
914.125
909.104
903.198
896.338
888.428
879.344
868.927
856.977
843.26
827.513
809.466
788.857
765.475
739.209
549.145
567.847
584.241
598.507
610.91
621.73
631.225
639.616
647.089
653.795
659.86
665.385
670.455
675.143
679.511
683.613
687.499
691.214
694.801
698.303
701.765
705.234
708.759
712.401
716.225
720.311
724.751
729.646
735.103
741.206
747.982
755.336
763.004
770.61
777.907
784.829
791.448
797.915
804.41
811.116
818.182
825.677
833.526
841.455
849.057
856.051
862.342
867.973
873.056
877.735
882.155
886.459
890.772
895.196
899.775
904.465
909.098
913.42
917.255
920.541
923.299
925.591
927.496
929.095
930.468
931.686
932.812
933.892
934.931
935.868
936.554
936.775
936.369
935.253
933.397
930.795
927.443
923.326
918.411
912.643
905.936
898.168
889.161
878.678
866.412
852.012
835.092
815.245
792.096
765.4
569.428
588.228
604.037
617.257
628.362
637.783
645.869
652.897
659.074
664.564
669.491
673.953
678.031
681.788
685.281
688.557
691.657
694.621
697.486
700.289
703.07
705.87
708.739
711.734
714.927
718.41
722.3
726.745
731.93
738.05
745.254
753.498
762.321
770.808
778.517
785.443
791.801
797.885
804.008
810.49
817.632
825.654
834.545
843.822
852.492
860.06
866.489
871.959
876.713
880.989
885.007
888.972
893.081
897.519
902.42
907.774
913.282
918.331
922.612
926.1
928.898
931.148
932.987
934.538
935.916
937.228
938.584
940.089
941.812
943.723
945.58
946.912
947.468
947.195
946.129
944.328
941.834
938.668
934.824
930.271
924.947
918.746
911.496
902.918
892.609
880.115
864.909
846.365
823.799
796.64
594.127
612.894
627.542
639.033
648.219
655.733
662.018
667.378
672.028
676.12
679.767
683.052
686.043
688.791
691.341
693.728
695.987
698.146
700.235
702.283
704.321
706.383
708.511
710.756
713.187
715.898
719.023
722.756
727.384
733.306
741.003
750.802
762.096
772.1
780.228
786.85
792.523
797.77
803.063
808.887
815.786
824.353
834.982
847.034
857.484
865.68
871.987
876.948
881.028
884.585
887.905
891.247
894.887
899.147
904.383
910.832
918.097
924.316
929.084
932.62
935.255
937.266
938.861
940.202
941.428
942.676
944.112
945.939
948.394
951.626
955.329
958.136
959.73
960.246
959.891
958.828
957.164
954.956
952.228
948.981
945.19
940.806
935.713
929.625
921.926
912.095
899.504
883.251
862.09
834.604
625.456
643.468
655.574
664.104
670.46
675.432
679.474
682.86
685.762
688.295
690.539
692.553
694.381
696.057
697.61
699.062
700.436
701.749
703.02
704.268
705.513
706.778
708.09
709.487
711.021
712.766
714.844
717.454
720.951
725.98
733.701
745.927
763.702
776.066
784.081
789.595
793.835
797.559
801.327
805.709
811.512
820.055
833.342
852.525
865.694
873.991
879.393
883.178
886.069
888.494
890.741
893.064
895.772
899.34
904.569
912.683
924.39
932.361
937.297
940.41
942.482
943.951
945.071
946.003
946.875
947.825
949.045
950.857
953.825
958.821
966.34
971.075
973.516
974.523
974.641
974.165
973.245
971.961
970.352
968.442
966.26
963.86
961.332
958.622
954.284
948.022
939.346
927.179
909.462
882.679
669.156
682.527
688.731
692.285
694.671
696.445
697.852
699.014
700.003
700.861
701.62
702.298
702.913
703.477
703.998
704.486
704.947
705.388
705.815
706.234
706.653
707.079
707.523
707.998
708.524
709.131
709.873
710.85
712.288
714.753
719.889
733.033
773.077
786.269
791.51
794.15
795.86
797.26
798.68
800.459
803.262
808.9
823.184
866.647
880.89
886.441
889.102
890.664
891.753
892.63
893.437
894.298
895.39
897.112
900.569
909.334
936.031
944.747
948.104
949.67
950.544
951.109
951.521
951.859
952.181
952.554
953.094
954.08
956.306
962.349
981.331
987.287
989.335
990.049
990.217
990.107
989.822
989.405
988.879
988.265
987.611
987.07
987.182
989.935
989.385
987.398
984.184
979.072
969.86
949.662
610.141
576.964
541.91
505.087
466.62
426.646
385.31
342.764
299.157
254.641
209.363
163.469
117.1
70.3941
23.487
612.085
578.822
543.662
506.716
468.113
427.994
386.51
343.813
300.057
255.394
209.973
163.939
117.433
70.593
23.5531
615.996
582.56
547.184
509.986
471.106
430.695
388.91
345.911
301.855
256.898
211.19
164.877
118.097
70.9893
23.6848
621.926
588.221
552.509
514.923
475.617
434.757
392.513
349.054
304.545
259.145
213.006
166.274
119.087
71.5795
23.881
629.952
595.873
559.691
521.563
481.668
440.191
397.319
353.237
308.116
262.122
215.409
168.121
120.394
72.3585
24.1398
640.188
605.608
568.801
529.956
489.285
447.004
403.325
358.446
312.552
265.812
218.381
170.401
122.006
73.3187
24.4586
652.786
617.554
579.931
540.158
498.497
455.203
410.517
364.659
317.824
270.184
221.894
173.093
123.906
74.4494
24.834
667.952
631.871
593.192
552.234
509.326
464.779
418.87
371.838
323.89
275.198
225.913
176.165
126.071
75.737
25.2612
685.962
648.767
608.714
566.242
521.778
475.703
428.332
379.924
330.689
280.797
230.387
179.578
128.473
77.1639
25.7345
707.191
668.502
626.636
582.224
535.828
487.908
438.817
388.826
338.136
286.904
235.253
183.282
131.076
78.7085
26.2465
732.159
691.393
647.087
600.17
551.385
501.267
450.191
398.414
346.114
293.422
240.431
187.216
133.837
80.3454
26.789
761.609
717.803
670.127
619.968
568.258
515.571
462.252
408.511
354.476
300.229
245.826
191.308
136.705
82.0452
27.3521
796.627
748.062
695.629
641.3
586.091
530.489
474.722
418.89
363.039
307.184
251.33
195.478
139.627
83.7761
27.9254
838.755
782.166
723.005
663.492
604.298
545.557
487.241
429.277
371.594
314.127
256.824
199.641
142.544
85.5045
28.4979
889.531
818.819
750.71
685.347
622.033
560.185
499.392
439.371
379.922
320.898
262.19
203.712
145.4
87.1977
29.059
31.5997
74.7922
117.965
161.106
204.211
247.278
290.321
333.374
376.501
419.83
463.59
508.214
554.556
604.536
663.498
32.0343
76.0985
120.15
164.184
208.197
252.196
296.197
340.236
384.384
428.768
473.626
519.395
566.893
617.672
674.468
32.4714
77.4118
122.346
167.272
212.19
257.107
302.039
347.015
392.092
437.368
483.02
529.362
576.939
626.615
679.396
32.9095
78.728
124.545
170.361
216.179
262.002
307.843
353.717
399.653
445.696
491.922
538.459
585.514
633.386
682.338
33.3475
80.0435
126.742
173.446
220.158
266.88
313.616
360.368
407.13
453.886
500.597
547.183
593.507
639.392
684.721
33.7844
81.3556
128.933
176.522
224.124
271.742
319.372
367.003
414.601
462.098
509.348
556.075
601.792
645.77
687.337
34.2193
82.6614
131.114
179.584
228.075
276.589
325.121
373.651
422.134
470.47
518.451
565.656
611.268
653.809
691.207
34.6511
83.9583
133.28
182.627
232.004
281.417
330.862
380.324
429.76
479.078
528.079
576.331
622.864
665.403
698.812
35.0788
85.2431
135.427
185.644
235.905
286.217
336.585
387.006
437.458
487.895
538.214
588.187
637.218
683.321
717.945
35.5013
86.5125
137.549
188.627
239.763
290.971
342.265
393.656
445.156
496.782
548.577
600.684
653.591
709.194
776.024
35.9174
87.7626
139.639
191.566
243.566
295.659
347.869
400.222
452.757
505.54
558.712
612.611
668.077
727.253
795.223
36.3258
88.9895
141.69
194.451
247.299
300.26
353.366
406.653
460.175
514.016
568.331
623.435
679.97
739.189
803.001
36.7252
90.1895
143.695
197.271
250.947
304.754
358.728
412.913
467.361
522.15
577.389
633.25
689.985
747.919
807.272
37.1145
91.3588
145.649
200.018
254.498
309.125
363.937
418.979
474.301
529.959
586.002
642.443
699.152
755.648
810.869
37.4925
92.4941
147.546
202.684
257.942
313.36
368.978
424.842
480.997
537.487
594.326
651.435
708.45
764.244
815.922
37.8582
93.5927
149.381
205.261
261.27
317.448
373.84
430.492
487.451
544.762
602.45
660.476
718.58
775.681
826.989
38.211
94.6519
151.15
207.744
264.473
321.382
378.514
435.919
493.649
551.762
610.326
669.449
729.39
791.122
859.18
38.55
95.6697
152.849
210.127
267.548
325.153
382.99
441.11
499.57
558.435
617.801
677.837
738.94
802.154
870.104
38.8748
96.6446
154.475
212.409
270.487
328.756
387.262
446.057
505.197
564.749
624.796
685.47
747.007
809.879
874.856
39.1849
97.5753
156.028
214.585
273.289
332.186
391.324
450.753
510.528
570.706
631.343
692.487
754.131
816.122
877.975
39.4801
98.461
157.505
216.653
275.951
335.443
395.176
455.2
515.568
576.331
637.525
699.14
760.999
822.442
881.622
39.7602
99.3014
158.905
218.614
278.472
338.524
398.816
459.398
520.323
581.642
643.401
705.608
768.137
830.317
889.006
40.0252
100.096
160.23
220.468
280.853
341.43
402.246
463.349
524.792
586.636
648.951
711.837
775.501
840.596
910.042
40.2753
100.846
161.479
222.214
283.095
344.164
405.467
467.052
528.972
591.29
654.089
717.511
781.853
847.834
917.159
40.5105
101.551
162.653
223.855
285.199
346.728
408.484
470.513
532.865
595.597
658.781
722.53
787.051
852.731
920.157
40.7311
102.213
163.754
225.393
287.17
349.126
411.302
473.74
536.483
599.576
663.065
726.998
791.427
856.395
921.883
40.9375
102.832
164.783
226.83
289.011
351.364
413.929
476.744
539.846
603.267
667.025
731.106
795.412
859.678
923.388
41.1301
103.409
165.743
228.169
290.726
353.448
416.374
479.539
542.976
606.711
670.748
735.041
799.408
863.329
925.527
41.3092
103.945
166.635
229.414
292.319
355.383
418.644
482.134
545.888
609.932
674.278
738.908
803.695
868.158
930.218
41.4752
104.443
167.462
230.568
293.794
357.175
420.744
484.537
548.587
612.929
677.599
742.648
808.191
874.636
943.885
41.6287
104.903
168.226
231.633
295.156
358.828
422.681
486.751
551.072
615.684
680.641
746.03
812.044
879.149
948.457
41.77
105.326
168.93
232.613
296.408
360.346
424.459
488.78
553.343
618.188
683.367
748.963
815.121
882.113
950.326
41.8995
105.714
169.574
233.511
297.555
361.736
426.084
490.63
555.406
620.447
685.79
751.488
817.603
884.209
951.329
42.0178
106.068
170.163
234.331
298.601
363.002
427.563
492.311
557.275
622.481
687.953
753.707
819.728
885.93
952.098
42.1252
106.39
170.697
235.074
299.55
364.151
428.903
493.832
558.964
624.318
689.907
755.725
821.708
887.655
953.043
42.2222
106.68
171.179
235.745
300.406
365.186
430.11
495.203
560.486
625.978
691.688
757.611
823.698
889.748
954.935
42.3091
106.94
171.611
236.346
301.172
366.113
431.192
496.432
561.853
627.473
693.306
759.369
825.695
892.423
960.26
42.3862
107.171
171.994
236.88
301.853
366.937
432.154
497.525
563.07
628.806
694.751
760.929
827.396
894.31
962.074
42.4539
107.374
172.331
237.349
302.451
367.661
432.999
498.487
564.143
629.982
696.019
762.271
828.771
895.589
962.846
42.5125
107.549
172.622
237.754
302.969
368.288
433.732
499.323
565.077
631.008
697.124
763.427
829.907
896.544
963.297
42.5622
107.698
172.869
238.098
303.407
368.82
434.356
500.035
565.877
631.892
698.085
764.443
830.918
897.402
963.702
42.6031
107.821
173.073
238.381
303.769
369.258
434.87
500.626
566.544
632.64
698.918
765.362
831.907
898.368
964.311
42.6356
107.918
173.234
238.605
304.055
369.604
435.276
501.094
567.078
633.249
699.622
766.197
832.936
899.676
965.723
42.6597
107.99
173.353
238.77
304.264
369.858
435.573
501.435
567.47
633.706
700.171
766.902
833.95
901.447
969.968
42.6756
108.037
173.431
238.878
304.399
370.019
435.76
501.648
567.713
633.99
700.522
767.371
834.636
902.491
971.273
42.6836
108.061
173.469
238.929
304.461
370.088
435.835
501.727
567.798
634.084
700.639
767.538
834.895
902.873
971.635
42.6839
108.061
173.468
238.924
304.45
370.068
435.8
501.674
567.721
633.98
700.503
767.372
834.707
902.694
971.54
42.6768
108.04
173.43
238.867
304.37
369.96
435.659
501.491
567.486
633.679
700.115
766.866
834.049
901.902
970.915
42.6627
107.997
173.356
238.76
304.224
369.77
435.416
501.185
567.103
633.196
699.496
766.045
832.911
900.287
969.011
42.642
107.934
173.249
238.605
304.016
369.502
435.079
500.767
566.587
632.557
698.691
764.99
831.404
897.717
962.981
42.6152
107.853
173.111
238.406
303.751
369.163
434.656
500.248
565.955
631.791
697.758
763.84
829.952
895.859
960.98
42.5828
107.755
172.945
238.168
303.435
368.759
434.156
499.64
565.224
630.92
696.733
762.653
828.627
894.531
960.13
42.5455
107.642
172.754
237.894
303.071
368.299
433.588
498.952
564.403
629.956
695.622
761.412
827.336
893.397
959.581
42.5038
107.516
172.541
237.588
302.667
367.787
432.959
498.193
563.502
628.901
694.41
760.065
825.935
892.162
958.976
42.4584
107.378
172.309
237.256
302.229
367.233
432.277
497.371
562.526
627.756
693.084
758.553
824.27
890.504
957.912
42.4099
107.232
172.061
236.903
301.761
366.642
431.552
496.497
561.487
626.532
691.645
756.855
822.229
888.014
955.325
42.3591
107.079
171.802
236.532
301.272
366.024
430.793
495.582
560.398
625.246
690.126
755.027
819.886
884.448
947.556
42.3068
106.921
171.535
236.15
300.767
365.386
430.009
494.638
559.276
623.924
688.578
753.212
817.735
881.873
944.936
42.2535
106.76
171.263
235.762
300.254
364.738
429.212
493.677
558.133
622.584
687.028
751.459
815.833
880.028
943.797
42.2002
106.599
170.991
235.373
299.74
364.088
428.412
492.71
556.983
621.234
685.474
749.729
814.039
878.462
943.044
42.1475
106.44
170.722
234.988
299.232
363.444
427.619
491.75
555.835
619.876
683.895
747.944
812.15
876.767
942.199
42.0962
106.285
170.46
234.615
298.738
362.819
426.847
490.811
554.703
618.52
682.277
746.033
809.956
874.488
940.676
42.047
106.136
170.209
234.257
298.265
362.22
426.107
489.909
553.609
617.19
680.644
743.989
807.322
871.038
936.885
42.0004
105.995
169.973
233.919
297.821
361.659
425.416
489.066
552.583
615.931
679.069
741.933
804.4
866.087
925.324
41.957
105.865
169.753
233.608
297.412
361.146
424.786
488.302
551.658
614.802
677.665
740.134
801.999
862.816
921.603
41.917
105.745
169.552
233.324
297.043
360.687
424.23
487.636
550.863
613.852
676.516
738.733
800.304
860.929
920.239
41.8807
105.636
169.371
233.071
296.717
360.288
423.755
487.081
550.219
613.107
675.658
737.757
799.243
859.929
919.701
41.8479
105.538
169.209
232.848
296.435
359.951
423.364
486.64
549.731
612.576
675.094
737.184
798.714
859.537
919.562
41.8182
105.449
169.065
232.652
296.194
359.671
423.055
486.312
549.396
612.251
674.806
736.975
798.648
859.674
919.802
41.7909
105.369
168.935
232.48
295.989
359.444
422.821
486.087
549.201
612.114
674.763
737.086
799.006
860.404
920.828
41.7652
105.294
168.816
232.325
295.811
359.259
422.649
485.95
549.128
612.136
674.924
737.448
799.698
861.781
924.269
41.7396
105.219
168.699
232.177
295.649
359.102
422.522
485.882
549.152
612.289
675.243
737.974
800.474
862.843
925.427
41.7127
105.141
168.578
232.027
295.487
358.955
422.419
485.86
549.248
612.543
675.691
738.631
801.309
863.721
925.977
41.6825
105.054
168.443
231.859
295.31
358.797
422.316
485.854
549.387
612.876
676.257
739.44
802.296
864.672
926.453
41.6469
104.95
168.282
231.659
295.096
358.602
422.182
485.832
549.535
613.257
676.932
740.443
803.584
865.997
927.187
41.6034
104.824
168.084
231.409
294.822
358.342
421.983
485.753
549.648
613.645
677.691
741.673
805.341
868.132
928.788
41.5492
104.665
167.834
231.088
294.461
357.982
421.676
485.567
549.665
613.972
678.465
743.086
807.672
871.712
933.107
41.4817
104.467
167.517
230.676
293.985
357.485
421.216
485.215
549.514
614.141
679.121
744.49
810.345
877.087
946.656
41.3977
104.219
167.119
230.149
293.363
356.813
420.551
484.632
549.11
614.037
679.476
745.522
812.363
880.458
950.901
41.2944
103.913
166.623
229.486
292.564
355.923
419.63
483.754
548.368
613.548
679.378
745.966
813.472
882.154
952.343
41.1687
103.54
166.015
228.663
291.558
354.776
418.399
482.513
547.208
612.579
678.721
745.737
813.723
882.76
952.807
41.018
103.092
165.279
227.659
290.314
353.332
416.808
480.845
545.553
611.044
677.427
744.796
813.205
882.621
952.84
40.8398
102.56
164.403
226.454
288.804
351.553
414.808
478.689
543.328
608.86
675.414
743.097
811.947
881.879
952.608
40.6321
101.939
163.375
225.031
287.005
349.405
412.352
475.985
540.457
605.935
672.584
740.549
809.897
880.54
952.142
40.3935
101.224
162.187
223.377
284.896
346.86
409.401
472.675
536.862
602.166
668.808
737.005
806.906
878.49
951.4
40.1232
100.413
160.835
221.484
282.465
343.897
405.922
468.709
532.465
597.438
663.92
732.239
802.705
875.474
950.263
39.8213
99.5059
159.318
219.351
279.706
340.505
401.892
464.047
527.197
591.631
657.722
725.946
796.865
871.011
948.452
39.489
98.506
157.642
216.983
276.627
336.689
397.31
458.672
521.011
584.644
650.011
717.744
788.742
864.214
945.297
39.1283
97.4195
155.816
214.395
273.243
332.466
392.195
452.597
513.901
576.422
640.625
707.238
777.473
853.477
938.942
38.7423
96.2557
153.856
211.609
269.586
327.877
386.591
445.874
505.919
567.003
629.534
694.181
762.158
836.127
923.608
940.738
850.009
773.568
703.484
636.93
572.609
509.809
448.089
387.157
326.807
266.889
207.287
147.912
88.6894
29.5536
956.921
868.423
789.918
717.505
648.908
582.837
518.517
455.457
393.32
331.872
270.935
210.376
150.088
89.983
29.9829
963.661
879.881
802.019
728.861
659.119
591.835
526.342
462.173
398.999
336.574
274.713
213.272
152.135
91.2019
30.3877
967.043
887.21
810.838
737.83
667.61
599.578
533.234
468.191
404.149
340.877
278.194
215.954
154.036
92.3367
30.765
969.021
892.116
817.304
744.847
674.567
606.135
539.213
473.503
408.755
344.764
281.361
218.407
155.781
93.3814
31.1127
970.311
895.552
822.116
750.338
680.227
611.631
544.339
478.137
412.827
348.235
284.211
220.627
157.368
94.3331
31.4299
971.214
898.049
825.761
754.654
684.82
616.208
548.698
482.142
416.392
351.304
286.751
222.616
158.795
95.1917
31.7165
971.876
899.92
828.567
758.072
688.55
620.007
552.382
485.578
419.487
353.995
288.994
224.383
160.068
95.9595
31.973
972.377
901.355
830.759
760.798
691.586
623.155
555.483
488.51
422.157
356.337
290.96
225.941
161.195
96.6406
32.2009
972.765
902.474
832.493
762.988
694.064
625.764
558.088
491.001
424.449
358.363
292.673
227.304
162.184
97.2404
32.4018
973.07
903.361
833.879
764.76
696.093
627.927
560.273
493.112
426.407
360.107
294.156
228.49
163.048
97.7653
32.5778
973.313
904.07
834.996
766.2
697.76
629.722
562.103
494.895
428.074
361.602
295.434
229.517
163.798
98.222
32.7311
973.509
904.643
835.903
767.378
699.134
631.213
563.635
496.399
429.49
362.879
296.531
230.402
164.447
98.6174
32.864
973.668
905.108
836.643
768.345
700.269
632.453
564.918
497.667
430.69
363.967
297.469
231.161
165.004
98.9582
32.9786
973.798
905.488
837.25
769.141
701.208
633.486
565.992
498.733
431.705
364.891
298.269
231.81
165.483
99.2507
33.0771
973.904
905.8
837.749
769.798
701.987
634.346
566.891
499.63
432.562
365.674
298.949
232.363
165.891
99.5009
33.1613
973.991
906.058
838.161
770.342
702.634
635.062
567.643
500.383
433.284
366.336
299.525
232.834
166.239
99.7143
33.2332
974.063
906.27
838.502
770.793
703.172
635.66
568.272
501.016
433.892
366.895
300.013
233.233
166.534
99.8956
33.2944
974.123
906.445
838.784
771.167
703.619
636.158
568.798
501.545
434.403
367.365
300.425
233.57
166.784
100.049
33.3462
974.172
906.591
839.018
771.478
703.991
636.573
569.237
501.989
434.831
367.761
300.772
233.854
166.995
100.179
33.39
974.213
906.711
839.212
771.735
704.299
636.919
569.603
502.359
435.19
368.093
301.063
234.093
167.172
100.288
33.4269
974.247
906.81
839.372
771.948
704.555
637.205
569.907
502.668
435.489
368.37
301.307
234.293
167.321
100.38
33.4578
974.274
906.892
839.504
772.124
704.767
637.443
570.159
502.923
435.737
368.6
301.509
234.46
167.445
100.457
33.4837
974.297
906.959
839.612
772.269
704.941
637.638
570.367
503.134
435.942
368.79
301.677
234.598
167.548
100.52
33.5051
974.316
907.014
839.7
772.386
705.082
637.797
570.537
503.307
436.11
368.947
301.815
234.712
167.633
100.572
33.5227
974.331
907.058
839.771
772.481
705.196
637.925
570.674
503.446
436.246
369.073
301.926
234.803
167.701
100.614
33.537
974.342
907.092
839.827
772.556
705.286
638.027
570.782
503.557
436.353
369.173
302.015
234.876
167.756
100.648
33.5483
974.351
907.119
839.87
772.613
705.355
638.104
570.865
503.641
436.436
369.25
302.083
234.933
167.798
100.674
33.5571
974.358
907.138
839.9
772.654
705.405
638.161
570.925
503.703
436.496
369.306
302.133
234.974
167.828
100.693
33.5636
974.362
907.15
839.92
772.68
705.437
638.197
570.964
503.743
436.536
369.344
302.166
235.002
167.849
100.706
33.5679
974.364
907.155
839.929
772.693
705.452
638.215
570.984
503.764
436.556
369.363
302.183
235.016
167.86
100.713
33.5702
974.363
907.155
839.928
772.691
705.451
638.214
570.984
503.765
436.558
369.365
302.186
235.019
167.862
100.714
33.5707
974.361
907.147
839.916
772.676
705.434
638.196
570.965
503.746
436.541
369.35
302.173
235.009
167.855
100.71
33.5692
974.356
907.133
839.894
772.647
705.399
638.158
570.926
503.708
436.505
369.318
302.146
234.987
167.839
100.7
33.5659
974.348
907.111
839.859
772.601
705.346
638.1
570.866
503.649
436.45
369.268
302.103
234.952
167.813
100.684
33.5607
974.338
907.08
839.81
772.538
705.272
638.019
570.783
503.568
436.373
369.199
302.043
234.904
167.778
100.663
33.5536
974.324
907.039
839.745