/*--------------------------------*- C++ -*----------------------------------*\
| =========                 |                                                 |
| \\      /  F ield         | OpenFOAM: The Open Source CFD Toolbox           |
|  \\    /   O peration     | Version:  5.x                                   |
|   \\  /    A nd           | Web:      www.OpenFOAM.org                      |
|    \\/     M anipulation  |                                                 |
\*---------------------------------------------------------------------------*/
FoamFile
{
    version     2.0;
    format      ascii;
    class       volScalarField;
    location    "5.6";
    object      gradTy;
}
// * * * * * * * * * * * * * * * * * * * * * * * * * * * * * * * * * * * * * //

dimensions      [0 -1 0 1 0 0 0];

internalField   nonuniform List<scalar> 
6300
(
1611.42
2832.52
4048.35
5255.39
6450.09
7628.87
8788.12
9924.23
11033.6
12112.6
13158
14166.3
15134.7
16060.6
16941.8
2.57003
7.71883
12.8926
18.1036
23.3568
28.6465
33.9528
39.2369
44.4377
49.469
54.2182
58.5499
62.3133
65.3548
67.5356
4.27343
12.8365
21.4457
30.1248
38.8861
47.7245
56.611
65.4856
74.2494
82.7593
90.8246
98.2114
104.654
109.877
113.629
5.96047
17.907
29.9276
42.0623
54.3363
66.7517
79.2782
91.8415
104.311
116.489
128.104
138.811
148.206
155.863
161.381
7.62164
22.9025
38.2936
53.858
69.6418
85.6641
101.904
118.286
134.658
150.776
166.285
180.713
193.487
203.977
211.572
9.24455
27.7865
46.4842
65.4314
84.7051
104.354
124.383
144.732
165.251
185.663
205.535
224.257
241.04
254.972
265.131
10.8141
32.5131
54.4225
76.6747
99.3884
122.657
146.534
171.001
195.94
221.076
245.922
269.724
291.427
309.722
323.203
12.3124
37.0279
62.0151
87.4523
113.511
140.347
168.084
196.789
226.42
256.765
287.338
317.27
345.2
369.265
387.28
13.7191
41.2688
69.1542
97.6036
126.85
157.126
188.658
221.636
256.171
292.206
329.375
366.795
402.816
434.832
459.393
15.0136
45.1715
75.7253
106.953
139.15
172.64
207.773
244.912
284.406
326.494
371.138
417.694
464.412
507.826
542.447
16.1766
48.6757
81.6189
115.325
150.15
186.502
224.866
265.818
310.025
358.205
410.965
468.405
529.284
589.584
640.792
17.193
51.7332
86.745
122.573
159.613
198.34
239.358
283.45
331.652
385.313
446.088
515.65
594.705
680.395
761.077
18.0541
54.3165
91.0502
128.602
167.377
207.876
250.761
296.954
347.796
405.285
472.395
553.37
653.454
776.17
912.644
18.7603
56.4254
94.5318
133.402
173.408
215.013
258.838
305.788
357.271
415.611
484.81
571.946
689.526
858.135
1100.56
19.321
58.0901
97.2449
137.058
177.829
219.915
263.774
310.071
359.868
415.054
479.26
560.04
674.517
866.231
1264.25
17707.3
18370.6
19001.1
19598.9
20164.7
20699.1
21203.3
21678.4
22126.1
22547.9
22945.6
23321.1
23676.1
24012.6
24332.4
24637.4
24929.4
25210.1
25481.3
25744.5
26001.2
26253
26501
26746.6
26990.8
27234.5
27478.5
27723.4
27969.8
28217.8
28467.6
28719.3
28972.5
29227.2
29483
29739.5
29996.1
30252.5
30508
30762.1
31014.1
31263.4
31509.1
31750.7
31987.2
32218.2
32442.7
32660.3
32870.3
33072.1
33265.3
33449.3
33623.7
33788
33941.6
34083.9
34214.3
34332.3
34437
34527.8
34604
34664.7
34709.3
34736.7
34746.3
34736.8
34707.4
34656.7
34583.5
34486.4
34363.8
34214
34035.3
33825.8
33583.7
33306.7
32993
32640.4
32246.7
31809.9
31327.8
30798.4
30219.7
29590.2
28908.1
28172.4
27382
26536.5
25635.9
24680.6
68.6487
68.9525
68.5421
67.439
65.6902
63.3625
60.5365
57.2996
53.7402
49.9429
45.9851
41.9351
37.8515
33.7832
29.7709
25.848
22.0426
18.3788
14.879
11.5646
8.45779
5.58167
2.96084
0.620694
-1.41384
-3.12029
-4.48131
-5.48764
-6.14082
-6.45496
-6.45684
-6.18373
-5.67906
-4.9865
-4.1441
-3.17987
-2.11024
-0.941743
0.324495
1.68678
3.13707
4.65713
6.21781
7.78189
9.30984
10.767
12.13
13.3911
14.5592
15.6573
16.7185
17.7793
18.8738
20.0288
21.2604
22.5738
23.9654
25.4268
26.95
28.5324
30.1799
31.908
33.7414
35.7111
37.8512
40.1942
42.7681
45.5924
48.6766
52.02
55.6122
59.4354
63.4668
67.6805
72.0483
76.5395
81.119
85.7448
90.3649
94.9144
99.3137
103.467
107.263
110.579
113.285
115.25
116.356
116.505
115.63
113.706
115.541
116.056
115.337
113.423
110.401
106.394
101.544
96.0082
89.941
83.4889
76.7836
69.9403
63.0559
56.2108
49.4703
42.8874
36.5062
30.3645
24.497
18.9379
13.7228
8.89014
4.4817
0.54181
-2.88475
-5.75631
-8.03927
-9.71388
-10.7799
-11.2608
-11.2046
-10.6805
-9.76991
-8.55515
-7.10652
-5.47318
-3.6798
-1.7302
0.38318
2.66664
5.11291
7.69271
10.3529
13.0224
15.624
18.0895
20.3734
22.4612
24.3711
26.149
27.8595
29.573
31.3547
33.2538
35.298
37.4926
39.8248
42.2726
44.8154
47.4432
50.1639
53.0048
56.0108
59.2395
62.754
66.6149
70.8733
75.565
80.7066
86.2952
92.3103
98.7186
105.479
112.547
119.876
127.417
135.117
142.91
150.714
158.424
165.909
173.008
179.532
185.267
189.983
193.448
195.446
195.798
194.382
191.146
164.19
164.932
163.845
160.997
156.528
150.631
143.534
135.476
126.691
117.394
107.777
98.0011
88.2015
78.4864
68.9419
59.6364
50.6255
41.9563
33.6725
25.8178
18.4394
11.5904
5.3309
-0.272912
-5.1512
-9.23601
-12.4692
-14.8122
-16.2572
-16.8356
-16.6219
-15.7291
-14.2943
-12.4562
-10.3306
-7.99273
-5.47022
-2.75055
0.200737
3.41567
6.89991
10.6158
14.478
18.3639
22.1371
25.6765
28.9022
31.7904
34.3756
36.7404
38.9981
41.2708
43.6686
46.2719
49.1211
52.2151
55.5196
58.9836
62.5597
66.2218
69.9762
73.8648
77.9603
82.357
87.1582
92.4631
98.3545
104.889
112.092
119.955
128.441
137.493
147.046
157.034
167.393
178.063
188.976
200.054
211.191
222.251
233.053
243.37
252.929
261.413
268.472
273.748
276.898
277.63
275.742
271.145
215.433
216.424
214.873
210.889
204.691
196.577
186.888
175.971
164.156
151.74
138.977
126.076
113.206
100.498
88.0518
75.9445
64.2364
52.9778
42.2152
31.9973
22.3796
13.4283
5.22255
-2.14536
-8.57296
-13.9546
-18.1931
-21.2159
-22.9946
-23.5631
-23.0292
-21.5707
-19.4122
-16.7838
-13.8735
-10.7914
-7.5581
-4.11826
-0.37552
3.76235
8.33832
13.3128
18.5532
23.8517
28.9706
33.6987
37.9
41.5388
44.68
47.4685
50.0973
52.7704
55.6679
58.9169
62.5727
66.6154
70.9653
75.5137
80.1606
84.8474
89.575
94.4061
99.4552
104.871
110.816
117.445
124.887
133.229
142.505
152.694
163.731
175.521
187.962
200.96
214.438
228.33
242.571
257.083
271.752
286.419
300.864
314.794
327.844
339.577
349.497
357.077
361.798
363.206
360.972
354.947
270.287
271.56
269.388
263.951
255.595
244.777
231.995
217.743
202.472
186.57
170.358
154.091
137.962
122.117
106.659
91.6645
77.1877
63.2732
49.9626
37.3024
25.3507
14.1836
3.89924
-5.37979
-13.5084
-20.3265
-25.6745
-29.4179
-31.4813
-31.8848
-30.7745
-28.4268
-25.2137
-21.5245
-17.6709
-13.8155
-9.95109
-5.93009
-1.52891
3.46968
9.19381
15.6176
22.5345
29.5876
36.3559
42.4685
47.6963
51.9921
55.4804
58.4149
61.1205
63.9341
67.1482
70.963
75.4533
80.5592
86.111
91.8873
97.689
103.399
109.009
114.618
120.406
126.606
133.47
141.237
150.105
160.204
171.582
184.193
197.917
212.591
228.053
244.172
260.862
278.069
295.752
313.858
332.288
350.88
369.385
387.454
404.625
420.32
433.86
444.488
451.433
453.99
451.625
444.079
330.036
331.635
328.585
321.194
310.026
295.784
279.202
260.968
241.681
221.832
201.807
181.893
162.299
143.166
124.59
106.629
89.3204
72.6912
56.7666
41.5809
27.1866
13.663
1.12425
-10.2743
-20.334
-28.818
-35.4686
-40.0414
-42.36
-42.3886
-40.3038
-36.5317
-31.7031
-26.5047
-21.4738
-16.8555
-12.5729
-8.29285
-3.5461
2.12856
9.03783
17.2075
26.3146
35.728
44.6793
52.5059
58.8279
63.6012
67.0715
69.6837
71.9812
74.514
77.756
82.0285
87.439
93.8521
100.924
108.215
115.34
122.084
128.435
134.561
140.752
147.375
154.814
163.433
173.537
185.326
198.868
214.073
230.718
248.51
267.18
286.545
306.521
327.1
348.305
370.143
392.567
415.44
438.509
461.381
483.502
504.139
522.385
537.175
547.36
551.834
549.711
540.525
396.406
398.383
394.012
383.857
368.867
350.148
328.778
305.703
281.696
257.349
233.097
209.239
185.973
163.419
141.639
120.66
100.483
81.1037
62.5166
44.731
27.7808
11.737
-3.27899
-17.0823
-29.4135
-39.9342
-48.2391
-53.8946
-56.5201
-55.9194
-52.2467
-46.1417
-38.7093
-31.228
-24.6671
-19.3967
-15.176
-11.3126
-6.88444
-0.975185
7.08218
17.4624
29.6684
42.5479
54.6359
64.7232
72.2031
77.0994
79.9114
81.4189
82.5164
84.0867
86.8935
91.4689
97.994
106.209
115.435
124.792
133.551
141.346
148.198
154.418
160.489
166.979
174.467
183.502
194.549
207.934
223.767
241.888
261.873
283.17
305.31
328.039
351.313
375.231
399.945
425.583
452.196
479.713
507.911
536.383
564.504
591.393
615.876
636.482
651.5
659.165
657.958
646.993
471.853
474.248
467.749
453.464
433.062
408.311
380.789
351.765
322.187
292.721
263.811
235.728
208.622
182.557
157.538
133.537
110.503
88.3799
67.1184
46.6853
27.078
8.34041
-9.41826
-25.9993
-41.0882
-54.2288
-64.8119
-72.0978
-75.3124
-73.8603
-67.6789
-57.65
-45.7731
-34.6133
-25.9896
-20.4143
-17.2525
-15.134
-12.3447
-7.16147
1.79229
15.0989
32.0626
50.5175
67.4829
80.7044
89.3077
93.6076
94.638
93.7523
92.3784
91.8871
93.4926
98.1099
106.124
117.118
129.765
142.239
153.155
161.973
168.879
174.493
179.629
185.149
191.898
200.676
212.199
227.018
245.374
267.018
291.139
316.612
342.59
368.743
395.172
422.209
450.245
479.61
510.511
542.992
576.904
611.875
647.264
682.091
714.932
743.812
766.206
779.25
780.232
767.367
560.138
562.892
552.672
531.852
503.493
470.438
434.933
398.591
362.48
327.259
293.3
260.778
229.741
200.158
171.945
144.995
119.185
94.3929
70.5058
47.4299
25.1038
3.51603
-17.2702
-37.0812
-55.5833
-72.2206
-86.1463
-96.177
-100.838
-98.6245
-88.6644
-71.8329
-51.8185
-34.3614
-22.9382
-17.9722
-17.8427
-19.938
-21.2694
-18.7955
-9.78464
7.44932
32.2892
60.6106
85.6987
103.312
112.586
114.8
112.099
106.764
100.944
96.6417
95.7285
99.8327
109.936
125.617
144.317
161.9
175.751
185.325
191.388
195.224
198.183
201.516
206.374
213.863
225.067
240.974
262.21
288.544
318.417
349.287
379.575
409.005
438.108
467.703
498.582
531.373
566.497
604.153
644.314
686.707
730.774
775.586
819.629
860.416
894.308
916.637
922.379
907.649
667.582
670.182
652.815
621.054
580.649
536.055
490.257
445.063
401.471
359.962
320.703
283.674
248.756
215.774
184.527
154.804
126.396
99.0991
72.7228
47.094
22.0671
-2.46071
-26.5236
-50.0433
-72.7582
-94.1107
-113.082
-127.981
-136.252
-134.536
-119.537
-90.5924
-54.1756
-25.4163
-10.5852
-8.56291
-15.2266
-25.8386
-35.6694
-39.8382
-33.1988
-11.1495
27.5039
75.3598
114.676
137.927
146.025
143.065
133.352
120.47
107.322
96.5149
90.7378
92.9156
105.714
129.765
160.474
186.93
204.498
213.724
217.096
217.212
216.192
215.679
217.055
221.691
231.152
247.247
271.692
304.959
344.247
382.784
417.778
449.718
480.315
511.324
544.139
579.751
618.808
661.676
708.477
759.09
813.171
870.147
928.971
986.906
1039.01
1077.86
1093.95
1078.15
806.308
806.176
773.64
722.662
663.799
603.374
544.679
489.2
437.441
389.411
344.879
303.521
264.975
228.886
194.909
162.718
132.006
102.481
73.8662
45.8957
18.3177
-9.0995
-36.55
-64.1541
-91.8833
-119.416
-145.868
-169.315
-186.032
-189.559
-170.476
-120.099
-45.4954
3.59454
20.2205
13.3628
-6.91582
-32.8551
-58.2126
-76.434
-78.7927
-53.6489
9.47473
102.41
166.791
194.364
195.391
181.055
159.172
134.56
110.335
89.1493
74.2971
70.7107
85.2907
124.331
182.757
224.756
245.258
250.553
247.49
240.836
233.469
227.12
223.041
222.571
227.68
241.495
268.464
312.698
371.151
421.37
460.365
492.349
521.911
552.325
585.649
623.146
665.603
713.51
767.12
826.449
891.363
962.009
1039.55
1121.74
1202.75
1271.8
1311.4
1298.71
1004.37
988.784
920.98
835.579
749.158
668.164
594.435
527.944
468.009
413.787
364.458
319.288
277.634
238.935
202.698
168.484
135.889
104.539
74.0694
44.1216
14.3275
-15.6976
-46.3611
-78.0887
-111.294
-146.279
-182.981
-220.337
-254.802
-277.139
-266.475
-184.494
-0.0803836
79.3462
84.8344
54.6067
9.53962
-40.7148
-91.0363
-135.876
-163.994
-150.845
-51.493
170.567
271.892
289.009
266.862
229.896
188.905
148.077
108.958
72.6492
41.6207
22.3331
29.6309
90.9656
228.676
293.518
307.896
299.393
283.032
265.464
249.26
235.269
223.805
215.397
211.648
216.777
240.35
299.932
409.882
476.086
513.01
538.432
562.242
589.091
621.106
659.351
704.501
757.081
817.47
885.707
961.238
1043.88
1143.36
1258.22
1383.63
1508.07
1604.08
1615.22
1344.92
1246.51
1093.6
949.91
826.653
722.45
633.731
557.217
490.325
431.093
378.029
329.977
286.023
245.427
207.567
171.91
137.977
105.325
73.5212
42.1272
10.6729
-21.3715
-54.6331
-89.8876
-128.129
-170.656
-219.138
-275.504
-341.018
-412.22
-465.15
-396.378
196.521
261.569
200.879
117.22
33.4682
-48.471
-131.744
-219.385
-308.606
-372.159
-289.152
412.577
498.243
440.184
359.662
284.526
218.399
159.132
103.535
48.5472
-7.95899
-64.3228
-103.838
-52.3798
379.52
434.937
403.474
359.539
320.302
288.12
261.856
239.771
220.164
201.507
182.825
165.494
160.375
214.626
511.589
572.947
582.195
586.812
598.17
618.393
647.56
685.582
732.664
789.366
856.477
934.415
1020.83
1101.42
1224.99
1379.42
1565.84
1785.2
2018.9
2163.33
2146.96
1582.66
1252.86
1034.75
876.659
754.39
655.41
572.596
501.577
439.491
384.357
334.74
289.558
247.96
209.25
172.841
138.212
104.881
72.3766
40.2155
7.86572
-25.2931
-60.0336
-97.3812
-138.788
-186.45
-243.932
-317.481
-419.027
-573.589
-839.048
-1362.99
1153.22
624.836
349.987
179.96
54.783
-54.3057
-166.156
-300.608
-490.166
-804.501
-1417.75
1541.69
931.533
623.681
444.685
326.166
238.002
164.893
97.2274
26.6278
-57.7448
-175.239
-368.303
-743.56
1072.48
701.438
516.99
412.899
347.395
302.237
268.418
240.692
215.141
187.639
152.045
96.6154
-5.10608
-220.201
952.537
744.813
658.017
625.451
621.297
634.78
661.221
698.725
746.93
806.613
879.841
970.858
1088.74
1097.03
1262.11
1454.49
1700.51
2041.56
2562.14
3461.43
23570.7
22284.6
20926.8
19501.3
18013.1
16467.4
14869.9
13226.2
11542.3
9823.78
8076.38
6305.57
4516.74
2715.13
905.888
110.457
105.528
99.4029
92.318
84.5311
76.2914
67.8182
59.2877
50.8287
42.5241
34.4155
26.5104
18.789
11.212
3.72683
185.621
177.203
166.732
154.639
141.385
127.409
113.092
98.7323
84.5427
70.6558
57.1336
43.9801
31.1548
18.585
6.17658
263.163
250.915
235.669
218.108
198.95
178.861
158.402
138.002
117.952
98.4227
79.4836
61.1223
43.2655
25.7967
8.57118
344.222
327.602
306.901
283.157
257.428
230.667
203.641
176.91
150.832
125.596
101.254
77.7597
54.9882
32.7651
10.883
430.173
408.342
381.152
350.166
316.918
282.719
248.569
215.149
182.857
151.864
122.174
93.6722
66.1622
39.3927
13.0795
522.759
494.418
459.178
419.418
377.34
334.705
292.751
252.245
213.567
176.816
141.896
108.589
76.5938
45.5638
15.122
624.292
587.379
541.713
490.974
438.308
385.998
335.476
287.5
242.336
199.921
159.995
122.185
86.0575
51.1454
16.9667
737.949
689.07
629.296
564.435
498.9
435.485
375.647
319.939
268.346
220.524
175.966
134.092
94.301
55.9912
18.5657
868.326
801.592
721.911
638.524
557.335
481.354
411.661
348.25
290.573
237.852
189.241
143.907
101.059
59.9501
19.8699
1022.49
927.014
818.189
710.375
610.53
520.902
441.362
370.803
307.828
251.056
199.227
151.227
106.071
62.8776
20.833
1211.37
1065.76
913.428
774.23
653.483
550.337
462.061
385.752
318.864
259.302
205.372
155.694
109.117
64.6528
21.4166
1450.5
1211.14
995.469
819.593
678.793
564.866
470.77
391.262
322.555
261.899
207.252
157.05
110.045
65.197
21.5962
1749.21
1332.76
1037.64
829.84
677.189
559.524
464.865
385.951
318.177
258.47
204.675
155.2
108.81
64.4912
21.3669
2012.52
1333
992.443
784.889
640.561
531.142
443.19
369.48
305.714
249.114
197.765
150.257
105.499
62.5889
20.7465
19.7267
59.2876
99.1705
139.589
180.755
222.883
266.201
310.979
357.61
406.796
460.011
520.599
596.48
706.933
899.91
20.0122
60.1264
100.505
141.306
182.66
224.642
267.244
310.315
353.478
395.98
436.406
471.921
495.54
484.375
345.343
20.2349
60.7797
101.541
142.635
184.12
225.961
267.949
309.574
349.791
386.589
416.189
431.479
418.744
350.587
173.858
20.4048
61.2805
102.344
143.685
185.326
227.167
268.894
309.8
348.467
382.181
405.889
410.483
380.414
292.185
121.103
20.5282
61.6488
102.951
144.522
186.384
228.443
270.398
311.568
350.57
384.705
408.846
413.546
382.45
291.308
117.736
20.6068
61.8888
103.368
145.152
187.297
229.781
272.436
314.829
356.036
394.151
425.288
441.45
426.171
347.661
157.351
20.6373
61.9896
103.571
145.524
187.967
230.992
274.644
318.905
363.634
408.423
452.118
491.166
513.788
481.638
283.344
20.6133
61.9294
103.514
145.549
188.224
231.756
276.421
322.646
371.176
423.433
482.164
552.268
639.421
730.973
665.156
20.5269
61.6812
103.141
145.123
187.879
231.722
277.104
324.775
376.117
433.928
504.296
601.507
761.973
1089.57
1925.06
20.3702
61.2195
102.401
144.156
186.771
230.608
276.187
324.343
376.554
435.681
507.771
606.797
768.436
1095.41
1927.58
20.1376
60.5257
101.259
142.589
184.806
228.273
273.469
321.084
372.174
428.415
492.52
568.581
660.057
750.363
673.917
19.8259
59.5907
99.6993
140.4
181.968
224.728
269.058
315.401
364.203
415.669
468.948
519.638
552.466
521.093
303.131
19.4353
58.415
97.7261
137.603
178.297
220.082
263.239
307.998
354.369
401.649
447.154
483.08
489.438
421.38
201.986
18.9682
57.0072
95.357
134.233
173.862
214.477
256.296
299.464
343.89
388.847
431.997
467.038
478.07
426.745
229.011
18.4291
55.3817
92.619
130.337
168.737
208.027
248.407
290.045
333.029
377.284
422.455
467.652
509.987
533.765
436.785
17.824
53.5566
89.5442
125.961
162.989
200.813
239.635
279.68
321.273
365.072
412.879
470.234
554.772
724.627
1183.84
17.1595
51.5524
86.168
121.158
156.68
192.9
230.005
268.233
307.973
350.061
396.66
453.92
540.29
714.52
1180.29
16.4432
49.392
82.5288
115.981
149.881
184.365
219.586
255.725
293.033
331.906
373.023
417.375
464.775
501.928
425.759
15.683
47.0995
78.6677
110.49
142.669
175.311
208.522
242.398
276.995
312.179
347.127
378.699
396.36
368.012
209.648
14.8873
44.7002
74.6279
104.747
135.132
165.857
196.987
228.563
260.542
292.603
323.564
349.669
359.88
324.374
174.73
14.0645
42.2197
70.4532
98.8154
127.354
156.115
185.135
214.44
244.022
273.781
303.362
331.665
355.136
359.987
278.569
13.2231
39.6838
66.1869
92.758
119.419
146.188
173.079
200.117
227.37
255.074
284.038
317.006
363.309
455.496
712.76
12.3713
37.1172
61.8714
86.6355
111.405
136.17
160.916
185.638
210.397
235.482
261.923
293.074
339.607
436.352
704.757
11.5171
34.5439
57.5473
80.5063
103.392
126.162
148.764
171.128
193.192
214.94
236.53
258.45
281.023
297.985
251.183
10.6675
31.9859
53.2525
74.4259
95.4543
116.268
136.772
156.823
176.199
194.502
210.9
223.365
226.327
203.889
113.964
9.82933
29.4633
49.021
68.4443
87.6631
106.587
125.089
142.982
159.947
175.38
187.996
194.872
189.264
156.651
72.5754
9.00811
26.993
44.8817
62.6032
80.0747
97.1941
113.827
129.782
144.756
158.209
169.073
175.044
170.947
145.147
73.5984
8.20851
24.5889
40.8577
56.9345
72.7291
88.1372
103.033
117.26
130.616
142.833
153.542
162.203
167.698
165.409
127.153
7.43422
22.262
36.9665
51.4606
65.6507
79.4343
92.701
105.339
117.265
128.5
139.431
151.556
169.851
210.644
330.738
6.68807
20.0205
33.2208
46.1972
58.8536
71.0893
82.8042
93.9134
104.39
114.378
124.488
136.623
156.377
200.803
327.005
5.97224
17.8707
29.6304
41.1558
52.3481
63.1054
73.3271
82.9257
91.8546
100.168
108.136
116.395
125.768
134.169
115.008
5.28835
15.8174
26.2027
36.3457
46.1445
55.4931
64.2826
72.403
79.7463
86.1988
91.5826
95.394
95.8322
86.6722
49.4379
4.63762
13.8641
22.9434
31.7749
40.2538
48.2696
55.7031
62.4205
68.2572
72.9719
76.1212
76.7356
72.5619
58.6715
26.6735
4.02086
12.0132
19.8568
27.4497
34.6856
41.4514
47.6219
53.0509
57.5488
60.8336
62.4219
61.4042
56.041
43.247
18.7353
3.43852
10.2662
16.945
23.3733
29.4452
35.048
40.0576
44.33
47.6852
49.8761
50.5351
49.0936
44.6838
35.9631
19.7984
2.89064
8.62304
14.2082
19.5459
24.5324
29.0588
33.0076
36.2489
38.6334
39.9861
40.1112
38.8491
36.3258
33.8547
37.1394
2.37694
7.08285
11.6444
15.9639
19.9413
23.4732
26.4523
28.7666
30.3022
30.9532
30.6559
29.4866
27.9387
27.7588
34.8328
1.89684
5.64376
9.25016
12.6215
15.662
18.2749
20.3625
21.8297
22.5904
22.5846
21.8127
20.3941
18.6097
16.6361
12.3064
1.44953
4.30324
7.02081
9.51114
11.6829
13.445
14.7082
15.3887
15.4169
14.7545
13.4261
11.5636
9.42041
7.158
3.87204
1.03408
3.05839
4.95115
6.62472
7.99177
8.96598
9.46355
9.40655
8.72975
7.39466
5.41872
2.93654
0.322732
-1.60185
-1.46252
0.649502
1.90615
3.03584
3.95419
4.57741
4.82285
4.60993
3.86168
2.50748
0.488407
-2.22765
-5.58921
-9.24358
-11.7864
-8.72757
0.294787
0.843472
1.26964
1.49196
1.4298
1.0035
0.134574
-1.25479
-3.24432
-5.92406
-9.41503
-13.8996
-19.5694
-25.8498
-25.9836
-0.0310437
-0.132612
-0.352457
-0.769024
-1.46007
-2.50244
-3.97222
-5.94618
-8.50714
-11.7621
-15.9004
-21.3728
-29.4557
-44.1647
-79.4062
-0.328932
-1.02493
-1.83518
-2.83542
-4.10069
-5.705
-7.72114
-10.221
-13.2775
-16.9747
-21.4459
-27.0173
-34.7217
-48.196
-81.0209
-0.599776
-1.83619
-3.18302
-4.7135
-6.50018
-8.61445
-11.1257
-14.0995
-17.5919
-21.6367
-26.2127
-31.1636
-35.9614
-38.7631
-31.3915
-0.844429
-2.56893
-4.4002
-6.40914
-8.66613
-11.2406
-14.2001
-17.6074
-21.5109
-25.916
-30.7032
-35.399
-38.5683
-36.3749
-20.2263
-1.06371
-3.22558
-5.4907
-7.92778
-10.6053
-13.5913
-16.954
-20.7598
-25.0689
-29.9155
-35.2408
-40.6769
-44.88
-43.6606
-25.9293
-1.2584
-3.80848
-6.45835
-9.27449
-12.3234
-15.6722
-19.3901
-23.551
-28.2405
-33.5674
-39.6844
-46.7924
-54.9371
-62.394
-55.3211
-1.42928
-4.31996
-7.30693
-10.4543
-13.8264
-17.4882
-21.508
-25.963
-30.9553
-36.6547
-43.4217
-52.1666
-65.4486
-91.1922
-156.615
-1.57714
-4.76238
-8.04036
-11.4727
-15.121
-19.0467
-23.3131
-27.9896
-33.1645
-38.9836
-45.7671
-54.3674
-67.2797
-92.4004
-157.022
-1.70279
-5.13815
-8.66271
-12.3356
-16.2154
-20.3593
-24.8226
-29.6576
-34.9117
-40.6253
-46.832
-53.5512
-60.6066
-66.1416
-56.5514
-1.80701
-5.44967
-9.1781
-13.0491
-17.1186
-21.4403
-26.0626
-31.022
-36.3253
-41.9067
-47.5215
-52.48
-54.9656
-50.3608
-27.9433
-1.8906
-5.6993
-9.59047
-13.6189
-17.8389
-22.3027
-27.0569
-32.1343
-37.5308
-43.1476
-48.6474
-53.106
-54.2267
-46.9309
-22.5669
-1.95431
-5.8893
-9.90344
-14.0499
-18.3821
-22.9532
-27.8148
-33.0115
-38.568
-44.4522
-50.4771
-56.0299
-59.312
-55.3359
-31.6056
-1.99894
-6.02193
-10.1204
-14.3459
-18.7513
-23.3921
-28.3278
-33.6248
-39.3616
-45.641
-52.6152
-60.5084
-69.4153
-77.4386
-68.0503
-2.02537
-6.09968
-10.2451
-14.5109
-18.9489
-23.6161
-28.5782
-33.919
-39.7622
-46.3284
-54.0956
-64.2588
-80.1063
-111.605
-192.466
-2.03463
-6.12557
-10.2821
-14.5501
-18.9793
-23.6252
-28.5537
-33.8508
-39.6447
-46.1629
-53.8919
-64.0371
-79.8989
-111.453
-192.408
-2.02807
-6.10347
-10.2373
-14.4713
-18.8509
-23.4276
-28.2612
-33.4243
-39.0085
-45.1374
-51.9897
-59.8212
-68.7654
-76.9545
-67.8649
-2.00735
-6.03833
-10.1189
-14.2852
-18.5774
-23.041
-27.7276
-32.6915
-37.9786
-43.5907
-49.3865
-54.8097
-58.1304
-54.4269
-31.242
-1.97455
-5.93629
-9.93691
-14.0057
-18.1765
-22.4893
-26.9892
-31.7205
-36.7075
-41.8984
-47.0218
-51.2373
-52.3505
-45.4079
-21.8988
-1.93218
-5.80482
-9.70343
-13.6492
-17.6691
-21.7976
-26.0777
-30.558
-35.2793
-40.2353
-45.2679
-49.799
-52.1441
-47.8753
-26.6361
-1.88326
-5.65288
-9.43307
-13.2354
-17.0783
-20.9905
-25.0152
-29.2142
-33.6722
-38.5011
-43.8433
-49.8567
-56.509
-62.1078
-53.6078
-1.8314
-5.49118
-9.14324
-12.7874
-16.4314
-20.0956
-23.8202
-27.6771
-31.7918
-36.3922
-41.9337
-49.4479
-61.5811
-86.1055
-149.11
-1.78088
-5.33245
-8.85482
-12.3336
-15.7625
-19.149
-22.5222
-25.9483
-29.5589
-33.6116
-38.6353
-45.8084
-58.021
-83.345
-148.024
-1.73669
-5.19167
-8.5927
-11.9085
-15.1153
-18.2018
-21.1761
-24.0788
-27.0044
-30.139
-33.8253
-38.647
-45.3296
-53.2182
-50.0041
-1.70456
-5.08609
-8.3859
-11.5534
-14.544
-17.3226
-19.8683
-22.181
-24.2907
-26.2659
-28.2079
-30.1724
-31.7774
-30.7763
-19.1809
-1.69087
-5.03505
-8.26723
-11.3156
-14.1123
-16.5956
-18.7109
-20.4116
-21.6567
-22.3996
-22.5567
-21.9288
-20.0149
-15.6737
-6.93522
-1.70258
-5.05959
-8.27255
-11.2471
-13.8912
-16.1151
-17.8305
-18.9462
-19.3576
-18.9244
-17.4337
-14.5608
-9.91969
-3.60927
1.754
-1.74705
-5.18201
-8.43977
-11.403
-13.9549
-15.979
-17.3561
-17.9577
-17.631
-16.1681
-13.254
-8.40179
-0.965501
9.12939
16.6126
-1.8319
-5.4254
-8.80798
-11.8392
-14.3784
-16.2838
-17.4102
-17.6024
-16.68
-14.4039
-10.4044
-4.0181
6.16259
23.7026
59.7585
-1.96491
-5.8132
-9.41672
-12.612
-15.2352
-17.1212
-18.1035
-18.0102
-16.6564
-13.8213
-9.19657
-2.25029
8.20207
25.4463
60.4805
-2.15392
-6.36901
-10.3056
-13.7773
-16.5971
-18.5781
-19.5342
-19.2831
-17.6493
-14.4666
-9.5854
-2.89901
5.54615
14.865
19.0716
-2.40673
-7.11637
-11.514
-15.3905
-18.5353
-20.7384
-21.7936
-21.506
-19.7062
-16.2771
-11.2124
-4.75212
2.30224
7.85405
7.08917
-2.73105
-8.07855
-13.0813
-17.5072
-21.1213
-23.6882
-24.9763
-24.7688
-22.8832
-19.2103
-13.7939
-7.00269
0.118193
5.2441
4.4299
-3.13439
-9.27835
-15.0463
-20.1832
-24.4288
-27.5186
-29.1888
-29.1868
-27.2902
-23.3416
-17.3163
-9.46788
-0.665692
6.77201
7.36395
-3.62387
-10.7375
-17.4466
-23.4741
-28.5333
-32.3277
-34.5542
-34.9109
-33.1113
-28.9028
-22.0916
-12.5803
-0.486989
13.0677
20.9443
-4.20591
-12.476
-20.3175
-27.4332
-33.5107
-38.2191
-41.2102
-42.1236
-40.5947
-36.2591
-28.7294
-17.4702
-1.30648
23.3243
69.0994
-4.88583
-14.5106
-23.6896
-32.1094
-39.4336
-45.2967
-49.3018
-51.0239
-50.0175
-45.8219
-37.9452
-25.7506
-7.9877
18.9223
67.5481
-5.66728
-16.8532
-27.5863
-37.5427
-46.3662
-53.6582
-58.9716
-61.8115
-61.6459
-57.93
-50.1477
-37.8839
-21.004
-0.535149
16.1149
-6.55151
-19.5087
-32.02
-43.7591
-54.3574
-63.3877
-70.3523
-74.6787
-75.7315
-72.8518
-65.4511
-53.2102
-36.4982
-17.3243
-1.3592
-7.53653
-22.4727
-36.9874
-50.7644
-63.4331
-74.5461
-83.5583
-89.8122
-92.5403
-90.904
-84.1057
-71.6312
-53.6907
-31.875
-9.62809
-8.6162
-25.7279
-42.465
-58.5362
-73.5848
-87.158
-98.6735
-107.387
-112.372
-112.533
-106.693
-93.8396
-73.5659
-46.7182
-15.8168
-9.7793
-29.2419
-48.4029
-67.0151
-84.7571
-101.194
-115.729
-127.545
-135.548
-138.32
-134.144
-121.192
-97.9998
-64.3712
-22.5121
-11.0087
-32.9641
-54.7198
-76.0953
-96.8319
-116.546
-134.666
-150.345
-162.349
-168.924
-167.684
-155.649
-129.675
-87.7359
-31.404
-12.2808
-36.8237
-61.2987
-85.6163
-109.613
-133.001
-155.293
-175.692
-192.915
-204.947
-208.713
-199.78
-172.432
-121.092
-44.7918
-13.5653
-40.7295
-67.9848
-95.3575
-122.813
-150.212
-177.23
-203.237
-227.079
-246.702
-258.555
-256.694
-231.844
-171.778
-67.403
-14.8262
-44.571
-74.5874
-105.038
-136.05
-167.681
-199.863
-232.282
-264.166
-293.847
-317.914
-329.566
-315.707
-253.229
-111.146
-16.0228
-48.2227
-80.8868
-114.327
-148.853
-184.765
-222.325
-261.692
-302.775
-344.883
-385.887
-420.147
-433.325
-389.957
-210.587
-17.1117
-51.551
-86.6458
-122.858
-160.69
-200.7
-243.526
-289.904
-340.666
-396.679
-458.534
-525.36
-590.205
-621.12
-477.947
-18.0503
-54.4233
-91.6271
-130.263
-171.01
-214.674
-262.255
-315.064
-374.903
-444.41
-527.721
-631.938
-770.637
-973.165
-1309.69
1422.63
1059.33
840.454
690.355
577.378
486.88
411.216
345.932
288.197
236.077
188.167
143.395
100.896
59.941
19.8823
519.646
676.63
644.125
574.355
502.102
434.995
374.041
318.647
267.911
220.958
177.012
135.397
95.5192
56.8419
18.8698
229.361
425.492
473.652
460.054
423.234
378.819
332.991
288.115
244.988
203.742
164.23
126.189
89.3053
53.2513
17.6952
121.424
277.093
346.05
361.861
349.623
323.609
291.265
256.358
220.748
185.313
150.423
116.172
82.5122
49.3134
16.4048
74.0222
188.899
255.34
283.131
285.566
272.781
251.309
225.079
196.376
166.5
136.165
105.742
75.3959
45.1722
15.0454
49.6509
134.335
191.458
221.999
232.067
227.976
214.647
195.508
172.812
147.998
121.963
95.2532
68.1923
40.9622
13.6604
35.4287
98.9053
146.029
175.075
188.392
189.576
182.012
168.399
150.712
130.338
108.225
85.0056
61.1039
36.8005
12.2883
26.3306
74.8276
113.149
139.066
153.137
157.242
153.572
144.111
130.472
113.882
95.2498
75.2291
54.2922
32.7826
10.9606
20.1233
57.8138
88.877
111.279
124.795
130.303
129.145
122.72
112.274
98.8413
83.2355
66.0862
47.8762
28.9805
9.70127
15.6902
45.4002
70.6166
89.6593
102.009
107.987
108.373
104.115
96.1479
85.3053
72.2899
57.6775
41.9347
25.4438
8.52725
12.4166
36.1052
56.6408
72.6834
83.6446
89.5493
90.8206
88.0818
82.0147
73.2749
62.4509
50.0516
36.5113
22.2016
7.44875
9.93726
28.9986
45.7827
59.2334
68.7879
74.3258
76.0496
74.3566
69.7345
62.6893
53.7033
43.2163
31.6207
19.2664
6.47043
8.02227
23.4722
37.2376
48.4866
56.7179
61.7481
63.6483
62.6627
59.1344
53.4489
45.9962
37.1493
27.2559
16.6371
5.59248
6.51984
19.1147
30.4383
39.8335
46.8685
51.3417
53.2487
52.732
50.0301
45.4338
39.2554
31.8077
23.3938
14.3029
4.81178
5.32606
15.6392
24.9771
32.8178
38.7962
42.7153
44.5301
44.3169
42.2393
38.5158
33.3946
27.1358
20.0008
12.2462
4.12285
4.36747
12.8402
20.5547
27.0939
32.1526
35.5488
37.218
37.1949
35.59
32.5669
28.3224
23.0715
17.0374
10.445
3.51872
3.59082
10.5672
16.9476
22.3973
26.6622
29.5802
31.0798
31.1699
29.9242
27.465
23.948
19.5503
14.4609
8.8754
2.99162
2.95661
8.70761
13.9863
18.5227
22.1062
24.5954
25.9193
26.0715
25.1001
23.0967
20.1844
16.5085
12.2285
7.51256
2.53349
2.43494
7.17578
11.5399
15.3091
18.3093
20.4191
21.5716
21.7523
20.9919
19.3587
16.9504
13.8857
10.2985
6.33215
2.13633
2.0028
5.90532
9.50626
12.629
15.1303
16.9068
17.8982
18.0859
17.4889
16.1585
14.1716
11.6254
8.63125
5.3109
1.79244
1.6422
4.84413
7.80439
10.3802
12.4541
13.9391
14.7823
14.9638
14.4948
13.4135
11.7808
9.67564
7.19031
4.42706
1.49462
1.33882
3.95062
6.36927
8.47979
10.1864
11.4169
12.1256
12.2931
11.9254
11.0511
9.71791
7.98962
5.94216
3.6606
1.2362
1.08112
3.19118
5.14797
6.85969
8.24901
9.2568
9.8443
9.99374
9.70761
9.00697
7.92916
6.52506
4.85645
2.99325
1.01109
0.859629
2.53814
4.09679
5.46338
6.57649
7.38844
7.86713
7.99675
7.77753
7.2247
6.36687
5.24411
3.9058
2.40848
0.813757
0.666437
1.96833
3.17899
4.24309
5.11309
5.7515
6.13235
6.24198
6.0791
5.6542
4.98856
4.11284
3.06555
1.89133
0.639198
0.49477
1.46192
2.36302
3.15766
3.81062
4.29352
4.58603
4.67658
4.56275
4.251
3.75622
3.10079
2.31351
1.42833
0.482887
0.338676
1.00146
1.62112
2.17078
2.62645
2.968
3.18018
3.25337
3.18407
2.97514
2.63563
2.18045
1.62959
1.00724
0.340725
0.192741
0.571078
0.92801
1.24946
1.52185
1.73268
1.87125
1.9295
1.90275
1.79029
1.59569
1.32682
0.99549
0.616939
0.208975
0.0518284
0.155732