/*--------------------------------*- C++ -*----------------------------------*\
| =========                 |                                                 |
| \\      /  F ield         | OpenFOAM: The Open Source CFD Toolbox           |
|  \\    /   O peration     | Version:  5.x                                   |
|   \\  /    A nd           | Web:      www.OpenFOAM.org                      |
|    \\/     M anipulation  |                                                 |
\*---------------------------------------------------------------------------*/
FoamFile
{
    version     2.0;
    format      ascii;
    class       volScalarField;
    location    "8.3";
    object      gradTy;
}
// * * * * * * * * * * * * * * * * * * * * * * * * * * * * * * * * * * * * * //

dimensions      [0 -1 0 1 0 0 0];

internalField   nonuniform List<scalar> 
6300
(
1185.8
1556.85
1926.28
2293
2655.91
3013.92
3365.94
3710.86
4047.6
4375.11
4692.36
4998.41
5292.37
5573.52
5841.24
0.80222
2.40825
4.01869
5.63528
7.25771
8.88271
10.503
12.106
13.6729
15.1777
16.587
17.8609
18.9552
19.8251
20.4302
1.33523
4.00877
6.69094
9.38552
12.0931
14.8096
17.5239
20.2166
22.857
25.402
27.795
29.9671
31.8406
33.3351
34.3774
1.86511
5.60047
9.35051
13.1224
16.9194
20.738
24.5661
28.3788
32.1357
35.7773
39.2229
42.3709
45.1035
47.296
48.8317
2.3898
7.17733
11.9879
16.8339
21.7233
26.6564
31.6227
36.5958
41.5287
46.3475
50.947
55.1887
58.9049
61.9116
64.031
2.90646
8.73094
14.5893
20.5015
26.4828
32.5409
38.6714
44.8519
51.0343
57.1353
63.0269
68.5298
73.4136
77.4122
80.2565
3.41148
10.2504
17.1365
24.0993
31.1647
38.3518
45.6687
53.1045
60.6194
68.1303
75.4932
82.4871
88.8046
94.0636
97.8535
3.90049
11.7223
19.6064
27.5937
35.7237
44.0318
52.5455
61.2761
70.2065
79.2706
88.3256
97.1175
105.25
112.18
117.269
4.36855
13.1315
21.9724
30.9446
40.1034
49.5048
59.2034
69.2458
79.6571
90.4169
101.417
112.403
122.895
132.134
139.11
4.81063
14.4623
24.2062
34.1081
44.2391
54.6788
65.5154
76.8437
88.7563
101.319
114.52
128.178
141.789
154.345
164.241
5.22216
15.7003
26.2815
37.0411
48.0647
59.454
71.3331
83.8546
97.2019
111.578
127.162
143.995
161.731
179.212
193.949
5.59978
16.8346
28.1775
39.7089
51.523
63.7374
76.5058
90.0366
104.615
120.625
138.552
158.903
181.923
206.818
230.199
5.94198
17.8604
29.8843
42.0926
54.5792
67.4643
80.9134
95.1675
110.592
127.751
147.512
171.139
200.232
235.929
275.731
6.24959
18.78
31.4057
44.1968
57.235
70.6248
84.5129
99.1245
114.83
132.272
152.6
177.901
211.928
260.926
331.936
6.52578
19.6037
32.7609
46.0524
59.5371
73.2843
87.386
101.984
117.328
133.903
152.71
175.931
208.646
263.901
380.412
6073.98
6275.82
6467.88
6650.25
6823.11
6986.71
7141.4
7287.62
7425.82
7556.54
7680.33
7797.78
7909.48
8016.03
8118.04
8216.09
8310.78
8402.66
8492.3
8580.22
8666.92
8752.88
8838.53
8924.28
9010.49
9097.48
9185.5
9274.76
9365.41
9457.55
9551.21
9646.37
9742.99
9840.94
9940.11
10040.3
10141.4
10243.2
10345.4
10447.8
10550.2
10652.2
10753.5
10853.9
10952.9
11050.5
11146.1
11239.5
11330.6
11419.1
11504.7
11587.2
11666.5
11742.2
11814.3
11882.5
11946.4
12005.9
12060.7
12110.4
12154.9
12193.7
12226.7
12253.4
12273.6
12286.9
12292.8
12291
12280.8
12261.9
12233.5
12195.1
12146
12085.5
12012.8
11927.2
11827.9
11714.1
11584.9
11439.6
11277.3
11097.3
10898.8
10681.2
10443.8
10186.1
9907.9
9608.84
9288.95
8948.38
20.7141
20.7568
20.5827
20.1985
19.6185
18.8628
17.9554
16.9225
15.7901
14.5836
13.3258
12.0371
10.7347
9.43341
8.14537
6.88084
5.64861
4.45658
3.31231
2.22341
1.19798
0.244744
-0.626867
-1.40697
-2.08572
-2.65401
-3.10452
-3.43276
-3.63807
-3.72429
-3.69973
-3.57641
-3.36843
-3.08987
-2.75263
-2.36495
-1.931
-1.45166
-0.926452
-0.355884
0.256249
0.901449
1.5664
2.23433
2.88759
3.51077
4.09347
4.63209
5.13021
5.59758
6.04804
6.49683
6.95791
7.44176
7.95404
8.49546
9.06285
9.65106
10.2554
10.8738
11.5082
12.1655
12.8566
13.5956
14.3978
15.2779
16.2482
17.317
18.4879
19.7598
21.1273
22.5822
24.1145
25.7138
27.3697
29.0717
30.8083
32.5658
34.3264
36.0669
37.7575
39.3611
40.8337
42.1257
43.1847
43.9585
44.3995
44.4691
44.142
43.4087
34.8669
34.94
34.6387
33.9757
32.977
31.6791
30.1252
28.3617
26.4344
24.3869
22.2582
20.0825
17.8885
15.7002
13.537
11.4154
9.34903
7.35026
5.43092
3.60318
1.88016
0.276402
-1.19204
-2.50792
-3.65361
-4.61241
-5.37037
-5.91844
-6.25451
-6.38496
-6.32492
-6.09698
-5.728
-5.2448
-4.66959
-4.01678
-3.29199
-2.49375
-1.61744
-0.660364
0.373434
1.46996
2.60484
3.74605
4.85929
5.91441
6.89127
7.78328
8.598
9.35499
10.0815
10.8073
11.5591
12.3565
13.209
14.1164
15.07
16.0577
17.0682
18.0954
19.1421
20.22
21.3495
22.5568
23.8704
25.3177
26.9215
28.697
30.6503
32.7785
35.0709
37.5115
40.082
42.764
45.5407
48.3957
51.3123
54.2699
57.2414
60.1901
63.0671
65.8099
68.3432
70.5805
72.4287
73.794
74.5904
74.7468
74.2163
72.981
49.5543
49.6614
49.2148
48.2355
46.7655
44.8632
42.5962
40.0357
37.251
34.3063
31.2578
28.1538
25.034
21.9305
18.8691
15.8706
12.9524
10.1299
7.41812
4.83269
2.39122
0.113903
-1.97613
-3.85313
-5.48976
-6.85909
-7.9375
-8.70839
-9.16604
-9.3189
-9.19088
-8.8196
-8.25104
-7.53119
-6.69731
-5.7713
-4.7578
-3.64734
-2.42387
-1.07449
0.401097
1.98401
3.6349
5.29882
6.91539
8.43144
9.81195
11.0464
12.1496
13.1568
14.1167
15.0808
16.0952
17.1921
18.3857
19.671
21.0287
22.4322
23.8571
25.2896
26.7313
28.2006
29.7308
31.365
33.1505
35.1323
37.3477
39.8209
42.5609
45.5608
48.8009
52.2535
55.8884
59.6777
63.5982
67.6306
71.7564
75.953
80.1883
84.4155
88.5684
92.5592
96.2776
99.594
102.366
104.447
105.701
106.012
105.303
103.545
65.0309
65.1771
64.5552
63.1986
61.1735
58.5691
55.4865
52.0291
48.2948
44.3714
40.334
36.2446
32.1527
28.0971
24.1075
20.2073
16.4152
12.7477
9.22084
5.8525
2.66357
-0.320529
-3.06919
-5.5466
-7.71289
-9.52671
-10.9495
-11.9514
-12.5185
-12.6593
-12.4091
-11.8284
-10.994
-9.98396
-8.85989
-7.65408
-6.36554
-4.96604
-3.41407
-1.67287
0.27157
2.39745
4.64342
6.91687
9.11332
11.1407
12.9399
14.4956
15.836
17.0238
18.1422
19.2786
20.5091
21.8853
23.4265
25.1179
26.9179
28.7722
30.6316
32.4668
34.2768
36.0898
37.9585
39.9514
42.1437
44.6067
47.3984
50.5565
54.0927
57.9927
62.2205
66.7285
71.4677
76.3976
81.4898
86.7261
92.0934
97.5749
103.141
108.742
114.298
119.695
124.785
129.386
133.292
136.287
138.162
138.74
137.897
135.583
81.6032
81.7961
80.9507
79.1215
76.413
72.9609
68.914
64.4185
59.6082
54.5979
49.4823
44.3362
39.2166
34.166
29.2151
24.3863
19.6968
15.161
10.7937
6.61244
2.63959
-1.09527
-4.554
-7.68915
-10.4446
-12.7584
-14.5684
-15.8214
-16.4855
-16.5636
-16.1042
-15.2033
-13.9908
-12.6019
-11.1412
-9.65704
-8.13415
-6.50547
-4.67794
-2.56519
-0.120621
2.63646
5.61074
8.64411
11.5529
14.1766
16.4165
18.2528
19.7401
20.9888
22.1399
23.3388
24.7107
26.3386
28.2487
30.4061
32.7263
35.1023
37.4383
39.6777
41.8153
43.8962
46.0042
48.2479
50.7443
53.6043
56.9185
60.7443
65.0974
69.9488
75.2332
80.8664
86.7684
92.8799
99.1693
105.628
112.261
119.07
126.04
133.129
140.25
147.267
153.99
160.172
165.524
169.731
172.484
173.508
172.605
169.687
99.6568
99.9066
98.759
96.307
92.7196
88.206
82.9844
77.259
71.2072
64.9739
58.6725
52.3875
46.1793
40.0895
34.1451
28.3633
22.7555
17.3304
12.0978
7.07131
2.27216
-2.26826
-6.50531
-10.3789
-13.8126
-16.7158
-18.9895
-20.5397
-21.2966
-21.242
-20.4354
-19.0271
-17.2421
-15.3234
-13.4566
-11.7163
-10.0556
-8.33175
-6.3531
-3.93588
-0.963496
2.56195
6.49204
10.5497
14.4021
17.764
20.4729
22.5111
23.9865
25.093
26.0673
27.1487
28.5423
30.384
32.7131
35.458
38.4528
41.488
44.3822
47.033
49.4337
51.6613
53.8527
56.1783
58.8191
61.9458
65.6993
70.1704
75.3816
81.2787
87.7405
94.6144
101.764
109.102
116.601
124.277
132.172
140.327
148.764
157.463
166.346
175.26
183.969
192.148
199.397
205.266
209.291
211.046
210.207
206.621
119.707
120.026
118.442
115.125
110.357
104.468
97.7782
90.5683
83.0666
75.4479
67.8393
60.3285
52.9723
45.8043
38.8417
32.091
25.5525
19.2243
13.1065
7.20479
1.53425
-3.87587
-8.97763
-13.6994
-17.942
-21.5767
-24.4499
-26.3973
-27.2734
-27.0006
-25.6299
-23.3908
-20.683
-17.9676
-15.5872
-13.6582
-12.0653
-10.5225
-8.65727
-6.10348
-2.60024
1.90724
7.19208
12.753
17.9596
22.2939
25.4971
27.582
28.7662
29.3895
29.8425
30.5115
31.7305
33.7299
36.5806
40.1522
44.1228
48.0788
51.6784
54.7504
57.3029
59.4802
61.5094
63.6564
66.1956
69.3861
73.4482
78.5318
84.6794
91.7961
99.655
107.966
116.488
125.094
133.777
142.61
151.706
161.178
171.11
181.532
192.395
203.546
214.707
225.46
235.256
243.454
249.363
252.315
251.765
247.421
142.486
142.881
140.618
136.027
129.606
121.88
113.318
104.295
95.0921
85.9055
76.8639
68.046
59.4936
51.2229
43.2333
35.5135
28.047
20.8159
13.8052
7.00643
0.422673
-5.92602
-11.9954
-17.7083
-22.9446
-27.5321
-31.2415
-33.7952
-34.9023
-34.3378
-32.0728
-28.4272
-24.1327
-20.1271
-17.0661
-15.114
-14.001
-13.1757
-11.9514
-9.63673
-5.68152
0.134623
7.49599
15.4679
22.7746
28.4535
32.133
33.9508
34.3546
33.9322
33.3074
33.083
33.7961
35.8508
39.411
44.2729
49.8144
55.1835
59.7351
63.2165
65.7128
67.5127
68.9966
70.5701
72.6343
75.5716
79.7261
85.3609
92.5815
101.244
110.918
121.013
131.088
140.975
150.735
160.563
170.697
181.365
192.749
204.963
218.024
231.814
246.031
260.146
273.414
284.931
293.687
298.622
298.78
293.57
169.11
169.559
166.14
159.56
150.729
140.492
129.515
118.275
107.088
96.1478
85.5606
75.3757
65.6039
56.2318
47.2315
38.5669
30.1983
22.0863
14.1949
6.49507
-1.03058
-8.38136
-15.5293
-22.4059
-28.884
-34.7542
-39.6994
-43.2781
-44.9404
-44.1256
-40.5058
-34.4002
-27.1689
-20.9289
-16.951
-15.364
-15.5252
-16.4063
-16.8184
-15.5356
-11.4459
-3.86667
6.91693
19.1368
29.9294
37.4879
41.4451
42.3511
41.1281
38.7617
36.1907
34.2996
33.9245
35.7986
40.3619
47.4094
55.749
63.4597
69.3268
73.0955
75.1195
75.9942
76.3486
76.771
77.8094
79.9975
83.8657
89.8996
98.4
109.229
121.566
134.082
145.952
157.028
167.586
178.065
188.91
200.51
213.182
227.162
242.592
259.458
277.488
296.04
314.078
330.374
343.501
351.795
353.514
347.344
201.454
201.802
196.207
186.327
173.871
160.162
146.085
132.176
118.727
105.879
93.6756
82.1084
71.1368
60.704
50.7453
41.1931
31.9796
23.0389
14.3089
5.7332
-2.73505
-11.1279
-19.4528
-27.6762
-35.6973
-43.3064
-50.1232
-55.5187
-58.5435
-57.9507
-52.5162
-41.9924
-28.7762
-18.472
-13.3919
-13.096
-16.012
-20.3111
-24.1251
-25.4752
-22.2341
-12.4813
4.27023
24.8612
41.741
51.7075
55.1504
53.8166
49.5476
43.8852
38.0951
33.333
30.8139
31.8738
37.7354
48.685
62.5886
74.3898
81.9393
85.4858
86.1796
85.2237
83.6017
82.0836
81.3279
82.0027
84.8853
90.885
100.863
115.042
131.952
148.078
161.958
173.824
184.547
195.035
206.031
218.108
231.724
247.27
265.088
285.417
308.187
332.666
357.242
380.371
400.266
414.428
419.596
412.59
243.115
242.594
232.438
216.797
198.81
180.356
162.409
145.408
129.498
114.677
100.872
87.9812
75.8918
64.4918
53.6727
43.3309
33.3676
23.688
14.2006
4.81714
-4.54732
-13.9714
-23.5211
-33.2361
-43.1021
-52.9972
-62.5915
-71.1706
-77.3534
-78.745
-71.853
-53.4597
-26.1885
-8.49104
-2.94275
-6.2016
-14.5061
-24.9135
-34.9782
-42.0249
-42.3979
-31.1729
-3.90471
35.9299
63.5076
75.3201
75.7337
69.5078
59.973
49.1922
38.5189
29.1363
22.5498
21.0344
27.7822
45.7062
72.4549
91.4414
100.315
101.983
99.6141
95.411
90.7039
86.2968
82.7852
80.8275
81.415
86.14
97.2753
116.917
143.467
165.306
180.858
192.261
201.844
211.27
221.589
233.486
247.482
264.097
283.963
307.852
336.416
369.145
402.479
435.014
465.274
490.001
503.199
496.666
302.422
297.253
276.558
250.636
224.416
199.812
177.365
157.062
138.694
122.006
106.748
92.6947
79.6498
67.4393
55.9093
44.9205
34.3442
24.0577
13.9407
3.87188
-6.27524
-16.6351
-27.3521
-38.5791
-50.4653
-63.1209
-76.5212
-90.2722
-103.062
-111.467
-107.751
-77.7112
-9.8157
18.9834
20.1871
7.95701
-9.97311
-30.0101
-50.1783
-68.1851
-79.2633
-72.9679
-30.1771
64.6455
107.972
115.343
105.874
89.9601
72.1891
54.3411
37.0808
20.9104
6.98058
-1.70661
1.73227
30.0165
93.4949
123.052
129.06
124.289
115.685
106.32
97.3694
89.2161
82.0002
75.9829
71.9818
72.1597
81.433
108.84
161.757
191.582
205.727
213.309
219.362
226.208
234.867
245.831
259.459
276.234
297.034
323.544
358.636
404.741
448.852
492.92
538.232
582.16
615.197
616.563
404.103
374.257
328.196
284.895
247.687
216.154
189.227
165.923
145.468
127.272
110.884
95.9544
82.2041
69.4053
57.3653
45.9155
34.9031
24.1831
13.6119
3.04
-7.6958
-18.7831
-30.4472
-42.9706
-56.7182
-72.1692
-89.9426
-110.755
-135.079
-161.637
-181.552
-156.471
62.8572
86.1952
62.6618
30.324
-2.40539
-34.916
-68.4885
-104.319
-141.144
-167.313
-131.373
167.514
204.212
179.614
145.293
113.085
84.5152
58.6431
34.0735
9.4583
-16.1372
-41.9081
-60.094
-36.3524
163.381
188.569
173.328
152.109
132.852
116.628
102.886
90.7844
79.488
68.2342
56.5298
45.081
39.477
64.0266
213.299
240.43
240.043
236.555
235.731
238.531
244.822
254.333
266.899
282.568
301.872
326.871
364.986
443.197
495.275
549.023
613.169
689.987
772.785
822.699
643.22
474.598
375.844
310.369
262.776
225.854
195.863
170.676
148.984
129.929
112.916
97.5113
83.3847
70.2754
57.9684
46.2784
35.039
24.0927
13.2826
2.44332
-8.61077
-20.1004
-32.3048
-45.5986
-60.5168
-77.8718
-98.9856
-126.177
-163.876
-221.37
-320.14
-514.945
417.754
220.898
117.812
53.2528
4.84645
-38.293
-83.5456
-139.022
-218.363
-351.093
-611.21
647.928
388.712
257.88
181.662
130.966
92.9535
61.0668
31.13
-0.583624
-39.0028
-93.0324
-182.295
-356.149
484.605
312.299
226.199
177.101
145.645
123.36
106.037
91.1895
76.9111
61.1313
40.707
9.58327
-45.9027
-160.39
440.716
328.899
278.816
255.958
246.872
245.821
250.131
258.427
269.863
283.656
298.501
311.301
313.585
519.272
539.279
590.137
669.838
789.183
977.7
1308.8
8551.38
8089.87
7601.21
7086.99
6549.04
5989.39
5410.17
4813.54
4201.72
3576.86
2941.12
2296.55
1645.2
989.033
329.996
42.1644
40.2745
37.9258
35.2108
32.2295
29.0778
25.8399
22.5829
19.3558
16.1898
13.1004
10.0898
7.15032
4.26655
1.41814
70.863
67.6322
63.6151
58.9798
53.9046
48.5587
43.0875
37.6049
32.1919
26.8982
21.7465
16.7376
11.8554
7.0717
2.35015
100.479
95.7733
89.9203
83.1862
75.8484
68.1633
60.345
52.5565
44.9083
37.4645
30.2499
23.2587
16.462
9.8147
3.26094
131.453
125.057
117.103
107.993
98.1364
87.898
77.5704
67.3656
57.4189
47.8007
38.5296
29.5852
20.9193
12.4641
4.1399
164.312
155.894
145.435
133.541
120.802
107.718
94.6698
81.9135
69.5985
57.788
46.4814
35.6329
25.1657
14.9826
4.97453
199.721
188.768
175.199
159.931
143.809
127.5
111.474
96.0169
81.2703
67.2688
53.9735
41.2985
29.1274
17.3262
5.75016
238.552
224.255
206.658
187.174
167
146.998
127.707
109.408
92.1944
76.0403
60.8432
46.4586
32.7187
19.4441
6.45012
282.002
263.036
239.999
215.102
190.013
165.781
142.947
121.711
102.058
83.8524
66.8983
50.9724
35.8437
21.281
7.05625
331.785
305.875
275.188
243.213
212.164
183.157
156.583
132.427
110.471
90.411
71.923
54.6875
38.4016
22.7796
7.54992
390.494
353.484
311.657
270.391
232.266
198.092
167.796
140.94
116.983
95.395
75.6929
57.4514
40.2945
23.8851
7.91363
462.1
405.904
347.558
294.422
248.41
209.146
175.566
146.55
121.124
98.4896
77.9998
59.1289
41.4386
24.5522
8.13295
552.178
460.458
378.236
311.321
257.799
214.51
178.765
148.566
122.471
99.4361
78.6853
59.624
41.7778
24.7514
8.19877
663.721
505.501
393.593
314.82
256.945
212.321
176.414
146.473
120.754
98.0952
77.6789
58.9023
41.2962
24.4762
8.10936
760.035
504.22
375.803
297.413
242.832
201.41
168.091
140.153
115.974
94.5083
75.0304
57.0083
40.0275
23.7474
7.8717
6.75651
20.2909
33.8884
47.5874
61.4211
75.4154
89.5884
103.956
118.549
133.47
149.027
166.079
186.874
217.121
271.201
6.94969
20.8667
34.8341
48.877
63.0063
77.2081
91.4292
105.555
119.372
132.52
144.392
153.918
158.779
151.989
105.831
7.13052
21.407
35.7265
50.1057
64.5396
78.9853
93.3342
107.364
120.658
132.453
141.383
144.992
138.774
114.192
55.3917
7.30049
21.9171
36.5769
51.2952
66.0631
80.8279
95.4584
109.684
122.981
134.371
142.065
142.886
131.517
100.155
41.0504
7.4595
22.3968
37.3859
52.4491
67.5874
82.7617
97.8616
112.645
126.626
138.854
147.517
149.243
138.141
105.38
42.6778
7.60566
22.8403
38.1426
53.5498
69.0849
84.7453
100.482
116.162
131.484
145.81
157.783
164.505
159.802
131.397
60.0355
7.73553
23.2364
38.8258
54.5605
70.4938
86.6736
103.141
119.925
137.032
154.395
171.694
187.696
197.92
187.241
111.218
7.84462
23.5705
39.4072
55.4321
71.7298
88.4004
105.577
123.462
142.398
163.019
186.503
214.896
250.549
288.458
264.074
7.92815
23.8274
39.8573
56.1132
72.7052
89.7737
107.519
126.265
146.593
169.651
197.9
237.049
301.606
432.928
766.762
7.98178
23.993
40.1499
56.5597
73.3479
90.6745
108.764
127.968
148.889
172.675
201.723
241.553
306.292
436.754
768.323
8.00219
24.0571
40.2663
56.7424
73.6152
91.0432
109.234
128.475
149.192
172.04
198.054
228.754
265.329
300.915
269.349
7.98739
24.0136
40.1966
56.6487
73.4954
90.8804
108.971
127.955
148.012
169.204
191.126
211.87
225.049
211.703
122.544
7.93673
23.8609
39.9392
56.28
73.0003
90.2258
108.085
126.687
146.04
165.856
185.011
200.237
203.183
175.135
84.0195
7.85069
23.6009
39.4987
55.6468
72.153
89.129
106.683
124.893
143.745
162.966
181.621
197.128
202.837
182.359
98.913
7.73064
23.2378
38.8836
54.7638
70.9779
87.6294
104.822
122.652
141.191
160.464
180.413
200.819
220.672
233.307
193.235
7.57857
22.778
38.1052
53.6479
69.4978
85.7521
102.517
119.915
138.125
157.489
178.885
204.89
243.514
320.854
528.109
7.397
22.2291
37.1763
52.3175
67.7355
83.519
99.7689
116.614
134.255
153.1
174.153
200.193
239.467
318.175
527.244
7.18882
21.5999
36.112
50.794
65.7179
80.9603
96.6062
112.757
129.547
147.174
165.954
186.303
208.031
224.962
190.7
6.95726
20.9003
34.929
49.1016
63.4779
78.1197
93.091
108.455
124.254
140.445
156.663
171.45
179.923
167.294
95.2223
6.70583
20.1407
33.6455
47.267
61.0523
75.0487
89.3016
103.847
118.686
133.696
148.361
160.981
166.466
150.903
81.9457
6.43812
19.3324
32.2804
45.3177
58.479
71.7981
85.3072
99.0348
112.999
127.184
141.478
155.462
167.624
171.589
134.594
6.15783
18.4863
30.8528
43.2815
55.7951
68.4143
81.1595
94.0562
107.155
120.594
134.807
151.205
174.471
220.717
348.485
5.86854
17.6135
29.3814
41.1857
53.0369
64.9418
76.9051
88.9359
101.073
113.464
126.617
142.175
165.358
213.228
345.309
5.5737
16.7244
27.8843
39.0567
50.2403
61.4276
72.6026
83.7405
94.812
105.802
116.757
127.846
139.099
147.256
123.654
5.27646
15.8288
26.3781
36.9191
47.4403
57.9209
68.3247
78.5899
88.6066
98.1629
106.8
113.402
114.987
103.337
57.3473
4.97958
14.9349
24.8774
34.7947
44.6677
54.4664
64.1418
73.6105
82.7195
91.1603
98.2561
102.439
100.065
83.2624
38.7516
4.68532
14.0496
23.3937
32.7004
41.946
51.0966
60.1013
68.8798
77.2951
85.0902
91.7329
96.0288
95.1605
82.4287
43.0667
4.3954
13.1781
21.9357
30.648
39.2895
47.8272
56.2169
64.4001
72.3001
79.819
86.8381
93.203
98.4932
100.087
79.8613
4.11101
12.324
20.5088
28.6441
36.7046
44.6597
52.4749
60.116
67.5685
74.8936
82.3962
91.1221
104.392
132.895
213.528
3.83288
11.4891
19.116
26.6919
34.1921
41.5888
48.8529
55.9621
62.9243
69.8437
77.1037
85.8843
99.7093
129.502
212.247
3.56131
10.6744
17.7583
24.7918
31.751
38.6093
45.3378
51.9093
58.3088
64.5563
70.754
77.1423
83.9369
89.3336
75.7063
3.2963
9.87978
16.4354
22.9428
29.3795
35.7192
41.9308
47.9754
53.798
59.3024
64.271
68.117
69.134
62.3754
34.8489
3.03759
9.10438
15.1456
21.1427
27.0749
32.9175
38.6392
44.1948
49.5074
54.4197
58.5667
61.0553
59.7298
49.8384
23.2768
2.78466
8.34663
13.8862
19.3873
24.832
30.1993
35.4623
40.5824
45.4941
50.0676
54.0133
56.6414
56.2735
48.8774
25.5876
2.5368
7.6043
12.6533
17.6707
22.6426
27.5531
32.3842
37.1139
41.7149
46.1509
50.374
54.3074
57.6971
58.9532
47.2632
2.29314
6.8747
11.4421
15.9855
20.4953
24.9616
29.3758
33.7344
38.0495
42.3815
46.9353
52.3501
60.6016
78.0189
126.464
2.05271
6.15486
10.2472
14.3235
18.3779
22.4057
26.4057
30.3846
34.3718
38.4573
42.8982
48.4223
57.1405
75.5372
125.533
1.81452
5.4417
9.06338
12.6764
16.2785
19.8689
23.4496
27.0285
30.6254
34.2858
38.1081
42.2759
46.9575
51.1111
44.2547
1.5776
4.73224
7.88538
11.0367
14.187
17.3383
20.4945
23.6596
26.8343
30.0012
33.0777
35.7719
37.1408
34.3305
19.6796
1.34105
4.02373
6.70846
9.3975
12.0944
14.8041
17.5326
20.2835
23.0483
25.7787
28.3123
30.1878
30.2258
25.772
12.263
1.10405
3.31372
5.52841
7.75263
9.99257
12.2565
14.5548
16.8972
19.2857
21.6925
24.0033
25.8793
26.4295
23.5015
12.4968
0.86594
2.60011
4.34158
6.09664
7.8738
9.68482
11.5459
13.4785
15.51
17.6722
19.9959
22.4907
25.0481
26.8393
22.445
0.626207
1.88135
3.14518
4.4251
5.73124
7.07805
8.48689
9.99067
11.643
13.5394
15.869
19.0581
24.1982
34.4719
60.5144
0.384545
1.15648
1.93745
2.73516
3.56019
4.42787
5.36163
6.39927
7.60622
9.10507
11.1445
14.2701
19.7823
31.1528
59.2144
0.140877
0.425255
0.717947
1.02605
1.35925
1.73149
2.16386
2.68987
3.36624
4.29482
5.66539
7.82388
11.2975
16.2416
18.1415
-0.104639
-0.311831
-0.512398
-0.700684
-0.86907
-1.00695
-1.0993
-1.12433
-1.04933
-0.822874
-0.361496
0.463772
1.79094
3.44365
3.58404
-0.351633
-1.0536
-1.75141
-2.44143
-3.11882
-3.77733
-4.40957
-5.00839
-5.57051
-6.1042
-6.64162
-7.24542
-7.94233
-8.30461
-5.89843
-0.599555
-1.79834
-2.99598
-4.19115
-5.38195
-6.56627
-7.74341
-8.91833
-10.1119
-11.3834
-12.8762
-14.8905
-17.9085
-21.9758
-21.9024
-0.847729
-2.54396
-4.2424
-5.94411
-7.64982
-9.3605
-11.0791
-12.8157
-14.5995
-16.5094
-18.749
-21.839
-27.1463
-38.523
-68.2756
-1.09539
-3.28814
-5.48669
-7.69448
-9.91451
-12.1495
-14.4028
-16.6807
-19.0001
-21.407
-24.0318
-27.2482
-32.1699
-42.3097
-69.7567
-1.34171
-4.02839
-6.7247
-9.43655
-12.1691
-14.9262
-17.7096
-20.5174
-23.3403
-26.1539
-28.9041
-31.4737
-33.5703
-34.0778
-26.8017
-1.5858
-4.76204
-7.95206
-11.1645
-14.4069
-17.6849
-20.9999
-24.3441
-27.6874
-30.9455
-33.9023
-36.0282
-36.0747
-31.2515
-16.0187
-1.82668
-5.4862
-9.16402
-12.8718
-16.6203
-20.4182
-24.2703
-28.1718
-32.0941
-35.9468
-39.478
-42.0273
-41.9614
-35.6546
-16.9058
-2.06333
-6.19774
-10.3553
-14.5511
-18.7996
-23.1142
-27.5068
-31.9855
-36.5498
-41.1719
-45.7362
-49.843
-52.1828
-48.6984
-28.2536
-2.29462
-6.8933
-11.5202
-16.1941
-20.9333
-25.7565
-30.6838
-35.7404
-40.966
-46.4376
-52.313
-58.8865
-66.4495
-73.5211
-64.645
-2.51939
-7.56933
-12.6527
-17.7919
-23.0089
-28.3269
-33.7716
-39.3783
-45.2121
-51.4235
-58.4058
-67.2436
-81.0586
-109.42
-184.658
-2.73644
-8.22223
-13.7468
-19.3357
-25.0149
-30.8098
-36.7472
-42.8591
-49.1965
-55.8747
-63.2108
-72.1452
-85.5675
-112.766
-185.941
-2.94455
-8.84834
-14.7962
-20.8173
-26.9407
-33.1941
-39.6023
-46.1838
-52.9448
-59.8697
-66.9069
-73.9312
-80.5106
-84.1858
-68.8433
-3.14251
-9.44398
-15.7948
-22.2281
-28.7766
-35.4713
-42.3375
-49.3845
-56.58
-63.7876
-70.6126
-76.0272
-77.4717
-68.8135
-36.7077
-3.3291
-10.0054
-16.7365
-23.5592
-30.5114
-37.6299
-44.9477
-52.4826
-60.2076
-67.972
-75.2986
-80.8811
-81.4494
-69.7252
-33.2597
-3.50311
-10.529
-17.6146
-24.8008
-32.1309
-39.6505
-47.4077
-55.4493
-63.8083
-72.4612
-81.1968
-89.218
-93.9644
-87.819
-50.6829
-3.66346
-11.0114
-18.423
-25.9428
-33.6192
-41.5067
-49.6707
-58.1963
-67.2058
-76.8939
-87.5917
-99.83
-114.044
-127.435
-112.71
-3.80925
-11.4496
-19.1564
-26.9764
-34.9613
-43.1713
-51.6831
-60.6079
-70.1327
-80.6263
-92.9178
-109.071
-134.697
-186.576
-321.056
-3.9399
-11.8419
-19.8114
-27.8959
-36.1475
-44.6267
-53.4095
-62.6036
-72.3876
-83.111
-95.5632
-111.734
-137.119
-188.358
-321.735
-4.05514
-12.1875
-20.3867
-28.6995
-37.176
-45.8718
-54.8508
-64.1903
-73.9909
-84.3961
-95.6271
-108.001
-121.588
-133.101
-114.927
-4.1551
-12.4868
-20.8834
-29.3898
-38.0527
-46.9208
-56.0423
-65.4574
-75.1751
-85.1087
-94.8984
-103.425
-107.499
-98.4616
-55.1184
-4.24017
-12.7411
-21.3041
-29.9717
-38.7874
-47.7944
-57.0307
-66.5153
-76.2103
-85.9223
-95.0475
-101.944
-102.515
-87.6469
-41.7644
-4.31099
-12.9524
-21.6524
-30.4512
-39.3897
-48.5092
-57.8473
-67.4277
-77.2347
-87.1444
-96.7454
-104.858
-108.253
-98.3713
-54.5544
-4.36837
-13.1231
-21.9324
-30.8338
-39.8668
-49.0729
-58.4962
-68.1836
-78.1887
-88.5821
-99.478
-111.049
-123.212
-132.663
-112.687
-4.41327
-13.2561
-22.1486
-31.1254
-40.224
-49.4864
-58.9624
-68.7199
-78.8739
-89.6719
-101.743
-116.832
-140.055
-187.394
-313.458
-4.44685
-13.3549
-22.3064
-31.3327
-40.468
-49.752
-59.2337
-68.9816
-79.1128
-89.8789
-101.914
-116.966
-140.155
-187.458
-313.48
-4.47053
-13.4234
-22.4126
-31.4645
-40.609
-49.881
-59.321
-68.9778
-78.9118
-89.2062
-99.9906
-111.452
-123.511
-132.858
-112.758
-4.48602
-13.467
-22.4754
-31.5323
-40.6621
-49.8936
-59.2583
-68.7822
-78.4614
-88.1943
-97.5988
-105.524
-108.753
-98.7094
-54.6874
-4.49536
-13.4915
-22.5048
-31.5496
-40.6448
-49.8144
-59.0858
-68.4795
-77.9745
-87.4116
-96.2359
-102.858
-103.213
-88.1589
-42.0018
-4.50095
-13.5042
-22.5123
-31.5322
-40.5762
-49.6648
-58.8289
-68.1071
-77.5288
-87.0554
-96.4032
-104.547
-108.374
-99.2093
-55.5992
-4.50564
-13.5135
-22.5119
-31.4983
-40.4768
-49.4632
-58.4933
-67.6356
-77.011
-86.8242
-97.4074
-109.236
-122.559
-134.181
-116.134
-4.51276
-13.5293
-22.5198
-31.47
-40.3721
-49.2315
-58.0803
-67.0027
-76.1898
-86.0594
-97.5476
-112.889
-137.927
-189.76
-325.435
-4.52609
-13.5633
-22.5558
-31.4753
-40.2972
-49.0075
-57.6162
-66.1864
-74.8953
-84.1712
-95.0128
-109.81
-134.688
-187.117
-324.364
-4.54981
-13.6282
-22.6425
-31.5482
-40.2999
-48.8542
-57.1792
-65.2738
-73.2075
-81.1964
-89.7316
-99.7318
-112.319
-125.577
-112.524
-4.58821
-13.7377
-22.8046
-31.7282
-40.4395
-48.8602
-56.9023
-64.4731
-71.4816
-77.8425
-83.4338
-87.8575
-89.4864
-82.3091
-47.9043
-4.64529
-13.9044
-23.0661
-32.0553
-40.781
-49.1289
-56.9527
-64.0626
-70.2055
-75.0233
-77.9471
-77.9246
-72.7696
-57.9503
-25.927
-4.72418
-14.1386
-23.4473
-32.5653
-41.3845
-49.7612
-57.4987
-64.3235
-69.8493
-73.519
-74.5066
-71.5558
-62.7645
-45.5392
-17.7211
-4.82654
-14.4462
-23.9607
-33.2824
-42.295
-50.837
-58.678
-65.4859
-70.7817
-73.8769
-73.8005
-69.2427
-58.6163
-40.4842
-14.8099
-4.95204
-14.8267
-24.6077
-34.2136
-43.5319
-52.3992
-60.5739
-67.6977
-73.2414
-76.4365
-76.2055
-71.1433
-59.6797
-40.6666
-14.6385
-5.0979
-15.272
-25.3758
-35.3442
-45.0815
-54.4414
-63.1986
-71.0055
-77.3309
-81.374
-81.9642
-77.4883
-65.9851
-45.7197
-16.7232
-5.25875
-15.7659
-26.2375
-36.6348
-46.8924
-56.9014
-66.4819
-75.3408
-83.0037
-88.7079
-91.2393
-88.7116
-78.3739
-56.8353
-21.8976
-5.42672
-16.2841
-27.1505
-38.0216
-48.875
-59.6578
-70.265
-80.5049
-90.0346
-98.2429
-104.025
-105.356
-98.5391
-77.2541
-33.2228
-5.59183
-16.7958
-28.0597
-39.4199
-50.9057
-62.5346
-74.3016
-86.16
-97.9807
-109.46
-119.9
-127.657
-128.748
-113.466
-60.1133
-5.74272
-17.2656
-28.9016
-40.7301
-52.836
-65.314
-78.2725
-91.8388
-106.161
-121.396
-137.633
-154.584
-170.324
-176.11
-133.443
-5.86754
-17.6564
-29.6094
-41.8467
-54.5067
-67.758
-81.819
-96.9894
-113.704
-132.633
-154.868
-182.344
-218.809
-272.395
-362.474
535.907
400.068
317.9
261.375
218.735
184.526
155.892
131.167
109.29
89.5332
71.368
54.3894
38.2711
22.7369
7.54188
195.896
255.54
243.565
217.371
190.143
164.8
141.751
120.784
101.568
83.7773
67.1205
51.344
36.2235
21.5566
7.15624
86.5411
160.741
179.099
174.081
160.236
143.479
126.16
109.183
92.8553
77.232
62.2605
47.8421
33.8601
20.1909
6.70945
45.853
104.717
130.862
136.918
132.349
122.546
110.33
97.1287
83.6509
70.2326
57.015
44.0364
31.2788
18.6944
6.2191
27.9712
71.4117
96.5729
107.13
108.093
103.286
95.1809
85.2643
74.4035
63.0922
51.6026
40.0762
28.5768
17.1219
5.70287
18.7708
50.7992
72.4234
84.0038
87.8406
86.3153
81.2877
74.0538
65.4675
56.0742
46.2146
36.0966
25.8432
15.5243
5.17727
13.3987
37.4105
55.2474
66.2529
71.3103
71.7746
68.9251
63.7809
57.0905
49.379
41.0052
32.2103
23.1548
13.9458
4.65682
9.96057
28.3093
42.8142
52.6314
57.9682
59.5338
58.1544
54.5805
49.4215
43.1427
36.0875
28.5044
20.5725
12.4225
4.15343
7.61417
21.877
33.6355
42.1201
47.2437
49.3369
48.9064
46.4797
42.529
37.4447
31.5356
25.04
18.1413
10.9817
3.67622
5.93815
17.1832
26.7297
33.942
38.6226
40.8916
41.0436
39.4362
36.4229
32.3189
27.3903
21.8553
15.8909
9.64208
3.23152
4.70041
13.6685
21.4445
27.5212
31.6753
33.9157
34.4016
33.3683
31.0734
27.7649
23.6656
18.9683
13.8376
8.4146
2.82319
3.76304
10.9816
17.3387
22.4348
26.0565
28.1575
28.8139
28.1758
26.4273
23.7597
20.3557
16.3819
11.987
7.30391
2.45299
3.03916
8.89252
14.1084
18.3719
21.493
23.4018
24.1247
23.7538
22.4188
20.2653
17.4411
14.0875
10.3364
6.3096
2.12098
2.47145
7.24595
11.5391
15.102
17.7709
19.4691
20.1946
20.0009
18.9781
17.2364
14.8938
12.069
8.87693
5.42756
1.82597
2.02063
5.93345
9.47677
12.4526
14.7226
16.2116
16.9023
16.8233
16.0365
14.6243
12.681
10.3052
7.59601
4.65111
1.56589
1.65896
4.87741
7.80826
10.2932
12.2162
13.5081
14.1441
14.137
13.5286
12.3809
10.7683
8.77262
6.47864
3.97201
1.33812
1.36633
4.021
6.44925
8.52378
10.1479
11.2598
11.8322
11.868
11.3951
10.4599
9.12143
7.44704
5.50881
3.38119
1.13972
1.12784
3.32173
5.33573
7.06696
8.43509
9.38606
9.89259
9.952
9.58249
8.81874
7.70763
6.30454
4.67037
2.86937
0.967675
0.932216
2.74733
4.41846
5.86216
7.01178
7.82072
8.26329
8.33365
8.04342
7.41861
6.49644
5.32238
3.94769
2.42741
0.818978
0.770825
2.27287
3.65904
4.86145
5.82492
6.50965
6.89229
6.96552
6.73652
6.22483
5.46004
4.47944
3.32601
2.04663
0.690761
0.63692
1.87883
3.02715
4.02658
4.83149
5.40821
5.73602
5.80714
5.62577
5.20667
4.57337
3.75643
2.79171
1.71893
0.58034
0.525177
1.54974
2.4986
3.3267
3.99643
4.47951
4.75789
4.82397
4.68
4.33714
3.81414
3.13596
2.3324
1.43688
0.485248
0.431335
1.27318
2.05386
2.73672
3.29091
3.69285
3.92708
3.98654
3.87224
3.59262
3.16259
2.60247
1.9369
1.19378
0.403243
0.351942
1.03908
1.67699
2.23603
2.69104
3.02257
3.21756
3.26969
3.1792
2.95247
2.6013
2.14215
1.59522
0.983571
0.332303
0.284167
0.839153
1.35485
1.80752
2.17687
2.44703
2.60717
2.6518
2.5807
2.39865
2.11494
1.74274
1.29843
0.800853
0.270618
0.225655
0.666485
1.07645
1.43682
1.73152
1.94782
2.07694
2.11421
2.05917
1.91536
1.68997
1.39337
1.0386
0.640794
0.216567
0.174414
0.515234
0.832451
1.1117
1.34055
1.50912
1.61042
1.64066
1.59924
1.48868
1.3144
1.08435
0.80863
0.499064
0.168694
0.128728
0.380357
0.614796
0.821535
0.991419
1.11707
1.1932
1.21682
1.18726
1.10621
0.97752