/*--------------------------------*- C++ -*----------------------------------*\
| =========                 |                                                 |
| \\      /  F ield         | OpenFOAM: The Open Source CFD Toolbox           |
|  \\    /   O peration     | Version:  5.x                                   |
|   \\  /    A nd           | Web:      www.OpenFOAM.org                      |
|    \\/     M anipulation  |                                                 |
\*---------------------------------------------------------------------------*/
FoamFile
{
    version     2.0;
    format      ascii;
    class       volScalarField;
    location    "4.5";
    object      gradTy;
}
// * * * * * * * * * * * * * * * * * * * * * * * * * * * * * * * * * * * * * //

dimensions      [0 -1 0 1 0 0 0];

internalField   nonuniform List<scalar> 
6300
(
2188.84
4563.13
6927.24
9274.34
11597.6
13889.9
16144.5
18354.1
20511.9
22610.8
24644.2
26605.6
28489.3
30290
32003.7
4.99453
15.0025
25.0647
35.2082
45.4458
55.7694
66.1422
76.4903
86.6953
96.5886
105.95
114.514
121.982
128.054
132.453
8.303
24.9435
41.6833
58.5745
75.6461
92.8931
110.263
127.641
144.836
161.569
177.466
192.067
204.849
215.271
222.836
11.5765
34.7839
58.1487
81.7576
105.667
129.889
154.37
178.968
203.432
227.376
250.267
271.428
290.064
305.334
316.446
14.7952
44.4651
74.3672
104.636
135.371
166.621
198.351
230.42
262.536
294.224
324.786
353.297
378.628
399.536
414.816
17.9339
53.9119
90.2156
127.042
164.555
202.862
241.984
281.812
322.056
362.18
401.337
438.325
471.592
499.341
519.752
20.9611
63.0305
105.537
148.756
192.937
238.279
284.897
332.772
381.678
431.084
480.036
527.049
570.05
606.459
633.5
23.8404
71.7089
120.14
169.501
220.149
272.407
326.538
382.684
440.781
500.417
560.646
619.756
675.07
722.911
758.977
26.5307
79.822
133.806
188.951
245.739
304.649
366.146
430.625
498.32
569.131
642.346
716.228
787.527
851.102
900.159
28.99
87.2389
146.303
206.751
269.193
334.289
402.752
475.327
552.716
635.412
723.345
815.248
907.668
993.769
1062.74
31.179
93.8368
157.407
222.546
289.979
360.544
435.226
515.188
601.776
696.424
800.338
913.71
1034.08
1153.52
1255.25
33.0667
99.5171
166.937
236.034
307.618
382.664
462.396
548.397
642.747
748.136
867.832
1005.13
1161.38
1330.9
1490.75
34.6355
104.223
174.781
247.022
321.778
400.078
483.272
573.23
672.646
785.503
917.684
1077.54
1275.33
1517.89
1787.62
35.8858
107.955
180.932
255.484
332.379
412.577
497.36
588.575
689.073
803.506
939.815
1111.95
1344.46
1677.63
2155.88
36.8371
110.772
185.501
261.587
339.661
420.471
504.99
594.61
691.531
799.592
926.07
1085.93
1312.85
1692.2
2476.92
33492
34781.3
36006.5
37168
38266.5
39303.6
40281.4
41202.2
42069.1
42885
43653.4
44377.8
45061.7
45708.8
46322.6
46906.8
47464.7
47999.7
48515.1
49014
49499.1
49973.4
50439.3
50899
51354.8
51808.3
52261
52714.3
53168.9
53625.5
54084.4
54545.7
55009
55474
55940.2
56406.9
56873.2
57338.3
57801.2
58260.8
58716.1
59165.8
59608.7
60043.4
60468.6
60883.2
61285.7
61675.3
62050.7
62411.1
62755.5
63083.2
63393.3
63684.8
63957
64208.8
64439.2
64647.1
64831.3
64990.6
65123.6
65229
65305.4
65351.3
65364.9
65344.4
65287.9
65192.9
65057.2
64878
64652.2
64376.8
64048.4
63663.4
63218
62708.3
62130.2
61479.8
60752.6
59944.6
59051.6
58069.4
56994.2
55822.5
54551.1
53177.5
51699.7
50116.6
48428
46634.7
134.76
135.476
134.799
132.771
129.482
125.064
119.673
113.481
106.661
99.379
91.7864
84.0171
76.1854
68.3872
60.7013
53.1927
45.9152
38.9147
32.233
25.9096
19.9847
14.5
9.49957
5.02854
1.13118
-2.15284
-4.79321
-6.77429
-8.10007
-8.79737
-8.91594
-8.52459
-7.70327
-6.53244
-5.08235
-3.40508
-1.53165
0.52485
2.76127
5.17355
7.7463
10.4457
13.2183
15.9958
18.7057
21.2842
23.6874
25.8999
27.9357
29.8354
31.6573
33.4674
35.328
37.2896
39.3846
41.6273
44.0166
46.5439
49.2014
51.9902
54.9264
58.0428
61.3875
65.0193
69.0016
73.3948
78.2495
83.6014
89.4673
95.8456
102.717
110.051
117.807
125.94
134.402
143.141
152.096
161.189
170.323
179.373
188.179
196.547
204.252
211.039
216.641
220.795
223.257
223.831
222.386
218.873
226.798
228.013
226.819
223.294
217.605
209.99
200.732
190.136
178.504
166.125
153.257
140.125
126.919
113.796
100.883
88.2828
76.08
64.3464
53.1469
42.5442
32.6027
23.3917
14.9858
7.46379
0.905315
-4.61597
-9.04106
-12.3361
-14.5028
-15.5856
-15.6736
-14.8942
-13.3973
-11.3341
-8.83417
-5.9889
-2.84514
0.588085
4.32255
8.368
12.7099
17.2941
22.0233
26.7675
31.3855
35.752
39.7823
43.4471
46.776
49.8494
52.7812
55.6984
58.7193
61.9362
65.4051
69.1438
73.1393
77.3633
81.7899
86.4122
91.2533
96.3705
101.851
107.803
114.344
121.585
129.619
138.511
148.291
158.95
170.453
182.739
195.737
209.368
223.556
238.22
253.266
268.578
284.003
299.34
314.325
328.634
341.878
353.616
363.375
370.683
375.099
376.265
373.935
368.015
322.253
323.998
322.174
316.91
308.478
297.258
283.694
268.255
251.399
233.55
215.082
196.313
177.508
158.877
140.589
122.776
105.546
88.9864
73.1794
58.2048
44.1478
31.1034
19.1787
8.49155
-0.833905
-8.67719
-14.9356
-19.5423
-22.4857
-23.8255
-23.6999
-22.3165
-19.9266
-16.7845
-13.1036
-9.02305
-4.59626
0.196425
5.41457
11.1138
17.3024
23.9109
30.7836
37.6973
44.4033
50.68
56.3791
61.4532
65.9594
70.0418
73.9007
77.7544
81.8021
86.1936
91.0105
96.2632
101.906
107.864
114.069
120.491
127.155
134.147
141.606
149.71
158.648
168.602
179.723
192.113
205.814
220.809
237.029
254.371
272.719
291.96
311.991
332.712
354.016
375.767
397.773
419.772
441.407
462.215
481.632
498.999
513.598
524.69
531.581
533.689
530.614
522.191
422.78
425.104
422.464
415.069
403.348
387.883
369.34
348.4
325.709
301.851
277.324
252.541
227.831
203.452
179.598
156.421
134.034
112.533
92.0048
72.5364
54.2277
37.1965
21.5837
7.55344
-4.71205
-15.0249
-23.2125
-29.1472
-32.7811
-34.1794
-33.5409
-31.1917
-27.5427
-23.0147
-17.9524
-12.56
-6.87862
-0.812515
5.80905
13.1498
21.285
30.1417
39.4788
48.9196
58.0324
66.4323
73.8684
80.2695
85.745
90.5482
95.0196
99.5226
104.381
109.83
115.979
122.812
130.208
137.997
146.026
154.211
162.572
171.238
180.423
190.403
201.477
213.927
227.987
243.812
261.46
280.888
301.972
324.536
348.397
373.396
399.41
426.343
454.102
482.562
511.529
540.703
569.649
597.77
624.306
648.339
668.838
684.714
694.918
698.545
694.957
683.88
530.357
533.332
529.574
519.432
503.582
482.918
458.416
431.043
401.683
371.099
339.921
308.649
277.667
247.257
217.624
188.916
161.238
134.673
109.297
85.1925
62.4632
41.2433
21.7069
4.07161
-11.4039
-24.4343
-34.7347
-42.0663
-46.2966
-47.4669
-45.8459
-41.9394
-36.4257
-30.0154
-23.2783
-16.5146
-9.71696
-2.62352
5.16548
14.039
24.2258
35.6776
48.021
60.6103
72.6838
83.568
92.8427
100.413
106.493
111.527
116.087
120.773
126.105
132.451
139.957
148.543
157.936
167.779
177.749
187.668
197.544
207.571
218.085
229.512
242.313
256.921
273.697
292.874
314.529
338.571
364.768
392.816
422.419
453.353
485.487
518.764
553.155
588.602
624.96
661.937
699.05
735.579
770.551
802.738
830.701
852.874
867.692
873.76
870.055
856.107
647.508
651.227
645.854
631.987
610.729
583.456
551.606
516.531
479.404
441.189
402.644
364.335
326.673
289.939
254.318
219.928
186.84
155.103
124.761
95.8733
68.5311
42.8729
19.1001
-2.51147
-21.6075
-37.7647
-50.5215
-59.4403
-64.2073
-64.7625
-61.4312
-54.9904
-46.5888
-37.4761
-28.6321
-20.5077
-12.9712
-5.42636
2.96963
13.046
25.3538
39.9385
56.2175
73.0521
89.0555
103.029
114.278
122.711
128.755
133.192
136.982
141.097
146.378
153.405
162.387
173.115
185.024
197.381
209.552
221.19
232.303
243.206
254.433
266.647
280.548
296.798
315.949
338.366
364.159
393.146
424.895
458.852
494.517
531.573
569.908
609.569
650.674
693.317
737.482
782.958
829.27
875.609
920.781
963.191
1000.87
1031.6
1053.04
1063.02
1059.87
1042.76
777.607
782.182
774.333
755.155
726.507
690.554
649.414
604.945
558.662
511.73
465.002
419.07
374.324
331
289.225
249.052
210.486
173.513
138.122
104.322
72.1687
41.7831
13.3779
-12.7189
-36.0442
-55.9922
-71.8347
-82.7924
-88.182
-87.6538
-81.493
-70.8643
-57.7756
-44.5497
-32.95
-23.6553
-16.2386
-9.4562
-1.64788
8.83709
23.2001
41.756
63.6097
86.6863
108.346
126.406
139.762
148.443
153.324
155.783
157.4
159.733
164.13
171.537
182.293
195.98
211.458
227.243
242.11
255.46
267.355
278.36
289.35
301.341
315.385
332.481
353.482
378.982
409.172
443.726
481.824
522.406
564.59
607.926
652.392
698.266
745.946
795.808
848.079
902.736
959.411
1017.28
1074.94
1130.4
1181.02
1223.64
1254.82
1271.14
1269.74
1249.08
925.47
930.989
919.084
891.919
852.764
805.086
751.978
695.934
638.818
581.942
526.178
472.062
419.893
369.8
321.799
275.835
231.813
189.625
149.171
110.381
73.2433
37.8257
4.31746
-26.9305
-55.3565
-80.1426
-100.192
-114.173
-120.688
-118.665
-107.998
-90.2906
-69.1707
-49.2929
-33.9605
-24.1109
-18.6057
-14.9764
-10.1332
-0.970155
14.9937
38.8086
69.2242
102.343
132.801
156.535
171.961
179.625
181.36
179.566
176.766
175.375
177.526
184.823
197.957
216.24
237.424
258.402
276.827
291.798
303.659
313.511
322.795
333.049
345.799
362.51
384.506
412.812
447.865
489.166
535.139
583.611
632.964
682.605
732.804
784.311
838.027
894.776
955.181
1019.55
1087.78
1159.16
1232.22
1304.52
1372.59
1432.09
1477.93
1504.67
1507.29
1482.63
1098.47
1104.84
1085.76
1045.9
991.247
927.387
858.728
788.432
718.599
650.529
584.956
522.232
462.458
405.574
351.428
299.812
250.492
203.234
157.818
114.062
71.8407
31.1209
-7.99412
-45.2003
-79.9035
-111.106
-137.281
-156.293
-165.477
-162.116
-144.633
-114.622
-78.77
-47.4841
-27.0704
-18.3056
-18.2669
-22.2402
-24.834
-20.5656
-4.51348
26.3603
70.9483
121.834
166.938
198.628
215.334
219.341
214.476
204.794
194.102
185.918
183.508
189.702
206.206
232.32
263.683
293.234
316.514
332.608
342.851
349.473
354.835
361.153
370.503
384.92
406.434
436.916
477.547
527.865
584.838
643.53
700.901
756.457
811.305
867.149
925.706
988.448
1056.53
1130.78
1211.55
1298.57
1390.54
1484.67
1576.45
1660.12
1728.48
1772.85
1784.06
1755.13
1309.03
1315.25
1282.31
1221.11
1142.94
1056.55
967.792
880.22
795.802
715.485
639.603
568.129
500.835
437.386
377.398
320.467
266.19
214.18
164.069
115.527
68.2721
22.1038
-23.0541
-67.0725
-109.488
-149.302
-184.678
-212.559
-228.323
-225.893
-199.302
-147.358
-81.7908
-30.0172
-3.40443
0.0666054
-12.1491
-31.489
-49.4148
-57.1286
-45.3632
-5.8368
63.6019
149.644
220.386
262.289
276.987
271.826
254.521
231.469
207.82
188.14
177.096
179.727
200.608
240.833
292.544
337.085
366.535
381.832
387.243
387.238
385.487
384.877
387.898
397.094
415.432
446.386
493.26
556.961
632.035
705.326
771.422
831.299
888.336
946.045
1007.32
1074.38
1148.98
1232.55
1326.26
1430.8
1545.7
1668.12
1791.92
1910.13
2013.48
2088.69
2118.53
2086.28
1580.96
1582.02
1519.47
1420.69
1306.43
1189.07
1075.09
967.421
867.052
774.012
687.862
607.97
533.641
464.185
398.938
337.274
278.604
222.371
168.045
115.123
63.1276
11.6218
-39.7625
-91.2574
-142.824
-193.891
-242.866
-286.272
-317.368
-324.459
-290.481
-199.712
-64.9538
23.6745
53.5778
41.0195
4.21982
-42.7808
-88.7072
-121.747
-126.196
-81.116
32.335
199.473
315.343
365.109
367.219
341.777
302.823
258.987
215.805
177.909
150.976
143.454
167.139
232.787
331.708
402.645
436.916
445.266
439.407
427.495
414.47
403.345
396.376
396.078
406.235
432.903
484.714
569.643
681.764
777.441
850.854
910.183
964.349
1019.76
1080.53
1149.4
1228.44
1319.65
1425.3
1548.02
1689.94
1849.46
2015.35
2181.42
2338.89
2469.73
2542.28
2513.9
1969.36
1940.29
1808.7
1642.52
1474.28
1316.66
1173.26
1044.05
927.707
822.58
727.078
639.77
559.407
484.901
415.3
349.756
287.498
227.806
169.993
113.38
57.2766
0.965872
-56.3085
-115.333
-176.871
-241.482
-309.063
-377.695
-440.966
-482.146
-463.426
-315.397
18.3145
161.931
171.704
116.88
35.2791
-55.6162
-146.551
-227.531
-278.341
-254.844
-76.2389
323.12
505.483
536.539
497.113
431.175
358.145
285.556
216.171
151.886
96.904
62.2382
73.2401
176.823
411.16
520.991
544.607
529.147
500.275
469.339
440.706
415.815
395.233
379.995
373.245
383.201
428.459
543.147
755.146
881.588
950.533
996.466
1038.53
1085.7
1142.06
1209.72
1290.33
1385.89
1499.69
1637.52
1808.76
2021.55
2238.41
2464.98
2702.5
2934.6
3111.26
3125.42
2637.44
2446.1
2147.66
1867.21
1626.79
1423.69
1250.93
1102.11
972.155
857.242
754.453
661.532
576.703
498.524
425.795
357.484
292.675
230.519
170.2
110.892
51.7162
-8.30808
-70.3366
-135.791
-206.488
-284.791
-373.736
-476.825
-596.36
-726.072
-822.562
-698.455
375.313
492.91
382.838
231.286
79.7161
-68.3982
-218.729
-376.756
-537.483
-651.924
-502.7
759.223
913.48
809.435
665.16
530.765
412.81
307.497
209.178
112.457
13.5661
-84.747
-153.984
-67.4394
669.878
763.463
708.541
632.313
564.092
507.842
461.528
422.06
386.372
351.669
316.177
282.642
272.202
376.492
951.693
1068.49
1083.3
1088.27
1105.32
1138.36
1187.24
1251.36
1330.62
1425.81
1539.42
1678.82
1867.63
2187.68
2447.34
2732.62
3073.76
3479.13
3914.04
4179.61
4211.31
3105.99
2460.59
2034.19
1725.45
1486.94
1294.08
1132.92
994.893
874.401
767.572
671.606
584.39
504.27
429.902
360.149
294.012
230.572
168.939
108.202
47.3713
-14.7001
-79.4318
-148.699
-225.147
-312.768
-418.029
-552.258
-737.074
-1017.81
-1499.33
-2449
2109.18
1151.7
653.679
345.706
119.168
-77.9907
-279.821
-522.081
-863.259
-1428.66
-2531.43
2790.33
1693.39
1140.23
818.949
606.654
449.251
319.349
199.874
76.1405
-70.6082
-273.603
-605.533
-1248.82
1855.54
1219.75
903.122
723.922
610.647
532.01
472.47
422.841
376.07
324.461
256.274
148.806
-49.2813
-468.295
1808.3
1402.19
1230.2
1162.61
1149.03
1168.18
1210.41
1271.12
1347.92
1439.12
1541.94
1648.89
1737.43
2440.62
2619.23
2919.63
3352.34
3980.94
4960.42
6668.92
44548.6
42128.6
39570.7
36883
34074.7
31155.9
28137.4
25030.3
21845.8
18594.9
15288.5
11937
8550.96
5140.34
1715.07
212.776
203.403
191.677
178.067
163.08
147.203
130.866
114.412
98.0935
82.07
66.4225
51.1659
36.2632
21.6392
7.19265
357.632
341.601
321.54
298.298
272.779
245.843
218.233
190.533
163.157
136.363
110.268
84.8829
60.1296
35.8692
11.9207
507.161
483.802
454.56
420.78
383.871
345.138
305.674
266.313
227.626
189.944
153.398
117.964
83.5019
49.7874
16.5424
663.623
631.855
592.09
546.368
496.766
445.142
392.991
341.402
291.074
242.375
195.405
150.067
106.123
63.2349
21.004
829.726
787.88
735.552
675.812
611.661
545.653
479.73
415.214
352.879
293.061
235.766
180.767
127.681
76.0224
25.242
1008.86
954.356
886.396
809.642
728.389
646.056
565.045
486.831
412.154
341.211
273.817
209.543
147.805
87.9267
29.1821
1205.48
1134.23
1045.99
947.929
846.161
745.104
647.532
554.889
467.682
385.798
308.737
235.772
166.059
98.6919
32.7399
1425.7
1331.03
1215.33
1089.86
963.168
840.624
725.046
617.476
517.864
425.546
339.544
258.737
181.957
108.037
35.8232
1678.43
1548.8
1394.37
1232.98
1075.98
929.14
794.517
672.071
560.722
458.958
365.141
277.661
194.985
115.669
38.3374
1977.04
1791.31
1580.32
1371.64
1178.59
1005.4
851.775
715.538
593.972
484.399
384.382
291.765
204.644
121.309
40.1929
2342.08
2058.96
1763.84
1494.61
1261.26
1062.04
891.6
744.299
615.201
500.26
396.203
300.359
210.504
124.725
41.3158
2802.7
2338.52
1921.39
1581.62
1309.75
1089.83
908.241
754.817
622.243
505.215
399.791
302.949
212.276
125.765
41.6592
3375.29
2570.9
2001.48
1600.65
1306.21
1079.25
896.667
744.446
613.711
498.541
394.778
299.352
209.876
124.393
41.2135
3874.64
2568.16
1912.87
1513.2
1235.14
1024.24
854.682
712.553
589.584
480.434
381.408
289.79
203.47
120.714
40.0135
37.4866
112.679
188.531
265.485
343.994
424.528
507.609
593.868
684.215
780.211
884.977
1005.34
1157.05
1377.99
1762.03
37.9067
113.9
190.427
267.816
346.347
426.215
507.472
589.931
673.006
755.449
834.803
905.921
955.519
938.926
673.38
38.2004
114.747
191.719
269.345
347.759
426.923
506.486
585.546
662.213
732.804
790.321
821.417
799.912
672.717
335.545
38.3912
115.296
192.549
270.316
348.64
427.34
505.832
582.804
655.615
719.21
764.163
773.417
717.671
552.302
229.587
38.4957
115.598
193.016
270.891
349.247
427.887
506.219
582.932
655.396
718.536
762.771
770.526
711.537
541.135
218.385
38.5219
115.678
193.157
271.123
349.646
428.635
507.714
585.992
661.63
730.968
786.69
813.958
782.75
635.748
286.356
38.4688
115.53
192.955
270.958
349.709
429.308
509.75
590.866
672.219
752.834
830.343
897.974
934.35
870.89
509.4
38.3283
115.126
192.345
270.265
349.172
429.383
511.301
595.555
683.296
776.837
880.825
1003.67
1155.25
1312.97
1188.9
38.0889
114.425
191.241
268.877
347.719
428.26
511.217
597.803
690.323
793.567
918.183
1089.37
1371.86
1950.7
3433.44
37.7386
113.388
189.561
266.641
345.076
425.446
508.598
595.911
689.878
795.433
923.167
1097.76
1382.61
1960.68
3437.8
37.268
111.983
187.246
263.456
341.076
420.688
503.075
589.38
681.364
781.874
895.581
1029.55
1189.7
1346.25
1204.16
36.6719
110.196
184.267
259.282
335.683
413.989
494.818
578.888
666.906
759.129
853.895
943.135
999.263
939.164
544.258
35.95
108.025
180.629
254.137
328.956
405.524
484.296
565.637
649.508
734.595
816.021
879.684
889.506
764.556
366.013
35.1062
105.483
176.357
248.075
321.002
395.517
471.976
550.611
631.246
712.582
790.459
853.594
873.316
779.921
419.342
34.1474
102.593
171.495
241.166
311.937
384.146
458.129
534.181
612.477
692.95
775.112
857.627
935.655
980.807
804.678
33.083
99.3838
166.092
233.487
301.863
371.531
442.833
516.176
592.178
672.126
759.496
864.752
1020.8
1335.33
2185.29
31.9239
95.8887
160.207
225.12
290.884
357.772
426.104
496.31
569.12
646.128
731.438
836.579
995.856
1317.99
2179.24
30.6825
92.1454
153.903
216.156
279.114
342.998
408.062
474.621
543.13
614.345
689.585
770.789
857.788
926.243
785.951
29.3721
88.1943
147.25
206.696
266.691
327.395
388.969
451.563
515.245
579.75
643.571
700.952
732.572
679.43
386.818
28.0068
84.0781
140.321
196.849
253.768
311.177
369.157
427.735
486.772
545.612
602.009
648.984
666.199
598.896
321.718
26.6005
79.8396
133.191
186.723
240.495
294.552
348.918
403.574
458.42
513.155
566.973
617.663
658.498
664.092
510.954
25.167
75.5206
125.93
176.423
227.015
277.703
328.465
379.269
430.129
481.318
534.092
593.167
675.252
839.499
1303.49
23.7192
71.1602
118.606
166.048
213.46
260.793
307.972
354.91
401.594
448.363
496.816
552.673
634.93
806.726
1289.7
22.2685
66.7939
111.28
155.687
199.952
243.981
287.633
330.714
372.986
414.223
454.38
493.828
532.406
557.833
463.638
20.8251
62.452
104.005
145.418
186.601
227.42
267.677
307.066
345.081
380.815
412.42
435.568
438.996
391.992
216.087
19.3968
58.1589
96.8215
135.302
173.492
211.238
248.313
284.356
318.742
350.257
376.312
390.984
380.589
315.652
146.494
17.9895
53.9318
89.7595
125.381
160.683
195.511
229.652
262.783
294.378
323.472
348.089
363.786
360.04
311.673
162.887
16.6068
49.7814
82.8351
115.676
148.193
180.25
211.676
242.258
271.73
299.774
326.036
350.069
370.456
377.412
302.182
15.2503
45.7118
76.0534
106.187
136.011
165.413
194.271
222.485
250.05
277.29
305.504
338.855
390.173
500.202
808.915
13.9198
41.7221
69.4108
96.9037
124.111
150.938
177.296
203.14
228.571
254.101
281.372
315.131
369.085
484.984
803.185
12.614
37.8078
62.8979
87.8099
112.463
136.773
160.657
184.057
206.993
229.67
252.698
277.341
304.937
329.239
283.624
11.3306
33.962
56.5022
78.8859
101.041
122.887
144.332
165.27
185.56
204.957
222.857
237.452
243.026
222.004
126.282
10.0668
30.1755
50.2084
70.1104
89.819
109.259
128.335
146.902
164.711
181.238
195.256
203.763
199.519
166.588
77.8324
8.81885
26.4376
43.9984
61.4586
78.7686
95.8662
112.665
129.03
144.711
159.207
171.416
178.848
175.84
149.852
75.805
7.58277
22.7359
37.8511
52.9002
67.8504
82.6602
97.2719
111.597
125.491
138.704
150.813
161.079
167.992
166.354
127.55
6.35401
19.0566
31.7425
44.3997
57.0149
69.5721
82.0517
94.4309
106.696
118.905
131.398
145.513
165.908
208.436
329.268
5.12775
15.3848
25.6467
35.9181
46.2055
56.5196
66.8772
77.3108
87.8963
98.8429
110.762
125.448
148.243
195.781
324.525
3.89923
11.7058
19.5378
27.4156
35.365
43.4203
51.6287
60.0561
68.8036
78.0462
88.1182
99.6207
113.189
126.383
112.232
2.66392
8.00575
13.3913
18.8549
24.4398
30.2013
36.2106
42.5551
49.3323
56.6254
64.4151
72.2626
78.2452
75.768
45.7674
1.41787
4.27234
7.18522
10.2028
13.383
16.7999
20.5474
24.7363
29.4773
34.8261
40.631
46.1408
49.0999
44.1713
21.9635
0.157952
0.495791
0.902198
1.43212
2.15511
3.162
4.57025
6.52481
9.18766
12.6964
17.0418
21.7757
25.4247
24.568
13.2393
-1.11791
-3.33044
-5.46989
-7.47681
-9.27427
-10.7586
-11.7897
-12.1808
-11.6886
-10.0073
-6.79773
-1.80032
4.93473
12.3159
15.1009
-2.41054
-7.20899
-11.9364
-16.5338
-20.9232
-24.9951
-28.5942
-31.4979
-33.3806
-33.7473
-31.8385
-26.5054
-15.8819
3.44465
40.0842
-3.71926
-11.1381
-18.4948
-25.7369
-32.7925
-39.5578
-45.878
-51.5186
-56.1095
-59.0294
-59.201
-54.7787
-42.563
-17.1173
31.8315
-5.04187
-15.111
-25.134
-35.0703
-44.8627
-54.4253
-63.6263
-72.2584
-79.9793
-86.1761
-89.691
-88.3534
-78.2432
-53.6657
-12.569
-6.37455
-19.1162
-31.834
-44.5045
-57.0918
-69.5399
-81.7611
-93.6185
-104.886
-115.143
-123.493
-127.927
-123.822
-101.48
-45.6667
-7.7121
-23.1377
-38.567
-53.997
-69.4178
-84.8094
-100.141
-115.376
-130.476
-145.397
-159.967
-173.359
-181.972
-172.427
-103.354
-9.04814
-27.1561
-45.2988
-63.4961
-81.7645
-100.12
-118.584
-137.216
-156.175
-175.87
-197.227
-222.063
-252.682
-284.667
-256.601
-10.3755
-31.1495
-51.9917
-72.9453
-94.0514
-115.353
-136.909
-158.824
-181.355
-205.175
-232.055
-266.732
-322.427
-438.611
-746.776
-11.6866
-35.0947
-58.6064
-82.2881
-106.203
-130.412
-154.982
-179.998
-205.635
-232.351
-261.457
-296.805
-350.177
-459.281
-754.732
-12.9733
-38.9673
-65.1023
-91.4686
-118.15
-145.223
-172.745
-200.739
-229.163
-257.869
-286.523
-314.369
-339.248
-350.602
-282.693
-14.227
-42.7417
-71.4372
-100.43
-129.828
-159.725
-190.183
-221.18
-252.494
-283.431
-312.151
-334.008
-337.734
-297.004
-156.168
-15.4387
-46.391
-77.566
-109.109
-141.159
-173.841
-207.252
-241.404
-276.09
-310.543
-342.554
-366.25
-367.114
-312.95
-148.757
-16.5991
-49.8865
-83.4401
-117.436
-152.05
-187.454
-223.812
-261.262
-299.852
-339.361
-378.742
-414.365
-434.727
-405.323
-233.939
-17.6984
-53.1985
-89.0082
-125.336
-162.394
-200.405
-239.617
-280.333
-322.981
-368.277
-417.549
-473.093
-536.918
-596.314
-525.033
-18.7268
-56.2971
-94.2185
-132.729
-172.076
-212.524
-254.382
-298.067
-344.275
-394.44
-452.016
-526.085
-642.208
-878.081
-1495.86
-19.6747
-59.1535
-99.0215
-139.544
-180.994
-223.664
-267.879
-314.053
-362.825
-415.465
-475.04
-549.89
-664.362
-894.672
-1502.26
-20.5333
-61.7406
-103.372
-145.716
-189.068
-233.732
-280.018
-328.238
-378.695
-431.678
-487.466
-546.195
-606.097
-649.303
-546.029
-21.2943
-64.0338
-107.228
-151.188
-196.23
-242.673
-290.815
-340.871
-392.813
-445.948
-497.856
-541.694
-559.441
-505.679
-276.476
-21.9504
-66.0109
-110.554
-155.91
-202.421
-250.435
-300.28
-352.193
-406.103
-461.072
-513.851
-555.318
-562.451
-483.897
-231.757
-22.4954
-67.6526
-113.314
-159.828
-207.566
-256.922
-308.309
-362.127
-418.655
-477.715
-537.701
-592.782
-624.965
-582.662
-333.826
-22.9243
-68.9432
-115.479
-162.895
-211.586
-261.996
-314.644
-370.173
-429.443
-493.709
-564.95
-646.14
-739.197
-824.841
-726.731
-23.2344
-69.8736
-117.031
-165.073
-214.409
-265.512
-318.973
-375.616
-436.753
-504.85
-585.28
-691.243
-858.559
-1194.61
-2060.83
-23.4256
-70.4425
-117.964
-166.35
-216
-267.382
-321.085
-377.928
-439.219
-507.414
-587.863
-693.719
-860.723
-1196.15
-2061.41
-23.5008
-70.6591
-118.293
-166.743
-216.381
-267.633
-321.008
-377.139
-436.876
-501.452
-572.783
-653.709
-745.898
-829.72
-728.604
-23.4665
-70.5425
-118.053
-166.305
-215.633
-266.401
-319.004
-373.833
-431.158
-490.781
-551.02
-605.852
-636.853
-591.688
-337.501
-23.3319
-70.1214
-117.292
-165.114
-213.876
-263.883
-315.442
-368.778
-423.827
-479.659
-532.989
-574.517
-580.675
-498.784
-238.615
-23.1091
-69.4323
-116.075
-163.264
-211.243
-260.277
-310.631
-362.516
-415.933
-470.251
-523.126
-567.716
-585.61
-529.657
-290.455
-22.8121
-68.5179
-114.472
-160.856
-207.869
-255.742
-304.74
-355.171
-407.39
-461.82
-518.987
-579.419
-641.794
-687.75
-579.573
-22.4574
-67.4271
-112.566
-158.002
-203.886
-250.41
-297.838
-346.564
-397.289
-451.461
-512.547
-589.734
-709.333
-952.828
-1598.48
-22.0631
-66.2149
-110.447
-154.827
-199.446
-244.438
-290.015
-336.549
-384.768
-436.27
-494.891
-570.553
-690.781
-938.55
-1592.89
-21.6498
-64.9428
-108.219
-151.477
-194.735
-238.043
-281.509
-325.34
-369.941
-416.105
-465.363
-520.379
-583.604
-641.852
-561.057
-21.2398
-63.6784
-105.996
-148.117
-189.976
-231.524
-272.73
-313.573
-354.002
-393.759
-431.801
-464.464
-479.835
-441.656
-252.312
-20.8568
-62.4939
-103.902
-144.928
-185.421
-225.227
-264.182
-302.071
-338.503
-372.572
-401.938
-420.515
-413.21
-346.396
-162.491
-20.5255
-61.4645
-102.066
-142.099
-181.328
-219.504
-256.356
-291.556
-324.616
-354.62
-379.531
-394.501
-387.872
-332.412
-170.622
-20.2707
-60.6653
-100.617
-139.819
-177.953
-214.683
-249.658
-282.505
-312.826
-340.172
-363.992
-383.447
-396.4
-392.23
-303.352
-20.1163
-60.1698
-99.6805
-138.27
-175.539
-211.066
-244.417
-275.184
-303.073
-328.142
-351.446
-376.866
-416.772
-510.82
-795.635
-20.0849
-60.0468
-99.3767
-137.628
-174.322
-208.942
-240.951
-269.839
-295.251
-317.309
-337.392
-360.183
-399.491
-496.854
-790.003
-20.1967
-60.3585
-99.8145
-138.058
-174.532
-208.616
-239.635
-266.885
-289.733
-307.816
-321.422
-331.989
-341.842
-346.851
-284.423
-20.4678
-61.156
-101.087
-139.707
-176.388
-210.405
-240.917
-266.966
-287.497
-301.406
-307.53
-304.254
-287.513
-243.628
-130.478
-20.9094
-62.4753
-103.264
-142.692
-180.081
-214.612
-245.281
-270.857
-289.837
-300.375
-300.137
-285.837
-252.002
-188.473
-79.1559
-21.5252
-64.3305
-106.377
-147.084
-185.748
-221.486
-253.164
-279.311
-298.016
-306.803
-302.483
-280.959
-237.085
-165.094
-61.8485
-22.3102
-66.7085
-110.416
-152.885
-193.434
-231.164
-264.871
-292.914
-313.06
-322.311
-316.752
-291.58
-241.673
-163.405
-58.7372
-23.2481
-69.5627
-115.307
-160.012
-203.065
-243.623
-280.495
-311.98
-335.65
-348.082
-344.618
-319.358
-265.938
-180.035
-64.5149
-24.311
-72.8093
-120.913
-168.276
-214.417
-258.626
-299.842
-336.455
-366.023
-384.871
-387.599
-366.672
-312.742
-217.222
-79.67
-25.4586
-76.3263
-127.026
-177.381
-227.098
-275.695
-322.37
-365.804
-403.819
-432.834
-446.985
-436.885
-388.412
-283.586
-109.951
-26.6395
-79.956
-133.373
-186.918
-240.546
-294.084
-347.133
-398.895
-447.845
-491.097
-523.191
-533.723
-503.197
-397.721
-172.355
-27.7933
-83.5121
-139.625
-196.389
-254.045
-312.797
-372.772
-433.921
-495.804
-557.088
-614.345
-659.05
-670.008
-595.098
-317.627
-28.8542
-86.7906
-145.419
-205.232
-266.769
-330.645
-397.577
-468.417
-544.156
-625.85
-714.188
-807.782
-896.417
-933.121
-711.347
-29.7557
-89.5848
-150.385
-212.868
-277.857
-346.354
-419.65
-499.49
-588.352
-689.971
-810.348
-959.928
-1158.85
-1450.61
-1939.01
2735.54
2039.36
1619.11
1330.47
1113
938.688
792.879
667.039
555.731
455.238
362.86
276.527
194.575
115.596
38.3431
999.557
1302.6
1240.71
1106.72
967.731
838.525
721.102
614.352
516.557
426.041
341.315
261.08
184.188
109.609
36.387
441.362
819.231
912.325
886.397
815.633
730.151
641.889
555.426
472.31
392.807
316.641
243.301
172.19
102.675
34.1187
233.744
533.587
666.563
697.18
673.726
623.681
561.403
494.157
425.536
357.244
289.991
223.967
159.077
95.0735
31.6278
142.534
363.805
491.858
545.488
550.26
525.685
484.349
433.824
378.521
320.945
262.479
203.839
145.344
87.081
29.004
95.6234
258.745
368.819
427.706
447.154
439.311
413.658
376.795
333.07
285.254
235.08
183.602
131.444
78.957
26.3314
68.24
190.515
281.311
337.296
362.984
365.29
350.737
324.52
290.447
251.191
208.578
163.832
117.767
70.9271
23.6839
50.7184
144.14
217.969
267.913
295.038
302.964
295.906
277.687
251.413
219.452
183.55
144.971
104.625
63.175
21.122
38.7616
111.364
171.205
214.368
240.414
251.035
248.813
236.44
216.32
190.441
160.375
127.333
92.247
55.8393
18.6923
30.2207
87.4458
136.018
172.702
196.495
208.014
208.762
200.563
185.218
164.332
139.26
111.111
80.7836
49.0152
16.427
23.9124
69.5335
109.083
139.981
161.093
172.467
174.917
169.643
157.958
141.125
120.278
96.3968
70.3185
42.7588
14.3458
19.1336
55.8352
88.1522
114.051
132.448
143.111
146.429
143.168
134.267
120.701
103.398
83.2059
60.8798
37.0936
12.4575
15.4415
45.1798
71.6753
93.3269
109.169
118.85
122.505
120.605
113.812
102.867
88.5215
71.494
52.4532
32.0173
10.7624
12.5436
36.7748
58.5598
76.6336
90.1658
98.7686
102.434
101.436
96.2355
87.3913
75.5047
61.1778
44.9937
27.5087
9.25437
10.2398
30.0673
48.0193
63.0915
74.5823
82.113
85.5975
85.1835
81.1859
74.0255
64.1799
52.1494
38.4362
23.5334
7.92274
8.38842
24.6612
39.477
52.0341
61.7462
68.2644
71.4652
71.4161
68.33
62.5219
54.37
44.2878
32.7034
20.0488
6.75392
6.88673
20.2661
32.5016
42.9506
51.1259
56.717
59.5875
59.755
57.362
52.6436
45.8989
37.4677
27.7127
17.0081
5.73279
5.65846
16.6645
26.7656
35.4445
42.2984
47.0568
49.5845
49.8701
48.0069
44.1705
38.5973
31.5656
23.3804
14.363
4.8436
4.64583
13.6909
22.016
29.2046
34.9244
38.944
41.1367
41.4755
40.0201
36.9019
32.3073
26.4633
19.6252
12.0661
4.07073
3.80428
11.2166
18.055
23.9835
28.7298
32.0982
33.9749
34.3253
33.1867
30.657
26.8835
22.0505
16.3698
10.0718
3.39913
3.09884
9.14049
14.725
19.5824
23.4909
26.2872
27.8716
28.2077
27.3178
25.2748
22.1944
18.2254
13.5423
8.33725
2.81462
2.50162
7.38146
11.8992
15.8396
19.0234
21.3165
22.6338
22.9404
22.2483
20.6119
18.1212
14.8955
11.0766
6.8229
2.304
1.98999
5.87353
9.47376
12.6213
15.1736
17.0224
18.0969
18.3654
17.8336
16.5413
14.5577
11.9768
8.91235
5.49236
1.85514
1.54523
4.56202
7.36221
9.81555
11.8116
13.2649
14.1186
14.3452
13.9461
12.9497
11.408
9.39336
6.99445
4.31235
1.4569
1.15151
3.40062
5.49103
7.32675
8.82557
9.92302
10.5749
10.7585
10.4724
9.73579
8.58593
7.0761
5.27273
3.25243
1.09909
0.79512
2.34912
3.79624
5.07125
6.11752
6.88965
7.35542
7.49688
7.31074
6.80803
6.01308
4.96206
3.70117
2.2846
0.772301
0.463797
1.37154
2.22048
2.97395
3.59905
4.06816
4.36022
4.46182
4.36796
4.08235
3.61729
2.99311
2.23725
1.38297
0.467848
0.146155
0.434479
0.710513
0.965102
1.1881
1.36871
1.49631
1.56152
1.55738
1.48039
1.33121
1.11497
0.841198
0.523274
0.177583
-0.168833