/*--------------------------------*- C++ -*----------------------------------*\
| =========                 |                                                 |
| \\      /  F ield         | OpenFOAM: The Open Source CFD Toolbox           |
|  \\    /   O peration     | Version:  5.x                                   |
|   \\  /    A nd           | Web:      www.OpenFOAM.org                      |
|    \\/     M anipulation  |                                                 |
\*---------------------------------------------------------------------------*/
FoamFile
{
    version     2.0;
    format      ascii;
    class       volScalarField;
    location    "13";
    object      gradTy;
}
// * * * * * * * * * * * * * * * * * * * * * * * * * * * * * * * * * * * * * //

dimensions      [0 -1 0 1 0 0 0];

internalField   nonuniform List<scalar> 
6300
(
1021.96
1065.83
1109.49
1152.83
1195.71
1237.99
1279.56
1320.28
1360.02
1398.67
1436.09
1472.2
1506.88
1540.06
1571.67
0.0968882
0.290695
0.484559
0.678391
0.871893
1.06446
1.25504
1.44207
1.62328
1.79564
1.95534
2.09788
2.21829
2.31159
2.37332
0.16144
0.484418
0.807621
1.131
1.45417
1.77625
2.09566
2.40988
2.71525
3.00674
3.2779
3.52096
3.72718
3.88763
3.99419
0.225889
0.677888
1.13047
1.58377
2.03748
2.49066
2.94139
3.38646
3.82099
4.23806
4.62845
4.98072
5.28166
5.51738
5.67494
0.290111
0.87075
1.45257
2.03606
2.62126
3.20741
3.79265
4.37345
4.94405
5.49588
6.01692
6.4916
6.90113
7.225
7.44346
0.353899
1.0624
1.77293
2.48657
3.20397
3.92497
4.64822
5.37045
6.0857
6.78424
7.45151
8.06733
8.60597
9.03771
9.33264
0.416974
1.25198
2.0901
2.93324
3.78294
4.64014
5.5046
6.37421
7.2438
8.10358
8.9372
9.71987
10.4173
10.9868
11.3826
0.478981
1.4384
2.40218
3.37322
4.35429
5.34786
6.35562
7.37774
8.41141
9.44871
10.4734
11.4572
12.356
13.109
13.645
0.539512
1.6204
2.70692
3.80304
4.91298
6.04116
7.19203
8.36939
9.57501
10.806
12.0501
13.2791
14.4398
15.4477
16.1896
0.598162
1.79669
3.00195
4.21891
5.45322
6.71152
8.00163
9.33239
10.7128
12.1496
13.6414
15.1686
16.676
18.0516
19.1154
0.654587
1.96617
3.28517
4.61726
5.96925
7.34981
8.77023
10.2453
11.7938
13.4376
15.1968
17.0774
19.0432
20.9668
22.5691
0.708582
2.12816
3.55519
4.99552
6.45647
7.94791
9.48379
11.0844
12.7791
14.6095
16.6301
18.9002
21.4519
24.2023
26.7735
0.760144
2.2826
3.81178
5.35298
6.91295
8.50123
10.1322
11.8288
13.6281
15.5907
17.8131
20.4406
23.661
27.616
32.0375
0.80951
2.43024
4.05622
5.69143
7.34084
9.01149
10.7147
12.4699
14.3132
16.3114
18.5905
21.3872
25.1345
30.5619
38.5072
0.857135
2.57254
4.29129
6.01548
7.74718
9.48884
11.2445
13.0226
14.8428
16.7504
18.8497
21.3821
24.9268
30.9883
44.0342
1599.17
1623.03
1645.77
1667.39
1687.92
1707.39
1725.84
1743.33
1759.92
1775.67
1790.65
1804.94
1818.61
1831.73
1844.37
1856.62
1868.54
1880.21
1891.69
1903.07
1914.38
1925.71
1937.11
1948.63
1960.32
1972.21
1984.35
1996.77
2009.48
2022.5
2035.83
2049.48
2063.43
2077.68
2092.2
2106.97
2121.98
2137.18
2152.54
2168.03
2183.6
2199.2
2214.78
2230.3
2245.69
2260.9
2275.88
2290.59
2304.97
2318.98
2332.59
2345.74
2358.39
2370.51
2382.03
2392.93
2403.13
2412.59
2421.24
2429.04
2435.91
2441.8
2446.64
2450.37
2452.91
2454.2
2454.13
2452.63
2449.59
2444.9
2438.44
2430.09
2419.7
2407.14
2392.24
2374.86
2354.84
2332
2306.19
2277.22
2244.94
2209.18
2169.78
2126.59
2079.49
2028.36
1973.14
1913.78
1850.25
1782.59
2.39789
2.39489
2.36646
2.31346
2.23755
2.14108
2.02683
1.89779
1.75698
1.60725
1.45124
1.29124
1.12924
0.966909
0.80565
0.64665
0.490951
0.339515
0.193288
0.0532588
-0.0794965
-0.20379
-0.318322
-0.421707
-0.512538
-0.589487
-0.651434
-0.697606
-0.727707
-0.742
-0.741308
-0.726902
-0.700289
-0.662933
-0.615989
-0.56012
-0.495475
-0.421845
-0.338955
-0.24683
-0.146122
-0.0383023
0.0743533
0.189021
0.302765
0.413052
0.51821
0.617712
0.712227
0.803433
0.893665
0.985452
1.08106
1.18213
1.28943
1.40289
1.52176
1.64499
1.77167
1.90139
2.03454
2.17241
2.31706
2.47115
2.63759
2.81917
3.01827
3.23652
3.47474
3.73286
4.01006
4.30498
4.61597
4.9413
5.27921
5.62787
5.9852
6.34855
6.71438
7.07792
7.43293
7.7716
8.08462
8.36151
8.59116
8.76258
8.8658
8.89277
8.83822
8.70024
4.03685
4.03194
3.98319
3.89217
3.76193
3.59672
3.40153
3.18165
2.94238
2.68866
2.42495
2.15513
1.88246
1.60967
1.33901
1.07234
0.811307
0.557398
0.312105
0.0770049
-0.14615
-0.355383
-0.548478
-0.723025
-0.876522
-1.00655
-1.11103
-1.18845
-1.23819
-1.26071
-1.25754
-1.23114
-1.18446
-1.12037
-1.04108
-0.947713
-0.840292
-0.717994
-0.57979
-0.425198
-0.255002
-0.0716863
0.120557
0.316329
0.509917
0.696379
0.872477
1.03725
1.19211
1.34041
1.48678
1.63615
1.7929
1.96009
2.13904
2.3293
2.52906
2.73589
2.94764
3.1632
3.38309
3.60955
3.84641
4.0986
4.37154
4.67041
4.99959
5.36207
5.7592
6.19069
6.65483
7.14897
7.67008
8.2151
8.78121
9.36567
9.96547
10.5767
11.1941
11.81
12.4142
12.9935
13.5319
14.0111
14.4114
14.713
14.8978
14.9511
14.8632
14.6305
5.73861
5.73201
5.66071
5.52724
5.33657
5.09543
4.81163
4.49334
4.14848
3.78436
3.4074
3.02306
2.63583
2.24938
1.86662
1.48997
1.12145
0.76294
0.416321
0.0836403
-0.23275
-0.5301
-0.805219
-1.05452
-1.27416
-1.46028
-1.60942
-1.71898
-1.78773
-1.81624
-1.80705
-1.76441
-1.69354
-1.59954
-1.48626
-1.35539
-1.20638
-1.0369
-0.84408
-0.625902
-0.382646
-0.117806
0.161798
0.44689
0.72744
0.99473
1.24314
1.47117
1.6815
1.88025
2.07562
2.27628
2.48976
2.72118
2.97242
3.24208
3.52623
3.81977
4.11816
4.41884
4.72219
5.03173
5.35369
5.69619
6.06812
6.47802
6.93295
7.43768
7.99415
8.60145
9.25633
9.95409
10.6897
11.4584
12.2567
13.0812
13.9291
14.796
15.6757
16.5587
17.431
18.274
19.0642
19.7741
20.3734
20.8312
21.1188
21.2125
21.0964
20.7644
7.53283
7.52485
7.42732
7.24426
6.98343
6.65511
6.27096
5.84281
5.38184
4.89807
4.40001
3.89467
3.38766
2.88333
2.38506
1.89549
1.41681
0.951015
0.500134
0.0664988
-0.347077
-0.737123
-1.09942
-1.42901
-1.72032
-1.96751
-2.16506
-2.30852
-2.39545
-2.42632
-2.405
-2.33859
-2.23617
-2.10678
-1.95704
-1.78951
-1.60223
-1.38976
-1.14522
-0.863073
-0.541747
-0.185581
0.194726
0.583565
0.963616
1.31981
1.64269
1.93008
2.18708
2.42446
2.65633
2.89739
3.16024
3.45317
3.7787
4.13343
4.50928
4.89608
5.28476
5.67
6.05176
6.43539
6.83075
7.25072
7.70936
8.22007
8.79389
9.43808
10.1552
10.943
11.7953
12.704
13.6606
14.6586
15.6933
16.7625
17.8643
18.9959
20.1519
21.3218
22.489
23.6295
24.7112
25.6953
26.538
27.1934
27.618
27.7751
27.6395
27.2012
9.45517
9.44629
9.3167
9.07291
8.72708
8.29485
7.7933
7.23917
6.6477
6.03198
5.40272
4.76835
4.13528
3.50824
2.89067
2.28507
1.69339
1.11738
0.558915
0.0202906
-0.495445
-0.984246
-1.44086
-1.85874
-2.2301
-2.54633
-2.79869
-2.97954
-3.08398
-3.11161
-3.06796
-2.9647
-2.81775
-2.6434
-2.45354
-2.25215
-2.03449
-1.7889
-1.50066
-1.15681
-0.751191
-0.288315
0.215146
0.732654
1.23388
1.69261
2.09304
2.43248
2.7206
2.97629
3.2235
3.48679
3.78706
4.13782
4.54254
4.99396
5.47613
5.96925
6.45586
6.92574
7.37818
7.82167
8.2719
8.74909
9.2751
9.87071
10.553
11.3329
12.2138
13.1909
14.2526
15.3841
16.5715
17.8049
19.0798
20.396
21.7556
23.16
24.607
26.0879
27.5847
29.0685
30.4977
31.8193
32.9713
33.8869
34.5013
34.7581
34.6174
34.0624
11.5502
11.5411
11.37
11.048
10.5947
10.034
9.39097
8.68898
7.9482
7.18512
6.41252
5.63989
4.87396
4.11929
3.37883
2.65441
1.94725
1.25837
0.589015
-0.0589584
-0.682658
-1.27775
-1.8381
-2.35544
-2.81927
-3.21709
-3.53524
-3.76056
-3.88308
-3.8995
-3.81675
-3.65368
-3.43874
-3.20236
-2.96665
-2.73825
-2.50697
-2.24949
-1.93619
-1.53954
-1.04313
-0.449573
0.215234
0.905053
1.56519
2.14919
2.63101
3.00859
3.30062
3.54014
3.76732
4.02273
4.34094
4.74452
5.23888
5.80995
6.42691
7.0515
7.65074
8.20626
8.71716
9.19789
9.67388
10.1768
10.7403
11.3962
12.171
13.0819
14.1335
15.3164
16.6088
17.9832
19.4155
20.8909
22.4061
23.9664
25.5817
27.262
29.0125
30.8301
32.6985
34.5851
36.4382
38.1867
39.7438
41.0134
41.8986
42.3127
42.191
41.5043
13.8771
13.8685
13.6402
13.212
12.6164
11.8913
11.0733
10.1945
9.28078
8.35199
7.42243
6.50188
5.59657
4.71006
3.84407
2.99911
2.17503
1.37153
0.588634
-0.172825
-0.910694
-1.62091
-2.29687
-2.92877
-3.50302
-4.0021
-4.40499
-4.68914
-4.83446
-4.8297
-4.68069
-4.41689
-4.09013
-3.75987
-3.46877
-3.22802
-3.01671
-2.79003
-2.49129
-2.0655
-1.47454
-0.713004
0.179703
1.12057
2.00649
2.75326
3.31944
3.70819
3.95659
4.12207
4.27082
4.46859
4.77228
5.22083
5.8251
6.56016
7.367
8.17052
8.90886
9.55131
10.0998
10.5812
11.0374
11.5175
12.0726
12.7507
13.5932
14.6283
15.8644
17.2845
18.8471
20.4992
22.1972
23.9197
25.6675
27.4576
29.3143
31.2625
33.3214
35.4989
37.7859
40.1499
42.5289
44.8293
46.93
48.6927
49.9739
50.6382
50.578
49.7384
16.5198
16.5118
16.1979
15.6164
14.8243
13.882
12.8429
11.7499
10.6348
9.51975
8.41925
7.34188
6.29207
5.2713
4.2791
3.31385
2.37331
1.45518
0.557588
-0.320427
-1.17828
-2.0131
-2.81877
-3.58473
-4.29468
-4.92522
-5.4453
-5.81725
-6.00151
-5.96719
-5.70953
-5.27032
-4.74617
-4.2606
-3.89799
-3.67504
-3.54821
-3.43398
-3.22902
-2.82901
-2.15127
-1.16503
0.0750895
1.41549
2.64836
3.61758
4.26356
4.61009
4.73211
4.72821
4.70389
4.76206
4.99519
5.47307
6.22312
7.20714
8.31202
9.38351
10.3052
11.0317
11.5792
12.0008
12.3663
12.7505
13.2276
13.8687
14.7381
15.8853
17.3304
19.0473
20.9563
22.9488
24.9436
26.9117
28.8679
30.8524
32.9147
35.1033
37.4591
40.0096
42.762
45.6923
48.732
51.7589
54.6022
57.0648
58.9366
60.0061
60.0866
59.0665
19.6058
19.5949
19.1402
18.3232
17.2481
16.0115
14.6894
13.3363
11.9879
10.6658
9.38195
8.14146
6.94506
5.79073
4.67474
3.59244
2.53878
1.50878
0.497903
-0.497467
-1.47941
-2.44761
-3.39814
-4.32165
-5.2009
-6.00764
-6.69912
-7.2158
-7.4835
-7.42644
-6.99999
-6.24626
-5.34689
-4.5845
-4.12637
-3.98394
-4.06184
-4.20891
-4.24793
-3.99281
-3.27263
-1.98309
-0.174412
1.8647
3.66932
4.94673
5.63823
5.83464
5.68825
5.36306
5.0174
4.80281
4.86488
5.3326
6.28342
7.67924
9.30424
10.8113
11.9814
12.7691
13.239
13.5001
13.6673
13.8486
14.1454
14.6568
15.482
16.712
18.4037
20.532
22.9443
25.3936
27.7271
29.9196
32.0261
34.1335
36.3316
38.7018
41.3146
44.2277
47.4801
51.0752
54.9515
58.951
62.8206
66.2854
69.0526
70.7958
71.178
69.9489
23.3487
23.316
22.6035
21.4008
19.9036
18.263
16.5801
14.9156
13.3026
11.7565
10.2819
8.87729
7.53729
6.2548
5.02176
3.82972
2.67018
1.53488
0.41596
-0.693727
-1.80016
-2.90738
-4.0162
-5.12201
-6.21124
-7.25568
-8.20428
-8.97249
-9.43271
-9.41723
-8.76134
-7.43156
-5.75005
-4.46999
-3.8999
-3.97537
-4.47563
-5.13918
-5.69012
-5.82602
-5.21361
-3.54851
-0.755584
2.65161
5.44946
7.11947
7.72568
7.55269
6.90175
6.02735
5.14214
4.44517
4.15043
4.49642
5.70289
7.82124
10.4661
12.7243
14.2082
14.9636
15.1994
15.1344
14.9476
14.7802
14.7539
14.9929
15.6427
16.8738
18.8479
21.6075
24.8787
28.0046
30.7132
33.0505
35.1824
37.2833
39.4998
41.9501
44.7366
47.9564
51.7038
56.0519
60.9924
66.3287
71.6205
76.5091
80.6416
83.5436
84.5881
83.1592
28.158
28.0152
26.7714
24.9016
22.7646
20.5749
18.4435
16.42
14.5204
12.7437
11.081
9.51978
8.04651
6.64756
5.30969
4.02017
2.76672
1.53748
0.320847
-0.894502
-2.11955
-3.36456
-4.63826
-5.94591
-7.28566
-8.64128
-9.9687
-11.1722
-12.0664
-12.3296
-11.4926
-9.12293
-5.57475
-3.3328
-2.74354
-3.35477
-4.65398
-6.23128
-7.7296
-8.73643
-8.67007
-6.73768
-2.22112
4.31605
8.85365
10.824
10.9351
9.95889
8.43695
6.70712
4.99583
3.50837
2.51339
2.42124
3.80928
7.205
12.1847
15.7521
17.4836
17.906
17.5929
16.9436
16.1998
15.5086
14.98
14.7373
14.9661
15.9653
18.1608
21.9458
27.0219
31.2158
34.2335
36.4763
38.3825
40.2662
42.3303
44.7136
47.534
50.9242
55.0614
60.1744
66.462
73.769
80.9997
87.8197
94.0009
98.9641
101.558
100.169
34.9841
34.2986
31.8398
28.786
25.7006
22.8018
20.1508
17.7452
15.5604
13.5662
11.7332
10.035
8.44816
6.95187
5.52758
4.1583
2.82811
1.52166
0.22368
-1.08147
-2.41028
-3.78051
-5.21141
-6.72353
-8.33712
-10.0673
-11.9114
-13.8169
-15.6084
-16.8262
-16.4305
-12.5112
-3.51845
0.184179
0.141464
-1.74357
-4.4319
-7.43706
-10.4767
-13.1921
-14.8135
-13.648
-6.59649
8.85947
15.9541
17.2053
15.7095
13.1504
10.271
7.3597
4.52675
1.862
-0.424113
-1.78579
-0.975796
4.30733
15.9363
21.4228
22.6434
21.9067
20.4697
18.8881
17.3755
16.0019
14.7939
13.8017
13.1795
13.3333
15.1841
20.4241
30.4343
36.1198
38.8684
40.3857
41.6138
42.9878
44.6996
46.8462
49.5092
52.8145
57.0122
62.6035
70.4617
81.317
90.9679
100.048
109.111
117.794
124.261
124.374
46.6533
43.1339
37.7637
32.7146
28.3667
24.671
21.5039
18.7519
16.3254
14.1559
12.191
10.3897
8.71916
7.15236
5.66616
4.2401
2.85532
1.4937
0.136969
-1.23418
-2.64114
-4.10878
-5.66727
-7.35462
-9.22017
-11.3289
-13.7648
-16.6253
-19.9756
-23.6452
-26.4417
-23.2047
6.15593
9.09456
5.67952
1.02456
-3.75331
-8.59269
-13.6903
-19.2225
-24.9694
-29.0337
-23.0738
25.443
31.4688
27.5416
22.0145
16.803
12.1506
7.89943
3.81549
-0.329478
-4.6926
-9.11974
-12.2019
-7.7282
28.5325
33.2361
30.6212
26.9153
23.5543
20.7328
18.3509
16.2563
14.2969
12.3332
10.2754
8.25756
7.32682
12.033
40.0735
45.2523
45.2753
44.7107
44.6343
45.2219
46.4417
48.2343
50.5583
53.4189
56.9547
61.767
70.1441
90.5974
101.757
112.297
124.768
139.811
156.111
165.86
74.0523
54.6325
43.2235
35.632
30.0925
25.7779
22.2583
19.2891
16.7195
14.4504
12.4126
10.5555
8.84037
7.23642
5.71784
4.26221
2.84902
1.45859
0.0709499
-1.33532
-2.78457
-4.30613
-5.93739
-7.72884
-9.75272
-12.1189
-15.0062
-18.7279
-23.882
-31.7209
-45.1399
-71.5152
53.8776
27.1537
13.0027
3.96954
-2.98608
-9.37624
-16.2777
-24.9429
-37.5474
-58.853
-100.832
103.213
61.3143
40.1809
27.8642
19.6496
13.4519
8.19801
3.19185
-2.20692
-8.86885
-18.3902
-34.3084
-65.5368
86.5702
55.5867
40.1689
31.4263
25.8613
21.9436
18.9121
16.3156
13.8055
10.9998
7.31353
1.61599
-8.64801
-29.9597
82.6324
61.8076
52.5273
48.3312
46.6974
46.5444
47.3579
48.8557
50.8331
53.0495
55.0573
55.7955
52.4347
113.259
113.433
121.764
136.717
160.015
197.39
263.478
1703.69
1611.92
1514.71
1412.38
1305.29
1193.84
1078.46
959.585
837.66
713.12
586.392
457.894
328.032
197.203
65.7984
8.45861
8.08572
7.61867
7.07646
6.47949
5.84737
5.19723
4.5428
3.89406
3.25739
2.63595
2.03028
1.43884
0.858562
0.285377
14.2186
13.5805
12.7811
11.8548
10.8381
9.76561
8.66683
7.56505
6.47675
5.4121
4.37579
3.36804
2.38568
1.42308
0.472938
20.167
19.236
18.0699
16.7231
15.2523
13.7098
12.1392
10.5736
9.03572
7.53847
6.08707
4.68042
3.31278
1.97512
0.65624
26.394
25.1259
23.5387
21.7148
19.7377
17.6816
15.6061
13.5543
11.5537
9.61886
7.75353
5.95378
4.20991
2.50838
0.833153
33.0077
31.3341
29.2433
26.859
24.3014
21.6722
19.0487
16.4831
14.0057
11.6294
9.35427
7.17117
5.06469
3.01535
1.00116
40.1434
37.9589
35.2406
32.1758
28.9359
25.6567
22.433
19.3232
16.3559
13.5383
10.8627
8.31179
5.86228
3.48714
1.15731
47.9786
45.1169
41.584
37.6673
33.6095
29.5851
25.7031
22.0204
18.556
15.3047
12.246
9.35081
6.58537
3.91357
1.29824
56.755
52.945
48.3104
43.2993
38.2488
33.3705
28.7738
24.4989
20.5428
16.8782
13.4655
10.2598
7.21465
4.28346
1.42029
66.8174
61.5958
55.4115
48.9692
42.7148
36.8728
31.5218
26.6581
22.2376
18.1993
14.4775
11.008
7.7298
4.58525
1.5197
78.6838
71.2078
62.7692
54.45
46.7673
39.8832
33.7815
28.3734
23.5497
19.2033
15.2369
11.5648
8.11107
4.80792
1.59296
93.1424
81.7812
70.0067
59.293
50.0205
42.1104
35.3468
29.5036
24.384
19.8268
15.7017
11.9027
8.34159
4.94232
1.63715
111.294
92.7654
76.1811
62.6936
51.9097
43.1898
35.9909
29.9096
24.6554
20.0176
15.84
12.0026
8.41002
4.98252
1.65043
133.703
101.803
79.2562
63.3894
51.7334
42.7471
35.5166
29.4878
24.3097
19.7477
15.6375
11.8575
8.31319
4.9272
1.63246
152.93
101.485
75.6493
59.873
48.8862
40.5474
33.8396
28.2149
23.3471
19.0256
15.1044
11.4763
8.0579
4.78056
1.58464
0.899796
2.70002
4.50191
6.30575
8.11054
9.91347
11.7094
13.491
15.2505
16.9851
18.7137
20.5174
22.6401
25.7332
31.4585
0.938063
2.81455
4.69169
6.56853
8.44168
10.3038
12.1414
13.9311
15.6354
17.1944
18.5153
19.4467
19.6942
18.4387
12.5113
0.976062
2.92854
4.88157
6.83369
8.78023
10.7109
12.6061
14.4303
16.1207
17.5686
18.5866
18.8502
17.7917
14.3879
6.82442
1.01379
3.04209
5.07196
7.10254
9.12951
11.1424
13.1199
15.0219
16.7739
18.241
19.1811
19.1713
17.5173
13.2255
5.36323
1.05101
3.15447
5.26174
7.37372
9.48831
11.598
13.6859
15.7171
17.6246
19.279
20.4346
20.634
19.0739
14.5423
5.89087
1.08722
3.26414
5.44813
7.64288
9.8502
12.0686
14.2907
16.498
18.6504
20.6627
22.3516
23.3179
22.6935
18.7197
8.59215
1.1217
3.36881
5.62691
7.9031
10.2041
12.5363
14.9053
17.3165
19.773
22.2702
24.7701
27.1057
28.6384
27.17
16.1937
1.1536
3.46577
5.793
8.14587
10.5361
12.9779
15.4904
18.1031
20.8669
23.8751
27.3022
31.4502
36.6668
42.2221
38.6638
1.18202
3.5522
5.94114
8.36247
10.8321
13.3701
16.0055
18.7845
21.7905
25.1884
29.3329
35.0518
44.4589
63.6019
112.362
1.20615
3.62555
6.06665
8.54534
11.0801
13.6943
16.4203
19.3077
22.4414
25.9825
30.2695
36.0911
45.4887
64.4127
112.685
1.22532
3.68375
6.16591
8.68905
11.2727
13.9406
16.7226
19.6593
22.8088
26.2577
30.1398
34.6461
39.9017
44.8414
39.7433
1.23907
3.72538
6.2366
8.79049
11.4066
14.1071
16.9169
19.8628
22.9676
26.2316
29.5756
32.6798
34.533
32.2395
18.4594
1.2471
3.74964
6.27751
8.8485
11.4817
14.1974
17.0163
19.9553
23.0153
26.1491
29.1771
31.5814
32.0431
27.6135
13.2434
1.2493
3.75623
6.28832
8.86312
11.4991
14.2157
17.0319
19.9631
23.0112
26.1395
29.211
31.8311
32.9492
29.8898
16.4416
1.24571
3.74524
6.26933
8.83502
11.4603
14.1643
16.9672
19.8894
22.9507
26.1686
29.5578
33.123
36.7555
39.3798
33.1358
1.23645
3.71712
6.22129
8.76531
11.3666
14.044
16.8192
19.7186
22.7809
26.078
29.7817
34.3672
41.2608
55.0275
91.5151
1.22177
3.67259
6.14544
8.65565
11.2196
13.8555
16.5845
19.4343
22.4474
25.7044
29.3924
34.0077
40.9923
54.8955
91.4964
1.20201
3.61269
6.0435
8.50845
11.0224
13.6019
16.2655
19.0362
21.9439
25.0308
28.3586
32.0021
35.918
38.9999
33.1326
1.1776
3.53872
5.91773
8.327
10.7795
13.2894
15.8717
18.5426
21.3155
24.1893
27.1049
29.8064
31.4221
29.318
16.711
1.14905
3.45225
5.77083
8.11529
10.4966
12.9263
15.4162
17.9776
20.6165
23.3183
25.9992
28.3642
29.5087
26.929
14.7437
1.11694
3.35504
5.60582
7.87783
10.1799
12.5209
14.9105
17.3583
19.8734
22.4611
25.1123
27.7687
30.181
31.2098
24.7916
1.08189
3.24896
5.42594
7.61936
9.83575
12.0817
14.3642
16.6919
19.0795
21.5592
24.2214
27.342
31.8134
40.6615
64.8145
1.04451
3.13594
5.23452
7.34478
9.47091
11.6167
13.786
15.9837
18.221
20.5302
23.0114
25.9767
30.4058
39.4839
64.3085
1.00544
3.01789
5.03488
7.05901
9.09218
11.1353
13.1877
15.2476
17.3123
19.3813
21.4649
23.5941
25.769
27.3704
23.037
0.965275
2.89662
4.83018
6.76682
8.70638
10.647
12.584
14.508
16.4001
18.2219
19.8863
21.1793
21.5301
19.3775
10.7517
0.924536
2.77376
4.62325
6.47246
8.31965
10.161
11.9891
13.7901
15.5366
17.1712
18.5653
19.4185
19.029
15.8797
7.40889
0.883672
2.65067
4.41642
6.17938
7.9368
9.68395
11.4129
13.1098
14.7504
16.2871
17.6196
18.5201
18.4441
16.077
8.47356
0.843033
2.52839
4.21145
5.89003
7.56092
9.21938
10.8585
12.4685
14.0361
15.5444
16.9735
18.2996
19.4498
19.9105
16.0267
0.802867
2.40767
4.00952
5.60591
7.19354
8.76805
10.3241
11.8563
13.3628
14.8564
16.3987
18.2009
20.934
26.7606
43.1418
0.763334
2.28896
3.81131
5.32778
6.83512
8.32938
9.80612
11.2618
12.698
14.1342
15.6433
17.4553
20.2696
26.2806
42.961
0.724515
2.17248
3.61712
5.05588
6.48566
7.9027
9.30258
10.6806
12.0332
13.3612
14.6772
16.0132
17.3851
18.3908
15.4412
0.686426
2.05826
3.42696
4.79014
6.14494
7.48781
8.81404
10.1169
11.3851
12.5963
13.6968
14.5461
14.7544
13.2475
7.31899
0.649033
1.94619
3.24058
4.53013
5.8124
7.08433
8.34159
9.57704
10.7766
11.9079
12.8909
13.5238
13.3146
11.1746
5.24486
0.612257
1.83602
3.05751
4.27509
5.48695
6.69092
7.88413
9.06198
10.2153
11.3223
12.3277
13.0862
13.2155
11.7331
6.33732
0.575993
1.72741
2.87712
4.02398
5.16689
6.30487
7.43721
8.56384
9.68592
10.8071
11.9359
13.0853
14.2353
15.0092
12.4845
0.540115
1.61996
2.69865
3.77554
4.85018
5.92264
6.99416
8.06874
9.15702
10.2865
11.5296
13.0838
15.5161
20.5759
34.2176
0.504501
1.51328
2.52141
3.52862
4.53492
5.54098
6.54889
7.56401
8.59937
9.68689
10.9072
12.4723
14.9721
20.1826
34.0693
0.469038
1.40703
2.34478
3.28229
4.21977
5.15796
6.09854
7.04515
8.00538
8.99492
10.0452
11.2117
12.5455
13.7638
12.0034
0.433632
1.30092
2.1683
3.03593
3.90408
4.77321
5.64393
6.51675
7.39096
8.26069
9.10229
9.83471
10.1989
9.41344
5.38642
0.398206
1.19474
1.99163
2.78918
3.58766
4.38729
5.18779
5.98732
6.77957
7.5459
8.23512
8.7134
8.65044
7.31408
3.45393
0.362695
1.08829
1.8145
2.54174
3.27042
4.00074
4.73227
5.4629
6.18613
6.88458
7.51439
7.96788
7.98626
6.9673
3.63789
0.327041
0.981406
1.63663
2.2933
2.95202
3.6133
4.27734
4.94358
5.60985
6.27089
6.91604
7.52447
8.04241
8.22496
6.56235
0.291189
0.873923
1.45774
2.04342
2.63183
3.22393
3.82086
4.42422
5.03718
5.6682
6.34316
7.14387
8.33143
10.764
17.4466
0.25509
0.765685
1.27756
1.79165
2.30907
2.8312
3.3599
3.89818
4.45196
5.03497
5.68296
6.4946
7.75587
10.3515
17.2931
0.218702
0.656561
1.09583
1.53756
1.98304
2.43389
2.89228
3.3614
3.84643
4.35662
4.90913
5.53309
6.25365
6.92113
6.06852
0.181999
0.546465
0.912383
1.28087
1.6533
2.03136
2.41722
2.81358
3.22345
3.64889
4.08571
4.50452
4.78832
4.54635
2.68036
0.144972
0.435366
0.727163
1.02147
1.31965
1.62343
1.9349
2.2564
2.58968
2.9333
3.27483
3.56975
3.68817
3.29939
1.71913
0.107635
0.3233
0.540213
0.759393
0.982146
1.21018
1.44564
1.69107
1.94879
2.21921
2.49638
2.75762
2.9403
2.87991
2.04824
0.0700249
0.210379
0.351705
0.494857
0.641006
0.791796
0.949513
1.11726
1.29914
1.50051
1.72906
2.00012
2.36135
2.99615
4.64466
0.0322079
0.0967934
0.16195
0.228268
0.29668
0.368654
0.446472
0.533698
0.636021
0.763028
0.93231
1.18012
1.59253
2.40862
4.41104
-0.00572229
-0.0171741
-0.028589
-0.0397413
-0.050074
-0.0584926
-0.0630343
-0.0602714
-0.044152
-0.00371581
0.0811369
0.24595
0.543525
0.997421
1.26867
-0.0436422
-0.131151
-0.219283
-0.30828
-0.398106
-0.488267
-0.577537
-0.663428
-0.741111
-0.801191
-0.825437
-0.780283
-0.613892
-0.286792
0.0768394
-0.0814004
-0.244677
-0.409344
-0.5762
-0.745846
-0.918588
-1.0943
-1.27219
-1.45018
-1.62342
-1.78006
-1.89056
-1.88276
-1.59624
-0.755685
-0.118821
-0.357218
-0.597851
-0.842134
-1.09137
-1.34676
-1.60946
-1.88075
-2.16243
-2.45704
-2.76658
-3.08283
-3.34502
-3.29031
-2.05398
-0.155711
-0.468183
-0.783786
-1.10457
-1.43255
-1.76978
-2.11854
-2.48199
-2.86555
-3.28013
-3.74825
-4.31245
-5.02716
-5.80474
-5.34636
-0.191865
-0.576948
-0.966082
-1.36195
-1.76724
-2.18468
-2.61731
-3.06912
-3.54698
-4.06587
-4.663
-5.43732
-6.66537
-9.1772
-15.7457
-0.227072
-0.682875
-1.14366
-1.61273
-2.0934
-2.58894
-3.10263
-3.63801
-4.19976
-4.79707
-5.4545
-6.24686
-7.41175
-9.73215
-15.9587
-0.261117
-0.785317
-1.31542
-1.85539
-2.40914
-2.98047
-3.57277
-4.18844
-4.82767
-5.48631
-6.15207
-6.79741
-7.3554
-7.57408
-6.04379
-0.293786
-0.883628
-1.4803
-2.0884
-2.71257
-3.35731
-4.02654
-4.72233
-5.44191
-6.17039
-6.86356
-7.40837
-7.53437
-6.63027
-3.46007
-0.32487
-0.977167
-1.63718
-2.31018
-3.00162
-3.71703
-4.46171
-5.23952
-6.04979
-6.87875
-7.67782
-8.30989
-8.4284
-7.25989
-3.48033
-0.354168
-1.06532
-1.78498
-2.51908
-3.27391
-4.0563
-4.8737
-5.734
-6.64447
-7.60764
-8.60779
-9.56778
-10.2159
-9.70249
-5.70956
-0.381502
-1.14752
-1.9227
-2.71349
-3.52695
-4.37112
-5.25574
-6.19346
-7.20232
-8.31059
-9.56539
-11.0419
-12.8097
-14.5611
-13.0957
-0.406729
-1.22334
-2.04952
-2.89208
-3.75854
-4.65771
-5.60073
-6.60331
-7.69091
-8.9115
-10.3687
-12.3134
-15.4146
-21.6532
-37.6523
-0.429756
-1.29247
-2.16491
-3.05399
-3.9673
-4.9137
-5.90418
-6.95392
-8.08692
-9.34781
-10.8333
-12.7812
-15.8403
-21.9664
-37.7718
-0.450546
-1.35481
-2.26869
-3.19896
-4.15297
-5.13893
-6.16631
-7.24651
-8.39388
-9.62785
-10.9764
-12.4771
-14.1355
-15.5574
-13.4856
-0.469123
-1.41043
-2.36102
-3.32737
-4.31633
-5.33523
-6.39158
-7.49223
-8.64047
-9.82805
-11.0135
-12.0632
-12.5945
-11.5742
-6.49014
-0.48556
-1.45958
-2.44235
-3.43997
-4.45878
-5.50536
-6.58591
-7.70471
-8.85949
-10.0295
-11.1445
-12.009
-12.1307
-10.4128
-4.97799
-0.499974
-1.5026
-2.51331
-3.53775
-4.58184
-5.65173
-6.7535
-7.89198
-9.06771
-10.2688
-11.4491
-12.4701
-12.9442
-11.8322
-6.60542
-0.512519
-1.53996
-2.57468
-3.62181
-4.68684
-5.77582
-6.8954
-8.05316
-9.2581
-10.5222
-11.8641
-13.3108
-14.8588
-16.1087
-13.7772
-0.523384
-1.57222
-2.62737
-3.69333
-4.7751
-5.87849
-7.01062
-8.18137
-9.40711
-10.7215
-12.206
-14.0806
-16.9801
-22.872
-38.4644
-0.532799
-1.60007
-2.67248
-3.75377
-4.84823
-5.96105
-7.09884
-8.27118
-9.49436
-10.8022
-12.2767
-14.1385
-17.0229
-22.8983
-38.4733
-0.541037
-1.62432
-2.71135
-3.80496
-4.9085
-6.0261
-7.1629
-8.32548
-9.52261
-10.7669
-12.0782
-13.4857
-14.9883
-16.1883
-13.8041
-0.548421
-1.64594
-2.7456
-3.84915
-4.95888
-6.07765
-7.20886
-8.3556
-9.51788
-10.6847
-11.8126
-12.7666
-13.1633
-11.967
-6.65124
-0.555322
-1.66604
-2.77707
-3.88898
-5.00285
-6.12041
-7.24387
-8.37472
-9.50974
-10.6294
-11.6675
-12.4342
-12.4443
-10.6061
-5.04456
-0.562162
-1.68588
-2.80787
-3.92735
-5.04413
-6.15892
-7.27355
-8.39074
-9.51201
-10.6306
-11.7104
-12.627
-13.0085
-11.8308
-6.5819
-0.569411
-1.70687
-2.84035
-3.96751
-5.08667
-6.19738
-7.30129
-8.40373
-9.5159
-10.6585
-11.8665
-13.1909
-14.6553
-15.8823
-13.6156
-0.57759
-1.7306
-2.87715
-4.01313
-5.13497
-6.2404
-7.32989
-8.40976
-9.49845
-10.6407
-11.9415
-13.6575
-16.4665
-22.3596
-37.9854
-0.587265
-1.75878
-2.92121
-4.06846
-5.19456
-6.29435
-7.36501
-8.40947
-9.44362
-10.5125
-11.7278
-13.3647
-16.1356
-22.0778
-37.8686
-0.599019
-1.79322
-2.97577
-4.13839
-5.27229
-6.36836
-7.41816
-8.41614
-9.36451
-10.2823
-11.2211
-12.2842
-13.602
-14.9562
-13.2172
-0.613423
-1.83573
-3.04408
-4.22817
-5.37616
-6.47437
-7.50711
-8.4571
-9.30642
-10.0372
-10.6279
-11.0266
-11.0429
-9.98245
-5.71522
-0.630969
-1.88787
-3.12919
-4.34291
-5.51448
-6.62568
-7.65335
-8.56777
-9.33041
-9.88931
-10.1678
-10.0344
-9.2311
-7.23541
-3.18757
-0.651997
-1.9508
-3.23341
-4.48683
-5.69459
-6.83485
-7.87805
-8.78365
-9.49568
-9.93592
-9.99329
-9.5073
-8.24716
-5.91333
-2.27603
-0.676613
-2.02494
-3.35782
-4.66236
-5.92144
-7.11128
-8.19812
-9.13376
-9.84947
-10.2482
-10.1959
-9.51756
-8.00864
-5.4963
-1.99969
-0.704617
-2.10976
-3.50183
-4.86936
-6.19626
-7.45907
-8.62299
-9.6364
-10.4232
-10.8733
-10.8332
-10.1043
-8.46676
-5.76268
-2.07246
-0.735448
-2.20361
-3.66282
-5.10446
-6.51545
-7.87535
-9.1522
-10.2962
-11.2305
-11.8385
-11.9485
-11.3219
-9.6653
-6.71375
-2.46093
-0.768161
-2.30363
-3.83593
-5.36074
-6.86996
-8.34914
-9.77346
-11.1013
-12.2641
-13.1493
-13.5751
-13.2545
-11.7629
-8.56831
-3.31395
-0.80145
-2.40581
-4.01416
-5.62772
-7.24519
-8.86084
-10.4615
-12.0209
-13.4901
-14.7788
-15.7196
-16.0001
-15.0428
-11.8531
-5.12076
-0.833707
-2.50518
-4.1887
-5.89188
-7.62151
-9.38277
-11.1778
-13.0027
-14.8411
-16.6495
-18.3224
-19.6049
-19.8725
-17.5976
-9.36448
-0.863132
-2.59613
-4.3495
-6.13756
-7.97569
-9.88103
-11.8732
-13.9749
-16.2126
-18.6139
-21.1957
-23.9142
-26.4675
-27.4792
-20.8968
-0.88787
-2.67287
-4.48616
-6.34835
-8.28304
-10.3188
-12.492
-14.8522
-17.47
-20.4526
-23.9736
-28.3374
-34.1324
-42.6336
-56.881
107.759
80.4907
63.9782
52.6103
44.0308
37.1459
31.3823
26.4053
22.0012
18.024
14.3672
10.9492
7.70441
4.57721
1.51827
39.3966
51.412
49.0145
43.7498
38.273
33.1737
28.5348
24.3147
20.4467
16.8653
13.5122
10.3363
7.29231
4.33967
1.44066
17.4076
32.3411
36.0412
35.0359
32.2523
28.8812
25.3961
21.9792
18.6927
15.5478
12.534
9.63147
6.81669
4.06484
1.35075
9.22489
21.0707
26.3349
27.5565
26.639
24.6674
22.2094
19.5527
16.84
14.1391
11.4784
8.8656
6.29727
3.76372
1.25209
5.62821
14.3704
19.4354
21.562
21.7572
20.791
19.1604
17.1649
14.979
12.7021
10.3892
8.06874
5.75359
3.44733
1.14822
3.77744
10.2234
14.5763
16.9082
17.6817
17.3757
16.3645
14.9089
13.1808
11.29
9.30512
7.26808
5.20365
3.12592
1.04248
2.6967
7.52976
11.1204
13.3365
14.3554
14.4498
13.8769
12.8419
11.4953
9.943
8.25714
6.48631
4.66287
2.80842
0.937803
2.00503
5.69873
8.61898
10.5959
11.671
11.987
11.7099
10.9909
9.95259
8.68858
7.26802
5.74098
4.14356
2.50209
0.836576
1.53301
4.40472
6.77248
8.48131
9.51359
9.93577
9.84972
9.36159
8.5664
7.54273
6.35272
5.04443
3.65476
2.21244
0.740639
1.19589
3.46061
5.38346
6.83642
7.77968
8.23733
8.26855
7.94533
7.33874
6.51226
5.51947
4.40432
3.20248
1.94322
0.651272
0.946985
2.75385
4.32067
5.54535
6.38286
6.83487
6.93338
6.7257
6.26366
5.59718
4.77112
3.82433
2.79002
1.69666
0.569256
0.758557
2.21373
3.49541
4.52306
5.25365
5.67779
5.81073
5.6826
5.33046
4.79283
4.10651
3.30506
2.41853
1.47371
0.494948
0.613129
1.79405
2.8465
3.70699
4.33714
4.72282
4.86927
4.79496
4.52598
4.09167
3.52178
2.84484
2.08746
1.2743
0.428367
0.499174
1.46356
2.33085
3.0508
3.59033
3.93391
4.08103
4.04244
3.83623
3.48459
3.01133
2.44042
1.79511
1.09763
0.36928
0.408799
1.20045
1.91747
2.51985
2.97955
3.28136
3.42168
3.40624
3.24743
2.9619
2.56865
2.08764
1.53895
0.942369
0.317278
0.336432
0.989164
1.58368
2.08792
2.47835
2.7409
2.87045
2.86955
2.74656
2.51397
2.18687
1.78181
1.31602
0.806898
0.271843
0.278038
0.818282
1.31256
1.735
2.06593
2.29274
2.40978
2.41759
2.32176
2.13163
1.85919
1.51814
1.12315
0.689423
0.232399
0.230635
0.679309
1.09129
1.4456
1.72579
1.92077
2.02491
2.03757
1.9624
1.8064
1.57913
1.2919
0.957163
0.588115
0.198347
0.191974
0.565802
0.910072
1.20764
1.44478
1.61186
1.70353
1.71852
1.65913
1.53064
1.34069
1.09862
0.814988
0.501187
0.169103
0.160339
0.472811
0.761268
1.01162
1.2124
1.35529
1.43539
1.45109
1.40381
1.29755
1.13843
0.934179
0.693753
0.426946
0.144108
0.1344
0.39649
0.638911
0.850022
1.0202
1.14231
1.21194
1.22737
1.18942
1.10115
0.967481
0.794846
0.590825
0.363832
0.122844
0.113118
0.333822
0.538288
0.716833
0.861364
0.965762
1.0261
1.04069
1.00996
0.936253
0.823579
0.677297
0.503839
0.310431
0.104842
0.0956759
0.282427
0.455655
0.607255
0.730383
0.819792
0.872026
0.885475
0.860324
0.798405
0.703002
0.57861
0.430701
0.265484
0.0896819
0.0814277
0.240417
0.388037
0.517439
0.622807
0.699627
0.74487
0.757051
0.736209
0.6838
0.602545
0.496245
0.369575
0.227884
0.0769938
0.0698628
0.206301
0.333063
0.444308
0.535046
0.601381
0.640662
0.651549
0.634005
0.589216
0.519473
0.428019
0.318875