/*--------------------------------*- C++ -*----------------------------------*\
| =========                 |                                                 |
| \\      /  F ield         | OpenFOAM: The Open Source CFD Toolbox           |
|  \\    /   O peration     | Version:  5.x                                   |
|   \\  /    A nd           | Web:      www.OpenFOAM.org                      |
|    \\/     M anipulation  |                                                 |
\*---------------------------------------------------------------------------*/
FoamFile
{
    version     2.0;
    format      ascii;
    class       volScalarField;
    location    "13";
    object      gradTx;
}
// * * * * * * * * * * * * * * * * * * * * * * * * * * * * * * * * * * * * * //

dimensions      [0 -1 0 1 0 0 0];

internalField   nonuniform List<scalar> 
6300
(
43.8298
43.6986
43.4364
43.0431
42.5189
41.8644
41.0806
40.1696
39.1346
37.9809
36.7158
35.3493
33.8947
32.3685
30.7899
43.959
43.8279
43.5656
43.1721
42.6474
41.9918
41.206
40.2917
39.2517
38.0907
36.8155
35.4359
33.965
32.4193
30.8189
44.2173
44.0863
43.8241
43.4304
42.905
42.2475
41.4582
40.5378
39.4882
38.313
37.018
35.6123
34.1085
32.5235
30.8784
44.6048
44.474
44.2122
43.8187
43.2927
42.6333
41.8396
40.9113
39.8486
38.6534
37.3297
35.8852
34.3316
32.6863
30.972
45.1211
44.9909
44.73
44.3374
43.8119
43.1514
42.354
41.4174
40.3398
39.1204
37.7607
36.2655
34.6451
32.9168
31.1055
45.7657
45.6365
45.3775
44.9873
44.464
43.8047
43.0057
42.0627
40.971
39.7262
38.3254
36.7694
35.0651
33.2287
31.288
46.5374
46.4099
46.1542
45.7685
45.2503
44.5957
43.7995
42.8549
41.7536
40.4863
39.0438
37.4199
35.6155
33.6434
31.534
47.4346
47.3096
47.0587
46.6802
46.1709
45.5263
44.7398
43.8019
42.7004
41.4196
39.9417
38.2495
36.332
34.194
31.8666
48.4548
48.3331
48.089
47.7206
47.2249
46.597
45.8294
44.9107
43.8246
42.5483
41.0523
39.3025
37.2673
34.9325
32.3233
49.5945
49.477
49.2414
48.8863
48.409
47.8054
47.068
46.1849
45.137
43.8947
42.4149
40.6392
38.5005
35.9438
32.9688
50.8496
50.7369
50.5112
50.1719
49.7175
49.1454
48.4502
47.6219
46.6418
45.4769
44.0713
42.3371
40.1503
37.3718
33.922
52.2153
52.1076
51.8925
51.5703
51.1416
50.6064
49.9635
49.2085
48.3292
47.2977
46.0546
44.4856
42.39
39.4696
35.4215
53.6864
53.5835
53.3786
53.0731
52.6699
52.1727
51.5867
50.9172
50.1669
49.3279
48.362
47.1589
45.4524
42.6935
38.0036
55.258
55.1593
54.9629
54.6715
54.2898
53.8256
53.291
52.7043
52.0911
51.4827
50.9046
50.3335
49.5654
47.8462
43.0575
56.9261
56.8302
56.6398
56.3578
55.99
55.5465
55.0451
54.5157
54.0083
53.6052
53.4378
53.7029
54.6271
56.0662
54.8356
29.3166
27.9698
26.6308
25.3133
24.0304
22.794
21.6147
20.5015
19.4619
18.5018
17.6253
16.8356
16.1343
15.5222
14.9991
14.5642
14.2161
13.9525
13.771
13.6683
13.6407
13.6837
13.7924
13.9608
14.1824
14.4499
14.7553
15.0903
15.4459
15.8136
16.1849
16.5519
16.9074
17.245
17.559
17.844
18.095
18.3072
18.4753
18.5945
18.6598
18.6673
18.6136
18.497
18.3172
18.0751
17.773
17.4135
16.9994
16.5328
16.0147
15.4451
14.8225
14.1446
13.4083
12.6104
11.7478
10.8179
9.81838
8.74734
7.60282
6.38235
5.08261
3.69901
2.22552
0.654591
-1.02267
-2.81622
-4.73668
-6.79488
-9.00144
-11.3664
-13.8991
-16.6079
-19.5002
-22.5823
-25.8595
-29.3355
-33.0124
-36.8899
-40.9645
-45.2288
-49.6707
-54.2728
-59.0118
-63.8585
-68.7781
-73.7309
-78.6738
-83.5619
29.3242
27.9574
26.5987
25.2625
23.9624
22.7108
21.5185
20.3947
19.3468
18.3804
17.4998
16.7075
16.0051
15.3932
14.8714
14.4387
14.0936
13.8339
13.6569
13.5596
13.5384
13.5887
13.7057
13.8836
14.1157
14.3947
14.7123
15.0598
15.428
15.8078
16.1905
16.5678
16.9326
17.2784
17.5999
17.8922
18.1504
18.3698
18.5451
18.6712
18.7426
18.7546
18.7035
18.5874
18.406
18.1609
17.8548
17.4915
17.0744
16.6062
16.0884
15.5207
14.9016
14.2281
13.4965
12.703
11.8444
10.9177
9.92097
8.85282
7.71184
6.49622
5.20312
3.82826
2.36567
0.807597
-0.855272
-2.63348
-4.53829
-6.58113
-8.77314
-11.1247
-13.6453
-16.3433
-19.2264
-22.3009
-25.5724
-29.0455
-32.7228
-36.6052
-40.6903
-44.9718
-49.4388
-54.0743
-58.8553
-63.752
-68.7285
-73.7433
-78.7509
-83.7038
29.3398
27.9321
26.5331
25.1586
23.8236
22.5411
21.3227
20.1777
19.1133
18.1349
17.2461
16.4492
15.7451
15.1338
14.6148
14.1866
13.8475
13.5953
13.4275
13.341
13.3322
13.3972
13.5309
13.7277
13.9811
14.2832
14.6256
14.9987
15.3927
15.7973
16.2031
16.6012
16.9842
17.3462
17.6823
17.9886
18.261
18.495
18.6853
18.8259
18.9101
18.9319
18.8864
18.7711
18.586
18.3336
18.0185
17.6463
17.2223
16.7505
16.2331
15.6699
15.0585
14.3946
13.6732
12.8892
12.0383
11.1178
10.1261
9.06279
7.92804
6.72137
5.4411
4.08365
2.64314
1.1114
-0.521852
-2.26845
-4.14107
-6.1525
-8.3149
-10.6393
-13.1356
-15.812
-18.6763
-21.7351
-24.9946
-28.4605
-32.1372
-36.0277
-40.1321
-44.4467
-48.9628
-53.665
-58.5305
-63.5289
-68.6218
-73.764
-78.9049
-83.9911
29.3648
27.893
26.431
24.997
23.6079
22.2783
21.0204
19.8437
18.7552
17.7595
16.8595
16.0565
15.3506
14.7411
14.2266
13.8055
13.4757
13.2348
13.0804
13.0097
13.0195
13.1059
13.2646
13.49
13.7755
14.1133
14.494
14.9072
15.3413
15.7846
16.226
16.6555
17.0655
17.4505
17.8071
18.1331
18.426
18.6824
18.8965
19.0609
19.1668
19.2052
19.1691
19.0547
18.8621
18.5959
18.2639
17.8751
17.4382
16.9598
16.4432
15.8881
15.2903
14.6434
13.9395
13.1711
12.3323
11.42
10.4337
9.37536
8.24746
7.0522
5.78998
4.45842
3.05184
1.56126
-0.0252906
-1.72195
-3.54394
-5.50638
-7.62319
-9.9064
-12.3659
-15.01
-17.8457
-20.8798
-24.1191
-27.5711
-31.243
-35.1411
-39.2701
-43.6305
-48.2176
-53.0189
-58.013
-63.1683
-68.4427
-73.7848
-79.1357
-84.4323
29.4013
27.8386
26.2874
24.7697
23.3054
21.9112
20.6002
19.3819
18.2625
17.2456
16.3326
15.5233
14.8167
14.2108
13.7035
13.2924
12.9751
12.7492
12.6123
12.5621
12.5957
12.7102
12.9016
13.165
13.4942
13.8809
14.3152
14.7848
15.2759
15.7741
16.2653
16.7374
17.182
17.5949
17.9753
18.3244
18.6431
18.9297
19.1785
19.3796
19.5198
19.5852
19.564
19.4499
19.2434
18.9525
18.5903
18.1723
17.7132
17.2234
16.7083
16.1669
15.5924
14.9738
14.2983
13.5537
12.7316
11.8281
10.8449
9.78764
8.66351
7.47917
6.23845
4.94096
3.58134
2.1492
0.629746
-0.995005
-2.74455
-4.63789
-6.69174
-8.91934
-11.3303
-13.9316
-16.7289
-19.7282
-22.9369
-26.3645
-30.022
-33.9214
-38.0737
-42.4869
-47.1627
-52.094
-57.262
-62.6344
-68.1642
-73.7909
-79.4427
-85.0412
29.4527
27.7664
26.0943
24.4643
22.9009
21.4233
20.0456
18.7768
17.6215
16.5813
15.6554
14.8417
14.137
13.538
13.0412
12.6436
12.3423
12.1348
12.019
11.9931
12.0551
12.2031
12.4343
12.7449
13.1293
13.5796
14.0848
14.6307
15.1999
15.7732
16.3312
16.8581
17.3437
17.7854
18.1878
18.5589
18.9057
19.2308
19.5285
19.7851
19.9798
20.089
20.0921
19.9773
19.7456
19.4108
18.9962
18.5283
18.0314
17.5229
17.0108
16.4928
15.9573
15.3856
14.7558
14.0478
13.2474
12.3505
11.3624
10.2958
9.16591
7.98699
6.76839
5.51275
4.21506
2.8627
1.43632
-0.0884124
-1.73808
-3.53821
-5.50997
-7.66802
-10.0204
-12.5707
-15.321
-18.2747
-21.4391
-24.826
-28.4519
-32.3365
-36.5009
-40.9639
-45.7385
-50.8267
-56.2154
-61.8723
-67.7446
-73.759
-79.8244
-85.8389
29.5243
27.6724
25.8393
24.0621
22.3717
20.7907
19.3334
18.0072
16.8139
15.7516
14.8162
14.0024
13.3045
12.7173
12.2357
11.8556
11.5739
11.3878
11.2958
11.2969
11.3903
11.5757
11.8522
12.2179
12.6691
13.1986
13.7953
14.4424
15.1175
15.7933
16.4416
17.0376
17.5676
18.032
18.4448
18.8273
19.199
19.5703
19.937
20.2789
20.562
20.7448
20.7892
20.6724
20.3953
19.9834
19.4781
18.9254
18.3657
17.8269
17.3209
16.8432
16.3736
15.8804
15.3256
14.6741
13.9019
13.0038
11.9927
10.8944
9.73862
8.55163
7.35136
6.14481
4.92728
3.68263
2.38437
0.998012
-0.514961
-2.19135
-4.05987
-6.13667
-8.42537
-10.9217
-13.6196
-16.5173
-19.6202
-22.9428
-26.5085
-30.3481
-34.497
-38.9913
-43.8616
-49.1257
-54.7809
-60.7983
-67.1188
-73.6516
-80.2776
-86.8578
29.6246
27.5502
25.5027
23.5339
21.684
19.9789
18.4316
17.0455
15.8169
14.7385
13.8012
12.9954
12.3123
11.7438
11.2834
10.9257
10.667
10.5049
10.4382
10.4671
10.5926
10.8166
11.1411
11.5675
12.0953
12.7204
13.4326
14.2133
15.0332
15.8527
16.6262
17.3117
17.8853
18.352
18.7448
19.1105
19.4923
19.9157
20.3805
20.8568
21.2877
21.599
21.7177
21.5973
21.2385
20.6898
20.0275
19.3319
18.6693
18.0829
17.5899
17.1811
16.8234
16.4631
16.0343
15.4734
14.7373
13.8191
12.7482
11.5755
10.3559
9.13506
7.94307
6.79241
5.67834
4.57955
3.45912
2.26665
0.943418
-0.567843
-2.30982
-4.30006
-6.5312
-8.98192
-11.6304
-14.464
-17.4844
-20.709
-24.1701
-27.9133
-31.9948
-36.4764
-41.4167
-46.86
-52.8234
-59.2865
-66.1854
-73.408
-80.7945
-88.1476
29.7672
27.3881
25.0514
22.8336
20.7869
18.939
17.2972
15.8561
14.6029
13.5216
12.5961
11.8113
11.1543
10.6143
10.1825
9.8528
9.62076
9.48414
9.44261
9.49767
9.6526
9.91228
10.2828
10.7705
11.3811
12.1163
12.9708
13.927
14.9488
15.9779
16.9369
17.7463
18.356
18.7776
19.083
19.3698
19.7246
20.2008
20.8065
21.499
22.185
22.7299
22.9895
22.8645
22.3546
21.559
20.624
19.69
18.8624
18.204
17.7368
17.4449
17.2763
17.1437
16.9328
16.5243
15.8344
14.854
13.6497
12.3236
10.9745
9.67667
8.47498
7.38708
6.40714
5.50741
4.63744
3.72344
2.67246
1.38785
-0.202254
-2.11649
-4.32073
-6.75727
-9.37417
-12.1412
-15.0542
-18.1342
-21.4248
-24.9906
-28.9159
-33.2998
-38.2463
-43.8443
-50.1448
-57.1457
-64.7842
-72.9266
-81.3573
-89.7851
29.9752
27.1638
24.4281
21.8857
19.6028
17.6012
15.8731
14.3957
13.1407
12.0798
11.1877
10.4428
9.82758
9.32825
8.93443
8.63876
8.43664
8.32606
8.3075
8.38404
8.56137
8.84799
9.25513
9.79641
10.4867
11.3397
12.3622
13.5458
14.8533
16.2031
17.4625
18.4677
19.0969
19.3698
19.4474
19.5302
19.7815
20.2987
21.1064
22.1501
23.2845
24.2707
24.8143
24.6852
23.8811
22.628
21.2185
19.8941
18.811
18.0491
17.6305
17.5307
17.6766
17.9366
18.1152
17.9801
17.3489
16.2109
14.726
13.1043
11.5187
10.0795
8.84272
7.82599
7.02021
6.39219
5.87899
5.37731
4.7378
3.78335
2.37202
0.484674
-1.77564
-4.27276
-6.90161
-9.60785
-12.3833
-15.2558
-18.2826
-21.5498
-25.1756
-29.3124
-34.1367
-39.8157
-46.4563
-54.0853
-62.6559
-72.028
-81.922
-91.8934
30.2891
26.8295
23.5255
20.563
18.0128
15.8685
14.0871
12.6143
11.3983
10.3945
9.56686
8.88707
8.33347
7.88988
7.54459
7.28965
7.12037
7.03509
7.03511
7.12489
7.31242
7.6098
8.03393
8.60724
9.35787
10.3184
11.5211
12.9858
14.696
16.5581
18.3531
19.73
20.3501
20.2422
19.8037
19.4472
19.4547
19.9775
21.0658
22.6694
24.5966
26.4477
27.6068
27.477
26.053
23.9217
21.6895
19.75
18.2965
17.399
17.0645
17.2619
17.912
18.846
19.7488
20.1493
19.5929
18.0666
15.9989
13.8327
11.8517
10.1905
8.89318
7.96083
7.37701
7.11136
7.1037
7.22946
7.25645
6.83662
5.63164
3.62285
1.11044
-1.59849
-4.31745
-6.97465
-9.57231
-12.1546
-14.7937
-17.592
-20.699
-24.3342
-28.7953
-34.4013
-41.3435
-49.6673
-59.3718
-70.3761
-82.3735
-94.6762
30.7865
26.2696
22.1299
18.6458
15.8375
13.613
11.8561
10.4627
9.34979
8.45509
7.73269
7.14922
6.68059
6.30962
6.02433
5.81687
5.68284
5.62099
5.63317
5.7247
5.905
6.18875
6.59756
7.16236
7.92635
8.94803
10.302
12.0717
14.3196
17.0088
19.8453
22.0813
22.6508
21.59
20.041
18.8393
18.3849
18.8414
20.2822
22.7219
26.0175
29.6203
32.2544
32.1312
29.2425
25.3595
21.7384
18.9054
16.9806
15.9375
15.7319
16.3406
17.7381
19.7996
22.105
23.6959
23.2326
20.7014
17.4132
14.2939
11.7237
9.77733
8.41776
7.59352
7.27541
7.45877
8.13605
9.22358
10.4182
11.0203
10.0485
7.4861
4.27942
1.09024
-1.82214
-4.42699
-6.78313
-8.9715
-11.0751
-13.1892
-15.461
-18.1661
-21.8045
-27.0619
-34.2398
-43.26
-54.2145
-67.2922
-82.3833
-98.4904
31.6281
25.1655
19.7891
15.7549
12.8208
10.6833
9.10123
7.90652
6.98672
6.26721
5.69812
5.24568
4.8868
4.6057
4.39172
4.23809
4.14115
4.10004
4.11673
4.19642
4.34835
4.58734
4.93631
5.43035
6.12343
7.09876
8.48398
10.4686
13.3071
17.2466
22.2012
26.8314
27.2983
23.6397
19.7773
17.1547
16.0029
16.2868
18.0596
21.5408
26.9952
34.1865
40.8713
40.7667
33.8625
26.4194
20.6514
16.7523
14.3944
13.2696
13.226
14.283
16.6075
20.4011
25.4893
30.1998
29.8494
24.4253
18.5836
13.9638
10.6968
8.51881
7.17115
6.4971
6.45144
7.09467
8.57736
11.0631
14.4331
17.4699
16.7557
12.2768
7.42304
3.38034
0.23034
-2.23739
-4.2354
-5.91018
-7.34101
-8.55909
-9.59871
-10.6535
-12.4818
-16.9561
-24.4826
-34.0659
-45.9985
-61.3074
-80.9277
-104.008
33.1783
22.4964
15.5147
11.2788
8.6565
6.95325
5.78821
4.95417
4.33491
3.86246
3.49532
3.20716
2.98081
2.80492
2.67204
2.5775
2.51887
2.49567
2.50942
2.56394
2.66615
2.82739
3.06594
3.41152
3.9138
4.65894
5.8025
7.63532
10.7085
16.0222
25.0232
37.5758
37.8853
25.9819
17.7277
13.3513
11.5528
11.5875
13.3761
17.5177
25.4704
39.4807
59.2635
59.192
39.2574
25.0659
16.8726
12.3792
10.0318
9.04448
9.13464
10.3996
13.3608
19.1375
29.4168
43.9904
43.7712
28.7499
17.9938
11.6854
8.10134
6.06433
4.9543
4.49558
4.63523
5.52152
7.57398
11.6291
18.9272
29.3205
28.8834
17.607
9.39851
4.38482
1.30033
-0.724127
-2.15302
-3.19996
-3.9131
-4.18566
-3.71425
-2.02664
0.651643
-2.45444
-11.7629
-21.488
-32.9193
-49.1127
-74.4874
-112.624
36.2915
14.498
7.28593
4.47845
3.16846
2.44788
1.99833
1.69231
1.4715
1.3059
1.17863
1.07948
1.00203
0.942107
0.897013
0.865087
0.845471
0.838011
0.843275
0.862687
0.898823
0.95599
1.04131
1.16688
1.3543
1.64522
2.12827
3.01563
4.88315
9.4873
22.7299
65.9486
66.0573
23.068
10.0933
5.83529
4.46217
4.36238
5.30386
8.00593
15.2217
36.4612
106.243
106.218
36.3808
15.0742
7.765
4.91557
3.71013
3.26752
3.35127
4.07326
6.05916
11.3899
27.1592
79.0812
79.0065
26.9317
10.9987
5.48364
3.27781
2.27476
1.7994
1.63226
1.7437
2.26891
3.68656
7.52476
18.9637
56.7659
56.6187
18.519
6.77315
2.61112
0.843838
-0.0684726
-0.620568
-0.97035
-1.11948
-0.883391
0.419032
5.1738
22.1147
20.9789
1.55702
-6.45232
-12.9817
-23.6955
-49.6686
-127.39
-88.8155
-94.3496
-99.605
-104.526
-109.068
-113.202
-116.91
-120.182
-123.018
-125.425
-127.409
-128.981
-130.15
-130.924
-131.31
-89.0252
-94.626
-99.9372
-104.901
-109.474
-113.626
-117.342
-120.614
-123.446
-125.844
-127.818
-129.38
-130.541
-131.309
-131.692
-89.452
-95.1895
-100.614
-105.665
-110.297
-114.485
-118.214
-121.485
-124.304
-126.683
-128.636
-130.178
-131.321
-132.077
-132.454
-90.1126
-96.0635
-101.663
-106.844
-111.563
-115.798
-119.543
-122.804
-125.599
-127.944
-129.862
-131.37
-132.486
-133.222
-133.588
-91.0347
-97.2867
-103.127
-108.482
-113.311
-117.598
-121.35
-124.589
-127.339
-129.631
-131.494
-132.952
-134.027
-134.734
-135.085
-92.2613
-98.9189
-105.074
-110.645
-115.596
-119.929
-123.67
-126.857
-129.534
-131.745
-133.527
-134.914
-135.931
-136.599
-136.93
-93.8588
-101.051
-107.602
-113.424
-118.497
-122.85
-126.54
-129.632
-132.193
-134.283
-135.952
-137.241
-138.182
-138.798
-139.102
-95.9304
-103.822
-110.857
-116.95
-122.115
-126.432
-130.003
-132.934
-135.319
-137.238
-138.753
-139.914
-140.756
-141.304
-141.574
-98.6404
-107.446
-115.052
-121.399
-126.58
-130.757
-134.104
-136.779
-138.908
-140.593
-141.906
-142.902
-143.62
-144.085
-144.313
-102.262
-112.266
-120.503
-127.011
-132.044
-135.907
-138.875
-141.165
-142.94
-144.315
-145.372
-146.165
-146.732
-147.098
-147.278
-107.278
-118.852
-127.678
-134.096
-138.676
-141.95
-144.319
-146.063
-147.367
-148.353
-149.097
-149.65
-150.042
-150.295
-150.418
-114.62
-128.181
-137.261
-143.013
-146.611
-148.893
-150.385
-151.397
-152.11
-152.628
-153.01
-153.291
-153.489
-153.616
-153.679
-126.305
-141.987
-150.167
-154.082
-155.859
-156.623
-156.926
-157.026
-157.044
-157.035
-157.021
-157.01
-157.003
-156.999
-156.998
-147.418
-163.294
-167.332
-167.285
-166.115
-164.812
-163.665
-162.732
-162.002
-161.443
-161.025
-160.721
-160.509
-160.376
-160.312
-193.285
-196.435
-188.58
-181.605
-176.501
-172.84
-170.185
-168.233
-166.784
-165.707
-164.911
-164.334
-163.933
-163.68
-163.557
58.5409
58.4465
58.2586
57.9799
57.6154
57.1749
56.6765
56.1538
55.668
55.3325
55.3614
56.185
58.7929
66.0463
88.8444
60.0728
59.9789
59.7917
59.5124
59.1442
58.6936
58.1748
57.6155
57.0709
56.6482
56.5563
57.2005
59.3523
64.3221
72.9427
61.6681
61.5745
61.387
61.1049
60.7282
60.258
59.6993
59.0654
58.3874
57.7324
57.2382
57.1675
57.953
60.0605
63.0527
63.3266
63.2335
63.046
62.7613
62.3752
61.8819
61.2742
60.5443
59.6862
58.7031
57.6243
56.5382
55.6338
55.1827
55.2658
65.048
64.9563
64.7707
64.4862
64.0947
63.5833
62.9322
62.1104
61.0701
59.7384
58.0135
55.7809
52.9981
49.9322
47.5621
66.8312
66.7425
66.562
66.2834
65.8955
65.3798
64.7068
63.8266
62.6544
61.0448
58.7534
55.4042
50.5574
44.1969
38.2381
68.6741
68.5904
68.4196
68.1546
67.7828
67.2837
66.6233
65.7435
64.5407
62.8228
60.2262
56.0658
49.1663
38.1811
24.8022
70.5733
70.4968
70.3406
70.0978
69.7564
69.2975
68.6903
67.883
66.7825
65.209
62.783
58.6278
50.6109
33.8263
2.10173
72.5236
72.4566
72.3197
72.1072
71.8095
71.4123
70.8943
70.2239
69.3506
68.1855
66.5388
63.8696
58.1428
39.8453
-42.6027
74.5185
74.4627
74.3492
74.1736
73.9295
73.6087
73.2023
72.7038
72.1191
71.4944
71.0025
71.2328
74.4027
90.4118
171.414
76.55
76.507
76.4195
76.2851
76.1004
75.8624
75.5721
75.2415
74.913
74.709
74.9626
76.5523
81.7442
95.8419
125.764
78.6094
78.5799
78.5203
78.4292
78.3058
78.1502
77.9679
77.7756
77.6178
77.6035
77.9928
79.3678
82.8987
90.2798
100.926
80.6871
80.6716
80.6405
80.5935
80.5309
80.4543
80.3685
80.2837
80.2203
80.2156
80.3361
80.6835
81.3773
82.4472
83.5151
82.7733
82.7719
82.7693
82.7661
82.7632
82.7624
82.7661
82.7748
82.7793
82.7384
82.5196
81.7561
79.5922
74.6134
66.8789
84.8583
84.8708
84.8962
84.9358
84.9914
85.065
85.158
85.2664
85.3672
85.3822
85.0791
83.7986
79.7595
68.6908
44.9056
86.9324
86.9583
87.0108
87.0919
87.2043
87.3515
87.537
87.761
88.012
88.2443
88.315
87.7541
84.8062
71.597
6.4492
88.9863
89.0248
89.103
89.2235
89.3903
89.6088
89.8869
90.2345
90.6667
91.2162
91.9868
93.3646
96.9765
110.569
175.793
91.0111
91.0613
91.1633
91.3203
91.5375
91.8222
92.186
92.6468
93.237
94.0319
95.2344
97.4207
102.213
113.684
137.462
92.9985
93.0594
93.1828
93.3726
93.6348
93.9781
94.4155
94.9665
95.6622
96.5618
97.7962
99.6641
102.808
108.248
115.683
94.9413
95.0114
95.1536
95.3719
95.6728
96.0657
96.5637
97.1832
97.9427
98.8564
99.9153
101.018
101.806
101.424
99.1047
96.833
96.9109
97.0687
97.3108
97.6439
98.0777
98.625
99.3001
100.113
101.047
102.001
102.589
101.612
95.944
80.9553
98.668
98.7521
98.9225
99.1836
99.542
100.008
100.595
101.319
102.195
103.222
104.338
105.242
104.673
96.9333
52.4369
100.442
100.531
100.711
100.986
101.362
101.851
102.467
103.23
104.169
105.332
106.82
108.915
112.712
123.445
169.843
102.152
102.244
102.43
102.714
103.102
103.604
104.234
105.015
105.984
107.214
108.877
111.404
115.929
125.185
142.728
103.795
103.889
104.078
104.367
104.759
105.264
105.894
106.667
107.614
108.793
110.331
112.502
115.858
121.168
127.837
105.37
105.465
105.655
105.944
106.335
106.835
107.451
108.195
109.079
110.119
111.342
112.774
114.428
116.204
117.62
106.877
106.971
107.161
107.447
107.833
108.322
108.918
109.623
110.431
111.317
112.203
112.889
112.909
111.485
108.43
108.315
108.409
108.596
108.878
109.256
109.732
110.306
110.976
111.726
112.51
113.202
113.461
112.392
107.895
97.1615
109.686
109.778
109.962
110.238
110.608
111.07
111.626
112.271
112.994
113.765
114.5
114.952
114.252
108.632
78.4824
110.991
111.081
111.261
111.531
111.891
112.341
112.88
113.508
114.226
115.04
115.99
117.24
119.525
126.401
157.218
112.23
112.318
112.494
112.758
113.109
113.546
114.069
114.681
115.388
116.219
117.267
118.807
121.606
127.542
139.089
113.405
113.491
113.664
113.921
114.263
114.688
115.195
115.784
116.46
117.244
118.2
119.497
121.506
124.781
129.024
114.517
114.602
114.771
115.023
115.357
115.77
116.26
116.823
117.454
118.145
118.892
119.689
120.524
121.346
121.95
115.568
115.651
115.817
116.065
116.392
116.796
117.272
117.813
118.403
119.006
119.546
119.85
119.549
118.057
115.341
116.557
116.64
116.803
117.048
117.37
117.768
118.236
118.766
119.338
119.906
120.362
120.429
119.397
115.614
106.892
117.487
117.568
117.731
117.973
118.293
118.688
119.155
119.687
120.272
120.881
121.445
121.766
121.152
116.598
92.43
118.357
118.438
118.6
118.841
119.159
119.555
120.025
120.568
121.186
121.883
122.693
123.751
125.64
131.198
155.885
119.169
119.249
119.41
119.651
119.97
120.366
120.84
121.396
122.041
122.804
123.766
125.154
127.577
132.512
141.875
119.921
120.001
120.162
120.403
120.722
121.12
121.597
122.157
122.811
123.583
124.54
125.834
127.767
130.747
134.413
120.614
120.695
120.856
121.097
121.417
121.816
122.293
122.852
123.494
124.23
125.078
126.068
127.226
128.502
129.542
121.248
121.329
121.491
121.733
122.054
122.454
122.931
123.484
124.11
124.796
125.513
126.18
126.601
126.416
125.439
121.823
121.905
122.067
122.31
122.633
123.034
123.512
124.063
124.679
125.337
125.98
126.461
126.392
124.878
120.704
122.339
122.421
122.584
122.829
123.154
123.558
124.039
124.594
125.216
125.884
126.558
127.119
127.184
125.183
113.117
122.794
122.877
123.042
123.289
123.617
124.025
124.512
125.077
125.716
126.425
127.21
128.118
129.409
132.474
145.087
123.189
123.273
123.439
123.689
124.021
124.434
124.928
125.504
126.163
126.91
127.774
128.846
130.399
133.131
137.971
123.523
123.608
123.776
124.028
124.364
124.783
125.285
125.872
126.545
127.311
128.19
129.238
130.566
132.32
134.262
123.796
123.881
124.051
124.306
124.646
125.07
125.58
126.176
126.859
127.629
128.487
129.432
130.433
131.374
131.949
124.007
124.093
124.264
124.522
124.866
125.295
125.813
126.418
127.109
127.882
128.721
129.583
130.34
130.679
130.08
124.155
124.242
124.415
124.675
125.022
125.457
125.981
126.596
127.299
128.085
128.936
129.802
130.535
130.631
127.842
124.241
124.328
124.502
124.763
125.113
125.553
126.084
126.709
127.429
128.24
129.137
130.109
131.17
132.581
136.224
124.263
124.35
124.524
124.787
125.139
125.581
126.118
126.754
127.49
128.332
129.283
130.352
131.559
132.979
134.67
124.222
124.309
124.483
124.745
125.097
125.542
126.082
126.725
127.476
128.344
129.345
130.495
131.797
133.186
134.336
124.117
124.204
124.377
124.638
124.989
125.432
125.973
126.617
127.376
128.262
129.301
130.528
131.97
133.555
134.845
123.95
124.035
124.206
124.465
124.812
125.251
125.788
126.428
127.183
128.069
129.123
130.409
132.042
134.125
136.296
123.72
123.804
123.973
124.227
124.568
125
125.528
126.156
126.895
127.758
128.779
130.046
131.797
134.631
139.299
123.43
123.512
123.676
123.924
124.258
124.68
125.194
125.806
126.518
127.334
128.262
129.343
130.798
133.859
145.588
123.08
123.159
123.318
123.559
123.882
124.292
124.79
125.382
126.065
126.828
127.636
128.378
128.681
127.064
116.129
122.672
122.748
122.901
123.133
123.444
123.839
124.32
124.891
125.552
126.288
127.054
127.712
127.894
126.737
123.058
122.208
122.281
122.427
122.647
122.945
123.322
123.784
124.336
124.983
125.724
126.544
127.375
128.034
128.157
127.477
121.691
121.759
121.897
122.106
122.387
122.744
123.182
123.712
124.345
125.103
126.023
127.153
128.542
130.132
131.467
121.123
121.187
121.316
121.51
121.773
122.105
122.515
123.013
123.617
124.368
125.351
126.749
128.909
132.28
136.427
120.508
120.567
120.686
120.865
121.106
121.411
121.784
122.236
122.784
123.467
124.389
125.813
128.43
133.887
144.31
119.849
119.903
120.011
120.174
120.391
120.665
120.996
121.39
121.853
122.399
123.075
124.046
125.976
132.042
159.474
119.149
119.198
119.295
119.441
119.634
119.875
120.163
120.494
120.86
121.236
121.554
121.608
120.647
115.356
88.3218
118.413
118.457
118.543
118.672
118.841
119.051
119.296
119.571
119.858
120.11
120.214
119.873
118.322
113.766
103.847
117.645
117.683
117.758
117.871
118.018
118.198
118.407
118.638
118.876
119.084
119.18
118.976
118.08
115.897
112.524
116.847
116.88
116.946
117.042
117.168
117.321
117.499
117.697
117.911
118.132
118.351
118.556
118.729
118.853
118.9
116.024
116.052
116.108
116.19
116.297
116.425
116.574
116.743
116.939
117.18
117.53
118.154
119.41
121.858
125.35
115.178
115.202
115.25
115.318
115.407
115.512
115.632
115.769
115.931
116.148
116.517
117.31
119.261
124.135
134.265
114.313
114.334
114.373
114.43
114.502
114.585
114.676
114.774
114.881
115.008
115.206
115.658
117.078
122.759
150.255
113.432
113.449
113.482
113.529
113.586
113.649
113.713
113.772
113.814
113.815
113.718
113.331
111.934
106.231
78.6649
112.536
112.551
112.578
112.617
112.662
112.709
112.751
112.778
112.772
112.689
112.426
111.703
109.778
104.884
94.6842
111.627
111.64
111.665
111.698
111.735
111.77
111.797
111.805
111.779
111.686
111.452
110.906
109.682
107.218
103.659
110.707
110.72
110.742
110.773
110.805
110.834
110.853
110.854
110.831
110.777
110.691
110.577
110.445
110.311
110.199
109.776
109.789
109.812
109.843
109.875
109.902
109.918
109.917
109.901
109.888
109.948
110.259
111.206
113.385
116.701
108.834
108.848
108.875
108.909
108.945
108.976
108.993
108.989
108.964
108.945
109.028
109.496
111.108
115.666
125.543
107.879
107.897
107.928
107.971
108.017
108.057
108.079
108.072
108.022
107.929
107.838
107.935
108.963
114.251
141.282
106.911
106.932
106.972
107.027
107.089
107.147
107.185
107.181
107.105
106.909
106.514
105.725
103.856
97.7338
70.1171
105.924
105.952
106.004
106.076
106.162
106.248
106.317
106.339
106.269
106.025
105.461
104.262
101.702
96.1403
85.5241
104.917
104.951
105.018
105.114
105.231
105.359
105.479
105.56
105.55
105.362
104.845
103.741
101.63
98.0545
93.595
103.883
103.926
104.01
104.133
104.29
104.472
104.665
104.84
104.952
104.924
104.636
103.916
102.572
100.58
98.6054
102.818
102.869
102.972
103.126
103.329
103.576
103.86
104.162
104.449
104.664
104.724
104.521
103.962
103.091
102.281
101.714
101.775
101.897
102.082
102.333
102.653
103.041
103.492
103.992
104.509
104.993
105.371
105.567
105.556
105.43
100.567
100.635
100.774
100.99
101.288
101.679
102.175
102.786
103.52
104.375
105.333
106.344
107.313
108.098
108.528
99.3691
99.4438
99.597
99.8367
100.175
100.631
101.226
101.992
102.961
104.168
105.634
107.343
109.185
110.885
111.959
98.1175
98.1956
98.3571
98.6124
98.9789
99.4819
100.157
101.054
102.235
103.777
105.764
108.247
111.154
114.102
116.173
96.8093
96.8873
97.0494
97.3084
97.685
98.211
98.9327
99.9163
101.255
103.075
105.546
108.853
113.09
117.925
121.861
95.4447
95.5184
95.6721
95.9199
96.2847
96.8017
97.524
98.5301
99.9367
101.919
104.746
108.811
114.609
122.37
130.318
94.0269
94.0915
94.2272
94.4477
94.7759
95.2474
95.9161
96.8636
98.2157
100.174
103.084
107.561
114.763
126.682
144.329
92.562
92.6131
92.7209
92.8981
93.1651
93.5538
94.1124
94.9139
96.0708
97.7666
100.329
104.418
111.639
127.012
170.631
-319.937
-236.896
-207.247
-193.011
-184.696
-179.274
-175.513
-172.809
-170.824
-169.355
-168.269
-167.481
-166.932
-166.585
-166.417
-270.356
-236.597
-213.511
-199.264
-190.133
-183.966
-179.62
-176.466
-174.136
-172.401
-171.112
-170.173
-169.516
-169.099
-168.897
-244.264
-228.881
-213.632
-201.962
-193.509
-187.389
-182.896
-179.549
-177.032
-175.133
-173.71
-172.664
-171.929
-171.462
-171.234
-228.899
-221.069
-211.265
-202.422
-195.262
-189.679
-185.372
-182.052
-179.495
-177.533
-176.043
-174.937
-174.155
-173.654
-173.41
-219.017
-214.623
-208.228
-201.709
-195.916
-191.08
-187.158
-184.023
-181.543
-179.601
-178.105
-176.982
-176.181
-175.666
-175.414
-212.233
-209.563
-205.272
-200.487
-195.904
-191.843
-188.394
-185.537
-183.214
-181.358
-179.904
-178.8
-178.006
-177.492
-177.24
-207.35
-205.624
-202.657
-199.121
-195.527
-192.178
-189.214
-186.676
-184.559
-182.831
-181.456
-180.4
-179.633
-179.133
-178.887
-203.711
-202.543
-200.433
-197.791
-194.977
-192.242
-189.733
-187.521
-185.63
-184.056
-182.784
-181.795
-181.071
-180.596
-180.361
-200.93
-200.112
-198.576
-196.577
-194.368
-192.145
-190.044
-188.141
-186.477
-185.068
-183.913
-183.004
-182.332
-181.889
-181.67
-198.763
-198.177
-197.036
-195.507
-193.765
-191.962
-190.212
-188.591
-187.146
-185.901
-184.866
-184.044
-183.431
-183.025
-182.822
-197.05
-196.622
-195.763
-194.581
-193.2
-191.738
-190.287
-188.916
-187.672
-186.584
-185.669
-184.934
-184.383
-184.015
-183.832
-195.679
-195.365
-194.71
-193.788
-192.69
-191.503
-190.303
-189.149
-188.086
-187.145
-186.344
-185.695
-185.204
-184.875
-184.711
-194.573
-194.342
-193.838
-193.115
-192.238
-191.274
-190.283
-189.316
-188.413
-187.604
-186.909
-186.341
-185.909
-185.618
-185.472
-193.673
-193.504
-193.116
-192.546
-191.843
-191.06
-190.243
-189.435
-188.672
-187.982
-187.383
-186.89
-186.513
-186.258
-186.129
-192.937
-192.815
-192.516
-192.066
-191.502
-190.865
-190.193
-189.52
-188.878
-188.292
-187.779
-187.355
-187.028
-186.806
-186.695
-192.332
-192.247
-192.016
-191.661
-191.209
-190.691
-190.139
-189.58
-189.042
-188.547
-188.111
-187.748
-187.467
-187.276
-187.179
-191.833
-191.776
-191.6
-191.32
-190.958
-190.538
-190.085
-189.623
-189.174
-188.758
-188.389
-188.08
-187.84
-187.677
-187.594
-191.419
-191.385
-191.252
-191.033
-190.744
-190.405
-190.035
-189.654
-189.281
-188.933
-188.623
-188.361
-188.158
-188.018
-187.947
-191.074
-191.059
-190.961
-190.791
-190.562
-190.289
-189.988
-189.675
-189.367
-189.077
-188.818
-188.599
-188.427
-188.309
-188.249
-190.787
-190.786
-190.717
-190.588
-190.407
-190.189
-189.946
-189.691
-189.437
-189.198
-188.983
-188.799
-188.655
-188.556
-188.506
-190.547
-190.558
-190.512
-190.416
-190.276
-190.103
-189.908
-189.702
-189.495
-189.299
-189.121
-188.969
-188.85
-188.767
-188.725
-190.345
-190.366
-190.339
-190.27
-190.164
-190.029
-189.875
-189.709
-189.542
-189.383
-189.238
-189.113
-189.015
-188.946
-188.911
-190.174
-190.204
-190.193
-190.146
-190.068
-189.966
-189.846
-189.715
-189.582
-189.454
-189.337
-189.236
-189.155
-189.1
-189.071
-190.03
-190.066
-190.069
-190.041
-189.986
-189.911
-189.82
-189.719
-189.615
-189.514
-189.421
-189.34
-189.276
-189.231
-189.207
-189.906
-189.948
-189.962
-189.951
-189.916
-189.864
-189.798
-189.722
-189.643
-189.565
-189.493
-189.43
-189.379
-189.343
-189.325
-189.799
-189.847
-189.87
-189.873
-189.856
-189.823
-189.778
-189.725
-189.667
-189.609
-189.555
-189.507
-189.468
-189.441
-189.427
-189.706
-189.758
-189.79
-189.805
-189.803
-189.787
-189.761
-189.727
-189.688
-189.648
-189.61
-189.575
-189.546
-189.526
-189.516
-189.624
-189.679
-189.719
-189.744
-189.756
-189.756
-189.746
-189.729
-189.706
-189.682
-189.658
-189.635
-189.616