/*--------------------------------*- C++ -*----------------------------------*\
| =========                 |                                                 |
| \\      /  F ield         | OpenFOAM: The Open Source CFD Toolbox           |
|  \\    /   O peration     | Version:  5.x                                   |
|   \\  /    A nd           | Web:      www.OpenFOAM.org                      |
|    \\/     M anipulation  |                                                 |
\*---------------------------------------------------------------------------*/
FoamFile
{
    version     2.0;
    format      ascii;
    class       volScalarField;
    location    "13";
    object      T;
}
// * * * * * * * * * * * * * * * * * * * * * * * * * * * * * * * * * * * * * //

dimensions      [0 0 0 1 0 0 0];

internalField   nonuniform List<scalar> 
6300
(
10.2193
10.6573
11.0933
11.526
11.9541
12.3764
12.7914
13.198
13.5948
13.9807
14.3544
14.715
15.0614
15.3929
15.7088
10.22
10.6592
11.0965
11.5305
11.96
12.3835
12.7998
13.2076
13.6056
13.9926
14.3674
14.7289
15.0762
15.4082
15.7245
10.2213
10.6631
11.103
11.5396
11.9716
12.3977
12.8165
13.2268
13.6273
14.0166
14.3936
14.757
15.1058
15.4391
15.7563
10.2232
10.6689
11.1127
11.5532
11.989
12.419
12.8417
13.2558
13.6599
14.0528
14.433
14.7994
15.1507
15.486
15.8044
10.2258
10.6767
11.1256
11.5713
12.0123
12.4475
12.8754
13.2946
13.7037
14.1014
14.4861
14.8566
15.2114
15.5495
15.8698
10.229
10.6863
11.1417
11.5939
12.0415
12.4832
12.9176
13.3433
13.7588
14.1627
14.5533
14.9292
15.2887
15.6305
15.9533
10.2328
10.6979
11.161
11.621
12.0764
12.526
12.9683
13.402
13.8254
14.2371
14.6352
15.0179
15.3835
15.7302
16.0564
10.2373
10.7114
11.1835
11.6525
12.1171
12.576
13.0277
13.4708
13.9037
14.3248
14.7321
15.1236
15.4971
15.8502
16.181
10.2424
10.7267
11.2091
11.6884
12.1635
12.6329
13.0954
13.5495
13.9937
14.426
14.8446
15.2471
15.6307
15.9924
16.3293
10.2481
10.7438
11.2377
11.7286
12.2154
12.6968
13.1715
13.6381
14.0952
14.5409
14.9731
15.3892
15.7859
16.1592
16.5047
10.2544
10.7626
11.2691
11.7728
12.2726
12.7672
13.2555
13.7362
14.2079
14.669
15.1174
15.5504
15.9642
16.3535
16.7116
10.2612
10.7831
11.3034
11.8209
12.3348
12.8438
13.3469
13.843
14.3311
14.8096
15.277
15.7307
16.1667
16.5785
16.9561
10.2686
10.8052
11.3402
11.8727
12.4017
12.9261
13.4451
13.9579
14.4635
14.9612
15.45
15.9284
16.3932
16.8375
17.2471
10.2764
10.8287
11.3796
11.928
12.473
13.0138
13.5495
14.0796
14.6036
15.1214
15.6333
16.1395
16.64
17.1308
17.5969
10.2848
10.8538
11.4214
11.9866
12.5485
13.1064
13.6594
14.2073
14.7498
15.2874
15.8219
16.3562
16.8959
17.4487
18.0172
15.9837
16.2224
16.4499
16.6662
16.8718
17.0668
17.2517
17.427
17.5934
17.7514
17.9017
18.0451
18.1823
18.314
18.441
18.564
18.6837
18.8009
18.9163
19.0305
19.1441
19.2578
19.3722
19.4877
19.6048
19.7241
19.8457
19.97
20.0972
20.2274
20.3607
20.4972
20.6366
20.7789
20.924
21.0716
21.2214
21.3732
21.5265
21.6811
21.8364
21.9921
22.1476
22.3023
22.4559
22.6076
22.7571
22.9038
23.0473
23.1872
23.3229
23.4541
23.5803
23.7011
23.816
23.9246
24.0262
24.1204
24.2065
24.284
24.3523
24.4107
24.4587
24.4954
24.5203
24.5325
24.5312
24.5155
24.4843
24.4365
24.371
24.2865
24.1816
24.0549
23.9048
23.7299
23.5284
23.2989
23.0395
22.7487
22.4247
22.0659
21.6709
21.2381
20.7663
20.2545
19.702
19.1082
18.4732
17.797
15.9996
16.2383
16.4656
16.6816
16.8866
17.081
17.2651
17.4396
17.605
17.7621
17.9114
18.0537
18.1898
18.3205
18.4464
18.5683
18.687
18.8032
18.9176
19.0308
19.1436
19.2565
19.3701
19.4849
19.6015
19.7202
19.8414
19.9654
20.0924
20.2225
20.3558
20.4924
20.632
20.7746
20.9199
21.0679
21.2181
21.3704
21.5243
21.6795
21.8355
21.9919
22.1481
22.3036
22.4579
22.6104
22.7605
22.9079
23.0521
23.1925
23.3288
23.4606
23.5875
23.709
23.8247
23.9339
24.0364
24.1314
24.2183
24.2967
24.3659
24.4252
24.4741
24.512
24.538
24.5514
24.5514
24.5371
24.5075
24.4615
24.3978
24.3153
24.2124
24.0878
23.94
23.7674
23.5684
23.3412
23.0843
22.7958
22.4742
22.1176
21.7246
21.2937
20.8234
20.3127
19.7609
19.1673
18.5318
17.8548
16.0317
16.2703
16.4972
16.7125
16.9165
17.1096
17.2922
17.465
17.6285
17.7835
17.9307
18.0709
18.2049
18.3334
18.4571
18.5769
18.6936
18.8077
18.9202
19.0315
19.1425
19.2537
19.3658
19.4792
19.5946
19.7123
19.8326
19.956
20.0826
20.2126
20.3459
20.4826
20.6226
20.7657
20.9117
21.0604
21.2115
21.3647
21.5198
21.6762
21.8335
21.9913
22.1491
22.3061
22.4619
22.6159
22.7675
22.9162
23.0616
23.2032
23.3407
23.4738
23.6019
23.7247
23.8418
23.9526
24.0566
24.1533
24.2419
24.322
24.393
24.4542
24.505
24.5449
24.5731
24.5889
24.5916
24.5802
24.5538
24.5112
24.4512
24.3726
24.2739
24.1537
24.0104
23.8424
23.6481
23.4258
23.1738
22.8902
22.5733
22.2214
21.8326
21.4053
20.9381
20.4298
19.8793
19.2861
18.6499
17.971
16.0804
16.3189
16.5452
16.7594
16.9619
17.1529
17.3332
17.5032
17.6639
17.8158
17.9599
18.0968
18.2275
18.3527
18.4732
18.5898
18.7033
18.8144
18.9238
19.0324
19.1407
19.2494
19.3591
19.4705
19.5839
19.7
19.8192
19.9416
20.0676
20.1973
20.3307
20.4677
20.6083
20.7522
20.8991
21.0489
21.2013
21.356
21.5127
21.671
21.8304
21.9904
22.1505
22.3099
22.4681
22.6243
22.778
22.9287
23.0759
23.2193
23.3586
23.4934
23.6234
23.7482
23.8674
23.9805
24.087
24.1861
24.2773
24.36
24.4335
24.4974
24.5511
24.5939
24.6254
24.6448
24.6514
24.6444
24.6227
24.5853
24.5309
24.4582
24.3658
24.2522
24.1157
23.9547
23.7677
23.5527
23.3081
23.032
22.7225
22.3775
21.9953
21.5739
21.1116
20.607
20.0588
19.4663
18.8291
18.1474
16.1464
16.3849
16.6104
16.8231
17.0232
17.2115
17.3884
17.5548
17.7115
17.8592
17.9989
18.1314
18.2576
18.3784
18.4945
18.6067
18.716
18.823
18.9285
19.0332
19.1379
19.2431
19.3497
19.4582
19.5691
19.6831
19.8005
19.9216
20.0469
20.1762
20.3098
20.4473
20.5887
20.7337
20.882
21.0333
21.1874
21.344
21.5029
21.6636
21.8259
21.989
22.1523
22.315
22.4765
22.6358
22.7923
22.9456
23.0952
23.2408
23.3823
23.5193
23.6517
23.7792
23.9013
24.0175
24.1272
24.2297
24.3243
24.4104
24.4874
24.5548
24.6121
24.6588
24.6944
24.7185
24.7302
24.729
24.7137
24.6832
24.6364
24.5717
24.4877
24.3829
24.2555
24.104
23.9267
23.7218
23.4873
23.2214
22.922
22.5868
22.2138
21.8008
21.3456
20.8464
20.3017
19.7103
19.0718
18.3863
16.231
16.4694
16.6938
16.9043
17.1015
17.286
17.4586
17.6201
17.7715
17.9138
18.0479
18.1747
18.2952
18.4103
18.5209
18.6277
18.7316
18.8334
18.9338
19.0337
19.1337
19.2346
19.3371
19.4419
19.5495
19.6607
19.7759
19.8954
20.0197
20.1488
20.2826
20.421
20.5636
20.71
20.86
21.0131
21.1693
21.3282
21.4898
21.6537
21.8196
21.9867
22.1544
22.3216
22.4873
22.6507
22.8108
22.9673
23.1197
23.2678
23.4117
23.5513
23.6866
23.8173
23.943
24.0632
24.1771
24.284
24.383
24.4734
24.5546
24.6261
24.6877
24.7389
24.7796
24.8092
24.8273
24.8331
24.8258
24.8042
24.7668
24.7123
24.639
24.5453
24.4295
24.29
24.1249
23.9327
23.7112
23.4585
23.1722
22.8501
22.4895
22.0878
21.6424
21.1509
20.6112
20.0218
19.3819
18.6914
16.3355
16.5739
16.7968
17.0045
17.1978
17.3774
17.5443
17.6996
17.8444
17.9798
18.1069
18.2268
18.3403
18.4485
18.5523
18.6524
18.7499
18.8453
18.9397
19.0336
19.1279
19.2234
19.3209
19.421
19.5245
19.6321
19.7445
19.8621
19.9852
20.114
20.2484
20.388
20.5324
20.6808
20.8329
20.9882
21.1467
21.3082
21.4729
21.6405
21.8108
21.9832
22.1566
22.3297
22.5011
22.6696
22.8342
22.9943
23.1496
23.3004
23.4467
23.589
23.7274
23.8619
23.9921
24.1174
24.2367
24.3491
24.4534
24.5489
24.635
24.7112
24.7775
24.8338
24.8799
24.9159
24.9413
24.9556
24.9579
24.947
24.9214
24.8794
24.8191
24.739
24.6371
24.512
24.3618
24.185
23.9794
23.7432
23.4736
23.1682
22.8238
22.4372
22.005
21.5242
20.9917
20.4055
19.7642
19.0676
16.462
16.7002
16.9212
17.1253
17.3134
17.4867
17.6464
17.7939
17.9305
18.0575
18.1761
18.2875
18.3927
18.4927
18.5885
18.6808
18.7705
18.8586
18.9456
19.0325
19.1201
19.2091
19.3004
19.3948
19.4931
19.5964
19.7052
19.8202
19.942
20.0708
20.2063
20.3479
20.4948
20.646
20.8006
20.9584
21.1192
21.2833
21.4511
21.6229
21.7987
21.9777
22.1587
22.3397
22.5186
22.6937
22.8635
23.0275
23.1857
23.3386
23.487
23.6318
23.7734
23.9122
24.0478
24.1794
24.3057
24.425
24.536
24.6375
24.7289
24.8101
24.8812
24.9425
24.9944
25.0371
25.0707
25.0948
25.1085
25.1105
25.099
25.072
25.0273
24.9631
24.8776
24.7693
24.6366
24.4779
24.2914
24.0751
23.8262
23.5418
23.2183
22.8515
22.4373
21.9711
21.4492
20.8681
20.2257
19.5215
16.6131
16.8512
17.0696
17.2688
17.4501
17.6152
17.7658
17.9035
18.03
18.1469
18.2554
18.3568
18.4522
18.5427
18.6292
18.7124
18.7934
18.8728
18.9514
19.0301
19.1097
19.191
19.2749
19.3624
19.4544
19.5521
19.6564
19.7683
19.8885
20.0174
20.1548
20.2997
20.4506
20.6056
20.7635
20.9237
21.0864
21.2524
21.423
21.5992
21.7814
21.969
22.1602
22.3521
22.5413
22.7247
22.9006
23.0684
23.2287
23.3828
23.5321
23.6784
23.8229
23.9663
24.1086
24.2486
24.384
24.5125
24.6316
24.74
24.837
24.9229
24.9983
25.0641
25.1214
25.1709
25.2132
25.2482
25.2752
25.2927
25.2984
25.2894
25.2631
25.2173
25.1505
25.0611
24.9481
24.8102
24.6459
24.4531
24.2294
23.9712
23.6744
23.3338
22.9436
22.498
21.9912
21.4183
20.7758
20.0623
16.7924
17.0305
17.2451
17.4376
17.6099
17.7643
17.9033
18.0289
18.1432
18.2479
18.3445
18.4344
18.5186
18.5981
18.674
18.7471
18.818
18.8877
18.9568
19.0261
19.0965
19.1688
19.244
19.3231
19.4073
19.4978
19.5962
19.7039
19.822
19.9514
20.0921
20.2425
20.3999
20.5608
20.7227
20.8849
21.0482
21.2146
21.3865
21.5663
21.7557
21.9544
22.1602
22.368
22.5716
22.766
22.9487
23.1197
23.2803
23.4332
23.5811
23.727
23.8733
24.0216
24.1722
24.3235
24.4719
24.6127
24.7421
24.8581
24.9605
25.0501
25.1285
25.1975
25.2589
25.3145
25.3655
25.4125
25.4551
25.4914
25.5181
25.531
25.5262
25.5014
25.455
25.3863
25.2949
25.18
25.0406
24.8753
24.6814
24.4557
24.1929
23.8867
23.5293
23.1124
22.6279
22.0682
21.4274
20.7028
17.0052
17.2431
17.4524
17.6352
17.7951
17.9354
18.0596
18.1702
18.2698
18.3602
18.443
18.5196
18.5911
18.6585
18.7226
18.7843
18.8441
18.9029
18.9614
19.0202
19.0801
19.1421
19.207
19.276
19.3504
19.4319
19.5224
19.624
19.7388
19.8689
20.0148
20.1748
20.3436
20.5139
20.681
20.844
21.0051
21.1682
21.3381
21.5193
21.7159
21.9293
22.1567
22.3894
22.6146
22.8236
23.0133
23.1851
23.3425
23.4901
23.6325
23.7745
23.9202
24.073
24.2343
24.4021
24.5701
24.7287
24.8712
24.9953
25.1018
25.1929
25.2716
25.3411
25.4043
25.464
25.5228
25.5824
25.6433
25.7034
25.7572
25.7972
25.8176
25.8157
25.791
25.7438
25.6747
25.5842
25.4722
25.3377
25.179
24.9927
24.7734
24.5128
24.2
23.8237
23.3723
22.8342
22.1993
21.4613
17.2594
17.4968
17.6972
17.8656
18.008
18.1296
18.2349
18.3272
18.4092
18.483
18.5502
18.6119
18.6693
18.7232
18.7745
18.8237
18.8714
18.9184
18.9651
19.0123
19.0605
19.1107
19.1637
19.2206
19.283
19.3527
19.4322
19.5244
19.6334
19.7631
19.9168
20.0938
20.2849
20.4714
20.6447
20.8054
20.9587
21.1118
21.2727
21.4498
21.6514
21.8835
22.1451
22.421
22.6806
22.9084
23.1033
23.2707
23.4183
23.5537
23.684
23.8159
23.9563
24.1116
24.2863
24.48
24.6812
24.8672
25.0263
25.1574
25.2645
25.3528
25.4274
25.4931
25.554
25.6143
25.6783
25.7499
25.832
25.9236
26.0157
26.0911
26.1405
26.1624
26.1587
26.132
26.0849
26.019
25.9353
25.8344
25.7155
25.5767
25.4128
25.2133
24.9617
24.6426
24.2407
23.739
23.1192
22.366
17.5684
17.8034
17.9878
18.1333
18.2504
18.3469
18.4284
18.4986
18.5602
18.6151
18.6647
18.71
18.7521
18.7915
18.8288
18.8647
18.8995
18.9337
18.9678
19.0023
19.0378
19.0748
19.1142
19.1571
19.2047
19.2591
19.323
19.4005
19.4975
19.6223
19.7849
19.9923
20.2321
20.4473
20.6261
20.7769
20.912
21.0436
21.1835
21.3446
21.5425
21.7945
22.1123
22.4757
22.7917
23.0401
23.232
23.3843
23.5112
23.6242
23.7324
23.8446
23.9705
24.1214
24.3105
24.5462
24.8138
25.0437
25.2209
25.3535
25.4536
25.5317
25.5956
25.6513
25.7039
25.7588
25.8221
25.9017
26.0065
26.1423
26.2977
26.4216
26.5023
26.5453
26.5586
26.5491
26.5213
26.4785
26.4228
26.3562
26.2802
26.1962
26.1026
25.9882
25.82
25.5801
25.2523
24.8135
24.2305
23.4647
17.9591
18.1828
18.334
18.4414
18.522
18.5856
18.6379
18.6821
18.7204
18.7543
18.7848
18.8126
18.8383
18.8623
18.885
18.9068
18.928
18.9488
18.9696
18.9906
19.0123
19.0351
19.0594
19.0862
19.1163
19.1514
19.1939
19.2481
19.3212
19.4266
19.5882
19.8436
20.2145
20.475
20.6475
20.7705
20.87
20.9631
21.0632
21.186
21.3551
21.6105
22.0131
22.5982
22.9997
23.2525
23.4174
23.5337
23.6238
23.7009
23.7745
23.8532
23.9478
24.0758
24.2668
24.5661
25
25.2956
25.4791
25.5955
25.6739
25.7306
25.775
25.8131
25.8499
25.8904
25.9419
26.0166
26.1357
26.3321
26.6244
26.8135
26.9179
26.9701
26.9909
26.9918
26.9789
26.9559
26.9255
26.8907
26.8558
26.8288
26.822
26.8396
26.7811
26.6436
26.423
26.0949
25.6044
24.8535
18.5014
18.6661
18.7431
18.7875
18.8177
18.8404
18.8585
18.8737
18.8867
18.8982
18.9085
18.9178
18.9265
18.9345
18.9422
18.9495
18.9566
18.9636
18.9705
18.9776
18.9849
18.9926
19.0009
19.01
19.0203
19.0325
19.0477
19.068
19.098
19.1494
19.2561
19.5282
20.3553
20.6292
20.7397
20.7974
20.837
20.8718
20.9097
20.9602
21.0431
21.2139
21.6508
22.9846
23.4211
23.5909
23.6723
23.7203
23.7543
23.7822
23.8087
23.838
23.8766
23.939
24.0664
24.3917
25.3845
25.7085
25.8333
25.8918
25.9247
25.9464
25.9626
25.9764
25.9898
26.0054
26.0276
26.0669
26.1531
26.383
27.0992
27.3266
27.4078
27.4395
27.4513
27.4535
27.4502
27.4432
27.434
27.4245
27.4193
27.4315
27.5055
27.8001
27.8552
27.8261
27.7476
27.6097
27.3527
26.7819
17.0088
16.0924
15.1218
14.1003
13.0313
11.9189
10.7672
9.5807
8.36361
7.12033
5.85512
4.57216
3.27551
1.96916
0.65703
17.065
16.1461
15.1724
14.1473
13.0744
11.9578
10.8019
9.61099
8.3896
7.14208
5.87273
4.58572
3.28513
1.9749
0.658938
17.178
16.2541
15.2742
14.2418
13.1609
12.0358
10.8712
9.67155
8.44149
7.18548
5.90784
4.61276
3.30429
1.98634
0.662737
17.3493
16.4177
15.4281
14.3844
13.2912
12.1531
10.9752
9.7623
8.51913
7.25032
5.96024
4.65308
3.33284
2.00337
0.668396
17.5813
16.6388
15.6356
14.5762
13.4659
12.31
11.114
9.88303
8.62221
7.33625
6.02958
4.70637
3.37054
2.02584
0.675862
17.8772
16.9202
15.8988
14.8187
13.6859
12.5068
11.2873
10.0334
8.75021
7.4427
6.11531
4.77216
3.41704
2.05353
0.685059
18.2415
17.2655
16.2204
15.1134
13.952
12.7435
11.495
10.2127
8.90232
7.56884
6.21667
4.84979
3.47184
2.08615
0.695885
18.6801
17.6794
16.6036
15.4622
14.2647
13.0199
11.736
10.4198
9.07733
7.71346
6.33257
4.93839
3.53428
2.12328
0.708206
19.201
18.1678
17.0521
15.8668
14.6242
13.3352
12.009
10.6531
9.27344
7.87493
6.46159
5.03681
3.60354
2.16442
0.72185
19.8152
18.7383
17.5699
16.3282
15.0296
13.6873
12.3115
10.9098
9.48818
8.05103
6.60188
5.14359
3.67858
2.20895
0.736611
20.5374
19.3997
18.1604
16.8462
15.4784
14.0726
12.6395
11.1863
9.71819
8.23891
6.75114
5.25697
3.75814
2.25612
0.752244
21.3889
20.1624
18.8252
17.4172
15.965
14.485
12.9871
11.4773
9.95918
8.43509
6.90662
5.37489
3.8408
2.3051
0.76847
22.4002
21.0354
19.5605
18.032
16.4789
14.9148
13.3464
11.7763
10.2059
8.63545
7.06517
5.49503
3.92497
2.35497
0.784987
23.6147
22.0177
20.3489
18.6711
17.0032
15.3488
13.7069
12.0755
10.4523
8.83544
7.22341
5.61494
4.009
2.40475
0.801479
25.0743
23.0714
21.1456
19.2998
17.5135
15.7698
14.0567
12.3661
10.6921
9.0304
7.37792
5.73218
4.09124
2.45351
0.817636
10.2928
10.878
11.4618
12.0432
12.6214
13.1955
13.7648
14.329
14.8879
15.4424
15.9946
16.5496
17.1183
17.7255
18.4392
10.3005
10.901
11.5001
12.0968
12.6903
13.2797
13.8642
14.4432
15.0165
15.5846
16.1495
16.7157
17.2935
17.9028
18.5799
10.3085
10.9249
11.5399
12.1526
12.762
13.3672
13.9672
14.5612
15.1485
15.7289
16.3032
16.8737
17.4465
18.0328
18.6477
10.3167
10.9498
11.5814
12.2107
12.8366
13.4582
14.0743
14.6837
15.2852
15.8774
16.4592
17.0299
17.59
18.1426
18.6936
10.3254
10.9756
11.6245
12.271
12.9142
13.5529
14.1859
14.8116
15.4281
16.033
16.6228
17.1932
17.7385
18.2532
18.7371
10.3343
11.0024
11.6691
12.3336
12.9948
13.6515
14.3024
14.9456
15.5789
16.1987
16.7998
17.3738
17.9079
18.3849
18.7918
10.3435
11.03
11.7153
12.3984
13.0784
13.7541
14.424
15.0865
15.7389
16.3773
16.9954
17.5819
18.1167
18.5652
18.8803
10.353
11.0585
11.7629
12.4653
13.1649
13.8604
14.5508
15.2343
15.9085
16.5699
17.2126
17.8256
18.3852
18.8378
19.0617
10.3627
11.0878
11.8118
12.5342
13.254
13.9704
14.6822
15.3882
16.0867
16.7753
17.4504
18.106
18.7278
19.2689
19.5247
10.3727
11.1177
11.8619
12.6047
13.3454
14.0833
14.8176
15.5473
16.2716
16.9897
17.7015
18.4098
19.1262
19.8978
20.9344
10.3828
11.1482
11.9129
12.6766
13.4386
14.1986
14.9559
15.71
16.4607
17.2083
17.9549
18.7075
19.4859
20.3424
21.4028
10.3931
11.1791
11.9647
12.7495
13.5333
14.3156
15.0963
15.875
16.6518
17.4273
18.2039
18.9872
19.7912
20.6452
21.5968
10.4035
11.2103
12.0169
12.8231
13.6288
14.4337
15.2378
16.0411
16.8435
17.6455
18.4478
19.2522
20.0615
20.8798
21.7104
10.4139
11.2416
12.0693
12.897
13.7246
14.5522
15.3799
16.2076
17.0354
17.8632
18.6901
19.5135
20.3253
21.1054
21.8175
10.4243
11.2729
12.1217
12.9708
13.8204
14.6706
15.5217
16.3738
17.227
18.0811
18.9347
19.7827
20.6107
21.3779
21.9845
10.4346
11.304
12.1738
13.0442
13.9156
14.7883
15.6627
16.5391
17.4179
18.2993
19.1828
20.0656
20.9379
21.7617
22.3698
10.4449
11.3348
12.2254
13.1169
14.0099
14.9047
15.802
16.7024
17.6067
18.5158
19.431
20.3555
21.2983
22.295
23.5097
10.455
11.3652
12.2762
13.1885
14.1026
15.0192
15.9391
16.863
17.792
18.7277
19.6726
20.6324
21.6211
22.6766
23.8947
10.4649
11.3951
12.3261
13.2587
14.1936
15.1314
16.0731
17.0197
17.9724
18.933
19.9037
20.8889
21.897
22.945
24.0619
10.4746
11.4242
12.3748
13.3273
14.2823
15.2407
16.2036
17.172
18.1473
19.1309
20.1244
21.1292
22.1448
23.1653
24.1732
10.4841
11.4526
12.4223
13.394
14.3685
15.3468
16.3301
17.3193
18.3161
19.3216
20.337
21.3616
22.3888
23.3939
24.3077
10.4932
11.4801
12.4683
13.4586
14.4519
15.4494
16.4521
17.4613
18.4785
19.5052
20.5429
21.592
22.6478
23.6854
24.5864
10.5021
11.5067
12.5127
13.521
14.5324
15.5482
16.5695
17.5975
18.634
19.6809
20.7407
21.8173
22.919
24.0716
25.3879
10.5106
11.5324
12.5555
13.581
14.6098
15.643
16.6819
17.7277
18.7822
19.8474
20.9265
22.0249
23.1545
24.3435
25.6582
10.5189
11.557
12.5966
13.6386
14.684
15.7338
16.7893
17.8517
18.9226
20.0039
21.0984
22.2106
23.3485
24.5277
25.7718
10.5267
11.5807
12.636
13.6938
14.7549
15.8205
16.8916
17.9695
19.0555
20.1511
21.2579
22.3779
23.5134
24.6665
25.8374
10.5343
11.6033
12.6737
13.7465
14.8226
15.9031
16.9891
18.0815
19.1815
20.2901
21.4079
22.5342
23.6656
24.7924
25.8953
10.5415
11.6248
12.7096
13.7968
14.8872
15.9819
17.0818
18.188
19.3013
20.4225
21.5516
22.6866
23.8208
24.9344
25.9787
10.5483
11.6454
12.7439
13.8446
14.9486
16.0568
17.17
18.2893
19.4155
20.5492
21.6908
22.8392
23.9898
25.1242
26.1624
10.5548
11.665
12.7765
13.8902
15.0071
16.128
17.2539
18.3856
19.5241
20.6701
21.8249
22.9899
24.1697
25.3804
26.6977
10.561
11.6836
12.8074
13.9334
15.0626
16.1956
17.3335
18.477
19.6271
20.7848
21.9515
23.1301
24.3276
25.5622
26.8785
10.5669
11.7012
12.8367
13.9745
15.1152
16.2597
17.4089
18.5636
19.7246
20.8928
22.0695
23.2568
24.4594
25.6869
26.9551
10.5725
11.7179
12.8645
14.0133
15.165
16.3204
17.4804
18.6456
19.8169
20.9947
22.1798
23.3725
24.5735
25.783
27.0004
10.5777
11.7336
12.8908
14.05
15.212
16.3778
17.548
18.7232
19.9042
21.0913
22.2843
23.4822
24.6813
25.8732
27.0425
10.5827
11.7485
12.9155
14.0845
15.2564
16.4319
17.6118
18.7967
19.9871
21.1834
22.3852
23.5906
24.7938
25.9786
27.1061
10.5873
11.7624
12.9387
14.117
15.2982
16.4829
17.6719
18.866
20.0657
21.2714
22.4833
23.7003
24.9186
26.1233
27.2505
10.5917
11.7755
12.9605
14.1475
15.3373
16.5306
17.7284
18.9311
20.1397
21.3549
22.5774
23.8087
25.0524
26.3215
27.6764
10.5957
11.7876
12.9807
14.1758
15.3737
16.5752
17.7811
18.992
20.209
21.4329
22.6651
23.9082
25.1681
26.4597
27.8184
10.5995
11.7989
12.9995
14.2022
15.4076
16.6166
17.83
19.0486
20.2731
21.5048
22.7448
23.9956
25.2615
26.5509
27.8764
10.603
11.8093
13.0169
14.2264
15.4388
16.6548
17.8751
19.1006
20.3322
21.5705
22.8168
24.0721
25.3381
26.6166
27.9081
10.6061
11.8188
13.0327
14.2486
15.4674
16.6897
17.9165
19.1483
20.3861
21.6305
22.8821
24.1408
25.4057
26.6728
27.934
10.609
11.8274
13.0471
14.2688
15.4933
16.7215
17.954
19.1917
20.4353
21.6853
22.942
24.2049
25.4712
26.7327
27.9688
10.6116
11.8352
13.06
14.2869
15.5166
16.75
17.9877
19.2307
20.4796
21.7351
22.9973
24.2662
25.5397
26.8099
28.0434
10.6139
11.842
13.0714
14.3029
15.5372
16.7752
18.0177
19.2654
20.5192
21.7797
23.0477
24.3239
25.6101
26.9121
28.2595
10.6158
11.8479
13.0813
14.3167
15.5551
16.7971
18.0437
19.2957
20.5538
21.819
23.092
24.3744
25.669
26.9824
28.3316
10.6175
11.853
13.0897
14.3285
15.5702
16.8158
18.0659
19.3215
20.5833
21.8524
23.1295
24.4162
25.7143
27.0275
28.3607
10.6189
11.8571
13.0965
14.3381
15.5826
16.831
18.084
19.3426
20.6076
21.8798
23.1601
24.4495
25.7488
27.0582
28.3762
10.6199
11.8602
13.1018
14.3455
15.5922
16.8428
18.0981
19.3591
20.6265
21.9012
23.1841
24.4757
25.7758
27.0825
28.3893
10.6207
11.8624
13.1055
14.3507
15.599
16.8512
18.1081
19.3708
20.64
21.9168
23.2017
24.4955
25.7978
27.1062
28.4104
10.6211
11.8637
13.1076
14.3538
15.6029
16.856
18.114
19.3777
20.6481
21.9263
23.2129
24.509
25.8151
27.1324
28.4668
10.6212
11.8641
13.1082
14.3545
15.6039
16.8573
18.1156
19.3797
20.6506
21.9295
23.2173
24.5152
25.8243
27.1463
28.4839
10.621
11.8634
13.1072
14.3531
15.6021
16.855
18.1129
19.3767
20.6474
21.9262
23.2143
24.5131
25.8242
27.149
28.4879
10.6205
11.8619
13.1045
14.3494
15.5973
16.8492
18.1059
19.3686
20.6383
21.9161
23.2035
24.5021
25.8141
27.1416
28.4852
10.6196
11.8594
13.1003
14.3435
15.5896
16.8397
18.0947
19.3555
20.6232
21.8991
23.1846
24.4816
25.7928
27.1224
28.4753
10.6185
11.8559
13.0946
14.3354
15.5791
16.8267
18.0791
19.3373
20.6022
21.8752
23.1574
24.4508
25.7583
27.0867
28.4509
10.617
11.8516
13.0873
14.3251
15.5658
16.8102
18.0594
19.3141
20.5755
21.8445
23.1221
24.4097
25.709
27.0257
28.3862
10.6153
11.8463
13.0785
14.3127
15.5497
16.7903
18.0355
19.2861
20.5431
21.8074
23.0797
24.3601
25.6472
26.9338
28.1885
10.6133
11.8402
13.0682
14.2982
15.5309
16.7671
18.0077
19.2535
20.5055
21.7645
23.0312
24.3056
25.5855
26.8635
28.1202
10.6109
11.8332
13.0566
14.2817
15.5095
16.7406
17.976
19.2163
20.4627
21.716
22.9772
24.2469
25.5247
26.8075
28.0878
10.6084
11.8254
13.0436
14.2634
15.4857
16.7111
17.9405
19.1748
20.4148
21.6617
22.9168
24.1821
25.4599
26.753
28.0625
10.6055
11.8169
13.0293
14.2432
15.4595
16.6787
17.9016
19.129
20.3618
21.6013
22.8492
24.1084
25.3842
26.6865
28.0298
10.6025
11.8077
13.0138
14.2214
15.4311
16.6435
17.8593
19.0792
20.304
21.5349
22.7734
24.0227
25.2896
26.5913
27.9674
10.5992
11.7978
12.9972
14.198
15.4007
16.6058
17.814
19.0258
20.2418
21.4628
22.6898
23.9243
25.1707
26.4438
27.8115
10.5957
11.7873
12.9796
14.1732
15.3685
16.5659
17.766
18.9691
20.1759
21.3864
22.6006
23.8174
25.0327
26.2304
27.3399
10.592
11.7763
12.9611
14.1471
15.3346
16.5239
17.7156
18.9099
20.107
21.307
22.5092
23.7113
24.9067
26.0777
27.182
10.5882
11.7647
12.9418
14.1199
15.2992
16.4802
17.6632
18.8484
20.036
21.2259
22.4176
23.6095
24.7971
25.9711
27.1151
10.5842
11.7527
12.9218
14.0917
15.2626
16.435
17.6091
18.785
19.963
21.1432
22.3257
23.5103
24.6968
25.8848
27.0738
10.5801
11.7404
12.9011
14.0626
15.2249
16.3885
17.5534
18.72
19.8883
21.0587
22.2319
23.4093
24.595
25.7975
27.0321
10.5759
11.7277
12.8799
14.0327
15.1863
16.3408
17.4965
18.6535
19.8119
20.9721
22.1348
23.3024
24.481
25.6876
26.9637
10.5715
11.7147
12.8582
14.0022
15.1468
16.2922
17.4385
18.5857
19.734
20.8834
22.0342
23.1875
24.3473
25.5291
26.8025
10.5671
11.7015
12.8361
13.9711
15.1067
16.2429
17.3797
18.5171
19.6551
20.7934
21.9314
23.0677
24.198
25.3064
26.3227
10.5627
11.6881
12.8137
13.9396
15.066
16.1929
17.3202
18.4479
19.5758
20.7033
21.8295
22.9519
24.0636
25.1474
26.1613
10.5581
11.6744
12.7909
13.9077
15.0249
16.1424
17.2603
18.3784
19.4964
20.6139
21.7301
22.843
23.9482
25.0366
26.0926
10.5535
11.6606
12.7679
13.8755
14.9834
16.0916
17.2
18.3086
19.4171
20.5252
21.6327
22.7391
23.8442
24.948
26.0504
10.5489
11.6467
12.7446
13.8429
14.9415
16.0404
17.1395
18.2388
19.3379
20.4368
21.5356
22.6357
23.7408
24.8599
26.0085
10.5442
11.6325
12.7211
13.81
14.8993
15.9889
17.0788
18.1688
19.2586
20.3481
21.4375
22.5286
23.6274
24.7508
25.9407
10.5394
11.6182
12.6973
13.7768
14.8567
15.9371
17.0179
18.0987
19.1793
20.2591
21.3379
22.4159
23.4966
24.5951
25.7816
10.5345
11.6037
12.6732
13.7431
14.8137
15.8849
16.9567
18.0286
19.1003
20.1707
21.2385
22.301
23.353
24.3781
25.3076
10.5296
11.5889
12.6486
13.709
14.7701
15.8322
16.8951
17.9586
19.0219
20.0839
21.1424
22.1931
23.2276
24.2272
25.1504
10.5245
11.5738
12.6236
13.6742
14.7258
15.7788
16.833
17.8884
18.9442
19.9994
21.0514
22.0963
23.1263
24.1289
25.0874
10.5194
11.5583
12.5979
13.6385
14.6805
15.7243
16.77
17.8176
18.8668
19.9166
20.9653
22.0094
23.0436
24.0608
25.0552
10.514
11.5423
12.5714
13.6018
14.6339
15.6684
16.7055
17.7456
18.7887
19.8345
20.882
21.929
22.9724
24.0083
25.0342
10.5085
11.5258
12.544
13.5637
14.5856
15.6104
16.6387
17.6712
18.7085
19.751
20.7987
21.8509
22.9061
23.9623
25.0173
10.5027
11.5086
12.5155
13.5241
14.5352
15.5498
16.5688
17.5933
18.6245
19.6637
20.7121
21.7704
22.8389
23.9167
25.0009
10.4968
11.4906
12.4856
13.4826
14.4824
15.4861
16.495
17.5106
18.5348
19.5698
20.6182
21.6825
22.765
23.8662
24.9827
10.4905
11.4719
12.4544
13.439
14.4267
15.4186
16.4163
17.4217
18.4374
19.4664
20.5129
21.5817
22.6778
23.8048
24.9599
10.484
11.4522
12.4217
13.3932
14.3679
15.3469
16.3321
17.3256
18.3304
19.3507
20.3919
21.4616
22.569
23.7234
24.9275
10.4771
11.4318
12.3875
13.3452
14.3059
15.2709
16.2419
17.2214
18.2125
19.2201
20.2509
21.315
22.4271
23.6072
24.8745
10.4701
11.4105
12.3519
13.295
14.2408
15.1905
16.1458
17.1089
18.0831
19.0732
20.0865
21.1349
22.2378
23.4301
24.7714
10.4627
11.3885
12.315
13.2429
14.173
15.1062
16.044
16.9885
17.9423
18.9099
19.8977
20.9165
21.986
23.1492
24.5263
26.5401
23.9661
21.8022
19.8211
17.9419
16.1272
14.3565
12.617
10.9003
9.20049
7.5132
5.83511
4.16358
2.49646
0.831877
27.0035
24.4943
22.2716
20.224
18.2863
16.4214
14.607
12.829
11.0777
9.34627
7.62967
5.92402
4.22622
2.5337
0.844235
27.1967
24.823
22.6191
20.5503
18.5798
16.6801
14.832
13.0222
11.2411
9.48158
7.73841
6.00738
4.28512
2.56879
0.855888
27.2937
25.0333
22.8723
20.808
18.8239
16.9027
15.0303
13.1953
11.3892
9.6054
7.83857
6.08454
4.33983
2.60145
0.866748
27.3504
25.1741
23.058
21.0096
19.0238
17.0913
15.2022
13.3481
11.5217
9.71723
7.92971
6.15514
4.39007
2.63152
0.876756
27.3875
25.2728
23.1962
21.1673
19.1865
17.2493
15.3496
13.4814
11.6389
9.8171
8.01173
6.21902
4.43572
2.65891
0.885885
27.4134
25.3445
23.3009
21.2914
19.3185
17.3808
15.4749
13.5966
11.7414
9.9054
8.0848
6.27627
4.4768
2.68362
0.894131
27.4324
25.3983
23.3816
21.3896
19.4257
17.4901
15.5809
13.6954
11.8305
9.98282
8.14934
6.32713
4.51344
2.70571
0.901515
27.4468
25.4395
23.4446
21.468
19.513
17.5806
15.6701
13.7798
11.9073
10.0502
8.20593
6.37196
4.54586
2.72532
0.908074
27.458
25.4717
23.4944
21.531
19.5843
17.6557
15.7451
13.8514
11.9732
10.1085
8.25522
6.4112
4.57435
2.74259
0.913859
27.4667
25.4972
23.5343
21.5819
19.6427
17.7179
15.8079
13.9122
12.0296
10.1587
8.29792
6.44536
4.59923
2.7577
0.918929
27.4737
25.5176
23.5664
21.6234
19.6907
17.7696
15.8606
13.9635
12.0776
10.2018
8.33474
6.47494
4.62085
2.77086
0.923347
27.4794
25.5341
23.5926
21.6573
19.7302
17.8126
15.9048
14.0069
12.1185
10.2386
8.36637
6.50045
4.63954
2.78227
0.927178
27.484
25.5475
23.6139
21.6852
19.763
17.8483
15.9418
14.0435
12.1531
10.27
8.39344
6.52235
4.65564
2.7921
0.930486
27.4877
25.5585
23.6314
21.7082
19.7901
17.8781
15.9728
14.0743
12.1824
10.2967
8.41655
6.54112
4.66946
2.80056
0.933332
27.4908
25.5675
23.6458
21.7272
19.8126
17.903
15.9988
14.1002
12.2072
10.3194
8.43625
6.55715
4.68129
2.80781
0.935774
27.4933
25.575
23.6578
21.743
19.8314
17.9238
16.0206
14.1221
12.2282
10.3386
8.453
6.57082
4.6914
2.81401
0.937863
27.4954
25.5811
23.6677
21.7561
19.8471
17.9412
16.039
14.1405
12.2459
10.3549
8.46724
6.58245
4.70001
2.8193
0.939647
27.4972
25.5863
23.676
21.767
19.8602
17.9558
16.0544
14.1561
12.2609
10.3687
8.47932
6.59235
4.70735
2.82381
0.941169
27.4986
25.5906
23.6829
21.7762
19.8711
17.9681
16.0674
14.1692
12.2735
10.3804
8.48958
6.60076
4.71359
2.82765
0.942466
27.4998
25.5942
23.6887
21.7839
19.8804
17.9784
16.0783
14.1802
12.2843
10.3903
8.49829
6.60792
4.71891
2.83093
0.943571
27.5009
25.5972
23.6935
21.7904
19.8881
17.9871
16.0876
14.1896
12.2934
10.3988
8.5057
6.61401
4.72344
2.83372
0.944513
27.5017
25.5997
23.6976
21.7959
19.8947
17.9945
16.0954
14.1976
12.3011
10.4059
8.51202
6.61921
4.72731
2.8361
0.945318
27.5024
25.6019
23.7011
21.8005
19.9003
18.0008
16.1021
14.2044
12.3077
10.4121
8.51742
6.62365
4.73062
2.83814
0.946008
27.5031
25.6037
23.7041
21.8045
19.9051
18.0062
16.1078
14.2102
12.3134
10.4173
8.52206
6.62748
4.73347
2.8399
0.946601
27.5036
25.6053
23.7067
21.8079
19.9092
18.0108
16.1128
14.2152
12.3183
10.4219
8.52608
6.63079
4.73593
2.84142
0.947115
27.5041
25.6067
23.7089
21.8109
19.9128
18.0149
16.1171
14.2196
12.3225
10.4259
8.52959
6.63368
4.73809
2.84275
0.947564
27.5045
25.6079
23.7109
21.8136
19.916
18.0184
16.1209
14.2235
12.3263
10.4294
8.53269
6.63623
4.73999
2.84392
0.947961
27.5049
25.6091
23.7127
21.816
19.9189
18.0217
16.1244
14.227
12.3297
10.4325
8.53548
6.63853
4.7417
2.84498
0.948317
27.5052
25.6101
23.7144
21.8182
19.9216
18.0247
16.1275
14.2302
12.3329
10.4354
8.53803
6.64062
4.74326
2.84594
0.948642
27.5056
25.6111
23.716
21.8203
19.9241
18.0275
16.1305
14.2333
12.3358
10.4382
8.54041
6.64258
4.74472
2.84683
0.948944
27.5059
25.6121
23.7175
21.8224
19.9266
18.0303
16.1335
14.2362
12.3386
10.4408
8.5427
6.64446
4.74611
2.84769
0.949233
27.5062
25.6131
23.7192
21.8245
19.9291
18.0331
16.1364
14.2392
12.3415
10.4434
8.54495
6.6463
4.74747
2.84852
0.949514
27.5066
25.6141
23.7209
21.8267
19.9318
18.036
16.1394
14.2422
12.3443
10.446
8.54722
6.64814
4.74883
2.84935
0.949794
27.507
25.6153
23.7227
21.8292
19.9347
18.0391
16.1427
14.2454
12.3474
10.4487
8.54957
6.65004
4.75022
2.8502
0.950079
27.5075
25.6167
23.7249
21.832
19.9379
18.0426
16.1462
14.2488
12.3506
10.4516
8.55204
6.65202