/*--------------------------------*- C++ -*----------------------------------*\
| =========                 |                                                 |
| \\      /  F ield         | OpenFOAM: The Open Source CFD Toolbox           |
|  \\    /   O peration     | Version:  5.x                                   |
|   \\  /    A nd           | Web:      www.OpenFOAM.org                      |
|    \\/     M anipulation  |                                                 |
\*---------------------------------------------------------------------------*/
FoamFile
{
    version     2.0;
    format      ascii;
    class       volScalarField;
    location    "4.1";
    object      gradTx;
}
// * * * * * * * * * * * * * * * * * * * * * * * * * * * * * * * * * * * * * //

dimensions      [0 -1 0 1 0 0 0];

internalField   nonuniform List<scalar> 
6300
(
2833.75
2825.65
2809.42
2785.01
2752.36
2711.38
2662.04
2604.33
2538.32
2464.21
2382.35
2293.26
2197.71
2096.68
1991.4
2841.75
2833.68
2817.5
2793.16
2760.57
2719.65
2670.31
2612.53
2546.33
2471.88
2389.48
2299.64
2203.1
2100.87
1994.19
2857.71
2849.7
2833.64
2809.45
2777.02
2736.22
2686.93
2629.04
2562.51
2487.41
2403.97
2312.63
2214.1
2109.42
1999.88
2881.57
2873.67
2857.81
2833.88
2801.74
2761.2
2712.05
2654.09
2587.16
2511.18
2426.26
2332.72
2231.2
2122.73
2008.76
2913.24
2905.49
2889.93
2866.42
2834.76
2794.68
2745.88
2688.02
2620.75
2543.82
2457.09
2360.69
2255.15
2141.48
2021.26
2952.54
2945.02
2929.9
2907
2876.08
2836.78
2788.67
2731.24
2663.92
2586.15
2497.49
2397.73
2287.15
2166.69
2038.1
2999.25
2992.04
2977.53
2955.51
2925.67
2887.59
2840.69
2784.26
2717.44
2639.29
2548.88
2445.51
2328.96
2199.93
2060.36
3053.06
3046.26
3032.55
3011.72
2983.41
2947.12
2902.14
2847.56
2782.18
2704.58
2613.16
2506.37
2383.16
2243.63
2089.76
3113.56
3107.27
3094.59
3075.29
3049.02
3015.21
2973.09
2921.54
2859.04
2783.59
2692.7
2583.56
2453.61
2301.58
2129.07
3180.24
3174.57
3163.13
3145.74
3122.04
3091.52
3053.36
3006.36
2948.75
2877.94
2790.38
2681.46
2546.03
2379.93
2183
3252.47
3247.51
3237.52
3222.36
3201.78
3175.34
3142.35
3101.69
3051.54
2988.95
2909.31
2805.76
2669.03
2489.03
2260.09
3329.54
3325.35
3316.96
3304.3
3287.25
3265.59
3238.9
3206.4
3166.65
3116.89
3052.05
2963.13
2835.22
2646.96
2377.24
3410.67
3407.29
3400.56
3390.51
3377.21
3360.74
3341.12
3318.26
3291.65
3259.78
3218.75
3159.39
3061.66
2886.25
2572.13
3495.06
3492.46
3487.34
3479.84
3470.23
3458.91
3446.46
3433.73
3421.79
3411.71
3403.67
3393.91
3365.67
3264.12
2941.51
3581.91
3580.03
3576.37
3571.16
3564.84
3558.07
3551.96
3548.3
3549.94
3561.48
3590.19
3646.79
3742.85
3862.92
3780.04
1892.43
1801.29
1710.05
1619.59
1530.77
1444.39
1361.13
1281.59
1206.25
1135.47
1069.51
1008.54
952.655
901.861
856.117
815.33
779.366
748.057
721.207
698.59
679.955
665.022
653.484
645.006
639.226
635.754
634.18
634.083
635.039
636.636
638.487
640.245
641.612
642.338
642.226
641.118
638.885
635.417
630.612
624.372
616.609
607.25
596.242
583.57
569.254
553.351
535.945
517.135
497.019
475.678
453.163
429.488
404.632
378.538
351.127
322.304
291.971
260.032
226.393
190.963
153.642
114.319
72.8537
29.0757
-17.2233
-66.2888
-118.4
-173.864
-233.003
-296.143
-363.608
-435.705
-512.718
-594.908
-682.503
-775.7
-874.656
-979.481
-1090.23
-1206.87
-1329.3
-1457.26
-1590.4
-1728.19
-1869.93
-2014.75
-2161.64
-2309.42
-2456.85
-2602.58
1893.83
1801.39
1708.85
1617.16
1527.21
1439.83
1355.73
1275.51
1199.64
1128.48
1062.28
1001.19
945.286
894.557
848.949
808.355
772.633
741.611
715.086
692.833
674.6
660.109
649.055
641.101
635.88
632.998
632.033
632.547
634.096
636.249
638.6
640.79
642.513
643.525
643.641
642.718
640.645
637.323
632.657
626.546
618.891
609.603
598.621
585.92
571.523
555.498
537.95
519
498.769
477.355
454.819
431.178
406.402
380.424
353.149
324.469
294.276
262.472
228.967
193.679
156.523
117.401
76.1829
32.706
-13.2377
-61.8991
-113.568
-168.566
-227.231
-289.906
-356.926
-428.609
-505.247
-587.103
-674.413
-767.38
-866.173
-970.92
-1081.7
-1198.51
-1321.27
-1449.76
-1583.66
-1722.44
-1865.42
-2011.71
-2160.27
-2309.87
-2459.19
-2606.83
1896.68
1801.56
1706.37
1612.16
1519.9
1430.5
1344.7
1263.1
1186.2
1114.3
1047.65
986.346
930.424
879.847
834.527
794.333
759.107
728.661
702.789
681.262
663.833
650.226
640.139
633.236
629.147
627.461
627.735
629.498
632.264
635.555
638.926
641.985
644.416
645.984
646.53
645.953
644.181
641.147
636.764
630.925
623.504
614.379
603.457
590.694
576.118
559.823
541.957
522.695
502.207
480.632
458.053
434.488
409.892
384.167
357.184
328.803
298.894
267.353
234.101
199.079
162.234
123.496
82.7642
39.8885
-5.33682
-53.1745
-103.938
-157.981
-215.675
-277.399
-343.516
-414.362
-490.241
-571.424
-658.152
-750.641
-849.083
-953.641
-1064.44
-1181.54
-1304.92
-1434.44
-1569.82
-1710.59
-1856.06
-2005.34
-2157.31
-2310.64
-2463.86
-2615.42
1901.1
1801.77
1702.42
1604.27
1508.44
1415.93
1327.55
1243.91
1165.48
1092.55
1025.28
963.715
907.832
857.536
812.691
773.131
738.668
709.098
684.208
663.769
647.538
635.251
626.615
621.3
618.93
619.082
621.274
624.983
629.653
634.727
639.68
644.065
647.542
649.893
651.017
650.889
649.517
646.891
642.948
637.561
630.552
621.726
610.923
598.062
583.171
566.393
547.958
528.138
507.196
485.342
462.694
439.271
414.994
389.71
363.222
335.326
305.855
274.69
241.776
207.1
170.664
132.46
92.431
50.4542
6.3272
-40.2334
-89.5828
-142.129
-198.309
-258.557
-323.283
-392.852
-467.58
-547.739
-633.571
-725.303
-823.156
-927.345
-1038.07
-1155.48
-1279.68
-1410.64
-1548.18
-1691.9
-1841.16
-1995.04
-2152.31
-2311.49
-2470.86
-2628.59
1907.27
1801.94
1696.68
1592.97
1492.15
1395.37
1303.5
1217.18
1136.81
1062.61
994.647
932.87
877.16
827.344
783.217
744.562
711.155
682.773
659.193
640.192
625.542
614.997
608.287
605.099
605.064
607.741
612.609
619.064
626.442
634.051
641.233
647.433
652.267
655.55
657.285
657.596
656.639
654.512
651.192
646.515
640.196
631.902
621.336
608.334
592.924
575.333
555.936
535.18
513.486
491.179
468.436
445.269
421.536
396.978
371.274
344.11
315.243
284.54
251.984
217.647
181.638
144.048
104.901
64.1157
21.4966
-23.274
-70.6192
-121.04
-175.076
-233.257
-296.065
-363.9
-437.082
-515.864
-600.471
-691.126
-788.077
-891.606
-1002.02
-1119.62
-1244.66
-1377.32
-1517.57
-1665.17
-1819.55
-1979.77
-2144.49
-2311.98
-2480.15
-2646.73
1915.49
1801.96
1688.64
1577.43
1470
1367.68
1271.43
1181.84
1099.22
1023.66
955.066
893.256
837.971
788.929
745.836
708.409
676.382
649.508
627.56
610.329
597.611
589.201
584.867
584.339
587.273
593.227
601.636
611.796
622.877
633.969
644.177
652.748
659.204
663.416
665.583
666.108
665.424
663.829
661.37
657.81
652.666
645.329
635.237
622.055
605.801
586.853
565.856
543.556
520.643
497.628
474.774
452.069
429.254
405.884
381.417
355.337
327.268
297.049
264.749
230.595
194.884
157.877
119.725
80.4172
39.7644
-2.60531
-47.2234
-94.7408
-145.866
-201.287
-261.596
-327.235
-398.502
-475.585
-558.641
-647.857
-743.497
-845.924
-955.586
-1072.99
-1198.65
-1333
-1476.32
-1628.61
-1789.46
-1957.96
-2132.63
-2311.4
-2491.64
-2670.41
1926.2
1801.61
1677.49
1556.38
1440.44
1331.21
1229.7
1136.4
1051.42
974.622
905.685
844.21
789.764
741.917
700.268
664.456
634.165
609.125
589.114
573.944
563.459
557.512
555.948
558.573
565.112
575.158
588.121
603.182
619.276
635.141
649.458
661.089
669.351
674.205
676.224
676.341
675.502
674.368
673.114
671.367
668.274
662.703
653.567
640.183
622.538
601.309
577.634
552.797
527.93
503.833
480.881
459.011
437.76
416.357
393.872
369.418
342.376
312.55
280.174
245.779
209.99
173.351
136.209
98.6543
60.5036
21.3018
-19.65
-63.2421
-110.464
-162.271
-219.439
-282.457
-351.531
-426.688
-507.92
-595.313
-689.12
-789.793
-897.97
-1014.44
-1140.07
-1275.73
-1422.12
-1579.67
-1748.28
-1927.19
-2114.8
-2308.6
-2505.18
-2700.54
1940.1
1800.54
1661.92
1527.86
1401.14
1283.58
1176.1
1078.93
991.809
914.226
845.524
785.012
732.024
685.954
646.272
612.529
584.361
561.481
543.674
530.795
522.751
519.492
520.979
527.154
537.881
552.868
571.567
593.061
615.985
638.521
658.587
674.26
684.384
689.055
689.583
687.927
685.985
685.06
685.547
686.842
687.428
685.19
677.992
664.426
644.419
619.266
591.071
562.064
534.093
508.374
485.417
465.049
446.471
428.375
409.149
387.215
361.485
331.711
298.499
262.964
226.314
189.544
153.282
117.748
82.7551
47.7289
11.7265
-26.5139
-68.4541
-115.531
-168.85
-228.948
-295.789
-369.026
-448.309
-533.511
-624.833
-722.829
-828.383
-942.657
-1067.02
-1202.94
-1351.82
-1514.74
-1692.22
-1883.83
-2087.99
-2301.69
-2520.41
-2738.43
1958.28
1798.03
1639.73
1488.69
1348.61
1221.4
1107.64
1006.94
918.431
841.01
773.538
714.948
664.294
620.766
583.698
552.554
526.924
506.51
491.121
480.664
475.138
474.618
479.24
489.162
504.499
525.216
550.967
580.863
613.231
645.438
674.02
695.4
707.247
709.848
706.068
699.902
694.983
693.696
696.797
703.318
710.627
714.801
711.568
697.921
673.692
641.584
605.659
569.822
536.999
508.923
486.213
468.493
454.473
442.011
428.311
410.467
386.405
355.816
320.16
281.746
242.805
205.001
169.306
136.06
105.053
75.5605
46.326
15.5436
-19.0451
-59.7945
-108.496
-165.719
-230.824
-302.644
-380.161
-462.877
-550.911
-644.956
-746.211
-856.314
-977.289
-1111.45
-1261.23
-1428.82
-1615.73
-1822.33
-2047.38
-2287.46
-2536.56
-2786.17
1982.49
1792.68
1607.01
1433.71
1277.47
1139.82
1020.3
917.364
829.058
753.438
688.735
633.433
586.276
546.255
512.572
484.62
461.956
444.285
431.447
423.417
420.298
422.324
429.854
443.357
463.352
490.3
524.377
565.088
610.692
657.551
699.803
730.245
743.404
739.807
725.967
710.059
698.732
695.989
703.101
718.637
738.319
755.054
760.12
746.635
714.292
669.38
620.103
573.223
533.051
501.73
479.807
466.596
460.22
457.414
453.428
442.662
420.713
387.205
345.785
301.279
257.653
217.413
181.797
151.144
125.167
103.019
83.1538
63.0822
39.2369
7.39497
-35.8656
-91.1334
-156.183
-228.047
-304.511
-384.569
-468.312
-556.679
-651.272
-754.286
-868.531
-997.444
-1144.96
-1315.02
-1510.83
-1734.19
-1985.03
-2260.18
-2551.88
-2847.04
2015.75
1781.28
1556.41
1354.14
1179.48
1032.09
909.053
806.671
721.382
650.115
590.368
540.162
497.963
462.595
433.175
409.055
389.783
375.083
364.836
359.083
358.034
362.088
371.855
388.187
412.176
445.101
488.219
542.247
606.325
676.28
742.57
789.956
803.665
784.491
748.824
713.598
690.096
684.07
697.253
727.961
770.234
812.089
835.361
822.481
772.971
703.439
631.078
566.948
516.339
480.988
460.841
454.843
460.812
474.503
488.293
490.948
471.653
429.976
375.843
319.535
267.615
223.163
187.135
159.487
139.766
127.188
120.276
116.053
109.033
91.0277
54.0569
-2.45823
-71.7229
-146.819
-223.676
-300.941
-379.039
-459.419
-544.184
-636.061
-738.62
-856.616
-996.166
-1164.11
-1366.19
-1606.44
-1887.61
-2208.99
-2562.14
-2926.51
2063.66
1755.99
1473.2
1234.75
1042.19
889.269
768.037
671.342
593.49
530.18
478.239
435.342
399.793
370.354
346.132
326.492
311.015
299.456
291.739
287.962
288.411
293.612
304.391
321.977
348.118
385.212
436.334
504.916
593.475
700.266
812.536
898.135
911.252
852.899
771.02
700.233
656.273
644.469
666.149
720.612
802.726
895.86
962.638
951.048
860.458
741.55
630.182
541.186
477.641
438.342
421.485
425.844
450.272
491.433
539.18
570.825
554.808
490.672
409.022
331.461
266.818
216.776
180.399
156.415
144.073
143.192
153.524
173.049
194.645
201.968
172.121
104.576
21.1368
-63.0496
-142.244
-216.102
-286.468
-355.828
-426.835
-502.433
-586.454
-684.723
-806.446
-964.028
-1166.52
-1419.73
-1732.2
-2111.97
-2556.16
-3034.36
2137.51
1694.79
1326.07
1049.26
847.778
700.77
591.651
508.852
444.634
393.856
353.068
319.926
292.81
270.589
252.475
237.926
226.592
218.284
212.962
210.744
211.936
217.093
227.117
243.435
268.276
305.111
359.294
438.799
554.355
716.338
920.884
1110.66
1121.73
955.156
777.223
648.214
576.124
556.631
587.817
673.424
819.324
1017.56
1202.74
1193.35
988.697
768.78
597.055
478.756
404.015
363.366
351.565
367.932
415.624
498.865
613.235
719.32
707.238
576.57
436.303
324.776
244.987
190.704
155.81
136.574
131.873
143.046
173.528
227.057
300.804
366.426
344.466
234.496
115.072
13.5346
-68.4938
-136.285
-195.333
-249.853
-302.86
-356.659
-413.752
-479.033
-565.063
-699.241
-893.776
-1147.63
-1479.81
-1922.12
-2501.11
-3189.49
2262.33
1526.99
1046.56
755.223
574.898
457.687
377.343
319.586
276.411
243.129
216.875
195.821
178.766
164.901
153.675
144.721
137.804
132.805
129.707
128.608
129.746
133.557
140.772
152.614
171.155
200.018
245.776
320.757
448.362
671.098
1050.47
1580.49
1587.97
1073.74
712.952
514.21
420.218
395.8
431.102
539.393
760.533
1158.03
1722.97
1716.78
1138.89
726.59
486.976
353.588
281.283
246.837
241.073
264.902
329.772
461.457
699.202
1037.95
1030.41
676.274
422.186
272.376
186.422
136.708
108.667
95.7995
96.8092
115.09
160.341
251.943
418.652
656.987
643.537
378.019
183.247
62.0256
-15.2411
-69.0547
-110.713
-146.049
-177.733
-206.129
-229.245
-243.452
-254.328
-347.517
-535.593
-762.679
-1068.8
-1535.4
-2288.44
-3432.23
2495.72
992.053
494.73
301.3
211.112
161.498
130.496
109.313
93.9286
82.2745
73.1837
65.9497
60.1224
55.4054
51.6005
48.5763
46.2508
44.5825
43.568
43.2452
43.7047
45.113
47.7581
52.1401
59.1643
70.5888
90.1705
126.928
205.366
400.283
963.073
2802.75
2805.4
971.36
415.304
229.35
164.114
148.958
169.269
242.844
447.762
1057.36
3065.58
3063.41
1050.62
435.704
223.919
140.448
104.029
88.9974
87.9611
102.763
147.695
271.311
639.697
1855.22
1852.65
631.885
257.899
128.012
75.6661
51.4962
39.6732
35.0384
36.8722
48.2936
80.4019
168.664
433.347
1310.1
1305.57
419.655
145.502
47.2202
4.23953
-19.3248
-35.194
-47.4989
-57.3357
-63.1948
-57.5637
-12.6578
174.94
140.853
-121.218
-263.887
-426.677
-736.145
-1512.99
-3852.65
-2759.18
-2924.13
-3080.77
-3227.45
-3362.88
-3486.16
-3596.74
-3694.36
-3779
-3850.81
-3910.04
-3956.97
-3991.87
-4015
-4026.52
-2765.42
-2932.33
-3090.63
-3238.59
-3374.92
-3498.75
-3609.57
-3707.21
-3791.7
-3863.26
-3922.2
-3968.85
-4003.52
-4026.47
-4037.9
-2778.11
-2949.06
-3110.7
-3261.24
-3399.35
-3524.22
-3635.47
-3733.07
-3817.2
-3888.21
-3946.53
-3992.57
-4026.73
-4049.32
-4060.56
-2797.74
-2974.98
-3141.79
-3296.2
-3436.89
-3563.18
-3674.91
-3772.26
-3855.68
-3925.72
-3982.99
-4028.04
-4061.38
-4083.38
-4094.31
-2825.09
-3011.21
-3185.17
-3344.76
-3488.71
-3616.6
-3728.58
-3825.25
-3907.39
-3975.87
-4031.52
-4075.1
-4107.22
-4128.37
-4138.86
-2861.4
-3059.51
-3242.81
-3408.83
-3556.48
-3685.78
-3797.44
-3892.63
-3972.63
-4038.71
-4091.99
-4133.46
-4163.9
-4183.87
-4193.76
-2908.58
-3122.52
-3317.61
-3491.14
-3642.49
-3772.45
-3882.65
-3975.07
-4051.66
-4114.18
-4164.13
-4202.73
-4230.89
-4249.31
-4258.41
-2969.57
-3204.28
-3413.83
-3595.53
-3749.75
-3878.74
-3985.52
-4073.2
-4144.6
-4202.07
-4247.48
-4282.26
-4307.49
-4323.92
-4332.02
-3049.09
-3311.08
-3537.8
-3727.28
-3882.12
-4007.1
-4107.34
-4187.48
-4251.34
-4301.88
-4341.29
-4371.2
-4392.75
-4406.71
-4413.58
-3155.05
-3453.03
-3698.9
-3893.52
-4044.23
-4160.05
-4249.12
-4317.91
-4371.27
-4412.65
-4444.45
-4468.34
-4485.43
-4496.45
-4501.86
-3301.5
-3646.96
-3911.1
-4103.52
-4241.1
-4339.6
-4411
-4463.62
-4503.03
-4532.84
-4555.37
-4572.11
-4584.01
-4591.66
-4595.4
-3515.89
-3922.11
-4194.89
-4368.2
-4476.92
-4546.11
-4591.49
-4622.39
-4644.23
-4660.15
-4671.92
-4680.57
-4686.68
-4690.61
-4692.53
-3858.26
-4330.54
-4578.03
-4697.32
-4752.12
-4776.26
-4786.29
-4790.05
-4791.22
-4791.45
-4791.42
-4791.38
-4791.38
-4791.41
-4791.43
-4481.19
-4963.63
-5089.16
-5090.76
-5057.83
-5020.35
-4987.17
-4960.14
-4938.99
-4922.83
-4910.76
-4901.97
-4895.88
-4892.04
-4890.19
-5845.91
-5953.46
-5724.07
-5518.52
-5367.94
-5259.95
-5181.7
-5124.2
-5081.6
-5049.97
-5026.62
-5009.7
-4997.95
-4990.53
-4986.94
3663.14
3661.81
3659.27
3655.79
3651.84
3648.23
3646.3
3648.33
3658.22
3682.93
3735.46
3842.28
4066.45
4597.74
6177.42
3737.82
3736.91
3735.2
3732.95
3730.6
3728.93
3729.22
3733.71
3746.27
3773.93
3829.71
3938.4
4147.27
4537.59
5156.7
3813.04
3812.47
3811.41
3810.07
3808.8
3808.17
3809.14
3813.38
3823.74
3845.29
3887.12
3964.85
4101.95
4318.45
4567.3
3888.56
3888.27
3887.73
3887.06
3886.45
3886.18
3886.71
3888.71
3893.33
3902.48
3919.5
3949.99
4001.4
4076.72
4152.12
3964.2
3964.14
3964.03
3963.9
3963.75
3963.55
3963.14
3962.14
3959.68
3954.08
3942.42
3920.48
3884.13
3834.84
3790.71
4039.78
4039.95
4040.26
4040.65
4040.99
4040.95
4039.89
4036.48
4028.11
4009.78
3972.38
3900.89
3775.74
3589.27
3400.08
4115.15
4115.56
4116.33
4117.35
4118.38
4118.96
4118.16
4114.16
4103.36
4078.61
4025.91
3918.44
3709.85
3345.48
2879.51
4190.14
4190.81
4192.11
4193.92
4195.97
4197.81
4198.55
4196.47
4188.18
4166.75
4117.38
4006.12
3752.06
3172.14
2036.78
4264.55
4265.53
4267.45
4270.2
4273.61
4277.33
4280.8
4282.98
4282
4274.2
4251.7
4192.86
4020.45
3384.44
407.083
4338.19
4339.5
4342.09
4345.92
4350.91
4356.92
4363.84
4371.59
4380.42
4391.76
4411.16
4458.34
4610.69
5222.57
8180.81
4410.82
4412.47
4415.77
4420.73
4427.37
4435.77
4446.2
4459.35
4476.97
4503.62
4551.22
4650.68
4881.69
5431.17
6540.89
4482.2
4484.19
4488.19
4494.25
4502.48
4513.1
4526.58
4543.89
4567.12
4600.83
4655.14
4751.55
4931.4
5250.58
5673.23
4552.09
4554.4
4559.06
4566.15
4575.81
4588.33
4604.18
4624.21
4649.87
4683.63
4729.7
4794.34
4884.25
4998
5100.7
4620.27
4622.88
4628.13
4636.13
4647.04
4661.13
4678.78
4700.52
4726.85
4757.75
4791.27
4819.44
4820.43
4752.96
4601.13
4686.54
4689.41
4695.18
4703.97
4715.94
4731.33
4750.44
4773.54
4800.52
4829.94
4856.44
4863.3
4804.03
4566.37
3997.78
4750.72
4753.8
4760.02
4769.48
4782.34
4798.83
4819.21
4843.74
4872.35
4904.05
4935.12
4952.96
4911.4
4609.48
3001.24
4812.64
4815.91
4822.49
4832.5
4846.09
4863.49
4885
4911
4941.91
4978.46
5022.87
5083.73
5199.46
5559.64
7197.97
4872.18
4875.59
4882.47
4892.9
4907.06
4925.18
4947.57
4974.72
5007.41
5047.31
5099.09
5176.25
5317.63
5622.05
6225.74
4929.24
4932.76
4939.85
4950.59
4965.16
4983.76
5006.72
5034.49
5067.75
5107.78
5157.56
5224.05
5322.46
5476.5
5674.48
4983.75
4987.34
4994.56
5005.5
5020.32
5039.2
5062.42
5090.33
5123.25
5161.35
5204.3
5249.56
5288.52
5300.31
5262.46
5035.65
5039.27
5046.56
5057.6
5072.52
5091.49
5114.76
5142.57
5175
5211.45
5249.3
5279.3
5273.32
5158.44
4825.93
5084.91
5088.54
5095.84
5106.87
5121.76
5140.67
5163.83
5191.49
5223.8
5260.44
5299.63
5333.9
5333.62
5167.59
4160.27
5131.55
5135.15
5142.39
5153.33
5168.07
5186.77
5209.66
5237.07
5269.45
5307.55
5353.24
5412.36
5508.89
5760.83
6820.61
5175.56
5179.11
5186.24
5197.01
5211.49
5229.82
5252.23
5279.07
5310.97
5349.25
5397.41
5464.69
5576.11
5792.93
6195
5216.99
5220.47
5227.45
5237.97
5252.1
5269.92
5291.61
5317.45
5347.9
5383.98
5428.17
5486.22
5570.01
5696.23
5850.43
5255.88
5259.27
5266.07
5276.3
5289.99
5307.2
5327.99
5352.49
5380.77
5412.93
5449.19
5489.74
5534.31
5579.96
5614.8
5292.29
5295.59
5302.18
5312.09
5325.31
5341.84
5361.69
5384.78
5410.8
5438.91
5467.08
5490.33
5497.73
5471.06
5405.21
5326.29
5329.48
5335.87
5345.43
5358.17
5374.05
5393.02
5414.91
5439.23
5464.72
5488.27
5501.79
5484.68
5389.22
5151.75
5357.96
5361.04
5367.21
5376.44
5388.71
5403.98
5422.2
5443.23
5466.7
5491.74
5516.28
5534.38
5525.92
5405.86
4735.25
5387.36
5390.34
5396.29
5405.19
5417.02
5431.73
5449.31
5469.72
5492.93
5518.98
5548.64
5585.27
5644.53
5804.68
6495.96
5414.56
5417.44
5423.19
5431.78
5443.17
5457.36
5474.32
5494.14
5517.01
5543.6
5576.02
5620.29
5692.96
5834.52
6097.57
5439.65
5442.43
5447.98
5456.26
5467.25
5480.91
5497.24
5516.32
5538.37
5564.02
5595.04
5635.45
5693.41
5779.83
5883.78
5462.67
5465.36
5470.73
5478.73
5489.33
5502.47
5518.12
5536.3
5557.07
5580.59
5607.39
5638.28
5673.97
5712.83
5744.08
5483.71
5486.32
5491.52
5499.26
5509.49
5522.14
5537.12
5554.37
5573.7
5594.75
5616.77
5637.62
5652.2
5650.96
5628.01
5502.8
5505.34
5510.4
5517.92
5527.83
5540.04
5554.43
5570.85
5588.97
5608.12
5626.81
5641.18
5641.29
5604.03
5497.91
5520.01
5522.49
5527.43
5534.77
5544.43
5556.29
5570.21
5586.02
5603.38
5621.66
5639.72
5654.49
5656.2
5604.79
5296.04
5535.36
5537.8
5542.66
5549.87
5559.34
5570.96
5584.56
5599.99
5616.98
5635.24
5654.77
5676.72
5707.88
5784.1
6104.34
5548.89
5551.31
5556.12
5563.25
5572.62
5584.1
5597.53
5612.74
5629.54
5647.79
5668.02
5692.41
5728.13
5793.81
5914.33
5560.6
5563.02
5567.82
5574.94
5584.29
5595.73
5609.12
5624.27
5640.92
5658.85
5678.22
5700.09
5727.46
5765.28
5809.97
5570.52
5572.94
5577.77
5584.93
5594.34
5605.88
5619.38
5634.62
5651.26
5668.77
5686.56
5703.8
5719.38
5731.84
5738.6
5578.61
5581.07
5585.95
5593.21
5602.77
5614.51
5628.29
5643.87
5660.82
5678.36
5695.15
5708.5
5713.35
5702.21
5673.89
5584.88
5587.37
5592.34
5599.75
5609.53
5621.59
5635.83
5652.03
5669.82
5688.35
5706
5718.96
5718.3
5684.36
5591.47
5589.27
5591.82
5596.9
5604.49
5614.55
5627.02
5641.86
5658.97
5678.13
5698.81
5719.96
5738.73
5746.23
5707.32
5446.52
5591.77
5594.37
5599.58
5607.37
5617.73
5630.66
5646.19
5664.36
5685.21
5708.8
5735.44
5766.19
5806.25
5884.23
6166.01
5592.32
5594.99
5600.31
5608.3
5618.97
5632.36
5648.56
5667.75
5690.23
5716.55
5747.93
5787.02
5839.8
5919.48
6039.59
5590.9
5593.61
5599.05
5607.23
5618.17
5631.95
5648.71
5668.72
5692.43
5720.63
5754.94
5798.19
5854.55
5926.51
5998.58
5587.45
5590.21
5595.75
5604.08
5615.24
5629.32
5646.48
5667
5691.34
5720.32
5755.61
5800.12
5858.32
5933.31
6009.64
5581.94
5584.75
5590.36
5598.8
5610.12
5624.4
5641.78
5662.48
5686.86
5715.5
5749.72
5792.39
5850.3
5939.06
6075.71
5574.36
5577.19
5582.85
5591.37
5602.79
5617.18
5634.63
5655.28
5679.25
5706.66
5737.84
5773.91
5820.73
5911.4
6238.72
5564.68
5567.52
5573.21
5581.77
5593.25
5607.68
5625.12
5645.63
5669.09
5695.07
5722.42
5747.8
5760.58
5719.26
5418.9
5552.88
5555.72
5561.42
5570
5581.49
5595.93
5613.36
5633.79
5657.01
5682.37
5708.23
5730.29
5737.86
5706.84
5604.78
5538.97
5541.8
5547.49
5556.04
5567.51
5581.94
5599.38
5619.87
5643.28
5669.18
5696.52
5722.69
5741.8
5743.59
5721.9
5522.95
5525.76
5531.4
5539.91
5551.32
5565.7
5583.15
5603.77
5627.65
5654.83
5685.49
5719.83
5757.63
5796.49
5826.1
5504.83
5507.61
5513.18
5521.59
5532.89
5547.17
5564.57
5585.28
5609.55
5637.91
5671.77
5714.39
5772.58
5855.66
5952.98
5484.64
5487.36
5492.83
5501.09
5512.22
5526.32
5543.56
5564.16
5588.44
5617.04
5651.81
5697.97
5770.12
5904.77
6149.6
5462.42
5465.07
5470.39
5478.44
5489.32
5503.14
5520.08
5540.35
5564.15
5591.71
5623.8
5663.33
5724.12
5877.24
6518.4
5438.21
5440.76
5445.89
5453.67
5464.2
5477.62
5494.14
5513.94
5537.07
5563.1
5590.47
5613.77
5613.86
5510.62
4896.12
5412.09
5414.51
5419.4
5426.82
5436.89
5449.8
5465.77
5485.07
5507.78
5533.4
5559.82
5580.17
5575.2
5498.88
5287.86
5384.13
5386.4
5390.98
5397.95
5407.45
5419.68
5434.95
5453.69
5476.29
5502.98
5533.24
5563.97
5585.93
5580.51
5535.3
5354.44
5356.53
5360.74
5367.16
5375.93
5387.27
5401.58
5419.46
5441.78
5469.93
5506.18
5553.68
5615.52
5689.6
5753.63
5323.15
5325.03
5328.81
5334.57
5342.43
5352.64
5365.6
5381.99
5403.04
5431.1
5471.14
5533.27
5636.47
5805.5
6018.71
5290.41
5292.04
5295.33
5300.33
5307.14
5315.94
5327.07
5341.12
5359.24
5383.8
5420.61
5484.16
5611.56
5890.55
6434.14
5256.38
5257.75
5260.5
5264.66
5270.28
5277.45
5286.35
5297.29
5310.77
5327.82
5351.35
5390.52
5481.24
5791.71
7229.37
5221.24
5222.34
5224.53
5227.8
5232.15
5237.58
5244.07
5251.54
5259.62
5267.19
5271.07
5260.91
5198.15
4909.94
3482.46
5185.19
5186.01
5187.63
5190.01
5193.1
5196.79
5200.94
5205.2
5208.64
5208.95
5200.37
5167.66
5071.45
4819.15
4289.51
5148.4
5148.95
5150.02
5151.55
5153.43
5155.52
5157.59
5159.26
5159.63
5156.73
5146.24
5118.33
5052.98
4920.76
4731.2
5111.07
5111.37
5111.93
5112.66
5113.43
5114.07
5114.37
5114.05
5112.68
5109.62
5104.04
5094.83
5080.77
5062.01
5043.69
5073.36
5073.44
5073.54
5073.55
5073.33
5072.68
5071.41
5069.41
5066.72
5064.07
5064.21
5074.5
5111.66
5202.77
5345.94
5035.44
5035.32
5035.03
5034.43
5033.33
5031.53
5028.81
5025.07
5020.52
5016.42
5017.15
5035.32
5104.91
5307.21
5750.1
4997.43
4997.16
4996.55
4995.45
4993.63
4990.83
4986.75
4981.12
4973.81
4965.23
4957.81
4960.23
5005.85
5244.42
6464.32
4959.43
4959.06
4958.23
4956.77
4954.42
4950.84
4945.6
4938.16
4927.76
4913.07
4891.46
4854.94
4772.63
4499.98
3255.86
4921.53
4921.11
4920.17
4918.52
4915.87
4911.8
4905.8
4897.1
4884.47
4865.53
4835.28
4781.25
4671.42
4429.95
3958.44
4883.74
4883.33
4882.41
4880.77
4878.08
4873.92
4867.69
4858.59
4845.33
4825.66
4795.43
4746.11
4661.42
4519.47
4336.25
4846.07
4845.73
4844.96
4843.54
4841.13
4837.27
4831.41
4822.8
4810.43
4792.95
4768.64
4735.32
4691.01
4637.43
4589.53
4808.45
4808.26
4807.78
4806.8
4804.96
4801.83
4796.86
4789.43
4778.87
4764.78
4747.92
4731.95
4726.85
4751.24
4812.26
4770.78
4770.81
4770.77
4770.44
4769.48
4767.46
4763.84
4758.04
4749.53
4738.33
4726.4
4720.82
4742.01
4839.41
5080.09
4732.91
4733.23
4733.76
4734.31
4734.54
4734
4732.16
4728.34
4721.84
4712.19
4700.26
4690.89
4704.07
4827.9
5517.82
4694.64
4695.31
4696.56
4698.19
4699.9
4701.26
4701.66
4700.32
4696.1
4687.45
4672.12
4645.09
4589.08
4423.08
3702.66
4655.73
4656.81
4658.89
4661.81
4665.3
4668.97
4672.2
4674.09
4673.2
4667.15
4651.9
4619.19
4550.26
4403.03
4124.91
4615.89
4617.42
4620.43
4624.82
4630.37
4636.77
4643.47
4649.61
4653.65
4653.04
4643.59
4618.19
4565.6
4473.61
4356.97
4574.8
4576.82
4580.83
4586.81
4594.64
4604.15
4614.96
4626.38
4637.1
4644.85
4646.14
4635.85
4608.06
4561.06
4510.98
4532.14
4534.64
4539.67
4547.29
4557.54
4570.41
4585.83
4603.44
4622.37
4640.94
4656.53
4665.4
4663.64
4650.39
4633.21
4487.55
4490.52
4496.52
4505.74
4518.38
4534.71
4555
4579.38
4607.64
4638.88
4671.36
4702.09
4726.98
4742.21
4746.48
4440.73
4444.09
4450.95
4461.6
4476.44
4496.05
4521.13
4552.44
4590.6
4635.73
4687.2
4742.59
4796.79
4841.4
4865.7
4391.39
4395.05
4402.56
4414.32
4430.97
4453.37
4482.74
4520.56
4568.46
4627.98
4700.1
4783.68
4873.02
4954.45
5004.77
4339.33
4343.14
4351.02
4363.46
4381.27
4405.66
4438.31
4481.48
4538.01
4611.27
4704.81
4820.53
4954.52
5088.86
5181.77
4284.44
4288.24
4296.11
4308.64
4326.79
4352.01
4386.39
4432.92
4495.7
4580.26
4693.9
4844.44
5035.53
5251.79
5426.26
4226.74
4230.32
4237.77
4249.72
4267.19
4291.78
4325.85
4372.89
4438.02
4528.86
4657.13
4839.95
5098.84
5443.48
5794.89
4166.38
4169.53
4176.11
4186.74
4202.44
4224.77
4256.13
4300.12
4362.24
4451.26
4582.27
4782.37
5102.36
5630.2
6410.5
4103.66
4106.17
4111.45
4120.05
4132.86
4151.3
4177.47
4214.58
4267.53
4344.29
4459.23
4641.3
4961.32
5641.32
7570.91
-9656.99
-7169.47
-6284.03
-5860.07
-5612.99
-5452.17
-5340.79
-5260.77
-5202.13
-5158.76
-5126.76
-5103.53
-5087.37
-5077.15
-5072.2
-8172.64
-7162.22
-6472.44
-6047.58
-5775.75
-5592.45
-5463.47
-5369.98
-5300.97
-5249.64
-5211.57
-5183.81
-5164.41
-5152.12
-5146.15
-7391.87
-6932.11
-6476.73
-6128.66
-5876.9
-5694.86
-5561.38
-5462.05
-5387.42
-5331.19
-5289.07
-5258.13
-5236.4
-5222.57
-5215.83
-6932.32
-6698.8
-6406.34
-6142.72
-5929.49
-5763.41
-5635.4
-5536.84
-5460.98
-5402.81
-5358.67
-5325.93
-5302.77
-5287.96
-5280.73
-6636.88
-6506.24
-6315.76
-6121.61
-5949.22
-5805.38
-5688.82
-5595.74
-5522.14
-5464.56
-5420.21
-5386.94
-5363.22
-5347.97
-5340.5
-6434.12
-6355.08
-6227.57
-6085.25
-5948.97
-5828.26
-5725.79
-5640.97
-5572.05
-5516.99
-5473.9
-5441.19
-5417.66
-5402.43
-5394.96
-6288.21
-6237.43
-6149.5
-6044.53
-5937.79
-5838.33
-5750.33
-5675.03
-5612.21
-5560.98
-5520.23
-5488.92
-5466.19
-5451.4
-5444.1
-6179.51
-6145.42
-6083.13
-6004.87
-5921.42
-5840.3
-5765.9
-5700.29
-5644.2
-5597.55
-5559.86
-5530.56
-5509.09
-5495.02
-5488.07
-6096.46
-6072.84
-6027.7
-5968.67
-5903.28
-5837.46
-5775.19
-5718.8
-5669.51
-5627.76
-5593.53
-5566.6
-5546.7
-5533.59
-5527.08
-6031.76
-6015.07
-5981.75
-5936.74
-5885.31
-5832.02
-5780.25
-5732.26
-5689.47
-5652.61
-5621.98
-5597.62
-5579.47
-5567.44
-5561.44
-5980.63
-5968.69
-5943.76
-5909.13
-5868.5
-5825.37
-5782.51
-5741.97
-5705.17
-5673
-5645.93
-5624.18
-5607.85
-5596.96
-5591.52
-5939.75
-5931.2
-5912.37
-5885.52
-5853.31
-5818.39
-5783.01
-5748.94
-5717.54
-5689.72
-5666.03
-5646.83
-5632.31
-5622.58
-5617.7
-5906.78
-5900.7
-5886.4
-5865.48
-5839.86
-5811.57
-5782.43
-5753.93
-5727.3
-5703.41
-5682.88
-5666.08
-5653.3
-5644.69
-5640.37
-5879.99
-5875.76
-5864.9
-5848.54
-5828.13
-5805.22
-5781.26
-5757.5
-5735.02
-5714.65
-5696.97
-5682.4
-5671.25
-5663.71
-5659.91
-5858.11
-5855.29
-5847.06
-5834.27
-5818
-5799.45
-5779.78
-5760.03
-5741.15
-5723.87
-5708.75
-5696.21
-5686.55
-5679.99
-5676.68
-5840.16
-5838.42
-5832.26
-5822.28
-5809.31
-5794.31
-5778.2
-5761.84
-5746.03
-5731.45
-5718.59
-5707.86
-5699.55
-5693.9
-5691.03
-5825.38
-5824.5
-5819.95
-5812.21
-5801.9
-5789.8
-5776.64
-5763.12
-5749.94
-5737.69
-5726.81
-5717.68
-5710.58
-5705.72
-5703.26
-5813.19
-5812.98
-5809.72
-5803.76
-5795.62
-5785.88
-5775.16
-5764.03
-5753.08
-5742.83
-5733.68
-5725.94
-5719.9
-5715.76
-5713.66
-5803.11
-5803.44
-5801.21
-5796.7
-5790.3
-5782.51
-5773.81
-5764.67
-5755.62
-5747.07
-5739.4
-5732.88
-5727.77
-5724.25
-5722.46
-5794.78
-5795.54
-5794.13
-5790.79
-5785.82
-5779.62
-5772.59
-5765.13
-5757.66
-5750.57
-5744.16
-5738.69
-5734.38
-5731.41
-5729.89
-5787.89
-5789
-5788.26
-5785.87
-5782.06
-5777.17
-5771.53
-5765.45
-5759.32
-5753.46
-5748.12
-5743.55
-5739.93
-5737.43
-5736.15
-5782.21
-5783.59
-5783.4
-5781.77
-5778.91
-5775.1
-5770.6
-5765.68
-5760.66
-5755.83
-5751.41
-5747.59
-5744.56
-5742.46
-5741.38
-5777.53
-5779.14
-5779.39
-5778.39
-5776.3
-5773.37
-5769.81
-5765.84
-5761.75
-5757.78
-5754.12
-5750.95
-5748.41
-5746.65
-5745.74
-5773.71
-5775.51
-5776.11
-5775.61
-5774.15
-5771.93
-5769.14
-5765.95
-5762.63
-5759.37
-5756.34
-5753.7
-5751.59
-5750.11
-5749.34
-5770.62
-5772.56
-5773.44
-5773.34
-5772.39
-5770.75
-5768.58
-5766.03
-5763.33
-5760.65
-5758.15
-5755.95
-5754.18
-5752.93
-5752.29
-5768.15
-5770.2
-5771.31
-5771.53
-5770.98
-5769.8
-5768.12
-5766.08
-5763.88
-5761.68
-5759.6
-5757.75
-5756.26
-5755.2
-5754.66
-5766.22
-5768.36
-5769.64
-5770.11
-5769.87
-5769.04
-5767.75
-5766.12
-5764.3
-5762.47
-5760.72
-5759.16
-5757.89
-5756.99
-5756.52
-5764.78
-5766.99
-5768.39
-5769.05
-5769.03
-5768.47
-5767.47
-5766.13
-5764.62
-5763.06
-5761.57
-5760.23
-5759.12
-5758.34
-5757.93
-5763.78
-5766.03
-5767.52