/*--------------------------------*- C++ -*----------------------------------*\
| =========                 |                                                 |
| \\      /  F ield         | OpenFOAM: The Open Source CFD Toolbox           |
|  \\    /   O peration     | Version:  5.x                                   |
|   \\  /    A nd           | Web:      www.OpenFOAM.org                      |
|    \\/     M anipulation  |                                                 |
\*---------------------------------------------------------------------------*/
FoamFile
{
    version     2.0;
    format      ascii;
    class       volScalarField;
    location    "1.6";
    object      gradTy;
}
// * * * * * * * * * * * * * * * * * * * * * * * * * * * * * * * * * * * * * //

dimensions      [0 -1 0 1 0 0 0];

internalField   nonuniform List<scalar> 
2048
(
-15.8598
-15.8629
-15.8686
-15.8753
-15.8811
-15.8832
-15.8781
-15.8616
-15.8291
-15.7755
-15.6955
-15.5838
-15.4351
-15.2446
-15.0081
-14.7224
-14.3853
-13.9964
-13.5574
-13.0719
-12.5463
-11.9891
-11.4111
-10.824
-10.2402
-9.67163
-9.12857
-8.61946
-8.15028
-7.7246
-7.34376
-7.00724
-6.71312
-6.45848
-6.23981
-6.05336
-5.89531
-5.76201
-5.65008
-5.55642
-5.47829
-5.41327
-5.35928
-5.31454
-5.2775
-5.24689
-5.22161
-5.20075
-5.18357
-5.16941
-5.15777
-5.1482
-5.14034
-5.1339
-5.12863
-5.12433
-5.12085
-5.11805
-5.11582
-5.11408
-5.11276
-5.11181
-5.11119
-5.11089
-15.8567
-15.8604
-15.8672
-15.8756
-15.8837
-15.8886
-15.8867
-15.874
-15.8457
-15.7964
-15.7207
-15.6132
-15.4684
-15.2813
-15.0475
-14.7634
-14.4266
-14.0365
-13.5943
-13.1038
-12.5712
-12.0054
-11.4177
-10.8207
-10.2273
-9.65026
-9.10041
-8.58644
-8.11436
-7.68758
-7.30714
-6.97218
-6.68041
-6.42859
-6.21297
-6.02958
-5.87448
-5.74393
-5.63449
-5.54305
-5.46686
-5.40353
-5.351
-5.30748
-5.27149
-5.24175
-5.21721
-5.19697
-5.18029
-5.16657
-5.15527
-5.14599
-5.13837
-5.13213
-5.12702
-5.12286
-5.11948
-5.11677
-5.11461
-5.11292
-5.11164
-5.11072
-5.11012
-5.10983
-15.8506
-15.8553
-15.8641
-15.8757
-15.8881
-15.8983
-15.9029
-15.8974
-15.8769
-15.8358
-15.7685
-15.669
-15.5317
-15.3512
-15.1226
-14.8418
-14.506
-14.1136
-13.6657
-13.1655
-12.6194
-12.0371
-11.4306
-10.814
-10.202
-9.60862
-9.04571
-8.52251
-8.04507
-7.61643
-7.23701
-6.90525
-6.61815
-6.37188
-6.16216
-5.98467
-5.83521
-5.7099
-5.60519
-5.51795
-5.44544
-5.38529
-5.33547
-5.29427
-5.26023
-5.23214
-5.20898
-5.18989
-5.17417
-5.16123
-5.15059
-5.14185
-5.13468
-5.1288
-5.124
-5.12008
-5.11691
-5.11435
-5.11232
-5.11073
-5.10953
-5.10866
-5.1081
-5.10783
-15.8411
-15.8472
-15.8589
-15.8749
-15.8933
-15.9111
-15.9248
-15.9297
-15.9205
-15.8913
-15.836
-15.7482
-15.6218
-15.4509
-15.2301
-14.9545
-14.6204
-14.2254
-13.7695
-13.2556
-12.6901
-12.0834
-11.4493
-10.8039
-10.1645
-9.54713
-8.96537
-8.42915
-7.94446
-7.51371
-7.13635
-6.80969
-6.52971
-6.29166
-6.09058
-5.92163
-5.78026
-5.66239
-5.56437
-5.48305
-5.41569
-5.35998
-5.31396
-5.27597
-5.24465
-5.21884
-5.19758
-5.18007
-5.16567
-5.15383
-5.1441
-5.13611
-5.12955
-5.12418
-5.11979
-5.11622
-5.11332
-5.11098
-5.10912
-5.10767
-5.10657
-5.10578
-5.10527
-5.10502
-15.8277
-15.8356
-15.8508
-15.8724
-15.8982
-15.9257
-15.951
-15.9691
-15.9745
-15.9605
-15.9206
-15.8479
-15.7356
-15.5775
-15.3671
-15.0989
-14.7678
-14.3703
-13.905
-13.3739
-12.7833
-12.1446
-11.4737
-10.79
-10.1141
-9.46532
-8.85926
-8.30676
-7.81361
-7.38117
-7.00743
-6.68819
-6.41799
-6.19093
-6.00117
-5.84324
-5.7122
-5.60375
-5.51413
-5.44018
-5.37922
-5.32899
-5.28764
-5.25361
-5.22561
-5.20258
-5.18365
-5.16808
-5.15529
-5.14478
-5.13615
-5.12906
-5.12325
-5.1185
-5.11461
-5.11144
-5.10888
-5.10681
-5.10517
-5.10388
-5.10291
-5.10221
-5.10175
-5.10153
-15.81
-15.8198
-15.8392
-15.867
-15.9017
-15.9406
-15.9797
-16.0139
-16.0369
-16.0415
-16.0202
-15.9657
-15.8707
-15.7282
-15.5313
-15.2729
-14.9468
-14.5476
-14.0721
-13.5208
-12.8998
-12.2213
-11.504
-10.7717
-10.0499
-9.36195
-8.72638
-8.15495
-7.65289
-7.21996
-6.85211
-6.54308
-6.28563
-6.07245
-5.89666
-5.75211
-5.63346
-5.53616
-5.45642
-5.39107
-5.33752
-5.29363
-5.25765
-5.22814
-5.20394
-5.18408
-5.16779
-5.15441
-5.14344
-5.13444
-5.12705
-5.12099
-5.11603
-5.11197
-5.10865
-5.10594
-5.10375
-5.10199
-5.10059
-5.09949
-5.09866
-5.09806
-5.09767
-5.09748
-15.7875
-15.7995
-15.8232
-15.858
-15.9026
-15.9544
-16.0096
-16.0625
-16.106
-16.1322
-16.1327
-16.0994
-16.0247
-15.9009
-15.7203
-15.4748
-15.1563
-14.757
-14.2714
-13.6978
-13.0411
-12.3145
-11.5405
-10.7484
-9.97014
-9.23506
-8.56501
-7.97272
-7.46222
-7.03092
-6.67199
-6.37652
-6.13512
-5.93883
-5.77966
-5.65072
-5.54631
-5.46169
-5.39306
-5.33732
-5.29199
-5.25508
-5.22499
-5.20043
-5.18036
-5.16395
-5.15052
-5.13953
-5.13053
-5.12315
-5.11711
-5.11216
-5.1081
-5.10479
-5.10208
-5.09987
-5.09809
-5.09665
-5.0955
-5.09461
-5.09393
-5.09344
-5.09312
-5.09298
-15.76
-15.7741
-15.8023
-15.8445
-15.8997
-15.9658
-16.039
-16.1131
-16.1802
-16.2311
-16.2563
-16.2471
-16.1954
-16.0932
-15.9321
-15.7029
-15.3953
-14.9987
-14.5041
-13.9068
-13.2095
-12.4263
-11.5837
-10.7189
-9.87271
-9.08195
-8.37278
-7.75855
-7.24122
-6.81474
-6.4686
-6.19063
-5.96889
-5.79261
-5.65262
-5.5414
-5.45287
-5.38224
-5.32572
-5.28037
-5.24387
-5.21441
-5.19057
-5.17125
-5.15554
-5.14276
-5.13234
-5.12384
-5.11689
-5.11122
-5.10657
-5.10277
-5.09967
-5.09713
-5.09506
-5.09337
-5.092
-5.0909
-5.09003
-5.08934
-5.08883
-5.08845
-5.08821
-5.0881
-15.7272
-15.7434
-15.776
-15.8255
-15.8918
-15.9733
-16.0664
-16.1644
-16.2581
-16.3367
-16.3894
-16.4069
-16.3806
-16.3028
-16.1645
-15.9554
-15.6628
-15.2727
-14.7718
-14.1503
-13.408
-12.5589
-11.6346
-10.6821
-9.75475
-8.89921
-8.14672
-7.5106
-6.98936
-6.5721
-6.24354
-5.98757
-5.78936
-5.63625
-5.51796
-5.42634
-5.35513
-5.29954
-5.25592
-5.22153
-5.19427
-5.17257
-5.15521
-5.14128
-5.13006
-5.12099
-5.11365
-5.10769
-5.10284
-5.09889
-5.09567
-5.09304
-5.0909
-5.08915
-5.08772
-5.08656
-5.08562
-5.08486
-5.08426
-5.08379
-5.08343
-5.08318
-5.08301
-5.08294
-15.6891
-15.707
-15.7437
-15.8004
-15.8778
-15.9757
-16.0905
-16.215
-16.3385
-16.4479
-16.5308
-16.5771
-16.5785
-16.5274
-16.4152
-16.2302
-15.9577
-15.5793
-15.076
-14.4317
-13.6406
-12.7156
-11.6942
-10.6366
-9.6127
-8.68261
-7.88329
-7.22678
-6.70616
-6.30386
-5.99857
-5.76961
-5.59901
-5.47223
-5.37795
-5.30763
-5.25492
-5.21518
-5.18501
-5.16194
-5.14416
-5.13037
-5.11959
-5.11111
-5.1044
-5.09907
-5.0948
-5.09138
-5.08862
-5.0864
-5.08459
-5.08313
-5.08194
-5.08097
-5.08019
-5.07955
-5.07903
-5.07861
-5.07828
-5.07802
-5.07783
-5.07769
-5.07759
-5.07756
-15.6458
-15.6652
-15.7053
-15.7684
-15.8568
-15.9714
-16.1096
-16.2637
-16.4204
-16.5638
-16.6793
-16.7562
-16.7868
-16.7647
-16.6816
-16.5253
-16.2785
-15.9184
-15.4187
-14.7545
-13.9121
-12.9007
-11.7642
-10.5803
-9.44204
-8.42699
-7.57842
-6.90492
-6.39132
-6.01114
-5.73574
-5.53921
-5.40039
-5.30296
-5.2348
-5.18719
-5.1539
-5.13058
-5.11419
-5.10261
-5.09439
-5.08852
-5.08429
-5.08123
-5.07898
-5.07732
-5.07609
-5.07516
-5.07445
-5.07392
-5.0735
-5.07317
-5.07292
-5.07272
-5.07255
-5.07242
-5.07232
-5.07223
-5.07216
-5.07211
-5.07207
-5.07205
-5.07203
-5.07204
-15.5976
-15.618
-15.6606
-15.7292
-15.8277
-15.9593
-16.1225
-16.3091
-16.503
-16.6838
-16.8342
-16.9429
-17.0037
-17.012
-16.9608
-16.8379
-16.6234
-16.2896
-15.8016
-15.1232
-14.2284
-13.1197
-11.8468
-10.5109
-9.23709
-8.12621
-7.22758
-6.54288
-6.04487
-5.6955
-5.45738
-5.29902
-5.19609
-5.13081
-5.0906
-5.0668
-5.05356
-5.04698
-5.04448
-5.04439
-5.04566
-5.0476
-5.0498
-5.05202
-5.05413
-5.05605
-5.05775
-5.05923
-5.06051
-5.0616
-5.06252
-5.06329
-5.06394
-5.06447
-5.06491
-5.06527
-5.06556
-5.06579
-5.06598
-5.06612
-5.06624
-5.06633
-5.06638
-5.06643
-15.5451
-15.5658
-15.6097
-15.6822
-15.7896
-15.9377
-16.1274
-16.3502
-16.5858
-16.8079
-16.995
-17.136
-17.2272
-17.2668
-17.25
-17.1649
-16.99
-16.692
-16.2263
-15.5422
-14.5965
-13.3793
-11.945
-10.4252
-8.99072
-7.77295
-6.82587
-6.13878
-5.66737
-5.35896
-5.1662
-5.05184
-4.98875
-4.9581
-4.94729
-4.94808
-4.95523
-4.96544
-4.97675
-4.98799
-4.99853
-5.00807
-5.0165
-5.02383
-5.03011
-5.03546
-5.03997
-5.04376
-5.04693
-5.04957
-5.05176
-5.05358
-5.05508
-5.05631
-5.05732
-5.05814
-5.05881
-5.05934
-5.05977
-5.06011
-5.06037
-5.06056
-5.06069
-5.06076
-15.4889
-15.5091
-15.5528
-15.6272
-15.7415
-15.9052
-16.1227
-16.3857
-16.6687
-16.9362
-17.1617
-17.3347
-17.4554
-17.5262
-17.5456
-17.503
-17.3752
-17.124
-16.694
-16.0164
-15.0247
-13.6884
-12.0627
-10.319
-8.69394
-7.3587
-6.36818
-5.69124
-5.26007
-5.00415
-4.86528
-4.80066
-4.78097
-4.78702
-4.80666
-4.83246
-4.86002
-4.88687
-4.91171
-4.93396
-4.95346
-4.97031
-4.98469
-4.99688
-5.00714
-5.01573
-5.0229
-5.02887
-5.03382
-5.03792
-5.04131
-5.0441
-5.0464
-5.04829
-5.04984
-5.0511
-5.05212
-5.05294
-5.05359
-5.05411
-5.05451
-5.05479
-5.05499
-5.0551
-15.4298
-15.4486
-15.4904
-15.5642
-15.6826
-15.8602
-16.1064
-16.4144
-16.7518
-17.0696
-17.3345
-17.5381
-17.6863
-17.7876
-17.8443
-17.8481
-17.7754
-17.5832
-17.2049
-16.5508
-15.5228
-14.0582
-12.2053
-10.1868
-8.33537
-6.87357
-5.84944
-5.19958
-4.82502
-4.63432
-4.55801
-4.54854
-4.57533
-4.61961
-4.6703
-4.72116
-4.7689
-4.81199
-4.84992
-4.88274
-4.9108
-4.93458
-4.95459
-4.97136
-4.98535
-4.99699
-5.00665
-5.01464
-5.02126
-5.02672
-5.03122
-5.03493
-5.03797
-5.04047
-5.04251
-5.04418
-5.04553
-5.04661
-5.04748
-5.04816
-5.04868
-5.04906
-5.04932
-5.04945
-15.3687
-15.3851
-15.423
-15.4932
-15.6122
-15.8008
-16.076
-16.4348
-16.8357
-17.2094
-17.5141
-17.7455
-17.9181
-18.0479
-18.1425
-18.1962
-18.1863
-18.0663
-17.7585
-17.1498
-16.1018
-14.5031
-12.3805
-10.021
-7.90067
-6.30639
-5.26491
-4.66419
-4.36529
-4.25332
-4.24809
-4.29859
-4.37427
-4.45774
-4.53961
-4.61521
-4.68262
-4.74137
-4.79181
-4.83466
-4.87078
-4.90107
-4.92635
-4.94738
-4.96484
-4.9793
-4.99126
-5.00114
-5.00929
-5.01601
-5.02154
-5.02608
-5.02982
-5.03288
-5.03538
-5.03741
-5.03906
-5.0404
-5.04146
-5.04229
-5.04293
-5.04338
-5.0437
-5.04385
-15.3065
-15.3197
-15.3515
-15.4147
-15.5298
-15.7253
-16.029
-16.4452
-16.9217
-17.3579
-17.7016
-17.9564
-18.149
-18.3044
-18.4363
-18.5429
-18.603
-18.5687
-18.3529
-17.8172
-16.774
-15.041
-12.5987
-9.81091
-7.37167
-5.64478
-4.61066
-4.08679
-3.88499
-3.86562
-3.93939
-4.05385
-4.18006
-4.30304
-4.41574
-4.51544
-4.60175
-4.67541
-4.73766
-4.78992
-4.83357
-4.86989
-4.90004
-4.92502
-4.94567
-4.96273
-4.9768
-4.9884
-4.99795
-5.00581
-5.01228
-5.01759
-5.02195
-5.02553
-5.02845
-5.03082
-5.03275
-5.0343
-5.03554
-5.03651
-5.03726
-5.03778
-5.03815
-5.03831
-15.2444
-15.2532
-15.2768
-15.3292
-15.435
-15.6316
-15.9618
-16.4431
-17.0117
-17.5179
-17.8982
-18.1703
-18.3771
-18.5544
-18.7223
-18.8835
-19.0202
-19.085
-18.9844
-18.5555
-17.5525
-15.6946
-12.8749
-9.54144
-6.72558
-4.87546
-3.88412
-3.47076
-3.38934
-3.47617
-3.63585
-3.81722
-3.99473
-4.15691
-4.29963
-4.42247
-4.52671
-4.61438
-4.68766
-4.74863
-4.79922
-4.8411
-4.87572
-4.90429
-4.92785
-4.94727
-4.96326
-4.97642
-4.98724
-4.99615
-5.00346
-5.00947
-5.0144
-5.01843
-5.02173
-5.02441
-5.02659
-5.02834
-5.02974
-5.03083
-5.03168
-5.03227
-5.03267
-5.03285
-15.1832
-15.1869
-15.2
-15.2377
-15.3278
-15.5178
-15.8702
-16.4254
-17.1089
-17.6935
-18.1056
-18.3866
-18.6004
-18.795
-18.9969
-19.2137
-19.4321
-19.6086
-19.6476
-19.365
-18.4508
-16.4926
-13.2312
-9.19074
-5.93393
-3.98489
-3.08481
-2.82141
-2.88464
-3.09026
-3.34139
-3.59137
-3.82004
-4.02046
-4.19198
-4.33671
-4.45775
-4.55843
-4.64186
-4.71084
-4.76777
-4.8147
-4.85336
-4.88518
-4.91137
-4.93291
-4.95063
-4.9652
-4.97717
-4.987
-4.99508
-5.00171
-5.00714
-5.01159
-5.01523
-5.01819
-5.02059
-5.02253
-5.02407
-5.02527
-5.02621
-5.02684
-5.02728
-5.02746
-15.1241
-15.1217
-15.1225
-15.1413
-15.2088
-15.3821
-15.7492
-16.3873
-17.2178
-17.8897
-18.3254
-18.6044
-18.8171
-19.0239
-19.2571
-19.5292
-19.8329
-20.1322
-20.3349
-20.2434
-19.4819
-17.4697
-13.6994
-8.72674
-4.96173
-2.9602
-2.21507
-2.14616
-2.37812
-2.71339
-3.05971
-3.37867
-3.65743
-3.89455
-4.09327
-4.25842
-4.39498
-4.50759
-4.60028
-4.6765
-4.73915
-4.79063
-4.83292
-4.86766
-4.8962
-4.91964
-4.9389
-4.95472
-4.9677
-4.97837
-4.98712
-4.99431
-5.00019
-5.00501
-5.00895
-5.01215
-5.01475
-5.01685
-5.01852
-5.01981
-5.02083
-5.0215
-5.02197
-5.02217
-15.0678
-15.0587
-15.0455
-15.0417
-15.0788
-15.2231
-15.5926
-16.3219
-17.3457
-18.1127
-18.5592
-18.8226
-19.0252
-19.2387
-19.5
-19.826
-20.217
-20.6475
-21.0368
-21.1847
-20.6563
-18.6684
-14.3273
-8.10185
-3.76671
-1.79071
-1.28092
-1.4546
-1.87778
-2.35103
-2.79422
-3.18112
-3.50801
-3.77974
-4.00376
-4.18769
-4.3384
-4.4618
-4.56283
-4.64555
-4.71331
-4.76884
-4.81435
-4.85168
-4.88229
-4.90742
-4.92803
-4.94495
-4.95884
-4.97023
-4.97958
-4.98725
-4.99354
-4.99868
-5.00288
-5.0063
-5.00908
-5.01131
-5.0131
-5.01448
-5.01556
-5.01627
-5.01676
-5.01698
-15.0151
-14.999
-14.9705
-14.9407
-14.9396
-15.0399
-15.3933
-16.2189
-17.5031
-18.37
-18.8079
-19.0396
-19.2227
-19.4375
-19.7234
-20.101
-20.5789
-21.1461
-21.7415
-22.1783
-21.9807
-20.1381
-15.1859
-7.24513
-2.29934
-0.46991
-0.292818
-0.758381
-1.39204
-2.00837
-2.54788
-3.00028
-3.37255
-3.67637
-3.92354
-4.12448
-4.2879
-4.42095
-4.52938
-4.61786
-4.69013
-4.74922
-4.79757
-4.83716
-4.8696
-4.89619
-4.91799
-4.93588
-4.95055
-4.96258
-4.97245
-4.98054
-4.98718
-4.9926
-4.99703
-5.00064
-5.00357
-5.00593
-5.00781
-5.00926
-5.0104
-5.01115
-5.01165
-5.01191
-14.9666
-14.9434
-14.8988
-14.8404
-14.7935
-14.8326
-15.1432
-16.0629
-17.7057
-18.6699
-19.0717
-19.2533
-19.4074
-19.6186
-19.9254
-20.3512
-20.9138
-21.6195
-22.4357
-23.209
-23.4549
-21.9347
-16.3812
-6.05055
-0.503949
1.00194
0.733762
-0.0709104
-0.929371
-1.69012
-2.32309
-2.8373
-3.25151
-3.58453
-3.85252
-4.06863
-4.24332
-4.38486
-4.49979
-4.5933
-4.6695
-4.73169
-4.7825
-4.82405
-4.85807
-4.88593
-4.90876
-4.92747
-4.94282
-4.9554
-4.96572
-4.97418
-4.98111
-4.98678
-4.99141
-4.99518
-4.99824
-5.00071
-5.00268
-5.00418
-5.00537
-5.00616
-5.00667
-5.00697
-14.9229
-14.8926
-14.8318
-14.7429
-14.6438
-14.6029
-14.8339
-15.8308
-17.9771
-19.0213
-19.3494
-19.4608
-19.5776
-19.7807
-20.1048
-20.5747
-21.2175
-22.0595
-23.1048
-24.2559
-25.0687
-24.1169
-18.0713
-4.36013
1.67811
2.61469
1.77804
0.593185
-0.4979
-1.40033
-2.12169
-2.69286
-3.14501
-3.50409
-3.79048
-4.01989
-4.2044
-4.35331
-4.47386
-4.5717
-4.65128
-4.71612
-4.76904
-4.81228
-4.84764
-4.87658
-4.90029
-4.91972
-4.93564
-4.94869
-4.9594
-4.96816
-4.97535
-4.98123
-4.98603
-4.98994
-4.99311
-4.99567
-4.99771
-4.99926
-5.00049
-5.00132
-5.00183
-5.00217
-14.8843
-14.8471
-14.7705
-14.6508
-14.4944
-14.3545
-14.4574
-15.4884
-18.352
-19.4327
-19.6378
-19.6587
-19.7311
-19.923
-20.2609
-20.7703
-21.4869
-22.459
-23.7339
-25.2933
-26.7989
-26.7401
-20.4904
-1.93987
4.30214
4.34489
2.81416
1.2188
-0.10494
-1.14215
-1.94481
-2.56719
-3.05289
-3.43476
-3.73709
-3.97795
-4.17085
-4.32605
-4.45137
-4.55288
-4.63532
-4.70242
-4.75711
-4.80176
-4.83826
-4.86812
-4.89256
-4.91259
-4.92899
-4.94244
-4.95346
-4.96249
-4.96989
-4.97594
-4.98089
-4.98491
-4.98818
-4.99081
-4.99291
-4.99451
-4.99576
-4.99664
-4.99716
-4.99753
-14.8508
-14.8075
-14.716
-14.5661
-14.3497
-14.0933
-14.0078
-14.9854
-18.8813
-19.9105
-19.9316
-19.843
-19.8665
-20.0449
-20.3936
-20.9372
-21.72
-22.8119
-24.3082
-26.2913
-28.6056
-29.8455
-23.9818
1.55354
7.40915
6.15252
3.81204
1.79128
0.243403
-0.917768
-1.79298
-2.46012
-2.97476
-3.37606
-3.6919
-3.9424
-4.14235
-4.3028
-4.4321
-4.53667
-4.62148
-4.69044
-4.74661
-4.79243
-4.82987
-4.86048
-4.88553
-4.90605
-4.92285
-4.93663
-4.94791
-4.95716
-4.96473
-4.97093
-4.97599
-4.98011
-4.98346
-4.98615
-4.9883
-4.98994
-4.9912
-4.99213
-4.99266
-4.99303
-14.8226
-14.7738
-14.669
-14.4909
-14.2147
-13.8281
-13.4841
-14.2487
-19.6384
-20.4564
-20.2223
-20.0095
-19.9822
-20.1464
-20.5033
-21.0757
-21.9155
-23.1138
-24.8148
-27.2173
-30.4295
-33.4422
-29.0436
6.6181
11.0083
7.97843
4.73894
2.29738
0.54257
-0.728325
-1.66607
-2.37114
-2.90998
-3.32742
-3.65439
-3.9128
-4.11852
-4.28325
-4.41578
-4.52284
-4.60958
-4.68004
-4.7374
-4.78418
-4.82237
-4.85359
-4.87914
-4.90005
-4.91718
-4.93122
-4.94272
-4.95214
-4.95985
-4.96616
-4.97132
-4.97552
-4.97893
-4.98167
-4.98386
-4.98554
-4.9868
-4.98778
-4.98832
-4.98865
-14.7994
-14.7461
-14.6299
-14.4269
-14.0944
-13.5708
-12.8934
-13.1736
-20.7286
-21.0635
-20.4989
-20.1537
-20.0774
-20.2279
-20.5907
-21.1865
-22.0736
-23.3619
-25.2428
-28.0381
-32.1918
-37.4816
-36.3886
13.9665
15.051
9.74355
5.56178
2.72627
0.789761
-0.573949
-1.56341
-2.29937
-2.85776
-3.28812
-3.62397
-3.88867
-4.09895
-4.26706
-4.40216
-4.51117
-4.59942
-4.67108
-4.72937
-4.77689
-4.81568
-4.84738
-4.87331
-4.89454
-4.91192
-4.92616
-4.93783
-4.94739
-4.95521
-4.96161
-4.96685
-4.97111
-4.97457
-4.97734
-4.97956
-4.98128
-4.98253
-4.98355
-4.98411
-4.98438
-14.7811
-14.7243
-14.5987
-14.3751
-13.9932
-13.3356
-12.2571
-11.6125
-22.3
-21.711
-20.7474
-20.2718
-20.1517
-20.29
-20.657
-21.2709
-22.1951
-23.5553
-25.5848
-28.7233
-33.7956
-41.8199
-47.0219
24.6039
19.3932
11.3509
6.25008
3.07035
0.984015
-0.453838
-1.48384
-2.24376
-2.81717
-3.25742
-3.60003
-3.8695
-4.08324
-4.25392
-4.39094
-4.50143
-4.59083
-4.66338
-4.72238
-4.77046
-4.8097
-4.84176
-4.86798
-4.88944
-4.90701
-4.92141
-4.9332
-4.94286
-4.95077
-4.95724
-4.96253
-4.96684
-4.97033
-4.97314
-4.97537
-4.97713
-4.97837
-4.97941
-4.98
-4.9802
-14.7674
-14.708
-14.5755
-14.3362
-13.915
-13.1387
-11.6181
-9.36006
-24.5584
-22.3567
-20.9525
-20.3608
-20.2052
-20.334
-20.7037
-21.3305
-22.2817
-23.6951
-25.8369
-29.2486
-35.1325
-46.1673
-62.3391
39.9259
23.7451
12.6922
6.77928
3.32579
1.12611
-0.366416
-1.42589
-2.20307
-2.78724
-3.23454
-3.58197
-3.85483
-4.07102
-4.24351
-4.3819
-4.49343
-4.58364
-4.65682
-4.71632
-4.76479
-4.80435
-4.83666
-4.86309
-4.88471
-4.90242
-4.91693
-4.92881
-4.93854
-4.94651
-4.95303
-4.95835
-4.9627
-4.96622
-4.96904
-4.97128
-4.97308
-4.97432
-4.97534
-4.97598
-4.97612
-14.7579
-14.6969
-14.56
-14.3103
-13.8619
-12.9961
-11.0505
-6.13602
-27.7846
-22.9269
-21.0987
-20.4189
-20.2388
-20.3611
-20.7325
-21.3675
-22.3359
-23.7838
-25.9996
-29.5986
-36.0955
-50.0215
-84.247
61.8388
27.6043
13.66
7.13386
3.4927
1.21834
-0.30956
-1.38791
-2.17607
-2.76706
-3.21883
-3.56929
-3.84429
-4.06202
-4.23565
-4.3749
-4.48709
-4.5778
-4.65138
-4.71119
-4.75991
-4.79966
-4.83214
-4.85869
-4.88042
-4.89821
-4.91278
-4.92472
-4.9345
-4.9425
-4.94905
-4.9544
-4.95877
-4.96231
-4.96514
-4.96737
-4.96922
-4.97045
-4.97144
-4.97213
-4.97226
-14.7523
-14.6905
-14.5515
-14.2967
-13.8348
-12.9203
-10.672
-1.5635
-32.3559
-23.3044
-21.174
-20.4463
-20.2539
-20.3729
-20.745
-21.384
-22.3607
-23.8251
-26.0771
-29.7698
-36.5988
-52.5832
-115.307
92.9044
30.1714
14.1686
7.31016
3.57511
1.26436
-0.28058
-1.36797
-2.16137
-2.75561
-3.2095
-3.5614
-3.83742
-4.05589
-4.23006
-4.36971
-4.48221
-4.57316
-4.64692
-4.70688
-4.75573
-4.79557
-4.82812
-4.85473
-4.87651
-4.89434
-4.90895
-4.92091
-4.93071
-4.93873
-4.9453
-4.95066
-4.95503
-4.95859
-4.96142
-4.96364
-4.96552
-4.96675
-4.96768
-4.96845
-4.9686
)
;

boundaryField
{
    left
    {
        type            calculated;
        value           nonuniform List<scalar> 
32
(
-15.8598
-15.8567
-15.8506
-15.8411
-15.8277
-15.81
-15.7875
-15.76
-15.7272
-15.6891
-15.6458
-15.5976
-15.5451
-15.4889
-15.4298
-15.3687
-15.3065
-15.2444
-15.1832
-15.1241
-15.0678
-15.0151
-14.9666
-14.9229
-14.8843
-14.8508
-14.8226
-14.7994
-14.7811
-14.7674
-14.7579
-14.7523
)
;
    }
    right
    {
        type            calculated;
        value           nonuniform List<scalar> 
32
(
-5.11089
-5.10983
-5.10783
-5.10502
-5.10153
-5.09748
-5.09298
-5.0881
-5.08294
-5.07756
-5.07204
-5.06643
-5.06076
-5.0551
-5.04945
-5.04385
-5.03831
-5.03285
-5.02746
-5.02217
-5.01698
-5.01191
-5.00697
-5.00217
-4.99753
-4.99303
-4.98865
-4.98438
-4.9802
-4.97612
-4.97226
-4.9686
)
;
    }
    interface
    {
        type            calculated;
        value           nonuniform List<scalar> 
64
(
-14.7504
-14.6884
-14.5489
-14.2929
-13.8276
-12.9004
-10.5479
1.11374
-35.0318
-23.4272
-21.1927
-20.4525
-20.2569
-20.3752
-20.7475
-21.3874
-22.3661
-23.8345
-26.0952
-29.811
-36.7269
-53.4195
-133.492
111.092
31.0105
14.2994
7.3541
3.59595
1.27637
-0.272679
-1.36225
-2.1569
-2.75193
-3.20632
-3.55857
-3.83483
-4.05347
-4.22777
-4.36752
-4.48009
-4.5711
-4.64491
-4.70491
-4.75377
-4.79364
-4.82621
-4.85284
-4.87463
-4.89247
-4.90708
-4.91905
-4.92886
-4.93688
-4.94345
-4.94882
-4.95319
-4.95675
-4.95959
-4.9618
-4.96369
-4.96493
-4.96582
-4.96662
-4.96679
)
;
    }
    bottom
    {
        type            calculated;
        value           nonuniform List<scalar> 
64
(
-15.8605
-15.8636
-15.8689
-15.8752
-15.8804
-15.8818
-15.8758
-15.8583
-15.8248
-15.7701
-15.689
-15.5761
-15.4264
-15.2351
-14.9979
-14.7117
-14.3746
-13.9861
-13.5478
-13.0637
-12.5399
-11.9849
-11.4094
-10.8249
-10.2436
-9.67713
-9.13583
-8.62799
-8.15957
-7.73419
-7.35326
-7.01636
-6.72164
-6.46628
-6.24683
-6.05957
-5.90076
-5.76675
-5.65417
-5.55993
-5.48128
-5.41583
-5.36146
-5.31639
-5.27908
-5.24823
-5.22276
-5.20175
-5.18443
-5.17016
-5.15842
-5.14877
-5.14085
-5.13436
-5.12905
-5.12472
-5.12121
-5.11839
-5.11614
-5.11438
-5.11305
-5.11209
-5.11147
-5.11117
)
;
    }
    defaultFaces
    {
        type            empty;
    }
}


// ************************************************************************* //
