/*--------------------------------*- C++ -*----------------------------------*\
| =========                 |                                                 |
| \\      /  F ield         | OpenFOAM: The Open Source CFD Toolbox           |
|  \\    /   O peration     | Version:  5.x                                   |
|   \\  /    A nd           | Web:      www.OpenFOAM.org                      |
|    \\/     M anipulation  |                                                 |
\*---------------------------------------------------------------------------*/
FoamFile
{
    version     2.0;
    format      ascii;
    class       volScalarField;
    location    "1.6";
    object      gradTx;
}
// * * * * * * * * * * * * * * * * * * * * * * * * * * * * * * * * * * * * * //

dimensions      [0 -1 0 1 0 0 0];

internalField   nonuniform List<scalar> 
2048
(
-0.000692364
-0.00192363
-0.00268298
-0.00265139
-0.00150783
0.00107326
0.00539547
0.0117278
0.0202865
0.0312172
0.0445829
0.060356
0.0784113
0.0985154
0.120312
0.143303
0.16683
0.190072
0.212059
0.231725
0.247994
0.259897
0.2667
0.268014
0.26386
0.254664
0.241194
0.224439
0.20548
0.185367
0.165027
0.145207
0.126463
0.109159
0.0934995
0.07956
0.0673191
0.0566905
0.0475482
0.0397452
0.0331283
0.0275471
0.0228605
0.0189393
0.0156685
0.012947
0.0106869
0.00881322
0.00726169
0.00597812
0.00491681
0.00403944
0.00331393
0.00271347
0.0022157
0.00180193
0.00145655
0.00116648
0.00092073
0.000709962
0.00052614
0.000362212
0.00021194
6.97433e-05
-0.00217473
-0.00607407
-0.00858537
-0.00876031
-0.00564406
0.0017342
0.0142885
0.0328302
0.0580122
0.0902745
0.12981
0.176544
0.230113
0.289842
0.354691
0.423202
0.493435
0.562946
0.628827
0.687856
0.736754
0.772551
0.792984
0.796852
0.784217
0.756398
0.715757
0.66533
0.608415
0.548189
0.487436
0.428387
0.372669
0.321344
0.27499
0.233798
0.197681
0.166365
0.139458
0.116517
0.0970802
0.0806976
0.0669491
0.0554523
0.0458665
0.0378932
0.0312742
0.025788
0.0212461
0.0174892
0.0143834
0.0118162
0.00969349
0.00793686
0.00648073
0.0052704
0.00426015
0.00341173
0.00269297
0.00207656
0.00153898
0.00105949
0.000619604
0.000203698
-0.00393802
-0.0110882
-0.0159922
-0.0170949
-0.0128186
-0.00154529
0.0182661
0.0479911
0.0887375
0.141253
0.205872
0.282487
0.37053
0.468937
0.576062
0.689571
0.806318
0.922274
1.03257
1.13172
1.21407
1.27442
1.3088
1.31507
1.29332
1.24591
1.17699
1.09186
0.996247
0.895556
0.794471
0.696672
0.604793
0.5205
0.444645
0.377457
0.318717
0.26791
0.224354
0.187285
0.155927
0.129533
0.107408
0.0889243
0.0735252
0.0607252
0.0501052
0.0413067
0.0340256
0.0280049
0.0230289
0.0189168
0.0155174
0.0127046
0.0103734
0.0084358
0.00681867
0.00546066
0.00431024
0.00332374
0.00246359
0.00169637
0.000991207
0.000325195
-0.00613714
-0.0174338
-0.0256957
-0.0287888
-0.0245136
-0.0105821
0.0152169
0.0548716
0.109986
0.18164
0.270321
0.375903
0.497652
0.634184
0.783353
0.94207
1.10609
1.26983
1.42639
1.56782
1.68575
1.77235
1.82154
1.83002
1.79795
1.72892
1.62927
1.50703
1.37065
1.22803
1.08582
0.949146
0.821535
0.70512
0.600896
0.509
0.428979
0.360007
0.301054
0.251011
0.208772
0.173284
0.143582
0.118801
0.0981783
0.0810523
0.0668539
0.0550983
0.0453752
0.0373389
0.0306994
0.0252143
0.0206811
0.016931
0.0138234
0.011241
0.00908592
0.00727628
0.00574335
0.0044289
0.00328305
0.00226166
0.00132066
0.00043225
-0.00887199
-0.025419
-0.0382332
-0.0446348
-0.0417985
-0.0267237
0.00354256
0.0516805
0.119853
0.209503
0.321273
0.455023
0.609881
0.784229
0.97556
1.1802
1.39295
1.60675
1.81259
1.99976
2.15665
2.2722
2.33764
2.34814
2.30392
2.2102
2.07611
1.91302
1.73266
1.54572
1.36096
1.18487
1.02173
0.873972
0.742529
0.62729
0.52744
0.441746
0.368771
0.307021
0.255039
0.211464
0.175064
0.144743
0.119544
0.0986404
0.0813264
0.0670024
0.0551625
0.0453819
0.0373049
0.0306348
0.0251239
0.0205664
0.0167904
0.0136531
0.0110353
0.00883733
0.00697556
0.00537908
0.00398749
0.00274836
0.00160418
0.000523805
-0.0121947
-0.0352118
-0.0539191
-0.0651342
-0.0653992
-0.0509387
-0.017952
0.0370501
0.116877
0.223366
0.357297
0.518489
0.705947
0.917912
1.15169
1.40325
1.66668
1.93358
2.19275
2.43035
2.63091
2.77923
2.86298
2.8753
2.81645
2.69382
2.52023
2.31127
2.08267
1.84829
1.61908
1.40281
1.2043
1.02602
0.868611
0.731519
0.613417
0.512562
0.427042
0.354937
0.294425
0.24383
0.201657
0.166591
0.137493
0.113385
0.0934383
0.0769504
0.0633318
0.0520887
0.0428086
0.0351482
0.0288215
0.0235907
0.0192581
0.015659
0.0126562
0.0101354
0.00800031
0.00616927
0.00457313
0.0031536
0.00184006
0.000599402
-0.0161143
-0.0468538
-0.072868
-0.0905318
-0.0957489
-0.0838853
-0.0501439
0.00993932
0.0999409
0.222121
0.377342
0.565304
0.784871
1.03423
1.31073
1.6103
1.92664
2.25024
2.56772
2.86174
3.11211
3.2983
3.40319
3.41709
3.34034
3.1833
2.96368
2.70255
2.42047
2.13492
1.8591
1.60184
1.36822
1.16039
0.978449
0.82116
0.686524
0.572181
0.475676
0.394634
0.326847
0.270331
0.223332
0.184331
0.15202
0.125287
0.103193
0.0849472
0.0698887
0.0574648
0.0472158
0.0387594
0.0317779
0.0260078
0.0212296
0.0172612
0.0139509
0.0111722
0.00881897
0.00680056
0.00504077
0.00347774
0.00202837
0.000659098
-0.0206002
-0.0602704
-0.095012
-0.120842
-0.133025
-0.125963
-0.0936613
-0.0304457
0.0681948
0.204963
0.380691
0.594804
0.845953
1.13237
1.45169
1.80023
2.17175
2.55605
2.93769
3.29544
3.60336
3.83403
3.96383
3.97909
3.88021
3.68168
3.40786
3.08688
2.74521
2.40435
2.07967
1.78076
1.51252
1.27639
1.07158
0.895937
0.74663
0.620573
0.514714
0.426189
0.352407
0.291073
0.240196
0.198062
0.163215
0.134426
0.110661
0.0910544
0.0748857
0.061555
0.050564
0.0414997
0.0340195
0.0278393
0.022723
0.0184746
0.0149312
0.0119574
0.00943902
0.00727863
0.00539461
0.00372347
0.00217052
0.00070335
-0.0255849
-0.075279
-0.120114
-0.155865
-0.177175
-0.177355
-0.148941
-0.0847213
0.0209864
0.17134
0.366932
0.606652
0.888788
1.21168
1.57359
1.97171
2.40053
2.84972
3.30208
3.73225
4.10736
4.391
4.55067
4.56705
4.4406
4.19162
3.85353
3.46361
3.05543
2.65487
2.27923
1.93833
1.63632
1.37348
1.14775
0.955811
0.793836
0.657926
0.544385
0.449851
0.371348
0.306289
0.252458
0.207972
0.171245
0.140946
0.115965
0.0953754
0.0784102
0.0644323
0.0529145
0.0434202
0.0355884
0.02912
0.0237667
0.0193224
0.0156161
0.0125059
0.00987233
0.00761255
0.00564127
0.00389515
0.00226886
0.00073292
-0.0309669
-0.0915964
-0.147775
-0.195199
-0.227933
-0.238054
-0.216277
-0.153392
-0.0422011
0.120904
0.335943
0.600845
0.913285
1.27177
1.67554
2.12331
2.61109
3.1293
3.65957
4.17228
4.62637
4.97381
5.16987
5.18712
5.0261
4.71536
4.30073
3.83129
3.34905
2.88439
2.45604
2.07331
1.73889
1.45133
1.20693
1.00096
0.828447
0.684608
0.56508
0.466002
0.384029
0.316303
0.260408
0.214314
0.176326
0.145033
0.119262
0.098043
0.0805735
0.0661899
0.0543445
0.0445849
0.0365376
0.0298935
0.0243964
0.0198337
0.0160291
0.0128367
0.0101337
0.00781364
0.00578907
0.00399825
0.00232639
0.000748803
-0.036614
-0.108847
-0.177448
-0.238249
-0.284828
-0.307884
-0.295864
-0.236913
-0.121812
0.0534799
0.287883
0.577727
0.919702
1.31251
1.75679
2.25352
2.80124
3.39223
4.00797
4.6148
5.16218
5.58717
5.82819
5.84606
5.64142
5.25468
4.7487
4.18768
3.62336
3.09048
2.60829
2.18455
1.81966
1.50984
1.24934
1.03178
0.85095
0.70114
0.577313
0.475126
0.39089
0.321507
0.264389
0.217384
0.178712
0.1469
0.120733
0.0992087
0.081502
0.0669329
0.0549412
0.0450659
0.0369264
0.0302087
0.0246523
0.0200412
0.0161966
0.0129708
0.0102398
0.00789456
0.00584732
0.00403895
0.00234658
0.000752195
-0.0423681
-0.126576
-0.208444
-0.28423
-0.347183
-0.386512
-0.387838
-0.335759
-0.218286
-0.0309734
0.223189
0.538007
0.908665
1.33409
1.81677
2.36082
2.96847
3.63534
4.3442
5.05812
5.71601
6.23599
6.53324
6.55151
6.29148
5.8108
5.19574
4.52963
3.87509
3.27046
2.73413
2.27105
1.8783
1.54913
1.27537
1.04884
0.861988
0.708171
0.5817
0.477785
0.392434
0.32234
0.264778
0.217504
0.178675
0.146778
0.120571
0.0990336
0.0813299
0.0667724
0.0547969
0.0449392
0.0368176
0.030117
0.0245764
0.0199792
0.0161462
0.0129304
0.0102079
0.00786864
0.00582589
0.00402386
0.00233327
0.000744501
-0.0480501
-0.144256
-0.239949
-0.332171
-0.414113
-0.473442
-0.4923
-0.450494
-0.332127
-0.132395
0.14258
0.48277
0.881193
1.33703
1.85519
2.44378
3.1101
3.85487
4.6642
5.49944
6.28832
6.92539
7.29381
7.31224
6.98141
6.38421
5.63907
4.85311
4.10043
3.42147
2.83185
2.33204
1.91474
1.56958
1.28568
1.0529
0.862337
0.706445
0.578926
0.474592
0.389195
0.319265
0.261972
0.21501
0.176498
0.144904
0.118973
0.0976816
0.0801931
0.0658214
0.0540045
0.0442817
0.0362743
0.0296701
0.0242109
0.0196819
0.0159059
0.0127377
0.0100557
0.00774928
0.00573481
0.0039598
0.00229063
0.000727348
-0.0534675
-0.161315
-0.271043
-0.380926
-0.484509
-0.568002
-0.609345
-0.581853
-0.463988
-0.250649
0.047067
0.413494
0.838703
1.32224
1.87203
2.50117
3.22339
4.04659
4.96292
5.93462
6.8786
7.66067
8.12017
8.13853
7.71656
6.97445
6.0746
5.15308
4.29509
3.54065
2.89993
2.36705
1.9292
1.57183
1.28109
1.04484
0.852874
0.696777
0.569722
0.466189
0.381729
0.312753
0.256369
0.210236
0.172462
0.141511
0.116133
0.0953145
0.0782255
0.0641901
0.0526553
0.0431684
0.0353581
0.0289186
0.023597
0.0191829
0.0155025
0.0124143
0.00980005
0.0075496
0.00558401
0.00385368
0.0022231
0.000702575
-0.0584222
-0.177151
-0.300723
-0.429178
-0.55702
-0.669315
-0.739071
-0.730827
-0.61476
-0.38554
-0.0620265
0.332059
0.783005
1.29097
1.86763
2.53199
3.30564
4.20589
5.23431
6.358
7.485
8.44728
9.02453
9.04263
8.50242
7.57974
6.49674
5.42354
4.4545
3.62524
2.93717
2.37597
1.92223
1.55676
1.26262
1.0257
0.834556
0.680028
0.554842
0.453225
0.370587
0.303273
0.248362
0.203512
0.16684
0.136826
0.112241
0.0920872
0.075555
0.0619841
0.050836
0.0416706
0.0341275
0.0279105
0.022774
0.0185141
0.0149617
0.0119808
0.00945734
0.00728211
0.00538312
0.00371239
0.0021353
0.000672167
-0.0627204
-0.19116
-0.327937
-0.475467
-0.630039
-0.776243
-0.881566
-0.898775
-0.785686
-0.536821
-0.183027
0.240752
0.716273
1.24485
1.84271
2.53566
3.35439
4.32794
5.47133
6.76213
8.10389
9.2906
10.0216
10.0393
9.34442
8.19651
6.89815
5.65759
4.57392
3.67277
2.94281
2.35911
1.89472
1.5255
1.23144
0.996585
0.808387
0.657078
0.535045
0.436344
0.356312
0.291277
0.238329
0.19515
0.159891
0.131063
0.107471
0.0881455
0.0723017
0.0593023
0.0486279
0.0398551
0.0326374
0.0266904
0.0217784
0.017705
0.0143076
0.0114563
0.00904272
0.00695856
0.00514132
0.00354272
0.00203185
0.000638097
-0.0661825
-0.202765
-0.351626
-0.518208
-0.701678
-0.887321
-1.03689
-1.08754
-0.978487
-0.704167
-0.31386
0.14226
0.640998
1.18578
1.79832
2.51199
3.36755
4.40796
5.66616
7.13761
8.72931
10.1956
11.1295
11.1465
10.2476
8.81892
7.26956
5.84752
4.64868
3.68122
2.9166
2.3172
1.84784
1.47936
1.18884
0.958658
0.775391
0.628805
0.511072
0.416167
0.339422
0.277195
0.226623
0.185443
0.151855
0.124422
0.101988
0.0836238
0.0685762
0.0562354
0.0461057
0.0377832
0.030938
0.0252994
0.0206436
0.0167828
0.0135619
0.0108584
0.00857018
0.00658979
0.00486715
0.00335117
0.00191708
0.00060209
-0.0686529
-0.211448
-0.370764
-0.555738
-0.76976
-1.00066
-1.20497
-1.29963
-1.19553
-0.887123
-0.451976
0.0396586
0.55992
1.11592
1.73591
2.46131
3.34362
4.44145
5.81035
7.47294
9.35222
11.1665
12.3702
12.3865
11.2162
9.43801
7.59959
5.98504
4.67446
3.64921
2.85889
2.25143
1.78307
1.41983
1.13617
0.913119
0.736591
0.596068
0.483636
0.393284
0.320402
0.261425
0.213573
0.17466
0.142955
0.117083
0.0959414
0.0786447
0.0644789
0.052866
0.0433369
0.0355101
0.0290744
0.0237747
0.0193997
0.0157721
0.0127445
0.0102028
0.00805244
0.00618567
0.00456838
0.00314384
0.00179474
0.000565341
-0.0700091
-0.216779
-0.384419
-0.586369
-0.831823
-1.11383
-1.38554
-1.53838
-1.44001
-1.08499
-0.594259
-0.0636239
0.475935
1.03754
1.65717
2.38449
3.28178
4.42448
5.89515
7.75447
9.95971
12.2053
13.7715
13.7869
12.2523
10.041
7.87475
6.06162
4.64754
3.57615
2.77064
2.16339
1.70214
1.34852
1.07485
0.861165
0.692981
0.559687
0.453412
0.368245
0.299701
0.244335
0.199479
0.163046
0.133391
0.109211
0.0894642
0.0733176
0.0600995
0.0492675
0.0403817
0.0330853
0.0270871
0.022149
0.0180736
0.0146946
0.011873
0.00950372
0.00750087
0.00575513
0.00425187
0.00292618
0.0016676
0.000528259
-0.0701692
-0.218439
-0.391796
-0.608462
-0.885136
-1.22374
-1.57787
-1.80822
-1.71622
-1.29663
-0.736911
-0.163857
0.391987
0.953017
1.56408
2.28295
3.18209
4.35405
5.91202
7.96653
10.534
13.3111
15.3681
15.3825
13.3551
10.6102
8.07953
6.0689
4.56516
3.46233
2.6535
2.05508
1.60696
1.26713
1.0063
0.803963
0.645513
0.520433
0.421021
0.341555
0.277728
0.226256
0.18461
0.15082
0.123341
0.10095
0.0826755
0.0677397
0.0555175
0.0455048
0.0372934
0.0305522
0.0250117
0.0204515
0.016689
0.0135695
0.0109628
0.00877356
0.00692557
0.0053061
0.00392344
0.0027028
0.00153734
0.000490364
-0.0690969
-0.216245
-0.392298
-0.620507
-0.926764
-1.32648
-1.78051
-2.11499
-2.02989
-1.5202
-0.875335
-0.257098
0.310934
0.86463
1.45878
2.1586
3.04552
4.22835
5.85309
8.0918
11.0515
14.4775
17.2037
17.2171
14.5182
11.1222
8.19677
5.99923
4.42579
3.30904
2.50967
1.92879
1.49958
1.17735
0.931917
0.742631
0.595079
0.479018
0.387033
0.313669
0.254849
0.207484
0.169205
0.138176
0.112961
0.0924286
0.0756793
0.0619958
0.0508022
0.0416347
0.0341181
0.0279486
0.022879
0.0187074
0.0152664
0.0124135
0.0100275
0.00802315
0.0063353
0.0048456
0.0035878
0.00247723
0.00140459
0.000450408
-0.0668036
-0.210162
-0.385562
-0.621224
-0.95366
-1.4172
-1.99083
-2.46635
-2.38854
-1.75268
-1.00402
-0.339314
0.235414
0.774524
1.34347
2.01383
2.87402
4.04707
5.71188
8.11193
11.482
15.6896
19.3343
19.3465
15.727
11.5468
8.20827
5.84635
4.22939
3.11859
2.34193
1.78705
1.38212
1.08088
0.853024
0.678215
0.5425
0.436086
0.351958
0.284993
0.231388
0.188277
0.153471
0.125281
0.102389
0.0837572
0.0685655
0.056159
0.0460132
0.0377057
0.0308958
0.0253072
0.0207157
0.0169384
0.0138234
0.0112409
0.00907869
0.00726179
0.00573754
0.00437978
0.00324859
0.00225187
0.00126924
0.0004068
-0.0633472
-0.200303
-0.371498
-0.609666
-0.962814
-1.49001
-2.20436
-2.87231
-2.80205
-1.98925
-1.11645
-0.406552
0.167706
0.684592
1.2204
1.8514
2.67048
3.81156
5.4839
8.00855
11.7879
16.9201
21.8311
21.8421
16.9538
11.8464
8.09582
5.60598
3.97761
2.89423
2.1535
1.63257
1.25668
0.97936
0.770878
0.611675
0.488517
0.392217
0.316249
0.255883
0.207627
0.16886
0.13759
0.112281
0.09174
0.0750305
0.0614111
0.050292
0.0412013
0.0337595
0.0276601
0.0226554
0.0185443
0.0151628
0.012375
0.0100639
0.00812638
0.00649744
0.00513853
0.00391391
0.00290848
0.00202796
0.00113112
0.000358273
-0.058828
-0.186923
-0.350303
-0.585313
-0.951452
-1.53798
-2.41392
-3.34586
-3.28334
-2.22241
-1.20512
-0.455163
0.109597
0.596411
1.09171
1.67434
2.43862
3.52494
5.16736
7.76466
11.9239
18.1223
24.7853
24.7951
18.1523
11.9761
7.84255
5.27653
3.67385
2.64008
1.9479
1.46807
1.12534
0.874323
0.686629
0.543881
0.433792
0.347916
0.280299
0.226647
0.183809
0.149427
0.121714
0.0992983
0.0811147
0.0663284
0.0542806
0.0444473
0.0364095
0.0298307
0.0244396
0.0200165
0.0163838
0.0133962
0.0109338
0.00889274
0.00717888
0.00573681
0.00454333
0.00345244
0.00256943
0.0018058
0.000990719
0.000304653
-0.0533815
-0.170404
-0.322457
-0.548157
-0.917294
-1.55324
-2.60839
-3.90384
-3.84913
-2.44074
-1.26165
-0.482062
0.0622748
0.511194
0.959422
1.48582
2.18285
3.19208
4.76372
7.36632
11.8385
19.2229
28.3138
28.3224
19.2492
11.8842
7.43465
4.85965
3.32323
2.36093
1.72885
1.29629
0.990055
0.767188
0.601316
0.4756
0.378902
0.303624
0.244445
0.197548
0.160139
0.130139
0.105973
0.0864366
0.070595
0.0577177
0.0472281
0.0386684
0.0316731
0.0259484
0.0212577
0.0174097
0.0142496
0.0116513
0.00951014
0.00773572
0.00624312
0.00498555
0.0039559
0.00299899
0.002233
0.0015851
0.00084983
0.000247469
-0.0471697
-0.151225
-0.288703
-0.49876
-0.85884
-1.52728
-2.77113
-4.56796
-4.52105
-2.62736
-1.27708
-0.485036
0.0262508
0.429774
0.825364
1.28905
1.9081
2.8194
4.27808
6.80466
11.4753
20.1105
32.5663
32.5737
20.133
11.5145
6.86337
4.3606
2.93246
2.06206
1.50009
1.1198
0.852627
0.65923
0.515854
0.407502
0.324342
0.259714
0.208973
0.168804
0.136789
0.111131
0.0904735
0.0737804
0.0602491
0.0492528
0.0402975
0.0329912
0.0270211
0.022136
0.0181337
0.0148506
0.0121547
0.00993845
0.00811251
0.00659972
0.00532474
0.00424837
0.00337923
0.00255632
0.00190074
0.00136537
0.000711686
0.000190101
-0.0403698
-0.129935
-0.25
-0.438264
-0.775686
-1.45157
-2.87787
-5.36604
-5.32686
-2.75777
-1.24248
-0.463055
0.00133234
0.352621
0.691152
1.08716
1.61953
2.41463
3.71927
6.07802
10.7775
20.6215
37.7335
37.7396
20.6403
10.8102
6.12714
3.78838
2.50948
1.74901
1.26527
0.941035
0.71469
0.551574
0.431034
0.340156
0.270532
0.216497
0.174118
0.140597
0.113899
0.0925122
0.0753015
0.0613984
0.0501317
0.0409779
0.0335244
0.0274443
0.0224767
0.0184124
0.0150827
0.0123516
0.0101092
0.00826597
0.00674767
0.00549019
0.00442825
0.00352916
0.00281553
0.00212634
0.00157447
0.00114642
0.000580453
0.000137235
-0.0331638
-0.107114
-0.207463
-0.368362
-0.668809
-1.3185
-2.89408
-6.33354
-6.30197
-2.79727
-1.14989
-0.416563
-0.0133505
0.279875
0.558166
0.883077
1.32235
1.98638
3.09968
5.19394
9.69424
20.5226
44.0578
44.0628
20.5378
9.72066
5.23358
3.1555
2.06309
1.42727
1.02784
0.762177
0.577675
0.445185
0.347527
0.274037
0.217815
0.174228
0.140072
0.113073
0.0915798
0.0743705
0.0605259
0.0493449
0.0402862
0.0329275
0.0269365
0.0220501
0.0180581
0.0147922
0.0121169
0.0099226
0.00812104
0.00664037
0.00542093
0.0044114
0.00355711
0.00283106
0.00226637
0.00171009
0.00125649
0.000928649
0.000459904
9.35325e-05
-0.025728
-0.0833427
-0.162292
-0.291209
-0.54079
-1.12278
-2.77178
-7.51535
-7.49121
-2.69773
-0.993777
-0.347696
-0.0192582
0.211416
0.427551
0.679466
1.02155
1.54365
2.43467
4.17066
8.19057
19.4886
51.8452
51.8491
19.5002
8.21079
4.201
2.47743
1.60248
1.10213
0.790896
0.585142
0.442808
0.340875
0.265886
0.209535
0.16647
0.13311
0.106986
0.0863456
0.0699207
0.0567736
0.0461997
0.0376618
0.0307456
0.0251281
0.0205552
0.0168257
0.0137791
0.0112868
0.00924527
0.00757086
0.0061962
0.00506654
0.00413631
0.00336658
0.00271395
0.00215655
0.00173293
0.00130786
0.000949546
0.000713147
0.000351578
6.17834e-05
-0.0182245
-0.0591733
-0.115698
-0.209278
-0.3959
-0.863488
-2.44561
-8.96781
-8.95087
-2.39366
-0.772966
-0.260366
-0.018297
0.146935
0.300231
0.478665
0.721733
1.09534
1.74162
3.03773
6.26064
17.0762
61.4795
61.4822
17.0843
6.27482
3.05903
1.77165
1.13669
0.778429
0.557188
0.411564
0.311109
0.239307
0.186555
0.146955
0.116715
0.0933027
0.0749764
0.0605022
0.0489874
0.0397725
0.0323624
0.0263801
0.0215345
0.0175992
0.014396
0.0117837
0.00964983
0.00790427
0.00647446
0.00530179
0.00433908
0.00354805
0.00289674
0.00235808
0.00190057
0.00150748
0.00121616
0.000919296
0.0006566
0.000501562
0.000253052
4.1132e-05
-0.0107951
-0.0351064
-0.0688334
-0.12518
-0.239979
-0.546625
-1.8283
-10.761
-10.751
-1.79771
-0.493306
-0.160129
-0.012627
0.0860136
0.176926
0.282651
0.426963
0.649785
1.03871
1.83523
3.94573
12.6928
73.4376
73.4392
12.6976
3.95409
1.84778
1.05641
0.674166
0.460414
0.329028
0.242786
0.183399
0.141003
0.109882
0.0865346
0.0687136
0.0549217
0.0441287
0.0356063
0.0288275
0.0234034
0.0190422
0.0155215
0.0126701
0.0103545
0.00846966
0.00693263
0.00567714
0.00465015
0.00380894
0.00311902
0.00255265
0.00208732
0.00170421
0.00138755
0.00111819
0.000885115
0.000716913
0.000543596
0.000380336
0.00029575
0.000157459
2.64042e-05
-0.00355884
-0.0115795
-0.0227339
-0.0414531
-0.0800321
-0.188498
-0.805451
-12.9813
-12.978
-0.795393
-0.17097
-0.0537794
-0.00444228
0.0281935
0.058176
0.0930288
0.140646
0.214327
0.343493
0.611048
1.35688
5.56147
88.3069
88.3074
5.56305
1.35963
0.615172
0.349313
0.222346
0.151652
0.108294
0.0798706
0.0603145
0.0463611
0.0361228
0.028444
0.0225841
0.0180498
0.0145019
0.0117007
0.00947278
0.0076902
0.00625698
0.00510005
0.00416307
0.00340217
0.00278285
0.00227782
0.0018653
0.00152786
0.00125146
0.00102478
0.000838684
0.000685809
0.000559956
0.000456004
0.000367457
0.000290137
0.000236051
0.000179811
0.000122529
9.74961e-05
5.57248e-05
9.84773e-06
)
;

boundaryField
{
    left
    {
        type            calculated;
        value           uniform 0;
    }
    right
    {
        type            calculated;
        value           uniform 0;
    }
    interface
    {
        type            calculated;
        value           nonuniform List<scalar> 
64
(
-0.00355884
-0.0115795
-0.0227339
-0.0414531
-0.0800321
-0.188498
-0.805451
-12.9813
-12.978
-0.795393
-0.17097
-0.0537794
-0.00444228
0.0281935
0.058176
0.0930288
0.140646
0.214327
0.343493
0.611048
1.35688
5.56147
88.3069
88.3074
5.56305
1.35963
0.615172
0.349313
0.222346
0.151652
0.108294
0.0798706
0.0603145
0.0463611
0.0361228
0.028444
0.0225841
0.0180498
0.0145019
0.0117007
0.00947278
0.0076902
0.00625698
0.00510005
0.00416307
0.00340217
0.00278285
0.00227782
0.0018653
0.00152786
0.00125146
0.00102478
0.000838684
0.000685809
0.000559956
0.000456004
0.000367457
0.000290137
0.000236051
0.000179811
0.000122529
9.74961e-05
5.57248e-05
9.84773e-06
)
;
    }
    bottom
    {
        type            calculated;
        value           nonuniform List<scalar> 
64
(
-0.000692364
-0.00192363
-0.00268298
-0.00265139
-0.00150783
0.00107326
0.00539547
0.0117278
0.0202865
0.0312172
0.0445829
0.060356
0.0784113
0.0985154
0.120312
0.143303
0.16683
0.190072
0.212059
0.231725
0.247994
0.259897
0.2667
0.268014
0.26386
0.254664
0.241194
0.224439
0.20548
0.185367
0.165027
0.145207
0.126463
0.109159
0.0934995
0.07956
0.0673191
0.0566905
0.0475482
0.0397452
0.0331283
0.0275471
0.0228605
0.0189393
0.0156685
0.012947
0.0106869
0.00881322
0.00726169
0.00597812
0.00491681
0.00403944
0.00331393
0.00271347
0.0022157
0.00180193
0.00145655
0.00116648
0.00092073
0.000709962
0.00052614
0.000362212
0.00021194
6.97433e-05
)
;
    }
    defaultFaces
    {
        type            empty;
    }
}


// ************************************************************************* //
