/*--------------------------------*- C++ -*----------------------------------*\
| =========                 |                                                 |
| \\      /  F ield         | OpenFOAM: The Open Source CFD Toolbox           |
|  \\    /   O peration     | Version:  5.x                                   |
|   \\  /    A nd           | Web:      www.OpenFOAM.org                      |
|    \\/     M anipulation  |                                                 |
\*---------------------------------------------------------------------------*/
FoamFile
{
    version     2.0;
    format      ascii;
    class       volScalarField;
    location    "1.6";
    object      T;
}
// * * * * * * * * * * * * * * * * * * * * * * * * * * * * * * * * * * * * * //

dimensions      [0 0 0 1 0 0 0];

internalField   nonuniform List<scalar> 
2048
(
9.88605
9.88603
9.88599
9.88595
9.88591
9.8859
9.88594
9.88607
9.88631
9.8867
9.88729
9.8881
9.88917
9.89055
9.89225
9.89431
9.89673
9.89952
9.90267
9.90615
9.90991
9.9139
9.91803
9.92223
9.92641
9.93048
9.93437
9.93801
9.94138
9.94444
9.94717
9.94959
9.95171
9.95354
9.95512
9.95647
9.95761
9.95857
9.95938
9.96006
9.96062
9.96109
9.96148
9.96181
9.96207
9.9623
9.96248
9.96263
9.96275
9.96286
9.96294
9.96301
9.96307
9.96311
9.96315
9.96318
9.96321
9.96323
9.96324
9.96326
9.96327
9.96327
9.96328
9.96328
9.66317
9.6631
9.66298
9.66283
9.6627
9.66265
9.66276
9.6631
9.66378
9.66491
9.6666
9.66897
9.67212
9.67616
9.68118
9.68724
9.6944
9.70266
9.71199
9.72231
9.73349
9.74534
9.75763
9.77012
9.78253
9.79463
9.80617
9.81699
9.82696
9.83601
9.84409
9.85124
9.85748
9.86288
9.86752
9.87148
9.87483
9.87766
9.88003
9.88201
9.88367
9.88505
9.88619
9.88714
9.88792
9.88857
9.88911
9.88955
9.88991
9.89021
9.89046
9.89066
9.89083
9.89097
9.89108
9.89117
9.89124
9.8913
9.89135
9.89139
9.89141
9.89143
9.89145
9.89145
9.45009
9.44996
9.44974
9.44946
9.44921
9.44906
9.44916
9.44963
9.45066
9.45241
9.45507
9.45884
9.4639
9.47042
9.47855
9.48842
9.5001
9.51362
9.52892
9.54589
9.56429
9.58383
9.60412
9.62473
9.64521
9.66514
9.68415
9.70192
9.71827
9.73306
9.74625
9.75788
9.76802
9.77678
9.78429
9.79068
9.79608
9.80064
9.80446
9.80765
9.81031
9.81252
9.81436
9.81588
9.81714
9.81818
9.81903
9.81974
9.82033
9.82081
9.8212
9.82152
9.82179
9.82201
9.82219
9.82233
9.82245
9.82255
9.82262
9.82268
9.82273
9.82276
9.82278
9.82279
9.24643
9.24623
9.24588
9.24543
9.24498
9.24466
9.24465
9.24514
9.24637
9.24858
9.25204
9.25702
9.26379
9.27258
9.28361
9.29706
9.31305
9.33162
9.35273
9.3762
9.40172
9.42888
9.45711
9.4858
9.5143
9.54198
9.56833
9.5929
9.61542
9.63573
9.6538
9.66966
9.68346
9.69534
9.70549
9.71412
9.7214
9.72752
9.73265
9.73693
9.74049
9.74345
9.74591
9.74794
9.74962
9.75101
9.75215
9.7531
9.75387
9.75452
9.75504
9.75547
9.75583
9.75612
9.75636
9.75655
9.75671
9.75684
9.75694
9.75702
9.75708
9.75712
9.75715
9.75716
9.05181
9.05153
9.05102
9.05034
9.04962
9.04903
9.04879
9.04914
9.0504
9.05289
9.05695
9.06293
9.07117
9.08199
9.09568
9.11247
9.13256
9.156
9.18277
9.21265
9.24526
9.28004
9.31627
9.35309
9.38965
9.42509
9.45871
9.48997
9.5185
9.54411
9.5668
9.58664
9.60383
9.61857
9.63114
9.64178
9.65074
9.65826
9.66455
9.66978
9.67414
9.67775
9.68075
9.68323
9.68527
9.68696
9.68835
9.6895
9.69045
9.69123
9.69187
9.69239
9.69282
9.69318
9.69347
9.6937
9.69389
9.69405
9.69417
9.69426
9.69434
9.69439
9.69442
9.69444
8.86589
8.86551
8.86479
8.86382
8.86275
8.86178
8.86116
8.86122
8.86232
8.86487
8.8693
8.87604
8.8855
8.8981
8.91419
8.93409
8.95804
8.98617
9.01846
9.05469
9.09441
9.13691
9.18126
9.22638
9.27112
9.31439
9.3553
9.39315
9.42752
9.45823
9.48528
9.50883
9.52912
9.54646
9.56118
9.57361
9.58404
9.59278
9.60006
9.60612
9.61115
9.61532
9.61877
9.62162
9.62398
9.62592
9.62752
9.62884
9.62993
9.63082
9.63155
9.63216
9.63265
9.63306
9.63339
9.63366
9.63388
9.63406
9.6342
9.63431
9.63439
9.63445
9.63449
9.63451
8.68832
8.68782
8.68686
8.68554
8.68403
8.68255
8.68141
8.68098
8.68172
8.68411
8.68866
8.6959
8.70633
8.72043
8.73865
8.76139
8.78897
8.82159
8.85929
8.90183
8.94872
8.99909
9.05179
9.10544
9.15857
9.20982
9.25805
9.30244
9.34251
9.37808
9.40922
9.43617
9.45928
9.47893
9.49554
9.50951
9.5212
9.53096
9.53908
9.54583
9.55142
9.55604
9.55986
9.56302
9.56562
9.56777
9.56954
9.57099
9.57219
9.57318
9.57399
9.57465
9.5752
9.57565
9.57601
9.57631
9.57655
9.57675
9.5769
9.57702
9.57711
9.57718
9.57722
9.57724
8.51879
8.51815
8.51691
8.51518
8.51313
8.51102
8.50919
8.50809
8.50824
8.51022
8.51465
8.52212
8.53323
8.54856
8.56862
8.59392
8.62488
8.66179
8.70476
8.75359
8.80774
8.8662
8.92755
8.99007
9.0519
9.11132
9.16695
9.21782
9.26341
9.30361
9.33855
9.3686
9.3942
9.41586
9.43409
9.44935
9.46208
9.47268
9.48148
9.48877
9.4948
9.49978
9.50389
9.50728
9.51008
9.51239
9.51428
9.51584
9.51713
9.51818
9.51905
9.51976
9.52035
9.52083
9.52122
9.52154
9.5218
9.522
9.52217
9.5223
9.5224
9.52247
9.52251
9.52254
8.35698
8.35618
8.35463
8.35243
8.34976
8.34689
8.34421
8.34224
8.34157
8.34289
8.34692
8.35436
8.36588
8.38213
8.40374
8.43131
8.46536
8.50632
8.55441
8.60951
8.67105
8.73787
8.80827
8.88008
8.95099
9.01885
9.08197
9.13927
9.19021
9.23475
9.27318
9.30598
9.33375
9.35711
9.37667
9.39298
9.40654
9.41779
9.4271
9.4348
9.44116
9.4464
9.45073
9.45429
9.45723
9.45964
9.46163
9.46327
9.46461
9.46572
9.46663
9.46737
9.46798
9.46848
9.46889
9.46923
9.4695
9.46972
9.46989
9.47002
9.47013
9.4702
9.47025
9.47027
8.2026
8.20163
8.19973
8.19701
8.19363
8.18989
8.1862
8.18313
8.1814
8.18181
8.18518
8.19231
8.20396
8.22085
8.2437
8.27321
8.31005
8.35481
8.40784
8.46917
8.53823
8.61374
8.69366
8.7753
8.85576
8.93237
9.00311
9.06676
9.12284
9.17142
9.21298
9.24817
9.27777
9.30251
9.32312
9.34023
9.3544
9.36612
9.3758
9.38378
9.39036
9.39578
9.40024
9.40392
9.40694
9.40943
9.41147
9.41315
9.41454
9.41567
9.4166
9.41737
9.418
9.41851
9.41893
9.41927
9.41955
9.41977
9.41995
9.42009
9.4202
9.42027
9.42032
9.42034
8.05535
8.0542
8.05195
8.04866
8.0445
8.03976
8.03488
8.03051
8.02748
8.0267
8.02915
8.0357
8.0472
8.06444
8.08822
8.11934
8.15864
8.20688
8.26465
8.33213
8.40886
8.49345
8.58346
8.67558
8.76615
8.85187
8.93036
9.00027
9.06122
9.1135
9.1578
9.19501
9.22607
9.25187
9.27325
9.29091
9.30549
9.31751
9.3274
9.33555
9.34225
9.34776
9.3523
9.35603
9.35909
9.36161
9.36368
9.36538
9.36678
9.36793
9.36887
9.36965
9.37028
9.3708
9.37123
9.37157
9.37185
9.37208
9.37226
9.3724
9.3725
9.37258
9.37263
9.37265
7.91495
7.91363
7.91099
7.90711
7.90211
7.89626
7.89003
7.88414
7.87954
7.87732
7.87857
7.8843
7.89539
7.91269
7.93708
7.96947
8.01085
8.06223
8.12446
8.19799
8.28252
8.37661
8.4774
8.58078
8.68213
8.77738
8.86372
8.93975
9.00527
9.06085
9.10747
9.14629
9.17844
9.20499
9.22685
9.24484
9.25963
9.27178
9.28176
9.28996
9.29669
9.30222
9.30676
9.3105
9.31356
9.31608
9.31815
9.31985
9.32124
9.32239
9.32333
9.3241
9.32473
9.32525
9.32567
9.32602
9.3263
9.32652
9.3267
9.32684
9.32695
9.32702
9.32707
9.3271
7.78113
7.77963
7.77662
7.77213
7.76624
7.75919
7.75144
7.7438
7.73737
7.73342
7.73323
7.73788
7.74831
7.76542
7.7901
7.82339
7.86647
7.92058
7.98693
8.06634
8.15879
8.26285
8.37521
8.49078
8.60371
8.70895
8.80322
8.88517
8.95488
9.01331
9.0618
9.1018
9.13468
9.16164
9.18373
9.20182
9.21663
9.22876
9.23871
9.24685
9.25354
9.25902
9.26351
9.2672
9.27023
9.27272
9.27476
9.27644
9.27781
9.27894
9.27987
9.28063
9.28125
9.28176
9.28218
9.28252
9.2828
9.28302
9.28319
9.28333
9.28344
9.28351
9.28356
9.28358
7.6536
7.65193
7.64856
7.64346
7.63666
7.62832
7.61891
7.60928
7.60073
7.59478
7.59289
7.59625
7.60582
7.62246
7.64714
7.68096
7.7253
7.78169
7.85175
7.93678
8.03721
8.15174
8.27661
8.4055
8.53093
8.64664
8.74889
8.83647
8.90992
8.97069
9.02057
9.06131
9.09454
9.1216
9.14366
9.16164
9.17631
9.18829
9.19808
9.20609
9.21265
9.21802
9.22242
9.22603
9.22899
9.23142
9.23342
9.23505
9.23639
9.2375
9.2384
9.23914
9.23975
9.24025
9.24065
9.24098
9.24125
9.24147
9.24164
9.24177
9.24188
9.24195
9.242
9.24202
7.53211
7.53029
7.52658
7.52089
7.51317
7.50348
7.49225
7.48039
7.46941
7.46118
7.45736
7.45924
7.46774
7.48371
7.50808
7.54207
7.58721
7.64537
7.71864
7.80894
7.91733
8.04285
8.18131
8.32487
8.46389
8.59057
8.70076
8.79359
8.87024
8.93279
8.98353
9.02458
9.05778
9.08465
9.10643
9.12411
9.13848
9.15019
9.15973
9.16753
9.1739
9.17911
9.18337
9.18687
9.18973
9.19208
9.19401
9.19559
9.19689
9.19795
9.19882
9.19954
9.20013
9.20061
9.201
9.20132
9.20158
9.20179
9.20195
9.20208
9.20218
9.20225
9.20229
9.20232
7.41639
7.41443
7.41042
7.40418
7.39556
7.38449
7.3713
7.35694
7.34321
7.33239
7.32644
7.32667
7.33396
7.34906
7.37286
7.40664
7.4521
7.51147
7.58735
7.68244
7.79867
7.93569
8.089
8.24887
8.40273
8.54088
8.65887
8.75645
8.83567
8.89938
8.95044
8.99135
9.02416
9.05056
9.07184
9.08904
9.10298
9.1143
9.12351
9.13102
9.13715
9.14216
9.14625
9.1496
9.15235
9.1546
9.15644
9.15796
9.1592
9.16022
9.16105
9.16174
9.1623
9.16276
9.16313
9.16344
9.16369
9.16388
9.16404
9.16417
9.16426
9.16433
9.16437
9.16439
7.30617
7.3041
7.29984
7.29312
7.28364
7.27119
7.25591
7.23879
7.22193
7.20821
7.19992
7.1984
7.20437
7.21843
7.24142
7.27463
7.31992
7.37987
7.45767
7.55693
7.68072
7.82972
7.99934
8.17752
8.34767
8.49776
8.62326
8.72493
8.80599
8.8702
8.92103
8.96135
8.99344
9.01909
9.03967
9.05624
9.06963
9.08047
9.08928
9.09645
9.10229
9.10705
9.11095
9.11413
9.11674
9.11888
9.12063
9.12207
9.12324
9.12421
9.125
9.12565
9.12618
9.12662
9.12697
9.12726
9.1275
9.12769
9.12784
9.12795
9.12804
9.12811
9.12815
9.12817
7.2012
7.19906
7.1946
7.18747
7.17723
7.16342
7.14596
7.12576
7.10535
7.0884
7.07762
7.07428
7.07886
7.09177
7.11373
7.14602
7.19065
7.25051
7.32945
7.43208
7.56297
7.72434
7.91193
8.11091
8.29901
8.46142
8.59394
8.6989
8.78098
8.84498
8.89501
8.93432
8.96537
8.99004
9.00974
9.02555
9.03828
9.04856
9.0569
9.06368
9.06919
9.07369
9.07736
9.08036
9.08282
9.08483
9.08648
9.08783
9.08894
9.08984
9.09059
9.0912
9.0917
9.09211
9.09244
9.09271
9.09293
9.09311
9.09325
9.09336
9.09345
9.09351
9.09355
9.09356
7.10123
7.09904
7.09446
7.08703
7.07613
7.06104
7.04133
7.01774
6.99325
6.97274
6.95935
6.95417
6.95736
6.96904
6.98978
7.02083
7.0643
7.12338
7.20256
7.30761
7.44489
7.61885
7.8263
8.04921
8.25715
8.43209
8.57093
8.67818
8.76035
8.82341
8.87211
8.91
8.93971
8.96319
8.98185
8.99678
9.00877
9.01843
9.02626
9.0326
9.03776
9.04197
9.0454
9.0482
9.05049
9.05237
9.05391
9.05517
9.0562
9.05704
9.05774
9.05831
9.05877
9.05915
9.05946
9.05972
9.05992
9.06009
9.06022
9.06032
9.0604
9.06046
9.06049
9.06051
7.00601
7.00382
6.99919
6.99158
6.98017
6.96392
6.94193
6.91461
6.88542
6.86098
6.8449
6.83795
6.83978
6.8502
6.86956
6.89907
6.94091
6.99851
7.07697
7.18326
7.32593
7.51245
7.7419
7.99271
8.2226
8.41005
8.55417
8.66254
8.74382
8.8052
8.85202
8.88812
8.91624
8.93834
8.95584
8.96978
8.98096
8.98996
8.99722
9.00311
9.0079
9.01179
9.01497
9.01756
9.01968
9.02142
9.02284
9.024
9.02495
9.02574
9.02638
9.0269
9.02733
9.02768
9.02797
9.0282
9.02839
9.02855
9.02867
9.02876
9.02883
9.02889
9.02892
9.02893
6.91531
6.91315
6.90855
6.90089
6.88916
6.87193
6.8477
6.81628
6.78161
6.75285
6.7341
6.7255
6.72607
6.73521
6.75309
6.7808
6.82055
6.87597
6.95268
7.05888
7.20555
7.40424
7.65797
7.94186
8.196
8.39555
8.54357
8.6517
8.73105
8.79001
8.83446
8.86844
8.89473
8.9153
8.93152
8.94442
8.95473
8.96302
8.9697
8.97511
8.9795
8.98307
8.98599
8.98836
8.9903
8.99189
8.99319
8.99426
8.99513
8.99585
8.99643
8.99691
8.9973
8.99763
8.99789
8.9981
8.99828
8.99842
8.99853
8.99861
8.99868
8.99873
8.99876
8.99877
6.82888
6.82679
6.82231
6.81474
6.8029
6.78494
6.75861
6.72273
6.68154
6.64809
6.62677
6.61671
6.61616
6.62407
6.64037
6.66605
6.7033
6.75586
6.82977
6.93436
7.08327
7.29317
7.57357
7.89737
8.17815
8.38884
8.53898
8.64535
8.72168
8.77752
8.81914
8.8507
8.87498
8.89389
8.90876
8.92055
8.92996
8.9375
8.94358
8.9485
8.95249
8.95573
8.95837
8.96053
8.96229
8.96373
8.9649
8.96587
8.96666
8.96731
8.96784
8.96827
8.96863
8.96892
8.96916
8.96935
8.96951
8.96964
8.96974
8.96982
8.96987
8.96992
8.96994
8.96996
6.74651
6.74453
6.74025
6.73292
6.7212
6.70283
6.67464
6.63395
6.58488
6.54638
6.52271
6.5115
6.51001
6.51674
6.5314
6.55487
6.58926
6.63833
6.70837
6.8097
6.95864
7.17807
7.48739
7.86029
8.16995
8.3901
8.54015
8.64309
8.71534
8.76739
8.80579
8.83469
8.8568
8.87396
8.88741
8.89805
8.90652
8.91331
8.91878
8.9232
8.92678
8.92969
8.93205
8.93399
8.93556
8.93685
8.93791
8.93877
8.93948
8.94006
8.94053
8.94092
8.94124
8.9415
8.94172
8.94189
8.94203
8.94214
8.94223
8.9423
8.94236
8.94239
8.94242
8.94243
6.66799
6.66615
6.66215
6.6552
6.64386
6.62547
6.59579
6.55004
6.49124
6.44743
6.42179
6.40977
6.40756
6.4132
6.4262
6.44731
6.47852
6.52352
6.58868
6.685
6.83132
7.05762
7.39765
7.83216
8.17249
8.39942
8.54675
8.6445
8.71164
8.75931
8.79414
8.82018
8.84002
8.85535
8.86734
8.87681
8.88434
8.89036
8.89521
8.89912
8.90229
8.90487
8.90696
8.90867
8.91006
8.9112
8.91214
8.9129
8.91353
8.91404
8.91446
8.9148
8.91508
8.91531
8.9155
8.91566
8.91578
8.91588
8.91596
8.91602
8.91607
8.9161
8.91612
8.91613
6.59311
6.59144
6.58778
6.58136
6.57065
6.5527
6.52211
6.47118
6.40012
6.3509
6.32385
6.31147
6.30878
6.31342
6.32476
6.3434
6.37119
6.41161
6.47094
6.56048
6.70114
6.93043
7.30185
7.81524
8.18693
8.41678
8.55831
8.64911
8.71018
8.75296
8.78395
8.80699
8.82446
8.83793
8.84844
8.85672
8.8633
8.86856
8.87279
8.8762
8.87896
8.8812
8.88303
8.88452
8.88573
8.88672
8.88753
8.8882
8.88874
8.88919
8.88955
8.88985
8.8901
8.8903
8.89046
8.89059
8.8907
8.89079
8.89086
8.89091
8.89095
8.89098
8.891
8.89101
6.52167
6.5202
6.51695
6.51118
6.50136
6.48434
6.45363
6.39774
6.31089
6.25646
6.22878
6.21655
6.21362
6.21737
6.22705
6.24316
6.26734
6.30279
6.35544
6.43648
6.56809
6.79508
7.19654
7.81278
8.21447
8.44194
8.5743
8.65642
8.71057
8.74806
8.775
8.79493
8.81
8.82158
8.8306
8.8377
8.84333
8.84783
8.85145
8.85437
8.85672
8.85864
8.8602
8.86147
8.8625
8.86335
8.86404
8.86461
8.86507
8.86545
8.86577
8.86602
8.86623
8.8664
8.86654
8.86665
8.86675
8.86682
8.86688
8.86693
8.86696
8.86699
8.867
8.86701
6.45351
6.45225
6.44945
6.44443
6.43575
6.42019
6.39039
6.33026
6.2227
6.16379
6.13652
6.12497
6.12205
6.12501
6.13307
6.14661
6.16704
6.19722
6.2425
6.31344
6.43244
6.65024
7.07686
7.82941
8.25622
8.47442
8.59404
8.66589
8.71243
8.74432
8.76709
8.78385
8.79649
8.80619
8.81373
8.81966
8.82436
8.82811
8.83113
8.83355
8.83552
8.83711
8.83841
8.83947
8.84033
8.84103
8.84161
8.84208
8.84247
8.84278
8.84304
8.84325
8.84343
8.84357
8.84369
8.84378
8.84386
8.84392
8.84397
8.84401
8.84403
8.84406
8.84407
8.84408
6.38843
6.3874
6.38509
6.38091
6.37357
6.36001
6.33237
6.26957
6.13445
6.07264
6.04703
6.0367
6.03402
6.03629
6.04276
6.05373
6.07036
6.09505
6.13243
6.19192
6.29474
6.49486
6.93607
7.87167
8.31303
8.51347
8.61681
8.67702
8.71541
8.74149
8.76002
8.77361
8.78384
8.79166
8.79775
8.80252
8.80631
8.80933
8.81176
8.81371
8.81529
8.81657
8.81761
8.81846
8.81915
8.81972
8.82018
8.82056
8.82087
8.82113
8.82134
8.82151
8.82165
8.82176
8.82185
8.82193
8.82199
8.82204
8.82208
8.82211
8.82213
8.82215
8.82216
8.82216
6.32629
6.32549
6.32369
6.32042
6.31459
6.30352
6.2795
6.2169
6.04465
5.9828
5.96034
5.95174
5.94948
5.95114
5.95608
5.9645
5.97732
5.99643
6.02556
6.07251
6.15589
6.32846
6.76491
7.94863
8.38519
8.55801
8.64178
8.68929
8.7192
8.73937
8.75364
8.76408
8.77192
8.77792
8.78258
8.78623
8.78912
8.79143
8.79328
8.79478
8.79598
8.79696
8.79776
8.7984
8.79893
8.79937
8.79972
8.80001
8.80024
8.80044
8.8006
8.80073
8.80083
8.80092
8.80099
8.80105
8.8011
8.80114
8.80116
8.80119
8.80121
8.80122
8.80123
8.80123
6.26693
6.26636
6.26508
6.26275
6.25854
6.25038
6.23156
6.17395
5.95132
5.89424
5.87651
5.87008
5.86838
5.86951
5.87297
5.87889
5.88793
5.90145
5.92216
5.95587
6.01709
6.15152
6.55072
8.07275
8.47204
8.60664
8.66812
8.70223
8.72349
8.73775
8.74781
8.75516
8.76068
8.76489
8.76815
8.77072
8.77275
8.77436
8.77566
8.77671
8.77755
8.77824
8.7788
8.77925
8.77962
8.77992
8.78017
8.78037
8.78054
8.78067
8.78078
8.78088
8.78095
8.78101
8.78106
8.7811
8.78113
8.78116
8.78118
8.7812
8.78121
8.78122
8.78123
8.78123
6.21021
6.20988
6.20912
6.20773
6.20521
6.20023
6.18812
6.14309
5.85184
5.80712
5.79566
5.79171
5.79066
5.79131
5.79335
5.79684
5.80218
5.81018
5.82249
5.84264
5.87984
5.96595
6.27649
8.26087
8.57146
8.65767
8.69503
8.71541
8.72804
8.73648
8.74243
8.74676
8.75001
8.7525
8.75442
8.75593
8.75712
8.75808
8.75884
8.75946
8.75995
8.76036
8.76068
8.76095
8.76117
8.76135
8.76149
8.76161
8.76171
8.76179
8.76185
8.76191
8.76195
8.76199
8.76202
8.76204
8.76206
8.76208
8.76209
8.7621
8.76211
8.76211
8.76211
8.76212
6.156
6.15589
6.15564
6.15518
6.15435
6.15268
6.14846
6.12751
5.74279
5.72195
5.71793
5.7166
5.71625
5.71646
5.71713
5.71828
5.72004
5.72268
5.72674
5.73341
5.74583
5.77581
5.91963
8.5354
8.67924
8.70925
8.72172
8.72847
8.73264
8.73542
8.73738
8.73881
8.73987
8.74069
8.74132
8.74182
8.74221
8.74253
8.74278
8.74298
8.74314
8.74327
8.74338
8.74347
8.74354
8.7436
8.74365
8.74369
8.74372
8.74375
8.74377
8.74378
8.7438
8.74381
8.74382
8.74383
8.74383
8.74384
8.74384
8.74385
8.74385
8.74385
8.74385
8.74385
)
;

boundaryField
{
    left
    {
        type            zeroGradient;
    }
    right
    {
        type            zeroGradient;
    }
    interface
    {
        type            fixedValue;
        value           nonuniform List<scalar> 
64
(
6.12951
6.12951
6.12951
6.12951
6.12951
6.12951
6.12951
6.12951
5.67987
5.67987
5.67987
5.67987
5.67987
5.67987
5.67987
5.67987
5.67987
5.67987
5.67987
5.67987
5.67987
5.67987
5.67987
8.73493
8.73493
8.73493
8.73493
8.73493
8.73493
8.73493
8.73493
8.73493
8.73493
8.73493
8.73493
8.73493
8.73493
8.73493
8.73493
8.73493
8.73493
8.73493
8.73493
8.73493
8.73493
8.73493
8.73493
8.73493
8.73493
8.73493
8.73493
8.73493
8.73493
8.73493
8.73493
8.73493
8.73493
8.73493
8.73493
8.73493
8.73493
8.73493
8.73493
8.73493
)
;
    }
    bottom
    {
        type            fixedValue;
        value           uniform 10;
    }
    defaultFaces
    {
        type            empty;
    }
}


// ************************************************************************* //
