/*--------------------------------*- C++ -*----------------------------------*\
| =========                 |                                                 |
| \\      /  F ield         | OpenFOAM: The Open Source CFD Toolbox           |
|  \\    /   O peration     | Version:  5.x                                   |
|   \\  /    A nd           | Web:      www.OpenFOAM.org                      |
|    \\/     M anipulation  |                                                 |
\*---------------------------------------------------------------------------*/
FoamFile
{
    version     2.0;
    format      ascii;
    class       volScalarField;
    location    "18";
    object      gradTx;
}
// * * * * * * * * * * * * * * * * * * * * * * * * * * * * * * * * * * * * * //

dimensions      [0 -1 0 1 0 0 0];

internalField   nonuniform List<scalar> 
6300
(
5.7291
5.71171
5.67693
5.6248
5.55538
5.46879
5.36521
5.24496
5.10854
4.95668
4.79038
4.61101
4.42033
4.2205
4.01408
5.74627
5.72886
5.69406
5.64188
5.57235
5.48556
5.38166
5.26093
5.12379
4.97092
4.80326
4.62214
4.4293
4.22693
4.01766
5.78062
5.7632
5.72835
5.67607
5.60635
5.51921
5.41474
5.29309
5.15458
4.99974
4.82941
4.6448
4.44761
4.24008
4.02498
5.83216
5.81473
5.77986
5.72748
5.65755
5.56999
5.46477
5.34189
5.20149
5.04386
4.86964
4.67985
4.4761
4.26065
4.03651
5.9009
5.88349
5.84863
5.79622
5.72615
5.63822
5.53224
5.40802
5.26541
5.10439
4.92524
4.72867
4.51609
4.28976
4.05296
5.98682
5.96947
5.93472
5.88242
5.81237
5.72427
5.61775
5.49233
5.34752
5.18286
4.99807
4.79334
4.56966
4.32917
4.07551
6.08985
6.07263
6.03811
5.98613
5.91641
5.82853
5.72192
5.59582
5.44929
5.28125
5.09064
4.87678
4.63985
4.3816
4.10598
6.20986
6.19285
6.15874
6.10735
6.03837
5.95128
5.84536
5.71954
5.57237
5.402
5.20627
4.9831
4.73119
4.45124
4.14728
6.34663
6.32992
6.29641
6.24594
6.17819
6.09265
5.98848
5.86438
5.71844
5.5479
5.34915
5.11796
4.8504
4.54471
4.20417
6.49988
6.48354
6.4508
6.40156
6.33557
6.25241
6.15129
6.03086
5.88889
5.72181
5.52427
5.28901
5.00753
4.67283
4.28489
6.66921
6.65329
6.62145
6.57367
6.50989
6.42989
6.33317
6.21866
6.08424
5.92595
5.7369
5.50605
5.21768
4.85398
4.40464
6.8542
6.83871
6.80778
6.76155
6.70018
6.62384
6.5326
6.42615
6.30323
6.16061
5.9911
5.78037
5.50294
5.12057
4.59407
7.05443
7.03929
7.00915
6.9643
6.90517
6.83246
6.74702
6.64985
6.54166
6.42191
6.28627
6.12115
5.89289
5.53109
4.92228
7.26951
7.2546
7.22498
7.18104
7.12351
7.05354
6.97291
6.8843
6.7914
6.69884
6.61064
6.5248
6.41615
6.18844
5.56848
7.49921
7.48435
7.45484
7.41112
7.35403
7.28501
7.20654
7.12276
7.04053
6.97109
6.93235
6.95104
7.05829
7.23786
7.08171
3.82161
3.64583
3.47122
3.29954
3.13249
2.9716
2.81827
2.67364
2.53868
2.41413
2.30055
2.19832
2.10766
2.02867
1.96131
1.90548
1.86095
1.82746
1.80463
1.79205
1.78919
1.79545
1.81012
1.8324
1.86137
1.89601
1.9352
1.97773
2.02237
2.06783
2.11287
2.1563
2.197
2.23391
2.26605
2.29248
2.31223
2.32433
2.32776
2.32149
2.30448
2.27576
2.23449
2.17998
2.11172
2.02938
1.93273
1.82156
1.69562
1.55447
1.39751
1.22383
1.03232
0.821638
0.59028
0.336661
0.0591544
-0.243872
-0.574065
-0.93312
-1.32285
-1.74527
-2.20267
-2.69769
-3.23335
-3.81306
-4.44062
-5.12009
-5.8558
-6.65218
-7.51371
-8.44483
-9.44982
-10.5328
-11.6975
-12.9475
-14.2856
-15.7142
-17.2345
-18.847
-20.5501
-22.3409
-24.2141
-26.1621
-28.1745
-30.2385
-32.3389
-34.4581
-36.5773
-38.6765
3.82239
3.64402
3.46685
3.29275
3.12347
2.96062
2.80561
2.65961
2.52357
2.39823
2.28411
2.18157
2.09079
2.01183
1.94465
1.88911
1.84499
1.81201
1.78982
1.77798
1.77599
1.78325
1.79909
1.82269
1.85313
1.88939
1.9303
1.97463
2.02108
2.06834
2.1151
2.16015
2.20235
2.24068
2.27419
2.30198
2.32314
2.3367
2.34163
2.33684
2.32122
2.29373
2.25344
2.19966
2.13189
2.04988
1.95352
1.84273
1.71739
1.57715
1.42146
1.24941
1.05983
0.851306
0.622238
0.370963
0.0958128
-0.204841
-0.532587
-0.889026
-1.27585
-1.69497
-2.14856
-2.63922
-3.16996
-3.74423
-4.36589
-5.03915
-5.76845
-6.55837
-7.41353
-8.33845
-9.33753
-10.415
-11.5748
-12.8205
-14.1553
-15.5819
-17.1019
-18.7162
-20.4238
-22.2221
-24.1064
-26.069
-28.0999
-30.186
-32.3114
-34.458
-36.6057
-38.7335
3.824
3.64031
3.45791
3.27886
3.10506
2.93823
2.77985
2.63111
2.49295
2.36607
2.25092
2.14778
2.05679
1.97794
1.91114
1.85621
1.81292
1.78097
1.76001
1.74964
1.74937
1.75865
1.7768
1.80304
1.83645
1.87596
1.92039
1.96839
2.01856
2.06946
2.11971
2.16799
2.21318
2.25428
2.29046
2.32093
2.34487
2.36138
2.36938
2.36766
2.35495
2.32999
2.29172
2.23934
2.17245
2.09093
1.99496
1.88475
1.76047
1.62199
1.46884
1.30012
1.11452
0.910445
0.68607
0.439546
0.169099
-0.126888
-0.449879
-0.801256
-1.18245
-1.59509
-2.04116
-2.52311
-3.04395
-3.60719
-4.21691
-4.87754
-5.59384
-6.37066
-7.21289
-8.12527
-9.11239
-10.1786
-11.3282
-12.5651
-13.8928
-15.3148
-16.8336
-18.4508
-20.1667
-21.9796
-23.8855
-25.8775
-27.9458
-30.0766
-32.2533
-34.456
-36.6624
-38.8491
3.82661
3.6346
3.44403
3.25727
3.07648
2.90356
2.74008
2.58726
2.446
2.3169
2.20032
2.09642
2.00522
1.92662
1.86045
1.80648
1.76444
1.73402
1.71489
1.70668
1.70895
1.72119
1.74278
1.77299
1.81089
1.8554
1.90524
1.95893
2.01489
2.07146
2.12704
2.1802
2.22978
2.27488
2.31485
2.34916
2.37721
2.3982
2.41101
2.41422
2.4062
2.38532
2.35018
2.29983
2.23393
2.1527
2.05677
1.94694
1.82388
1.68784
1.53853
1.37501
1.19573
0.998706
0.781697
0.54248
0.279072
-0.0101387
-0.326382
-0.670634
-1.04383
-1.44714
-1.88214
-2.35108
-2.85691
-3.4033
-3.99464
-4.63582
-5.33208
-6.08879
-6.91123
-7.80447
-8.7733
-9.82231
-10.956
-12.1786
-13.4947
-14.9084
-16.4235
-18.0433
-19.7697
-21.6029
-23.5403
-25.5762
-27.7011
-29.9011
-32.1576
-34.4482
-36.7472
-39.0268
3.83046
3.62666
3.42454
3.22694
3.03644
2.85518
2.68485
2.52666
2.38144
2.24961
2.13137
2.02669
1.93542
1.85733
1.79212
1.7395
1.69914
1.67074
1.65399
1.64856
1.6541
1.67018
1.69629
1.73177
1.77574
1.82709
1.88445
1.94613
2.01025
2.07478
2.13776
2.19749
2.25273
2.30275
2.3473
2.3863
2.41962
2.44669
2.46635
2.47682
2.47585
2.46106
2.43041
2.3826
2.31738
2.2355
2.13848
2.02808
1.90585
1.77269
1.62858
1.47247
1.30239
1.11564
0.909199
0.680151
0.426104
0.145447
-0.162638
-0.498408
-0.861949
-1.2536
-1.67433
-2.126
-2.6115
-3.13475
-3.70065
-4.31482
-4.98332
-5.71229
-6.50764
-7.3748
-8.31874
-9.3441
-10.4555
-11.6577
-12.9559
-14.3557
-15.8626
-17.4822
-19.219
-21.0759
-23.053
-25.1467
-27.3483
-29.6437
-32.0125
-34.4281
-36.8596
-39.2724
3.83598
3.61616
3.3984
3.18629
2.98298
2.79095
2.61201
2.44732
2.29747
2.16266
2.04279
1.93756
1.84657
1.7694
1.7056
1.65477
1.61655
1.59061
1.5767
1.57457
1.58398
1.60466
1.63626
1.67824
1.72988
1.79007
1.85734
1.92975
2.00493
2.08024
2.15306
2.22115
2.28309
2.33842
2.38761
2.43154
2.47092
2.50573
2.53481
2.55579
2.56528
2.55954
2.53523
2.49033
2.42469
2.34001
2.23934
2.12615
2.00346
1.87321
1.73579
1.58996
1.43294
1.26083
1.06915
0.853722
0.611362
0.34044
0.0408862
-0.286274
-0.639658
-1.01826
-1.42204
-1.85228
-2.31177
-2.80484
-3.3372
-3.91562
-4.5475
-5.24025
-6.00066
-6.83459
-7.74691
-8.74198
-9.82418
-10.9985
-12.2709
-13.6485
-15.1394
-16.7522
-18.4952
-20.3756
-22.3977
-24.5614
-26.8604
-29.2806
-31.7995
-34.3852
-36.9984
-39.5946
3.84382
3.60257
3.36398
3.13285
2.91315
2.70778
2.51858
2.3465
2.19177
2.05412
1.93304
1.82783
1.73776
1.66214
1.60034
1.55183
1.51619
1.49311
1.48239
1.4839
1.49758
1.52337
1.56118
1.61076
1.67161
1.74278
1.82276
1.90929
1.99933
2.08921
2.17508
2.2536
2.32285
2.38285
2.43539
2.48321
2.5287
2.57292
2.61485
2.65117
2.67654
2.68463
2.66959
2.62782
2.55928
2.46744
2.35812
2.23776
2.11186
1.98394
1.85501
1.72344
1.58514
1.43407
1.26322
1.06597
0.837651
0.576569
0.284078
-0.0364613
-0.381129
-0.74674
-1.1317
-1.53648
-1.96375
-2.41842
-2.90745
-3.43947
-4.02408
-4.67078
-5.38784
-6.18148
-7.05595
-8.0144
-9.0602
-10.198
-11.4343
-12.7782
-14.2406
-15.8345
-17.5735
-19.4712
-21.5384
-23.7811
-26.1976
-28.7755
-31.4899
-34.3023
-37.1616
-40.0071
3.85502
3.58499
3.3187
3.06284
2.82257
2.60121
2.40043
2.22063
2.06137
1.92167
1.80037
1.69622
1.60808
1.53491
1.47587
1.43029
1.39768
1.37776
1.3704
1.37564
1.39365
1.4247
1.46908
1.527
1.5984
1.68274
1.77867
1.88369
1.99387
2.10389
2.20757
2.2993
2.37584
2.43789
2.4899
2.53811
2.58819
2.64329
2.70288
2.76219
2.81259
2.84293
2.8423
2.80376
2.7273
2.6199
2.49268
2.35725
2.22306
2.09601
1.97793
1.86653
1.75563
1.63569
1.49518
1.32287
1.11101
0.857832
0.567566
0.248009
-0.0925246
-0.447426
-0.812905
-1.18834
-1.57632
-1.98256
-2.41584
-2.88766
-3.41129
-4.00003
-4.66477
-5.41201
-6.24404
-7.16104
-8.16376
-9.25545
-10.443
-11.7371
-13.1525
-14.7076
-16.4234
-18.3225
-20.4262
-22.7506
-25.3022
-28.0734
-31.0388
-34.1519
-37.3443
-40.5301
3.87127
3.56187
3.25825
2.97026
2.70462
2.46487
2.25195
2.06512
1.90271
1.76267
1.64292
1.54151
1.45676
1.38727
1.33195
1.28999
1.26085
1.24427
1.24022
1.24894
1.2709
1.30678
1.35743
1.42375
1.50648
1.60594
1.72143
1.85058
1.98857
2.12758
2.25721
2.36677
2.44958
2.50731
2.54977
2.59021
2.64032
2.7071
2.79117
2.88593
2.9774
3.04568
3.06949
3.03418
2.93972
2.80078
2.63893
2.47481
2.32386
2.19505
2.09111
2.0088
1.93901
1.86685
1.77283
1.63662
1.44377
1.19239
0.893134
0.562593
0.216675
-0.132969
-0.479839
-0.822216
-1.16265
-1.50782
-1.8688
-2.26127
-2.70477
-3.2199
-3.82292
-4.52048
-5.3098
-6.18427
-7.13919
-8.17493
-9.29803
-10.5212
-11.8633
-13.349
-15.0092
-16.8792
-18.996
-21.3926
-24.0903
-27.0917
-30.3751
-33.887
-37.536
-41.1953
3.89545
3.53026
3.17517
2.84533
2.54927
2.28975
2.06576
1.87432
1.71175
1.5744
1.459
1.36275
1.2834
1.21918
1.16875
1.13118
1.10589
1.09266
1.09159
1.10312
1.12805
1.16755
1.22317
1.29679
1.39044
1.50599
1.64443
1.80468
1.98173
2.16468
2.33565
2.47265
2.55933
2.59859
2.61246
2.62827
2.66834
2.74589
2.86395
3.01428
3.17547
3.31235
3.38167
3.34963
3.21607
3.01453
2.78832
2.57329
2.39263
2.25817
2.17301
2.13293
2.12572
2.12937
2.1111
2.0318
1.86071
1.59578
1.26364
0.899224
0.531145
0.177393
-0.153334
-0.458961
-0.742222
-1.01038
-1.27648
-1.56144
-1.89518
-2.31326
-2.84497
-3.49687
-4.25295
-5.09168
-5.99826
-6.96864
-8.00897
-9.13411
-10.367
-11.7393
-13.2929
-15.0803
-17.1628
-19.6011
-22.4409
-25.7036
-29.382
-33.4243
-37.7129
-42.0528
3.93271
3.48393
3.0556
2.67167
2.34121
2.06339
1.83261
1.64184
1.48438
1.35446
1.24742
1.1596
1.08821
1.03117
0.986984
0.95463
0.933533
0.923509
0.924771
0.937951
0.964159
1.00506
1.06296
1.14092
1.24279
1.37301
1.53598
1.73448
1.96632
2.21895
2.46291
2.65087
2.73727
2.72633
2.67223
2.63131
2.64228
2.72621
2.89014
3.12685
3.40839
3.67615
3.83964
3.81112
3.59016
3.26366
2.92149
2.62216
2.39474
2.25014
2.1899
2.20958
2.29665
2.42335
2.53714
2.55904
2.41266
2.09583
1.68052
1.24104
0.824911
0.454515
0.136939
-0.127996
-0.343611
-0.515978
-0.657077
-0.791414
-0.96422
-1.24304
-1.69402
-2.32328
-3.07715
-3.90139
-4.76545
-5.66162
-6.59777
-7.59182
-8.67
-9.86871
-11.2396
-12.8563
-14.8171
-17.2315
-20.1822
-23.717
-27.8645
-32.6067
-37.8154
-43.1864
3.99302
3.40799
2.872
2.42094
2.05734
1.76931
1.54181
1.36138
1.21731
1.10153
1.00811
0.932742
0.87232
0.824628
0.788132
0.761833
0.745188
0.738065
0.740749
0.753987
0.779079
0.818034
0.873801
0.950588
1.05427
1.1928
1.37632
1.61618
1.9209
2.28562
2.67071
2.97523
3.05526
2.91612
2.71292
2.55951
2.51109
2.59122
2.81142
3.17474
3.66101
4.18996
4.57395
4.54958
4.11606
3.53521
2.99287
2.56742
2.27752
2.12055
2.09161
2.18909
2.41041
2.73578
3.09538
3.32846
3.20991
2.73759
2.13209
1.54916
1.05276
0.655528
0.351355
0.131885
-0.00734193
-0.0666644
-0.0474823
0.0339266
0.119326
0.0750036
-0.286431
-0.97029
-1.80008
-2.65379
-3.48638
-4.29702
-5.10317
-5.92837
-6.79939
-7.75009
-8.83237
-10.1368
-11.8183
-14.0895
-17.082
-20.8482
-25.4903
-31.1171
-37.684
-44.7439
4.09719
3.26135
2.56598
2.0441
1.66448
1.38787
1.18312
1.02849
0.909443
0.816351
0.742766
0.684329
0.638061
0.601928
0.574563
0.555104
0.5431
0.538468
0.5415
0.552921
0.574003
0.60677
0.65434
0.721485
0.815529
0.947761
1.13549
1.4044
1.78901
2.32284
2.99442
3.62275
3.68876
3.19803
2.6818
2.33638
2.19468
2.25441
2.52645
3.04545
3.85201
4.91233
5.89614
5.87703
4.85399
3.75114
2.89578
2.31733
1.96873
1.80649
1.81117
1.99017
2.3742
2.9988
3.83568
4.60407
4.51648
3.57098
2.55102
1.73254
1.1377
0.722434
0.443717
0.276149
0.213798
0.269534
0.472431
0.853437
1.38958
1.8496
1.58537
0.59276
-0.48861
-1.43669
-2.23897
-2.93892
-3.58118
-4.19892
-4.81403
-5.44198
-6.1053
-6.87412
-7.97017
-9.90864
-12.8679
-16.7178
-21.698
-28.2736
-36.8425
-47.0093
4.2925
2.91226
2.00996
1.46237
1.12328
0.902961
0.752226
0.644299
0.564168
0.503049
0.45558
0.418364
0.389183
0.366576
0.349585
0.337619
0.330375
0.327811
0.330149
0.337922
0.352078
0.374164
0.406666
0.453619
0.52176
0.622764
0.777703
1.02596
1.44215
2.16164
3.38029
5.07987
5.1238
3.51653
2.40458
1.81985
1.58814
1.61179
1.88575
2.50196
3.67744
5.7447
8.6623
8.64991
5.70661
3.61054
2.39984
1.73619
1.39151
1.25196
1.2796
1.49592
1.99144
2.95603
4.67441
7.11212
7.05824
4.51144
2.67969
1.5938
0.964028
0.592647
0.375967
0.268846
0.264836
0.393761
0.735797
1.44946
2.76934
4.66697
4.5059
2.28351
0.630835
-0.429547
-1.13894
-1.66389
-2.09451
-2.47327
-2.81018
-3.08295
-3.22628
-3.14029
-2.90902
-4.25789
-7.37112
-10.9595
-15.6083
-22.5597
-33.6997
-50.5819
4.69031
1.87491
0.943118
0.580324
0.410987
0.317806
0.259654
0.220061
0.19149
0.170069
0.153614
0.14081
0.130825
0.123123
0.117358
0.113318
0.110897
0.110083
0.110957
0.113717
0.118718
0.126545
0.138166
0.155224
0.180645
0.220073
0.285506
0.405664
0.65847
1.28158
3.07347
8.92092
8.93639
3.12162
1.36809
0.794867
0.613811
0.608637
0.752141
1.15304
2.21858
5.35234
15.6473
15.643
5.339
2.19487
1.11603
0.695653
0.518847
0.456628
0.476285
0.599574
0.933121
1.8277
4.47714
13.2077
13.1895
4.42207
1.73417
0.798173
0.418212
0.240048
0.15041
0.113028
0.124411
0.21106
0.463962
1.17246
3.31699
10.4486
10.3945
3.15372
0.897294
0.0721174
-0.304534
-0.524709
-0.682555
-0.80787
-0.898703
-0.91032
-0.677503
0.384306
4.42746
3.93346
-1.19012
-3.67432
-6.20259
-10.8139
-22.2876
-56.7911
-40.9364
-43.3203
-45.5872
-47.7121
-49.6756
-51.4639
-53.0686
-54.4856
-55.7146
-56.7573
-57.6174
-58.2989
-58.8058
-59.1416
-59.3089
-41.0235
-43.437
-45.7288
-47.8731
-49.8503
-51.6471
-53.2558
-54.6733
-55.9003
-56.9396
-57.7955
-58.4729
-58.9764
-59.3097
-59.4756
-41.2008
-43.6752
-46.0176
-48.2009
-50.2051
-52.0181
-53.6337
-55.0511
-56.2731
-57.3047
-58.1517
-58.8205
-59.3166
-59.6447
-59.8079
-41.4757
-44.0448
-46.4653
-48.7072
-50.7509
-52.5859
-54.2093
-55.624
-56.8361
-57.8538
-58.6858
-59.3403
-59.8245
-60.144
-60.3028
-41.8599
-44.5628
-47.091
-49.4114
-51.505
-53.3648
-54.9934
-56.3989
-57.5929
-58.5881
-59.3968
-60.0299
-60.4965
-60.8037
-60.9561
-42.372
-45.2553
-47.9243
-50.3421
-52.4923
-54.3747
-56
-57.3848
-58.5482
-59.5086
-60.283
-60.8855
-61.3275
-61.6176
-61.7612
-43.0406
-46.1618
-49.0083
-51.54
-53.7471
-55.6414
-57.2467
-58.5919
-59.7059
-60.6147
-61.3405
-61.901
-62.31
-62.5774
-62.7095
-43.9099
-47.3425
-50.4067
-53.0622
-55.3144
-57.1965
-58.753
-60.0298
-61.0683
-61.9034
-62.5627
-63.0676
-63.4336
-63.6719
-63.7894
-45.0506
-48.8914
-52.2134
-54.9871
-57.2514
-59.0765
-60.5384
-61.7055
-62.6339
-63.3675
-63.939
-64.3724
-64.6845
-64.8867
-64.9862
-46.5806
-50.9587
-54.5678
-57.421
-59.6272
-61.3193
-62.6181
-63.6191
-64.3938
-64.9932
-65.4531
-65.7981
-66.0447
-66.2038
-66.2819
-48.7099
-53.7945
-57.6775
-60.5016
-62.5165
-63.9551
-64.9947
-65.7585
-66.3284
-66.7579
-67.0816
-67.3216
-67.492
-67.6015
-67.6551
-51.8458
-57.8316
-61.8458
-64.3907
-65.9819
-66.9896
-67.6467
-68.0911
-68.4028
-68.6279
-68.7933
-68.9142
-68.9996
-69.0544
-69.0813
-56.8768
-63.84
-67.4829
-69.2328
-70.0301
-70.3743
-70.5109
-70.5558
-70.563
-70.5572
-70.5489
-70.542
-70.5374
-70.5348
-70.5337
-66.0551
-73.1678
-75.0126
-75.0269
-74.5307
-73.9664
-73.4661
-73.0573
-72.7356
-72.4884
-72.3025
-72.1669
-72.0726
-72.0131
-71.9845
-86.1813
-87.7632
-84.3721
-81.3307
-79.0987
-77.4943
-76.329
-75.471
-74.833
-74.3576
-74.0056
-73.75
-73.5723
-73.4602
-73.4059
7.72311
7.70813
7.67831
7.63403
7.57602
7.50562
7.42532
7.33966
7.2569
7.19224
7.17434
7.26036
7.58042
8.50729
11.4542
7.93686
7.92166
7.89131
7.84603
7.78624
7.71285
7.62774
7.53461
7.44079
7.36061
7.32198
7.37888
7.63343
8.2583
9.36463
8.16095
8.14548
8.11449
8.06791
8.00571
7.92804
7.83551
7.72981
7.61497
7.49991
7.40314
7.36
7.42899
7.67469
8.04633
8.39557
8.37987
8.34828
8.30043
8.23573
8.15335
8.05221
7.9311
7.78904
7.62632
7.4469
7.26305
7.1016
7.00341
6.98906
8.64086
8.62506
8.59315
8.54445
8.47783
8.39147
8.28255
8.1467
7.97721
7.76411
7.4936
7.15035
6.73006
6.27371
5.9248
8.89689
8.88122
8.84946
8.80072
8.73343
8.64505
8.53135
8.38539
8.19543
7.94161
7.5906
7.09095
6.38338
5.46919
4.62126
9.16356
9.1483
9.11734
9.06965
9.00349
8.91597
8.8023
8.65433
8.45778
8.18644
7.79057
7.17575
6.18003
4.61847
2.73193
9.44057
9.42606
9.3966
9.3512
9.28818
9.20483
9.09677
8.95671
8.77182
8.51764
8.14233
7.52484
6.36952
3.99325
-0.464401
9.72739
9.71396
9.6867
9.64476
9.58677
9.51061
9.41318
9.28988
9.13371
8.93286
8.66201
8.24719
7.40678
4.81326
-6.75314
10.0233
10.0112
9.98675
9.94926
9.89776
9.83093
9.74725
9.64551
9.52635
9.39659
9.28137
9.26482
9.66134
11.8642
23.1879
10.3273
10.3168
10.2956
10.2633
10.2192
10.1627
10.0936
10.0129
9.92605
9.85011
9.83192
9.9953
10.6613
12.581
16.7378
10.6382
10.6295
10.6119
10.5852
10.549
10.503
10.4475
10.3841
10.3179
10.2634
10.2561
10.3765
10.7903
11.7438
13.1782
10.955
10.9481
10.9343
10.9135
10.8853
10.8498
10.8067
10.7568
10.7013
10.6439
10.5912
10.5535
10.5442
10.5722
10.6187
11.2762
11.2713
11.2614
11.2466
11.2266
11.2014
11.1705
11.1328
11.0856
11.0208
10.9157
10.7106
10.272
9.38756
8.09555
11.6005
11.5975
11.5917
11.5829
11.5713
11.5566
11.5385
11.5152
11.4819
11.4256
11.3093
11.0294
10.3093
8.48556
4.67935
11.9265
11.9255
11.9237
11.921
11.9178
11.9141
11.9098
11.9039
11.8938
11.8719
11.8161
11.6536
11.1127
8.95999
-1.37582
12.2528
12.2538
12.2559
12.2593
12.2644
12.2717
12.2817
12.2951
12.3135
12.3417
12.3965
12.5403
13.0353
15.1168
25.3846
12.5782
12.581
12.5868
12.596
12.6092
12.6271
12.6509
12.6824
12.7261
12.793
12.9148
13.1826
13.8558
15.5881
19.2914
12.9012
12.9058
12.9152
12.9298
12.9504
12.9781
13.0142
13.0609
13.122
13.2058
13.3314
13.543
13.9405
14.6903
15.7748
13.2207
13.2269
13.2395
13.2591
13.2865
13.3229
13.3698
13.4288
13.5018
13.5896
13.6878
13.7739
13.7801
13.5597
13.0162
13.5356
13.5432
13.5587
13.5827
13.6161
13.6602
13.7165
13.7865
13.8709
13.9659
14.0522
14.0599
13.7768
12.653
9.88543
13.8448
13.8537
13.8716
13.8994
13.9379
13.9886
14.0532
14.1338
14.2322
14.348
14.4707
14.5474
14.357
12.8872
4.8379
14.1475
14.1574
14.1774
14.2083
14.251
14.307
14.3784
14.4681
14.5809
14.7254
14.9207
15.2198
15.8254
17.6902
25.9956
14.443
14.4537
14.4754
14.5087
14.5545
14.6144
14.6904
14.7859
14.907
15.0672
15.2981
15.679
16.4191
18.0201
21.1367
14.7306
14.742
14.7649
14.8
14.848
14.9103
14.9885
15.0853
15.2056
15.3598
15.5708
15.8883
16.4145
17.2968
18.4478
15.01
15.0218
15.0456
15.0819
15.1313
15.1947
15.2731
15.3677
15.4801
15.6128
15.7692
15.952
16.1622
16.3865
16.5641
15.2807
15.2929
15.3173
15.3545
15.4046
15.4684
15.546
15.6371
15.7401
15.8492
15.9487
15.9963
15.8997
15.5081
14.8095
15.5426
15.555
15.5799
15.6176
15.6682
15.7321
15.809
15.8978
15.9952
16.0922
16.1637
16.1403
15.8417
14.8423
12.5756
15.7954
15.808
15.8332
15.8713
15.9223
15.9863
16.0631
16.1519
16.2502
16.3527
16.444
16.475
16.2701
15.056
8.77366
16.0391
16.0518
16.0773
16.1157
16.167
16.2313
16.3085
16.3986
16.5018
16.6208
16.7656
16.9729
17.399
18.7887
25.1638
16.2735
16.2863
16.312
16.3507
16.4023
16.4669
16.5445
16.6355
16.7419
16.8708
17.0433
17.3184
17.8585
19.0587
21.4385
16.4985
16.5114
16.5374
16.5764
16.6283
16.6931
16.7706
16.8611
16.9659
17.0903
17.2494
17.4792
17.8592
18.5088
19.3723
16.714
16.7271
16.7533
16.7927
16.8449
16.9099
16.9873
17.0762
17.1758
17.2856
17.4057
17.5351
17.6724
17.8096
17.9122
16.9199
16.9332
16.9598
16.9996
17.0524
17.1179
17.1953
17.283
17.378
17.4737
17.555
17.5848
17.4854
17.1339
16.5298
17.1162
17.1297
17.1567
17.1971
17.2507
17.3172
17.3956
17.4842
17.5791
17.6716
17.7395
17.7238
17.4731
16.6331
14.7343
17.3026
17.3163
17.3438
17.385
17.4397
17.5077
17.5883
17.6804
17.7814
17.8862
17.9816
18.0254
17.8697
16.867
11.6267
17.479
17.493
17.521
17.5631
17.6191
17.689
17.7726
17.8696
17.9804
18.1073
18.2589
18.465
18.854
20.0432
25.3827
17.6451
17.6594
17.6881
17.7311
17.7885
17.8604
17.9469
18.0486
18.1677
18.3111
18.4978
18.7769
19.2824
20.3365
22.3573
17.8008
17.8155
17.8448
17.8888
17.9476
18.0212
18.11
18.2147
18.3375
18.4848
18.6718
18.9311
19.3294
19.9578
20.7422
17.9458
17.9608
17.9908
18.0358
18.0959
18.1711
18.2616
18.3676
18.4898
18.6307
18.7949
18.9882
19.2164
19.4699
19.6787
18.08
18.0953
18.1259
18.1719
18.2333
18.31
18.4018
18.5083
18.6285
18.7603
18.8973
19.0204
19.0853
19.0126
18.767
18.203
18.2187
18.25
18.297
18.3597
18.4379
18.5313
18.6389
18.7587
18.886
19.0087
19.0924
19.0494
18.6748
17.6918
18.3146
18.3306
18.3627
18.4107
18.4748
18.5548
18.6503
18.7603
18.8829
19.0147
19.1466
19.2518
19.2433
18.7589
15.9408
18.4146
18.431
18.4638
18.513
18.5786
18.6606
18.7586
18.8721
19.0003
19.143
19.3024
19.4896
19.7674
20.463
23.3912
18.5027
18.5195
18.553
18.6034
18.6706
18.7548
18.8556
18.973
19.107
19.2597
19.4383
19.6639
20.001
20.616
21.7308
18.5787
18.5958
18.6301
18.6817
18.7505
18.8369
18.9406
19.0616
19.2001
19.3582
19.5409
19.76
20.0414
20.4211
20.8518
18.6423
18.6598
18.6948
18.7475
18.818
18.9064
19.0129
19.1371
19.2792
19.4392
19.6178
19.8122
20.013
20.1901
20.2792
18.6932
18.711
18.7467
18.8005
18.8726
18.9631
19.0722
19.1996
19.345
19.5073
19.6831
19.8593
20.0007
20.0194
19.7757
18.7312
18.7493
18.7857
18.8404
18.9139
19.0064
19.1181
19.2489
19.3985
19.5659
19.7474
19.9298
20.0733
20.0304
19.1102
18.7561
18.7745
18.8113
18.8669
18.9417
19.0359
19.1501
19.2844
19.439
19.6144
19.8105
20.0268
20.2749
20.6499
21.7625
18.7677
18.7863
18.8235
18.8798
18.9555
19.0511
19.1674
19.3049
19.4646
19.6483
19.859
20.101
20.388
20.7565
21.2452
18.7659
18.7846
18.8221
18.8787
18.955
19.0516
19.1694
19.3093
19.4729
19.6632
19.885
20.1434
20.4439
20.779
21.0747
18.7507
18.7693
18.8068
18.8635
18.94
19.037
19.1554
19.2964
19.4621
19.6562
19.885
20.156
20.4755
20.8281
21.1169
18.7219
18.7405
18.7778
18.8342
18.9104
19.007
19.125
19.2656
19.4309
19.6248
19.8551
20.1342
20.4836
20.9209
21.367
18.6797
18.6981
18.735
18.7908
18.8662
18.9618
19.0784
19.217
19.3791
19.568
19.7906
20.063
20.4303
21.0068
21.9342
18.6243
18.6423
18.6786
18.7335
18.8075
18.9014
19.0158
19.1512
19.3082
19.4875
19.6911
19.9251
20.2314
20.8484
23.1528
18.5557
18.5734
18.6088
18.6624
18.7347
18.8264
18.938
19.0697
19.221
19.39
19.5697
19.7364
19.8163
19.5175
17.3907
18.4745
18.4915
18.5259
18.5779
18.6481
18.7371
18.8456
18.9737
19.121
19.285
19.4566
19.6074
19.6638
19.4553
18.7474
18.3808
18.3972
18.4303
18.4803
18.548
18.6339
18.7389
18.8637
19.0089
19.1745
19.3574
19.5432
19.6948
19.7392
19.6197
18.2752
18.2909
18.3224
18.3702
18.4348
18.517
18.6178
18.7387
18.8819
19.0518
19.2556
19.5022
19.8
20.1362
20.4163
18.1582
18.173
18.2028
18.2479
18.3089
18.3867
18.4822
18.5974
18.7358
18.9053
19.1234
19.4249
19.878
20.5716
21.4147
18.0304
18.0442
18.072
18.1142
18.1711
18.2435
18.3324
18.4392
18.5674
18.725
18.9327
19.2417
19.7888
20.9023
23.0058
17.8924
17.9052
17.9309
17.9697
18.0221
18.0885
18.1694
18.2655
18.3779
18.5099
18.6711
18.8925
19.3057
20.545
26.0648
17.7451
17.7568
17.7802
17.8155
17.863
17.923
17.9954
18.0797
18.1741
18.2742
18.3671
18.4095
18.2484
17.2145
11.8059
17.5892
17.5997
17.6207
17.6524
17.695
17.7484
17.8125
17.886
17.9657
18.0435
18.0975
18.0672
17.7969
16.9214
14.9564
17.4255
17.4347
17.4533
17.4813
17.5189
17.5661
17.6225
17.6873
17.7581
17.8291
17.8858
17.891
17.7655
17.3842
16.7492
17.2548
17.2628
17.279
17.3033
17.3358
17.3768
17.4261
17.4838
17.5497
17.6244
17.7093
17.8049
17.9113
18.0225
18.108
17.0781
17.0849
17.0985
17.119
17.1465
17.1812
17.2234
17.2737
17.3345
17.4125
17.5249
17.7106
18.0534
18.678
19.5332
16.8961
16.9017
16.9128
16.9295
16.9519
16.9801
17.0144
17.0557
17.1068
17.1766
17.289
17.5068
17.9994
19.1727
21.5591
16.7098
16.7141
16.7228
16.7357
16.7529
16.7743
16.7999
16.83
16.8656
16.911
16.9792
17.1115
17.4723
18.8242
25.2491
16.5199
16.5231
16.5293
16.5385
16.5506
16.5652
16.5819
16.5997
16.617
16.6294
16.6244
16.5568
16.2567
14.9523
8.5466
16.3274
16.3294
16.3334
16.339
16.3461
16.3542
16.3624
16.3692
16.3711
16.3598
16.3123
16.1631
15.7383
14.6222
12.2634
16.133
16.134
16.1358
16.1381
16.1406
16.1427
16.1434
16.1414
16.1339
16.1151
16.0704
15.9602
15.6996
15.1545
14.3487
15.9375
15.9375
15.9374
15.9367
15.935
15.9317
15.9258
15.9166
15.9039
15.8885
15.8732
15.8613
15.8581
15.8673
15.881
15.7414
15.7407
15.7389
15.7357
15.7303
15.722
15.7098
15.6936
15.6751
15.6616
15.6731
15.7558
16.0076
16.5764
17.4294
15.5454
15.5441
15.541
15.5357
15.5273
15.5145
15.4962
15.4716
15.4423
15.4172
15.423
15.5322
15.9367
17.0875
19.5765
15.3499
15.3482
15.3443
15.3376
15.3269
15.3105
15.2863
15.2521
15.2062
15.1511
15.1006
15.1032
15.347
16.6689
23.4585
15.1552
15.1533
15.1492
15.1419
15.1301
15.1115
15.083
15.0399
14.9759
14.8818
14.7407
14.506
14.0083
12.4525
5.50899
14.9612
14.9596
14.9558
14.9491
14.9377
14.9191
14.8892
14.8416
14.766
14.645
14.4452
14.0909
13.4042
11.9771
9.29678
14.7679
14.7668
14.7641
14.759
14.7499
14.7341
14.7072
14.662
14.587
14.463
14.2563
13.9062
13.314
12.3713
11.2294
14.575
14.5747
14.5738
14.5715
14.5664
14.5564
14.5373
14.5025
14.4416
14.3381
14.1665
13.8892
13.4669
12.9034
12.3752
14.3818
14.3826
14.3839
14.3854
14.3862
14.3846
14.3777
14.3606
14.3253
14.2604
14.1495
13.9724
13.7174
13.4104
13.1602
14.1877
14.1897
14.1936
14.1996
14.2072
14.216
14.2246
14.2305
14.2292
14.2145
14.1779
14.109
14.0039
13.8776
13.7774
13.9917
13.9949
14.0016
14.0121
14.0271
14.0473
14.073
14.1047
14.1418
14.1837
14.2281
14.2704
14.3047
14.3259
14.3313
13.793
13.7974
13.8065
13.8213
13.8432
13.8742
13.9169
13.9744
14.0507
14.1508
14.2794
14.4368
14.6143
14.7848
14.8948
13.5909
13.5961
13.607
13.6251
13.6526
13.6927
13.7498
13.8303
13.9426
14.0981
14.3103
14.5886
14.9284
15.285
15.5408
13.3848
13.3904
13.4022
13.4222
13.453
13.4989
13.5661
13.6635
13.8039
14.0059
14.2946
14.6972
15.2306
15.8546
16.3703
13.1745
13.1798
13.1915
13.2113
13.2425
13.29
13.361
13.4662
13.622
13.8534
14.1992
14.7145
15.4695
16.4989
17.564
12.96
12.9646
12.9746
12.9922
13.0205
13.0644
13.1316
13.2332
13.3869
13.6215
13.9856
14.5646
15.5176
17.1177
19.5034
12.7419
12.7451
12.7523
12.7653
12.7872
12.8224
12.8778
12.9634
13.0952
13.2994
13.6224
14.1545
15.1159
17.1902
23.1053
-142.391
-105.7
-92.6309
-86.3664
-82.71
-80.3256
-78.6712
-77.4808
-76.6061
-75.9574
-75.4778
-75.1292
-74.8865
-74.733
-74.6587
-120.522
-105.602
-95.4129
-89.1323
-85.1092
-82.3922
-80.4779
-79.0882
-78.0604
-77.2941
-76.7247
-76.3092
-76.0189
-75.8348
-75.7454
-109.022
-102.217
-95.4806
-90.3298
-86.6008
-83.9013
-81.9197
-80.4435
-79.3324
-78.4936
-77.8644
-77.402
-77.0771
-76.8703
-76.7697
-102.255
-98.783
-94.4468
-90.5392
-87.3771
-84.9117
-83.01
-81.5445
-80.4149
-79.5472
-78.888
-78.3989
-78.0529
-77.8316
-77.7237
-97.9049
-95.949
-93.1149
-90.2302
-87.6688
-85.5306
-83.797
-82.4116
-81.3149
-80.4556
-79.793
-79.296
-78.9416
-78.7138
-78.6023
-94.9201
-93.7243
-91.8176
-89.6961
-87.6663
-85.8681
-84.3415
-83.0775
-82.0494
-81.227
-80.5828
-80.0938
-79.7421
-79.5147
-79.403
-92.7723
-91.9928
-90.6692
-89.0974
-87.5024
-86.0169
-84.7031
-83.579
-82.6404
-81.8742
-81.2643
-80.7958
-80.4559
-80.2347
-80.1257
-91.1725
-90.6388
-89.6926
-88.5142
-87.2619
-86.0463
-84.9325
-83.9509
-83.1113
-82.4123
-81.8474
-81.4082
-81.0868
-80.8763
-80.7723
-89.95
-89.5706
-88.8769
-87.9817
-86.9953
-86.0048
-85.0695
-84.2235
-83.4838
-82.8568
-82.3427
-81.9385
-81.6401
-81.4437
-81.3462
-88.9978
-88.7203
-88.2007
-87.5119
-86.7309
-85.9248
-85.144
-84.4216
-83.7775
-83.2226
-82.7614
-82.395
-82.1223
-81.9417
-81.8519
-88.245
-88.0376
-87.6415
-87.1053
-86.4835
-85.827
-85.1774
-84.5645
-84.0087
-83.5227
-83.1139
-82.786
-82.5401
-82.3764
-82.2947
-87.643
-87.4854
-87.1792
-86.7576
-86.2597
-85.7241
-85.1846
-84.6672
-84.1908
-83.7688
-83.41
-83.1195
-82.9003
-82.7537
-82.6803
-87.1572
-87.036
-86.7966
-86.4623
-86.0615
-85.6237
-85.1761
-84.7407
-84.3345
-83.9706
-83.6582
-83.4033
-83.2097
-83.0796
-83.0144
-86.7622
-86.6683
-86.4794
-86.2125
-85.8884
-85.5298
-85.1587
-84.7931
-84.4483
-84.1362
-83.866
-83.644
-83.4745
-83.3602
-83.3026
-86.4392
-86.366
-86.2161
-86.0018
-85.7387
-85.4445
-85.1367
-84.8305
-84.5387
-84.2724
-84.04
-83.8479
-83.7005
-83.6008
-83.5505
-86.1737
-86.1166
-85.9971
-85.8243
-85.6101
-85.3684
-85.1132
-84.857
-84.6109
-84.3845
-84.1856
-84.0204
-83.893
-83.8066
-83.7629
-85.9546
-85.9101
-85.8145
-85.6749
-85.5002
-85.3014
-85.0899
-84.8759
-84.6688
-84.477
-84.3076
-84.1661
-84.0567
-83.9822
-83.9445
-85.7731
-85.7387
-85.6622
-85.5492
-85.4065
-85.2429
-85.0677
-84.8893
-84.7154
-84.5535
-84.4097
-84.2892
-84.1956
-84.1318
-84.0995
-85.6224
-85.5959
-85.5348
-85.4433
-85.3268
-85.1923
-85.0473
-84.8988
-84.7532
-84.6169
-84.4954
-84.3931
-84.3135
-84.2591
-84.2315
-85.4968
-85.4768
-85.4281
-85.3542
-85.2591
-85.1486
-85.0289
-84.9056
-84.784
-84.6696
-84.5673
-84.4808
-84.4134
-84.3672
-84.3438
-85.3918
-85.3771
-85.3386
-85.279
-85.2017
-85.1111
-85.0125
-84.9104
-84.8092
-84.7136
-84.6277
-84.555
-84.4981
-84.4592
-84.4394
-85.3038
-85.2934
-85.2633
-85.2156
-85.1529
-85.079
-84.9981
-84.9138
-84.8299
-84.7503
-84.6786
-84.6177
-84.57
-84.5373
-84.5206
-85.2298
-85.2229
-85.1997
-85.1619
-85.1115
-85.0514
-84.9854
-84.9162
-84.8471
-84.7811
-84.7216
-84.6709
-84.6311
-84.6038
-84.5899
-85.1672
-85.1634
-85.146
-85.1164
-85.0762
-85.0278
-84.9743
-84.918
-84.8614
-84.8071
-84.758
-84.7161
-84.6831
-84.6605
-84.6489
-85.1141
-85.1128
-85.1002
-85.0776
-85.046
-85.0075
-84.9647
-84.9193
-84.8734
-84.8291
-84.7889
-84.7546
-84.7276
-84.7089
-84.6995
-85.0688
-85.0695
-85.0611
-85.0443
-85.0201
-84.99
-84.9564
-84.9203
-84.8835
-84.848
-84.8155
-84.7876
-84.7657
-84.7506