/*--------------------------------*- C++ -*----------------------------------*\
| =========                 |                                                 |
| \\      /  F ield         | OpenFOAM: The Open Source CFD Toolbox           |
|  \\    /   O peration     | Version:  5.x                                   |
|   \\  /    A nd           | Web:      www.OpenFOAM.org                      |
|    \\/     M anipulation  |                                                 |
\*---------------------------------------------------------------------------*/
FoamFile
{
    version     2.0;
    format      ascii;
    class       volScalarField;
    location    "18";
    object      gradTy;
}
// * * * * * * * * * * * * * * * * * * * * * * * * * * * * * * * * * * * * * //

dimensions      [0 -1 0 1 0 0 0];

internalField   nonuniform List<scalar> 
6300
(
1002.87
1008.6
1014.31
1019.98
1025.58
1031.1
1036.53
1041.85
1047.04
1052.08
1056.97
1061.68
1066.2
1070.53
1074.65
0.012881
0.0386368
0.0643723
0.0900587
0.11564
0.141024
0.166066
0.190553
0.21419
0.236586
0.257252
0.275614
0.29104
0.302897
0.310622
0.021474
0.0644176
0.107342
0.15021
0.192946
0.235411
0.277382
0.318521
0.358348
0.396214
0.431294
0.462594
0.489005
0.509393
0.522728
0.0300691
0.0902133
0.150363
0.210491
0.270518
0.330287
0.389523
0.447794
0.504459
0.558624
0.60911
0.654458
0.692989
0.722938
0.742666
0.038659
0.116
0.193398
0.27086
0.348335
0.425679
0.502613
0.578655
0.653051
0.724692
0.792044
0.85312
0.905535
0.946681
0.974053
0.0472253
0.141725
0.236365
0.33121
0.426271
0.521469
0.616579
0.711146
0.804381
0.895031
0.981236
1.06043
1.12934
1.18419
1.22118
0.0557387
0.167301
0.279114
0.391327
0.504051
0.617327
0.731064
0.844942
0.95827
1.06979
1.17741
1.27799
1.36717
1.43953
1.48924
0.0641651
0.192621
0.321454
0.450919
0.581263
0.712705
0.845384
0.979262
1.11394
1.24841
1.3806
1.50693
1.62179
1.71747
1.78489
0.072464
0.217557
0.363152
0.509617
0.657357
0.806822
0.958482
1.11275
1.26981
1.42927
1.58962
1.74728
1.89553
2.02362
2.11712
0.0805958
0.241982
0.403968
0.567021
0.731703
0.898718
1.06894
1.24341
1.42322
1.60921
1.80127
1.99696
2.18936
2.36425
2.49863
0.0885303
0.265796
0.443703
0.622774
0.80369
0.987378
1.17512
1.3687
1.57041
1.78303
2.00921
2.24986
2.50057
2.74526
2.94832
0.0962564
0.288958
0.482256
0.676661
0.872877
1.07195
1.27545
1.48579
1.70663
1.94322
2.20259
2.49258
2.81769
3.16778
3.4948
0.10379
0.311512
0.519685
0.728711
0.939183
1.15205
1.36888
1.59236
1.82703
2.08053
2.36526
2.70007
3.10969
3.61328
4.17756
0.111179
0.333602
0.556241
0.77929
1.00307
1.22814
1.45562
1.68767
1.92854
2.18654
2.47772
2.83262
3.30761
3.99802
5.01437
0.118496
0.355466
0.592365
0.829116
1.06562
1.3018
1.53775
1.7741
2.01283
2.25926
2.52634
2.84496
3.29002
4.05669
5.72428
1078.23
1081.34
1084.31
1087.12
1089.8
1092.34
1094.74
1097.02
1099.19
1101.24
1103.2
1105.06
1106.85
1108.56
1110.22
1111.82
1113.38
1114.91
1116.41
1117.9
1119.39
1120.87
1122.37
1123.88
1125.41
1126.97
1128.57
1130.2
1131.86
1133.57
1135.31
1137.09
1138.91
1140.75
1142.63
1144.54
1146.46
1148.4
1150.35
1152.29
1154.23
1156.15
1158.04
1159.89
1161.69
1163.42
1165.09
1166.66
1168.14
1169.51
1170.75
1171.86
1172.81
1173.6
1174.2
1174.61
1174.79
1174.74
1174.42
1173.82
1172.9
1171.65
1170.03
1168.02
1165.59
1162.69
1159.29
1155.35
1150.82
1145.66
1139.81
1133.22
1125.83
1117.57
1108.37
1098.17
1086.9
1074.47
1060.82
1045.86
1029.52
1011.71
992.38
971.447
948.855
924.552
898.501
870.677
841.071
809.691
0.313532
0.312883
0.308934
0.301798
0.291699
0.278941
0.263887
0.246925
0.228447
0.208824
0.188396
0.167462
0.14628
0.125067
0.104006
0.083254
0.0629509
0.0432264
0.0242108
0.00604133
-0.0111311
-0.0271387
-0.0417969
-0.0549071
-0.0662661
-0.0756784
-0.0829735
-0.0880242
-0.090764
-0.0911976
-0.0894
-0.0855016
-0.0796597
-0.0720206
-0.0626844
-0.0516823
-0.0389753
-0.0244773
-0.0080983
0.0102048
0.0303822
0.0522657
0.0755745
0.0999546
0.125045
0.150557
0.176337
0.202412
0.228996
0.256456
0.285258
0.315898
0.348827
0.384399
0.422833
0.464224
0.508571
0.555844
0.606058
0.659332
0.715944
0.776335
0.841096
0.910928
0.986575
1.06876
1.15813
1.25519
1.36026
1.47349
1.59485
1.72418
1.86115
2.00536
2.15626
2.31311
2.47493
2.64039
2.8077
2.97449
3.13781
3.29403
3.43896
3.56793
3.67606
3.75854
3.81097
3.82984
3.81278
3.7589
0.52778
0.526697
0.519927
0.507681
0.490361
0.468521
0.442808
0.413913
0.38252
0.349272
0.314746
0.279444
0.243791
0.208141
0.172787
0.137978
0.10393
0.0708476
0.0389344
0.00841044
-0.0204786
-0.0474537
-0.0722008
-0.094376
-0.11362
-0.129579
-0.14194
-0.150464
-0.155024
-0.155629
-0.152427
-0.145682
-0.135714
-0.122825
-0.107216
-0.0889414
-0.0678988
-0.0438777
-0.0166467
0.0139382
0.0478339
0.0847511
0.124159
0.165362
0.207638
0.250396
0.293317
0.336437
0.380158
0.42518
0.472396
0.522741
0.57706
0.635989
0.699894
0.768871
0.842825
0.921587
1.00508
1.09342
1.18707
1.28678
1.3936
1.50879
1.63371
1.76967
1.91782
2.07905
2.25392
2.44268
2.64524
2.86126
3.09023
3.33146
3.58412
3.84712
4.11897
4.39762
4.68023
4.96297
5.24094
5.50803
5.75701
5.97977
6.16768
6.31211
6.40515
6.44033
6.41331
6.32241
0.750231
0.748735
0.738852
0.72092
0.695589
0.663737
0.626377
0.584569
0.53934
0.491637
0.442292
0.392012
0.341381
0.290873
0.240872
0.191694
0.14361
0.0968767
0.0517518
0.00852133
-0.0324843
-0.0708773
-0.106207
-0.137963
-0.165597
-0.188554
-0.206323
-0.218503
-0.224869
-0.225429
-0.220442
-0.210386
-0.19586
-0.177427
-0.155467
-0.130064
-0.100988
-0.0677751
-0.0298976
0.0130326
0.0610646
0.113781
0.17029
0.229359
0.289672
0.350136
0.410147
0.469739
0.529587
0.590892
0.655172
0.724009
0.798802
0.880564
0.969798
1.0665
1.1703
1.28068
1.39725
1.52004
1.64962
1.78713
1.93419
2.09281
2.26512
2.45319
2.65882
2.8834
3.12776
3.39217
3.6764
3.97987
4.30179
4.64125
4.99724
5.36852
5.75337
6.14929
6.55268
6.95848
7.35988
7.74822
8.11295
8.44194
8.72201
8.93978
9.08275
9.1405
9.10593
8.9762
0.984716
0.982834
0.969352
0.944805
0.910204
0.866887
0.816364
0.760166
0.699743
0.63639
0.57121
0.505113
0.438823
0.372907
0.307805
0.243866
0.181383
0.120626
0.0618794
0.00546821
-0.0482112
-0.0986702
-0.145314
-0.187441
-0.224265
-0.254953
-0.278708
-0.294866
-0.303027
-0.303166
-0.295706
-0.281481
-0.26158
-0.237058
-0.208626
-0.176427
-0.139982
-0.0983391
-0.0503725
0.00483281
0.0676022
0.137403
0.212787
0.291616
0.371539
0.450579
0.527633
0.602721
0.676969
0.752375
0.831442
0.916756
1.01057
1.11443
1.229
1.35398
1.48837
1.63089
1.78052
1.93695
2.10082
2.27376
2.45821
2.65718
2.87389
3.11146
3.3726
3.65933
3.97277
4.31315
4.6799
5.07196
5.48813
5.92728
6.3884
6.87043
7.37186
7.89025
8.42172
8.96034
9.49768
10.0224
10.5204
10.9746
11.3661
11.6752
11.8831
11.9736
11.9356
11.7643
1.23588
1.23365
1.2158
1.18319
1.1374
1.08045
1.01456
0.941901
0.864429
0.783842
0.701525
0.618571
0.535809
0.453853
0.373151
0.294033
0.216762
0.141578
0.0687427
-0.00141734
-0.0684719
-0.131851
-0.190816
-0.244447
-0.291654
-0.331222
-0.361913
-0.382627
-0.392616
-0.391726
-0.380586
-0.360627
-0.333829
-0.302193
-0.267085
-0.228777
-0.186333
-0.13788
-0.0811401
-0.0141261
0.0641499
0.15312
0.250459
0.352435
0.454812
0.554019
0.648088
0.737051
0.822822
0.908725
0.998861
1.09742
1.208
1.33304
1.47336
1.62806
1.79488
1.97101
2.15415
2.34328
2.5391
2.74396
2.96149
3.19615
3.45276
3.73594
4.0497
4.39694
4.77915
5.19631
5.64708
6.12947
6.64151
7.1818
7.74959
8.34454
8.96603
9.61252
10.2806
10.9642
11.6537
12.3354
12.9909
13.5975
14.1289
14.5565
14.8524
14.992
14.9573
14.7403
1.50946
1.50694
1.48349
1.44053
1.38062
1.30686
1.2225
1.13054
1.03359
0.933786
0.832768
0.731767
0.631654
0.533018
0.436242
0.34157
0.249169
0.159182
0.071792
-0.0127336
-0.0939815
-0.17134
-0.243949
-0.310652
-0.369988
-0.420216
-0.459429
-0.485773
-0.497809
-0.494985
-0.478105
-0.449557
-0.412986
-0.372265
-0.330093
-0.287022
-0.241282
-0.189298
-0.126646
-0.0492461
0.0453562
0.156842
0.281511
0.412733
0.542701
0.664907
0.775941
0.876022
0.968527
1.05902
1.1542
1.2608
1.38467
1.52971
1.69706
1.88473
2.08802
2.30111
2.51918
2.74001
2.96442
3.19595
3.44011
3.70356
3.99339
4.31644
4.67862
5.08423
5.53526
6.03108
6.56877
7.14432
7.75425
8.39671
9.0717
9.7804
10.5242
11.3037
12.1171
12.9594
13.8209
14.686
15.5319
16.3289
17.0409
17.6274
18.0469
18.2613
18.2413
17.9731
1.8131
1.81033
1.77918
1.72222
1.64368
1.54845
1.44126
1.32625
1.20677
1.08537
0.963899
0.843606
0.725298
0.609436
0.496241
0.385781
0.278043
0.172998
0.0706689
-0.0288131
-0.125131
-0.217708
-0.305617
-0.387495
-0.461464
-0.525098
-0.575498
-0.609541
-0.624418
-0.618503
-0.592446
-0.550059
-0.49814
-0.444452
-0.394422
-0.349136
-0.30525
-0.256114
-0.19343
-0.10918
0.00220562
0.141532
0.303078
0.474782
0.641708
0.79182
0.919498
1.02583
1.11704
1.20249
1.29297
1.39924
1.53077
1.69414
1.89142
2.11881
2.36696
2.62392
2.88014
3.13146
3.37935
3.62963
3.89083
4.17285
4.48605
4.84043
5.24488
5.70597
6.22672
6.8054
7.43578
8.1095
8.81995
9.56462
10.3451
11.1655
12.0309
12.9457
13.9118
14.9269
15.9829
17.0638
18.143
19.1825
20.1334
20.9385
21.5365
21.8676
21.8827
21.5555
2.15755
2.15448
2.11193
2.03487
1.93067
1.80712
1.67112
1.52823
1.38253
1.23688
1.09314
0.952407
0.815247
0.681845
0.552139
0.425914
0.302885
0.182758
0.0653018
-0.0495874
-0.161803
-0.270927
-0.376098
-0.475852
-0.56794
-0.649153
-0.715233
-0.761019
-0.78108
-0.771135
-0.730415
-0.664404
-0.585957
-0.511492
-0.452042
-0.409361
-0.376907
-0.342568
-0.291413
-0.208339
-0.0813371
0.0940605
0.309847
0.54353
0.764738
0.950842
1.0936
1.19721
1.27363
1.33851
1.40876
1.50109
1.63076
1.80949
2.04216
2.32276
2.63293
2.94751
3.24789
3.52758
3.79057
4.0473
4.31125
4.59694
4.91907
5.29203
5.72922
6.2415
6.8344
7.50492
8.24005
9.02141
9.836
10.6807
11.5605
12.4852
13.4661
14.5136
15.6353
16.8348
18.1088
19.4436
20.8107
22.1631
23.4352
24.5475
25.41
25.9282
26.0164
25.621
2.5592
2.55534
2.49425
2.38646
2.24543
2.08361
1.91086
1.73416
1.55813
1.38556
1.21795
1.05597
0.899697
0.748852
0.602949
0.461378
0.323482
0.188612
0.0561844
-0.0742603
-0.202973
-0.329879
-0.454414
-0.575278
-0.690102
-0.795023
-0.884212
-0.94956
-0.980967
-0.968102
-0.904822
-0.796684
-0.668069
-0.556942
-0.485549
-0.454894
-0.451302
-0.45326
-0.435382
-0.370788
-0.234614
-0.0116272
0.29078
0.630167
0.938231
1.1722
1.32396
1.40767
1.44676
1.46673
1.49266
1.54906
1.65998
1.8471
2.12373
2.48403
2.89242
3.29143
3.64529
3.94759
4.21066
4.45445
4.70023
4.96843
5.27875
5.65097
6.10529
6.66074
7.33016
8.1112
8.97755
9.88528
10.8086
11.7458
12.711
13.7239
14.8054
15.9742
17.2465
18.6352
20.1468
21.7765
23.4992
25.2589
26.9668
28.5157
29.779
30.6079
30.8459
30.375
3.0456
3.03847
2.94372
2.78584
2.59006
2.3759
2.15636
1.93927
1.72891
1.52724
1.33485
1.1515
0.976507
0.808932
0.647715
0.49175
0.339927
0.191161
0.0444277
-0.101206
-0.246515
-0.392013
-0.537778
-0.683156
-0.826277
-0.963294
-1.08727
-1.18672
-1.24435
-1.23741
-1.14357
-0.958197
-0.724749
-0.544923
-0.460145
-0.461206
-0.517449
-0.592243
-0.646337
-0.636024
-0.512619
-0.231405
0.218725
0.762168
1.21868
1.51216
1.65258
1.68263
1.64769
1.5867
1.53302
1.51887
1.57982
1.75611
2.08516
2.57634
3.16571
3.70068
4.11721
4.42438
4.65882
4.85906
5.05727
5.27963
5.54964
5.89203
6.33607
6.9162
7.66554
8.59496
9.65576
10.7271
11.7612
12.7711
13.7928
14.8644
16.0192
17.2859
18.6906
20.2589
22.015
23.976
26.1346
28.4297
30.7276
32.8954
34.7738
36.1385
36.6965
36.1625
3.66954
3.64775
3.48406
3.23974
2.96109
2.67579
2.39816
2.13455
1.88703
1.65544
1.4386
1.23489
1.04254
0.859768
0.684838
0.516084
0.351899
0.190723
0.0310316
-0.128669
-0.289827
-0.453798
-0.621731
-0.794311
-0.971261
-1.15036
-1.32563
-1.48411
-1.6007
-1.63187
-1.51412
-1.18895
-0.704223
-0.396043
-0.311142
-0.388072
-0.556911
-0.761071
-0.950074
-1.06415
-1.01791
-0.694462
0.0122444
1.01929
1.73383
2.07248
2.14007
2.05104
1.88604
1.69603
1.51632
1.38042
1.33348
1.44504
1.81302
2.52715
3.51722
4.28033
4.74651
5.00574
5.15609
5.26641
5.37935
5.52205
5.71614
5.98656
6.37073
6.92782
7.74144
8.88932
10.3186
11.6221
12.7487
13.7793
14.8026
15.8847
17.0715
18.3985
19.8989
21.6118
23.5879
25.8904
28.573
31.5962
34.6754
37.6914
40.5081
42.8301
44.119
43.6409
4.55351
4.46131
4.14041
3.74293
3.3416
2.96455
2.61964
2.30656
2.02208
1.76227
1.52334
1.30183
1.09469
0.899219
0.712984
0.533764
0.359471
0.188086
0.0175932
-0.154081
-0.329128
-0.509915
-0.699019
-0.899193
-1.11316
-1.34295
-1.58819
-1.8418
-2.08004
-2.24077
-2.18335
-1.64945
-0.429486
0.074336
0.0708582
-0.182609
-0.545526
-0.951739
-1.36172
-1.72313
-1.92237
-1.70943
-0.626754
1.69752
2.79019
3.02298
2.85297
2.52878
2.16027
1.79044
1.43645
1.11377
0.858809
0.764628
1.04235
2.08049
4.1954
5.28742
5.67361
5.74376
5.71081
5.66981
5.65841
5.69032
5.77254
5.91714
6.15623
6.56987
7.33584
8.77821
11.1625
12.7718
13.874
14.7976
15.7275
16.7538
17.9218
19.261
20.801
22.5853
24.6903
27.2571
30.5207
34.6814
38.7137
42.7739
46.9543
51.0089
54.0855
54.3292
6.06219
5.60389
4.90682
4.25151
3.68701
3.20693
2.79529
2.43738
2.1216
1.83908
1.58303
1.34812
1.1301
0.925426
0.731094
0.544422
0.362938
0.184253
0.00595062
-0.174533
-0.360053
-0.553938
-0.760241
-0.984083
-1.23213
-1.51315
-1.83853
-2.22147
-2.67081
-3.16358
-3.53853
-3.09771
0.87661
1.27532
0.812935
0.180569
-0.471663
-1.13682
-1.84314
-2.61542
-3.42016
-3.97661
-3.05349
4.14934
5.08479
4.55352
3.7879
3.07039
2.43651
1.86216
1.31162
0.749759
0.152795
-0.451136
-0.823122
0.0834212
6.34659
7.31096
7.05582
6.63025
6.27718
6.03067
5.8752
5.78625
5.73926
5.71176
5.69053
5.70471
5.95639
7.31088
13.1223
14.6518
15.2564
15.8068
16.5137
17.4188
18.5256
19.8343
21.3514
23.0971
25.1278
27.6202
31.1765
37.9516
42.7116
47.6831
53.5811
60.5959
68.131
72.725
9.60223
7.09004
5.61292
4.62915
3.91067
3.35059
2.89337
2.50736
2.17307
1.87764
1.61213
1.36998
1.14616
0.93664
0.738073
0.547521
0.362293
0.179794
-0.00261884
-0.187794
-0.378985
-0.580123
-0.796242
-1.03415
-1.30361
-1.61949
-2.00598
-2.5055
-3.199
-4.25601
-6.06835
-9.63414
7.33149
3.71618
1.7997
0.572288
-0.37923
-1.26267
-2.22958
-3.46091
-5.27542
-8.37427
-14.5229
15.626
9.49121
6.4213
4.65336
3.49141
2.62683
1.89945
1.203
0.436205
-0.543244
-2.00093
-4.52969
-9.62723
16.1278
11.0903
8.68318
7.41208
6.68987
6.26022
5.99596
5.82157
5.67773
5.4972
5.17371
4.4974
2.98877
-0.574539
21.2475
17.8635
16.7165
16.5901
17.0143
17.793
18.8382
20.1072
21.5725
23.1979
24.9002
26.4511
27.1968
44.1229
46.4044
51.2573
58.5993
69.433
86.4105
116.089
773.249
731.044
686.492
639.728
590.907
540.202
487.796
433.878
378.637
322.263
264.94
206.85
148.168
89.0676
29.7169
3.6599
3.50344
3.30505
3.07302
2.81628
2.54345
2.26211
1.97835
1.6966
1.41975
1.14925
0.885399
0.627584
0.374526
0.124496
6.15353
5.88554
5.54574
5.14912
4.71166
4.24856
3.7729
3.29502
2.82226
2.35921
1.90804
1.46897
1.04069
0.620851
0.206343
8.73094
8.33947
7.84326
7.26606
6.63271
5.96623
5.28593
4.60655
3.93819
3.28677
2.65472
2.04171
1.44535
0.861833
0.286364
11.4323
10.8982
10.2218
9.43916
8.58689
7.69772
6.79803
5.90703
5.03715
4.19494
3.38233
2.59777
1.83717
1.09475
0.363639
14.3055
13.5991
12.7066
11.6819
10.578
9.43973
8.30144
7.18642
6.10842
5.07347
4.08187
3.12983
2.21077
1.31634
0.437077
17.4106
16.4863
15.3234
14.0039
12.6033
11.1818
9.78159
8.42882
7.13664
5.90864
4.74182
3.62886
2.55973
1.52276
0.505394
20.8262
19.6118
18.0965
16.4067
14.6494
12.9024
11.2143
9.61064
8.1007
6.68263
5.34791
4.08405
2.87649
1.70955
0.567124
24.6601
23.0376
21.0439
18.8766
16.6851
14.5638
12.5622
10.6987
8.97286
7.37328
5.8831
4.48294
3.15259
1.87183
0.620666
29.0679
26.8346
24.1647
21.3704
18.6503
16.1053
13.7717
11.649
9.71866
7.95452
6.32827
4.81199
3.37909
2.0045
0.66437
34.2831
31.0682
27.4101
23.7902
20.4404
17.4354
14.7701
12.4068
10.2982
8.3978
6.66343
5.05762
3.54727
2.10271
0.696674
40.6624
35.7448
30.617
25.9394
21.8858
18.4258
15.4665
12.9097
10.6693
8.67505
6.87001
5.20776
3.64963
2.16237
0.716285
48.7096
40.6308
33.3734
27.464
22.7372
18.9152
15.7604
13.0959
10.7942
8.76303
6.93375
5.25375
3.6811
2.18083
0.722381
58.7049
44.6951
34.7817
27.8059
22.6838
18.7373
15.5638
12.9191
10.6486
8.64906
6.84815
5.19237
3.64015
2.15744
0.714785
67.4147
44.6629
33.2519
26.2938
21.4547
17.7862
14.8381
12.3681
10.2319
8.33644
6.61738
5.02739
3.52967
2.09399
0.694094
0.125213
0.375546
0.625563
0.874933
1.12313
1.36937
1.61248
1.85094
2.08304
2.30764
2.52633
2.7488
3.006
3.38202
4.09204
0.131385
0.394023
0.656206
0.917431
1.17685
1.43306
1.68376
1.92529
2.15194
2.35497
2.52114
2.62953
2.6407
2.44781
1.64158
0.137645
0.412804
0.687498
0.96116
1.23278
1.50055
1.76137
2.00992
2.23716
2.42782
2.55601
2.57773
2.41701
1.93953
0.911147
0.143992
0.431897
0.719488
1.00629
1.29134
1.57283
1.84746
2.10929
2.34773
2.54398
2.66477
2.65253
2.41319
1.81382
0.732015
0.15039
0.451194
0.752009
1.05261
1.35235
1.64986
1.94239
2.22482
2.48753
2.7125
2.86588
2.88493
2.65936
2.02306
0.818298
0.156766
0.470472
0.784659
1.0995
1.4149
1.73029
2.0443
2.35399
2.65346
2.93066
3.16025
3.28703
3.19073
2.627
1.20445
0.163016
0.489401
0.816835
1.14597
1.47741
1.81167
2.14915
2.49017
2.83474
3.18183
3.52598
3.84391
4.04665
3.82728
2.27551
0.169015
0.507587
0.847804
1.19082
1.53794
1.89076
2.25151
2.62382
3.01416
3.43493
3.90987
4.48065
5.19559
5.95275
5.42934
0.174632
0.524617
0.876802
1.2328
1.59448
1.9643
2.3458
2.74487
3.17236
3.65031
4.2271
5.01715
6.31508
8.96734
15.7603
0.179743
0.540103
0.90313
1.27078
1.64534
2.02968
2.42785
2.84613
3.29543
3.79694
4.39614
5.20084
6.49388
9.10621
15.8151
0.184242
0.553719
0.926222
1.30394
1.68935
2.08541
2.49588
2.92577
3.38216
3.87562
4.42235
5.04527
5.75633
6.39998
5.61176
0.188047
0.565218
0.945666
1.33172
1.72592
2.1311
2.55037
2.98693
3.44305
3.91719
4.39554
4.82837
5.06543
4.68794
2.65495
0.191098
0.574427
0.961193
1.3538
1.75482
2.16693
2.59281
3.03443
3.49133
3.95573
4.40021
4.74729
4.80116
4.12542
1.97371
0.193356
0.581232
0.972636
1.37002
1.77597
2.19316
2.62424
3.07125
3.53431
4.00802
4.47242
4.86968
5.04346
4.58775
2.53945
0.194799
0.585572
0.979901
1.38026
1.78926
2.20969
2.64453
3.09685
3.56981
4.06666
4.59116
5.14711
5.7228
6.15594
5.20971
0.195421
0.587426
0.982953
1.38446
1.79457
2.21618
2.65261
3.10803
3.58859
4.10599
4.68796
5.41068
6.50099
8.68186
14.4584
0.19523
0.586818
0.981828
1.38265
1.79186
2.21232
2.64745
3.10165
3.5817
4.10035
4.68691
5.41883
6.52168
8.7105
14.4755
0.194249
0.583819
0.97664
1.37498
1.78128
2.19824
2.62897
3.07725
3.54789
4.04743
4.58479
5.16925
5.78806
6.25548
5.27632
0.192517
0.578546
0.967592
1.36175
1.76326
2.17454
2.59826
3.03725
3.49391
3.96814
4.44985
4.89569
5.15941
4.80486
2.72528
0.190087
0.571164
0.954968
1.34339
1.7384
2.14215
2.55689
2.98489
3.42766
3.88353
4.33971
4.74847
4.95996
4.55206
2.51513
0.187025
0.561871
0.939115
1.3204
1.70745
2.10207
2.50626
2.92219
3.35221
3.79862
4.26239
4.73811
5.19054
5.43041
4.3836
0.183406
0.550896
0.920431
1.29339
1.67118
2.0553
2.44741
2.84962
3.2653
3.70156
4.17667
4.74376
5.56861
7.20215
11.6134
0.179309
0.538488
0.899345
1.26298
1.63049
2.00294
2.38148
2.7676
3.16401
3.57742
4.027
4.57029
5.38496
7.04475
11.5444
0.174818
0.524899
0.876303
1.22986
1.58632
1.9463
2.31024
2.67837
3.05082
3.42805
3.81217
4.20823
4.61429
4.91507
4.1422
0.170012
0.510377
0.851742
1.19469
1.53967
1.88687
2.23604
2.58608
2.9342
3.2738
3.58895
3.83913
3.91658
3.53086
1.95627
0.164964
0.495146
0.826057
1.15809
1.49144
1.82603
2.16117
2.49505
2.82343
3.13645
3.41073
3.58989
3.54042
2.97215
1.39388
0.159737
0.479395
0.799574
1.12052
1.44232
1.76477
2.08713
2.40779
2.72325
3.02593
3.2985
3.4993
3.52446
3.11475
1.67139
0.154378
0.463268
0.772535
1.08234
1.39273
1.70351
2.01423
2.32408
2.63188
2.93624
3.23604
3.53058
3.81042
3.97508
3.2679
0.148921
0.446866
0.745097
1.04374
1.34282
1.64225
1.94188
2.24173
2.54283
2.84963
3.17716
3.57197
4.17627
5.44076
8.91196
0.143389
0.430252
0.717355
1.0048
1.29264
1.58082
1.86933
2.15846
2.44974
2.74854
3.07148
3.46778
4.08355
5.37386
8.88679
0.137793
0.41346
0.689353
0.965579
1.24218
1.51912
1.7963
2.07364
2.35136
2.6306
2.9148
3.21109
3.5223
3.76332
3.18641
0.132138
0.396498
0.661101
0.926067
1.19146
1.45722
1.72312
1.98852
2.25186
2.50914
2.74966
2.94396
3.00969
2.7207
1.51087
0.126421
0.379358
0.632578
0.886238
1.14044
1.39519
1.65024
1.90478
2.15652
2.39924
2.61654
2.76602
2.74335
2.31747
1.09357
0.120632
0.362012
0.603733
0.846007
1.08902
1.33292
1.57768
1.82295
2.06737
2.30694
2.53047
2.70754
2.75697
2.46835
1.34516
0.114761
0.344419
0.574486
0.805239
1.03697
1.27001
1.50473
1.74165
1.98154
2.22572
2.47659
2.73763
3.00528
3.19874
2.68498
0.108792
0.326533
0.544747
0.763771
0.98399
1.20589
1.43021
1.65824
1.89267
2.13981
2.41561
2.76305
3.30502
4.42018
7.3971
0.102712
0.308308
0.51443
0.721454
0.929815
1.14008
1.35308
1.57033
1.79492
2.03392
2.30481
2.65331
3.20664
4.34859
7.36999
0.0965086
0.28971
0.483472
0.678188
0.874298
1.07233
1.27297
1.47729
1.6871
1.90583
2.14006
2.40126
2.6994
2.97173
2.59688
0.0901743
0.270715
0.451837
0.633937
0.817428
1.00274
1.19028
1.3804
1.57305
1.76692
1.95653
2.12349
2.21002
2.04423
1.17016
0.0837037
0.251309
0.41951
0.588703
0.759274
0.931564
1.10578
1.28171
1.45812
1.6309
1.78867
1.90152
1.89579
1.60854
0.761655
0.0770929
0.231483
0.386483
0.542497
0.699907
0.859036
1.02004
1.18267
1.34566
1.50529
1.65196
1.76183
1.77703
1.56143
0.822865
0.0703383
0.211225
0.352741
0.495306
0.639327
0.785181
0.933155
1.08335
1.23548
1.38863
1.54076
1.68782
1.8185
1.87747
1.51403
0.0634357
0.190523
0.318261
0.447089
0.57746
0.709834
0.844701
0.982639
1.12457
1.27264
1.43307
1.62511
1.90973
2.48678
4.05556
0.0563812
0.169364
0.283013
0.39779
0.514185
0.632739
0.754094
0.879128
1.00935
1.14802
1.30339
1.49807
1.79783
2.40731
4.02631
0.0491718
0.147737
0.246973
0.347355
0.449397
0.553683
0.660912
0.77199
0.888229
1.01177
1.14637
1.29801
1.4708
1.62672
1.4205
0.0418069
0.125638
0.21013
0.295756
0.383038
0.47257
0.565042
0.661246
0.762005
0.867817
0.977468
1.08323
1.15544
1.09758
0.644358
0.0342896
0.103076
0.172492
0.242997
0.315103
0.389401
0.466565
0.547319
0.632247
0.721166
0.811238
0.891717
0.930368
0.842949
0.448402
0.0266275
0.0800712
0.134093
0.189118
0.245637
0.304228
0.365579
0.430475
0.499698
0.573692
0.651643
0.729214
0.79282
0.801574
0.601219
0.0188333
0.0566621
0.0949903
0.134195
0.174723
0.217129
0.262118
0.310608
0.363816
0.423451
0.492297
0.576376
0.693338
0.905384
1.4499
0.0109255
0.0329034
0.0552748
0.0783466
0.102498
0.128227
0.156216
0.187449
0.223451
0.266793
0.322357
0.400673
0.5278
0.77827
1.39915
0.00292876
0.00886903
0.0150693
0.0217435
0.0291729
0.0377502
0.0480513
0.0609678
0.0779696
0.101629
0.136604
0.191054
0.276583
0.393893
0.431481
-0.00512606
-0.0153476
-0.0254681
-0.0353877
-0.0449537
-0.0539281
-0.0619344
-0.0683585
-0.0721474
-0.0714063
-0.0626844
-0.0401635
0.00327501
0.0648598
0.089175
-0.0132025
-0.0396358
-0.066147
-0.0927668
-0.119494
-0.146281
-0.173022
-0.199519
-0.225417
-0.249993
-0.271563
-0.285918
-0.282645
-0.238304
-0.112398
-0.0212597
-0.0638704
-0.106751
-0.150073
-0.193993
-0.238669
-0.284279
-0.331097
-0.379607
-0.43067
-0.485454
-0.543919
-0.597084
-0.598116
-0.382644
-0.0292535
-0.0879173
-0.14705
-0.206963
-0.267968
-0.330406
-0.394698
-0.4615
-0.532026
-0.608759
-0.696783
-0.805604
-0.947721
-1.10827
-1.0347
-0.0371383
-0.111638
-0.186807
-0.263092
-0.340947
-0.420852
-0.503373
-0.589314
-0.680131
-0.779002
-0.893661
-1.04416
-1.28554
-1.78101
-3.07275
-0.0448679
-0.134893
-0.225787
-0.318129
-0.412499
-0.509478
-0.609666
-0.713736
-0.822639
-0.938275
-1.06563
-1.2196
-1.44691
-1.90074
-3.11865
-0.0523958
-0.157543
-0.263759
-0.371755
-0.482233
-0.595869
-0.713255
-0.834793
-0.960462
-1.08939
-1.21912
-1.3441
-1.45094
-1.48985
-1.18488
-0.0596759
-0.17945
-0.300492
-0.423651
-0.549769
-0.679648
-0.813952
-0.952969
-1.09601
-1.23995
-1.37587
-1.48118
-1.50211
-1.31774
-0.684973
-0.0666619
-0.200473
-0.335751
-0.473487
-0.614687
-0.760344
-0.911366
-1.06834
-1.2309
-1.39606
-1.55387
-1.67684
-1.69584
-1.45698
-0.696989
-0.0733085
-0.220475
-0.369298
-0.520912
-0.6765
-0.837303
-1.00463
-1.17981
-1.36398
-1.55724
-1.75605
-1.94465
-2.06861
-1.95811
-1.14926
-0.0795726
-0.239323
-0.4009
-0.565571
-0.734681
-0.909719
-1.09243
-1.28503
-1.49071
-1.71454
-1.96528
-2.25733
-2.60417
-2.94417
-2.63601
-0.0854153
-0.256897
-0.430348
-0.607138
-0.788734
-0.976793
-1.17334
-1.38116
-1.60481
-1.85312
-2.14581
-2.5319
-3.14443
-4.3803
-7.56982
-0.0908044
-0.2731
-0.457472
-0.645357
-0.838287
-1.03796
-1.2464
-1.46626
-1.70176
-1.96084
-2.26143
-2.64918
-3.25177
-4.45964
-7.60016
-0.0957148
-0.287856
-0.482147
-0.680062
-0.883144
-1.09303
-1.31149
-1.54049
-1.7823
-2.0397
-2.31648
-2.61723
-2.93872
-3.19678
-2.73515
-0.100129
-0.301116
-0.504297
-0.711168
-0.923262
-1.14213
-1.36925
-1.60581
-1.85197
-2.10507
-2.35485
-2.57084
-2.66965
-2.43365
-1.34833
-0.104036
-0.312845
-0.523876
-0.738637
-0.958661
-1.18547
-1.42044
-1.66443
-1.91678
-2.1727
-2.41664
-2.60578
-2.63303
-2.26029
-1.08047
-0.107429
-0.323026
-0.540855
-0.762437
-0.989333
-1.22313
-1.46534
-1.71722
-1.97907
-2.24863
-2.51643
-2.75309
-2.87416
-2.64735
-1.49393
-0.110305
-0.331651
-0.555218
-0.782534
-1.0152
-1.25491
-1.50351
-1.76304
-2.03598
-2.32575
-2.63781
-2.98061
-3.35682
-3.67785
-3.18129
-0.112669
-0.338728
-0.566967
-0.798903
-1.03616
-1.28051
-1.53406
-1.79952
-2.08116
-2.38733
-2.73781
-3.18487
-3.87774
-5.27604
-8.94223
-0.114531
-0.344285
-0.576139
-0.811566
-1.05216
-1.29971
-1.55631
-1.82474
-2.10925
-2.41811
-2.77069
-3.21836
-3.90872
-5.29922
-8.95118
-0.11591
-0.348378
-0.582818
-0.820625
-1.06332
-1.31259
-1.57034
-1.83875
-2.12039
-2.41847
-2.73749
-3.08327
-3.45341
-3.75186
-3.2107
-0.116835
-0.351095
-0.587147
-0.826277
-1.06989
-1.31956
-1.57693
-1.84355
-2.12006
-2.40426
-2.68565
-2.93122
-3.04783
-2.78747
-1.55368
-0.11735
-0.35256
-0.589328
-0.828796
-1.07225
-1.32115
-1.57709
-1.84144
-2.11436
-2.39194
-2.65863
-2.86865
-2.90397
-2.49904
-1.19771
-0.117509
-0.352935
-0.589623
-0.828531
-1.0708
-1.31784
-1.57137
-1.83334
-2.10539
-2.38714
-2.67093
-2.92735
-3.0658
-2.83306
-1.60152
-0.117381
-0.352427
-0.588365
-0.825916
-1.06602
-1.31
-1.55976
-1.81819
-2.08965
-2.38088
-2.70219
-3.06791
-3.48534
-3.86065
-3.37438
-0.117052
-0.351292
-0.585975
-0.821511
-1.05854
-1.29811
-1.54211
-1.79395
-2.06014
-2.35368
-2.70258
-3.17249
-3.93407
-5.48648
-9.49612
-0.116625
-0.349843
-0.582979
-0.816055
-1.04926
-1.28313
-1.51899
-1.75972
-2.01157
-2.28798
-2.61888
-3.07447
-3.83354
-5.40579
-9.46371
-0.116219
-0.348442
-0.580013
-0.810495
-1.03949
-1.26675
-1.49245
-1.71774
-1.9459
-2.1844
-2.44853
-2.76564
-3.16824
-3.59884
-3.26567
-0.11596
-0.347485
-0.577789
-0.80595
-1.0309
-1.25142
-1.46615
-1.67374
-1.87301
-2.06296
-2.24135
-2.39739
-2.48344
-2.32222
-1.37184
-0.115974
-0.347368
-0.577039
-0.803614
-1.02537
-1.24009
-1.44479
-1.63548
-1.80656
-1.94951
-2.04964
-2.07771
-1.97029
-1.59358
-0.723334
-0.116368
-0.34844
-0.578424
-0.804602
-1.02472
-1.23568
-1.43312
-1.61081
-1.7596
-1.86575
-1.90793
-1.85206
-1.64412
-1.20763
-0.475109
-0.11722
-0.350951
-0.582439
-0.809779
-1.03039
-1.24062
-1.43514
-1.60617
-1.74221
-1.82639
-1.83429
-1.73196
-1.47663
-1.02724
-0.378052
-0.11856
-0.35501
-0.589317
-0.819608
-1.04326
-1.25644
-1.45345
-1.62578
-1.76079
-1.83995
-1.83716
-1.71807
-1.44387
-0.98558
-0.355229
-0.120364
-0.360546
-0.598969
-0.834025
-1.06337
-1.28346
-1.48887
-1.67129
-1.81809
-1.91038
-1.92075
-1.81185
-1.53891
-1.06338
-0.388028
-0.122542
-0.367293
-0.610943
-0.852386
-1.08988
-1.32064
-1.54021
-1.74149
-1.91321
-2.03765
-2.08712
-2.0195
-1.77461
-1.27991
-0.490751
-0.124946
-0.374794
-0.624433
-0.873464
-1.12104
-1.36557
-1.60423
-1.83217
-2.04113
-2.21693
-2.33473
-2.35019
-2.18372
-1.70088
-0.727038
-0.127378
-0.382428
-0.638326
-0.895526
-1.15429
-1.41455
-1.67567
-1.936
-2.19203
-2.43641
-2.65336
-2.80714
-2.81248
-2.46279
-1.29683
-0.129603
-0.389461
-0.651296
-0.916477
-1.18647
-1.4629
-1.74761
-2.04278
-2.35097
-2.67486
-3.01577
-3.36708
-3.6877
-3.79147
-2.85809
-0.131369
-0.395111
-0.661921
-0.93406
-1.21416
-1.50546
-1.81225
-2.14048
-2.49895
-2.90141
-3.37082
-3.94824
-4.71351
-5.84017
-7.74063
47.5978
35.4695
28.1483
23.1215
19.3358
16.3028
13.7672
11.5798
9.64578
7.90041
6.29652
4.79803
3.37587
2.00551
0.665219
17.3891
22.653
21.5691
19.2334
16.8129
14.5644
12.522
10.6662
8.96686
7.3946
5.92342
4.53059
3.19609
1.9019
0.631365
7.6765
14.2447
15.8589
15.404
14.1707
12.6826
11.1472
9.64401
8.19962
6.81856
5.49588
4.22263
2.9883
1.78184
0.59209
4.06441
9.27637
11.5857
12.1152
11.7051
10.8336
9.75009
8.58088
7.38835
6.20195
5.03398
3.88762
2.76113
1.65016
0.548946
2.47788
6.32377
8.54828
9.47874
9.56006
9.13166
8.4124
7.5339
6.57278
5.57252
4.55706
3.53877
2.52316
1.51169
0.503493
1.6621
4.49709
6.40949
7.43193
7.76887
7.63168
7.18523
6.54427
5.78434
4.9536
4.08208
3.18805
2.28231
1.37094
0.457193
1.18604
3.31107
4.8887
5.8611
6.3069
6.34642
6.09309
5.63723
5.04506
4.36298
3.6227
2.84545
2.04536
1.23184
0.411331
0.881521
2.50518
3.78817
4.65592
5.12702
5.26448
5.14157
4.82482
4.36817
3.81277
3.18896
2.51868
1.81772
1.09757
0.366965
0.673799
1.93583
2.97599
3.72617
4.17881
4.36332
4.32464
4.10954
3.75983
3.31004
2.78748
2.21321
1.60338
0.970572
0.324902
0.525493
1.52055
2.36515
3.00302
3.41678
3.61712
3.63019
3.48771
3.22096
2.85784
2.4219
1.9324
1.405
0.852493
0.285708
0.416022
1.20974
1.89785
2.43549
2.80292
3.00096
3.04375
2.95215
2.74899
2.45619
2.09348
1.67791
1.22404
0.744326
0.249728
0.333166
0.972255
1.53505
1.98615
2.30668
2.49259
2.55062
2.49406
2.33924
2.10308
1.80176
1.45002
1.06101
0.64649
0.217121
0.269228
0.787751
1.2498
1.62747
1.90393
2.07301
2.13705
2.1042
1.98596
1.79522
1.54505
1.24798
0.915687
0.558965
0.187898
0.21913
0.642462
1.02313
1.33906
1.57573
1.72636
1.79074
1.77364
1.68301
1.5286
1.3209
1.07041
0.787323
0.481396
0.161956
0.179399
0.5268
0.841415
1.10568
1.30729
1.43959
1.50102
1.49411
1.42433
1.299
1.12645
0.915455
0.674818
0.41321
0.139118
0.147581
0.433903
0.694665
0.915795
1.08697
1.20203
1.25875
1.25825
1.20422
1.10216
0.958698
0.781083
0.576871
0.35369
0.119156
0.1219
0.358753
0.575434
0.760598
0.905619
1.00497
1.0562