/*--------------------------------*- C++ -*----------------------------------*\
| =========                 |                                                 |
| \\      /  F ield         | OpenFOAM: The Open Source CFD Toolbox           |
|  \\    /   O peration     | Version:  5.x                                   |
|   \\  /    A nd           | Web:      www.OpenFOAM.org                      |
|    \\/     M anipulation  |                                                 |
\*---------------------------------------------------------------------------*/
FoamFile
{
    version     2.0;
    format      ascii;
    class       volScalarField;
    location    "18";
    object      T;
}
// * * * * * * * * * * * * * * * * * * * * * * * * * * * * * * * * * * * * * //

dimensions      [0 0 0 1 0 0 0];

internalField   nonuniform List<scalar> 
6300
(
10.0287
10.0859
10.1429
10.1995
10.2554
10.3106
10.3648
10.4179
10.4697
10.52
10.5688
10.6158
10.661
10.7043
10.7454
10.0288
10.0862
10.1433
10.2001
10.2562
10.3115
10.3659
10.4191
10.4711
10.5216
10.5705
10.6177
10.663
10.7063
10.7475
10.0289
10.0867
10.1442
10.2013
10.2577
10.3134
10.3681
10.4217
10.474
10.5248
10.574
10.6214
10.6668
10.7103
10.7516
10.0292
10.0875
10.1455
10.2031
10.26
10.3162
10.3714
10.4255
10.4783
10.5295
10.5791
10.6269
10.6727
10.7164
10.758
10.0295
10.0885
10.1472
10.2055
10.2631
10.32
10.3759
10.4306
10.484
10.5359
10.5861
10.6344
10.6807
10.7248
10.7665
10.03
10.0898
10.1493
10.2085
10.267
10.3247
10.3815
10.4371
10.4913
10.544
10.595
10.644
10.6908
10.7354
10.7774
10.0305
10.0913
10.1519
10.2121
10.2716
10.3304
10.3882
10.4449
10.5001
10.5538
10.6058
10.6557
10.7033
10.7485
10.7909
10.0311
10.0931
10.1549
10.2163
10.2771
10.3371
10.3961
10.454
10.5105
10.5654
10.6185
10.6695
10.7182
10.7642
10.8072
10.0318
10.0952
10.1584
10.2211
10.2833
10.3447
10.4051
10.4644
10.5224
10.5788
10.6334
10.6858
10.7357
10.7828
10.8266
10.0325
10.0975
10.1622
10.2265
10.2902
10.3532
10.4153
10.4762
10.5359
10.594
10.6503
10.7045
10.7561
10.8046
10.8496
10.0334
10.1
10.1664
10.2324
10.2979
10.3626
10.4265
10.4893
10.5509
10.611
10.6694
10.7257
10.7795
10.8301
10.8766
10.0343
10.1028
10.1711
10.2389
10.3063
10.373
10.4388
10.5036
10.5673
10.6297
10.6905
10.7495
10.8061
10.8596
10.9085
10.0353
10.1058
10.1761
10.246
10.3154
10.3841
10.452
10.519
10.585
10.6499
10.7134
10.7756
10.8359
10.8934
10.9465
10.0364
10.109
10.1815
10.2535
10.3251
10.396
10.4661
10.5355
10.6038
10.6713
10.7378
10.8035
10.8683
10.9318
10.9921
10.0375
10.1125
10.1872
10.2616
10.3354
10.4086
10.4811
10.5528
10.6236
10.6936
10.763
10.8322
10.902
10.9734
11.0468
10.7813
10.8124
10.842
10.8702
10.897
10.9224
10.9466
10.9694
10.9911
11.0117
11.0314
11.0501
11.068
11.0852
11.1018
11.1179
11.1336
11.1489
11.164
11.179
11.1939
11.2088
11.2238
11.239
11.2543
11.27
11.2859
11.3022
11.3189
11.336
11.3534
11.3712
11.3893
11.4078
11.4265
11.4456
11.4648
11.4841
11.5035
11.5229
11.5422
11.5613
11.5801
11.5985
11.6164
11.6337
11.6503
11.6659
11.6806
11.6942
11.7065
11.7175
11.7269
11.7347
11.7406
11.7445
11.7462
11.7455
11.7422
11.736
11.7266
11.7139
11.6975
11.6772
11.6526
11.6233
11.589
11.5493
11.5037
11.4517
11.3928
11.3265
11.2521
11.169
11.0765
10.974
10.8607
10.7359
10.5988
10.4487
10.2847
10.1062
9.91237
9.70261
9.47633
9.23304
8.97236
8.69406
8.39805
8.08443
10.7834
10.8145
10.8441
10.8722
10.899
10.9243
10.9483
10.9711
10.9926
11.0131
11.0326
11.0512
11.069
11.086
11.1025
11.1184
11.134
11.1492
11.1642
11.179
11.1938
11.2086
11.2235
11.2386
11.2539
11.2695
11.2854
11.3017
11.3183
11.3354
11.3528
11.3706
11.3888
11.4073
11.4261
11.4452
11.4645
11.4839
11.5034
11.523
11.5424
11.5616
11.5806
11.5992
11.6173
11.6347
11.6514
11.6673
11.6822
11.6959
11.7084
11.7196
11.7293
11.7373
11.7435
11.7476
11.7496
11.7492
11.7462
11.7404
11.7314
11.7191
11.7032
11.6833
11.6592
11.6305
11.5968
11.5577
11.5128
11.4616
11.4035
11.338
11.2645
11.1824
11.0909
10.9895
10.8772
10.7535
10.6175
10.4685
10.3056
10.1281
9.93524
9.72633
9.50076
9.258
8.99766
8.71948
8.42336
8.10938
10.7875
10.8186
10.8482
10.8763
10.9029
10.928
10.9518
10.9744
10.9957
11.0159
11.0351
11.0534
11.0709
11.0877
11.1039
11.1196
11.1348
11.1498
11.1645
11.1791
11.1937
11.2083
11.223
11.2379
11.253
11.2685
11.2843
11.3005
11.3171
11.3341
11.3516
11.3695
11.3877
11.4063
11.4253
11.4445
11.464
11.4836
11.5033
11.5231
11.5428
11.5623
11.5816
11.6005
11.6189
11.6367
11.6538
11.67
11.6852
11.6993
11.7122
11.7238
11.7339
11.7424
11.7491
11.7538
11.7564
11.7566
11.7543
11.7491
11.7409
11.7294
11.7144
11.6954
11.6723
11.6447
11.6122
11.5744
11.5309
11.4812
11.4247
11.361
11.2893
11.2091
11.1196
11.0203
10.9102
10.7887
10.655
10.5082
10.3475
10.1721
9.98115
9.77397
9.54985
9.30821
9.04858
8.77065
8.47431
8.15961
10.7939
10.825
10.8545
10.8824
10.9088
10.9337
10.9572
10.9793
11.0003
11.0201
11.0389
11.0568
11.0738
11.0902
11.106
11.1212
11.1361
11.1506
11.165
11.1792
11.1934
11.2077
11.2221
11.2367
11.2516
11.2669
11.2826
11.2987
11.3152
11.3322
11.3497
11.3677
11.3861
11.4049
11.424
11.4434
11.4631
11.4831
11.5031
11.5232
11.5434
11.5633
11.5831
11.6025
11.6214
11.6397
11.6573
11.674
11.6898
11.7044
11.7179
11.7301
11.7408
11.75
11.7575
11.763
11.7665
11.7677
11.7663
11.7622
11.7552
11.7448
11.731
11.7135
11.6918
11.6659
11.6351
11.5993
11.5579
11.5104
11.4564
11.3952
11.3263
11.249
11.1626
11.0664
10.9596
10.8415
10.7112
10.5678
10.4104
10.2383
10.0504
9.84593
9.62411
9.38424
9.12576
8.84828
8.55162
8.23583
10.8025
10.8336
10.863
10.8907
10.9168
10.9413
10.9644
10.9861
11.0065
11.0257
11.044
11.0613
11.0777
11.0935
11.1087
11.1234
11.1377
11.1517
11.1655
11.1793
11.193
11.2068
11.2208
11.2351
11.2497
11.2647
11.2802
11.2961
11.3126
11.3296
11.3472
11.3653
11.3838
11.4028
11.4222
11.4419
11.462
11.4822
11.5027
11.5234
11.544
11.5646
11.585
11.6051
11.6247
11.6437
11.662
11.6794
11.6958
11.7112
11.7253
11.7383
11.7499
11.76
11.7685
11.7752
11.7798
11.7823
11.7822
11.7795
11.7739
11.7652
11.753
11.7373
11.7176
11.6937
11.6654
11.6321
11.5934
11.549
11.4982
11.4406
11.3753
11.3019
11.2196
11.1277
11.0253
10.9117
10.786
10.6473
10.4947
10.327
10.1434
9.94281
9.72429
9.487
9.23023
8.95346
8.65643
8.33914
10.8136
10.8447
10.8739
10.9013
10.927
10.951
10.9735
10.9945
11.0143
11.0328
11.0503
11.0669
11.0826
11.0977
11.1121
11.1261
11.1397
11.153
11.1662
11.1793
11.1924
11.2057
11.2192
11.233
11.2472
11.2618
11.277
11.2928
11.3092
11.3262
11.3438
11.3621
11.3808
11.4001
11.4198
11.4399
11.4603
11.4811
11.5021
11.5233
11.5447
11.5661
11.5874
11.6083
11.6289
11.6488
11.6679
11.6861
11.7033
11.7195
11.7345
11.7484
11.761
11.7723
11.782
11.7901
11.7963
11.8003
11.8019
11.801
11.7972
11.7903
11.7802
11.7666
11.7493
11.7281
11.7026
11.6725
11.6373
11.5967
11.55
11.4967
11.4361
11.3675
11.2904
11.2038
11.1071
10.9993
10.8796
10.747
10.6004
10.4387
10.2608
10.0654
9.85143
9.61775
9.36342
9.08776
8.79034
8.47112
10.8273
10.8583
10.8873
10.9144
10.9395
10.9629
10.9847
11.0049
11.0238
11.0414
11.058
11.0736
11.0885
11.1026
11.1162
11.1293
11.142
11.1545
11.1669
11.1792
11.1916
11.2042
11.217
11.2302
11.2439
11.2581
11.2729
11.2885
11.3047
11.3218
11.3396
11.358
11.3771
11.3968
11.4168
11.4373
11.4582
11.4795
11.5011
11.5231
11.5453
11.5677
11.59
11.6122
11.6338
11.6548
11.675
11.6941
11.7123
11.7293
11.7453
11.7602
11.774
11.7867
11.7979
11.8077
11.8157
11.8217
11.8253
11.8264
11.8247
11.8201
11.8123
11.8012
11.7867
11.7685
11.7464
11.72
11.689
11.6529
11.6112
11.5631
11.5082
11.4455
11.3746
11.2945
11.2046
11.104
10.9917
10.8666
10.7277
10.5737
10.4032
10.2148
10.0069
9.77813
9.52728
9.2533
8.95557
8.63394
10.8438
10.8748
10.9035
10.9301
10.9546
10.9771
10.9979
11.0172
11.035
11.0515
11.067
11.0815
11.0953
11.1083
11.1208
11.1329
11.1447
11.1562
11.1676
11.1791
11.1906
11.2023
11.2143
11.2268
11.2398
11.2534
11.2678
11.283
11.2992
11.3163
11.3343
11.3531
11.3726
11.3927
11.4132
11.4342
11.4555
11.4773
11.4996
11.5224
11.5456
11.5692
11.593
11.6166
11.6397
11.6621
11.6834
11.7036
11.7227
11.7407
11.7576
11.7736
11.7887
11.8029
11.816
11.8278
11.838
11.8463
11.8523
11.8558
11.8565
11.8542
11.849
11.8407
11.8292
11.8144
11.7962
11.7741
11.748
11.7173
11.6814
11.6395
11.5912
11.5355
11.4718
11.3994
11.3175
11.2254
11.1219
11.0062
10.8768
10.7324
10.5714
10.392
10.1923
9.97029
9.72436
9.45298
9.15516
8.83058
10.8635
10.8945
10.9229
10.9488
10.9724
10.9939
11.0135
11.0314
11.0479
11.0631
11.0773
11.0905
11.103
11.1148
11.1261
11.137
11.1476
11.158
11.1683
11.1787
11.1891
11.1999
11.2109
11.2225
11.2347
11.2476
11.2614
11.2763
11.2923
11.3094
11.3277
11.347
11.3672
11.3879
11.409
11.4304
11.4521
11.4744
11.4972
11.5209
11.5453
11.5705
11.5961
11.6217
11.6467
11.6707
11.6934
11.7146
11.7346
11.7534
11.7712
11.7882
11.8047
11.8205
11.8358
11.8501
11.8631
11.8742
11.8829
11.889
11.8923
11.8927
11.8901
11.8847
11.8764
11.8653
11.8513
11.8341
11.8136
11.789
11.7599
11.7253
11.6846
11.6368
11.5815
11.5179
11.4452
11.3629
11.2699
11.1652
11.0474
10.915
10.7661
10.5984
10.4095
10.1969
9.95801
9.69065
9.39323
9.06505
10.8869
10.9179
10.9458
10.9708
10.9932
11.0133
11.0314
11.0477
11.0626
11.0762
11.0888
11.1006
11.1116
11.122
11.1319
11.1414
11.1507
11.1599
11.1689
11.1781
11.1873
11.1969
11.2068
11.2172
11.2284
11.2404
11.2535
11.2678
11.2836
11.3009
11.3197
11.3398
11.3609
11.3824
11.4042
11.426
11.448
11.4705
11.4937
11.5182
11.544
11.5711
11.5992
11.6275
11.655
11.6811
11.7053
11.7275
11.7481
11.7674
11.7858
11.8036
11.8213
11.8391
11.8568
11.8743
11.8907
11.9053
11.9173
11.9263
11.9323
11.9352
11.9352
11.9326
11.9276
11.9203
11.9107
11.899
11.8847
11.8674
11.8462
11.82
11.7879
11.7491
11.703
11.6491
11.5869
11.5156
11.4346
11.3429
11.239
11.1213
10.9876
10.8353
10.661
10.4612
10.2326
9.97155
9.67549
9.343
10.9147
10.9456
10.9728
10.9965
11.0173
11.0356
11.0517
11.0661
11.0791
11.0908
11.1016
11.1116
11.121
11.1298
11.1381
11.1462
11.1541
11.1618
11.1694
11.1772
11.1851
11.1933
11.2018
11.211
11.2208
11.2317
11.2437
11.2573
11.2726
11.2901
11.3096
11.3311
11.3538
11.3767
11.3992
11.4213
11.4431
11.4653
11.4885
11.5135
11.5406
11.5703
11.6019
11.6343
11.6654
11.6941
11.7198
11.7428
11.7635
11.7827
11.801
11.8192
11.8379
11.8575
11.8783
11.8998
11.9209
11.94
11.9558
11.968
11.9765
11.9817
11.9841
11.984
11.982
11.9783
11.9734
11.9673
11.9602
11.9513
11.9395
11.923
11.9007
11.8718
11.8357
11.7923
11.7413
11.6824
11.6148
11.5379
11.4503
11.3505
11.2361
11.1036
10.9489
10.7672
10.5536
10.3028
10.0101
9.67255
10.9479
10.9787
11.0047
11.0265
11.045
11.0608
11.0745
11.0865
11.0972
11.1068
11.1155
11.1236
11.1311
11.1381
11.1448
11.1513
11.1575
11.1637
11.1698
11.176
11.1824
11.189
11.196
11.2036
11.2119
11.2212
11.2318
11.2441
11.2587
11.2761
11.2968
11.3206
11.3464
11.3715
11.395
11.4168
11.4376
11.4586
11.4808
11.5055
11.5337
11.5665
11.6036
11.6427
11.6794
11.7113
11.7383
11.7612
11.7811
11.7992
11.8164
11.834
11.8529
11.8742
11.8985
11.9258
11.954
11.9793
11.9996
12.0148
12.0254
12.0324
12.0364
12.0382
12.0386
12.0381
12.0375
12.0373
12.038
12.0393
12.0393
12.0345
12.0231
12.0045
11.9789
11.9464
11.9073
11.8614
11.8084
11.748
11.6793
11.6008
11.5103
11.4039
11.2755
11.1192
10.928
10.6943
10.4094
10.0662
10.9881
11.0186
11.0425
11.0613
11.0765
11.0891
11.0997
11.1088
11.1168
11.1239
11.1304
11.1363
11.1418
11.147
11.1518
11.1565
11.1611
11.1656
11.1701
11.1746
11.1793
11.1842
11.1894
11.1951
11.2014
11.2087
11.2172
11.2276
11.2406
11.2574
11.2793
11.3073
11.3397
11.3688
11.393
11.4135
11.432
11.4501
11.4695
11.4922
11.5203
11.5564
11.6022
11.6547
11.7001
11.7356
11.7626
11.7838
11.8013
11.8166
11.8314
11.8468
11.8645
11.8864
11.9145
11.9503
11.9912
12.0256
12.0508
12.0681
12.0796
12.0871
12.0917
12.0945
12.0963
12.098
12.1008
12.1059
12.115
12.1291
12.1458
12.1555
12.1557
12.1473
12.1318
12.11
12.0828
12.0503
12.0128
11.9701
11.9221
11.8683
11.8075
11.7355
11.6424
11.521
11.3638
11.1594
10.8925
10.5454
11.0389
11.0679
11.0875
11.1014
11.1118
11.1201
11.1269
11.1326
11.1376
11.142
11.146
11.1496
11.153
11.1561
11.1591
11.1619
11.1647
11.1675
11.1702
11.173
11.1758
11.1788
11.182
11.1856
11.1896
11.1943
11.2
11.2073
11.2171
11.2313
11.2531
11.2876
11.3378
11.373
11.3964
11.4131
11.4267
11.4396
11.4536
11.471
11.4953
11.5323
11.591
11.6767
11.7352
11.7718
11.7954
11.8118
11.8243
11.835
11.8452
11.8563
11.8701
11.8895
11.9194
11.9674
12.0379
12.085
12.1131
12.1297
12.1397
12.1458
12.1495
12.152
12.154
12.1564
12.1606
12.1687
12.1847
12.2149
12.2625
12.29
12.3006
12.3005
12.2934
12.2815
12.2657
12.2466
12.2245
12.1997
12.1731
12.146
12.1207
12.0975
12.0498
11.9746
11.8671
11.7145
11.4911
11.1528
11.1093
11.1306
11.1406
11.1464
11.1503
11.1532
11.1556
11.1575
11.1592
11.1607
11.1621
11.1633
11.1644
11.1655
11.1665
11.1674
11.1684
11.1693
11.1702
11.1711
11.1721
11.1731
11.1742
11.1754
11.1768
11.1784
11.1804
11.1832
11.1872
11.1941
11.2086
11.2454
11.3573
11.3943
11.4093
11.4171
11.4225
11.4273
11.4327
11.4399
11.4519
11.4769
11.5411
11.7376
11.8018
11.8266
11.8384
11.8452
11.85
11.8539
11.8576
11.8618
11.8676
11.8774
11.898
11.952
12.1182
12.1718
12.1919
12.2007
12.2052
12.2077
12.2092
12.2102
12.2111
12.2123
12.2146
12.22
12.2341
12.2753
12.4083
12.4485
12.4608
12.4635
12.462
12.4584
12.4533
12.447
12.4398
12.432
12.4247
12.4208
12.4311
12.4945
12.4966
12.4747
12.4354
12.3713
12.2551
11.9999
7.72035
7.29881
6.85394
6.38706
5.8997
5.39355
4.87042
4.33218
3.78071
3.21789
2.64556
2.06554
1.47958
0.889424
0.296753
7.74464
7.32207
6.8759
6.40749
5.91844
5.41049
4.8855
4.34537
3.79203
3.22737
2.65324
2.07146
1.48378
0.891928
0.297585
7.79355
7.36887
6.92004
6.44852
5.95602
5.44442
4.91566
4.37175
3.81464
3.24628
2.66855
2.08325
1.49214
0.896915
0.299243
7.86771
7.43978
6.98682
6.51048
6.01267
5.49546
4.96095
4.41127
3.84847
3.27455
2.6914
2.10083
1.50459
0.904345
0.301712
7.96816
7.53566
7.07691
6.59384
6.08868
5.56374
5.02138
4.46388
3.8934
3.31202
2.72164
2.12408
1.52104
0.914151
0.30497
8.09636
7.65774
7.19125
6.69926
6.18441
5.64941
5.09691
4.52941
3.94922
3.35845
2.75905
2.15279
1.54134
0.92624
0.308985
8.25427
7.80765
7.33104
6.82748
6.30024
5.75254
5.18741
4.60761
4.01557
3.41349
2.80328
2.18668
1.56526
0.940478
0.313712
8.44457
7.98747
7.49772
6.97934
6.43648
5.87305
5.29255
4.69799
4.09195
3.47662
2.85388
2.22537
1.59253
0.956695
0.319093
8.6708
8.19988
7.69297
7.15561
6.59323
6.01059
5.4117
4.79982
4.17759
3.54714
2.91024
2.26836
1.62279
0.974669
0.325054
8.93777
8.44822
7.9186
7.35687
6.77018
6.16432
5.54379
4.91196
4.27141
3.62409
2.97154
2.31503
1.65558
0.994131
0.331506
9.25215
8.73657
8.17626
7.58302
6.96623
6.33269
5.68713
5.0328
4.37196
3.70623
3.0368
2.3646
1.69037
1.01476
0.338342
9.62343
9.06959
8.4668
7.83267
7.17898
6.51303
5.83919
5.1601
4.47737
3.79204
3.10481
2.41618
1.72653
1.03619
0.345439
10.0654
9.45147
8.7886
8.10181
7.40395
6.70121
5.99646
5.29099
4.58535
3.87973
3.1742
2.46875
1.76336
1.05801
0.352667
10.5976
9.8822
9.13427
8.38195
7.63373
6.89134
6.1544
5.42202
4.69326
3.9673
3.24349
2.52125
1.80015
1.0798
0.359887
11.2395
10.3454
9.48424
8.65793
7.85762
7.07595
6.30774
5.54937
4.79832
4.05271
3.31117
2.5726
1.83617
1.10116
0.366963
10.0386
10.1158
10.1928
10.2694
10.3455
10.4209
10.4956
10.5694
10.6424
10.7146
10.7862
10.858
10.9314
11.0097
11.1016
10.0397
10.119
10.1981
10.2769
10.3551
10.4326
10.5093
10.5851
10.66
10.734
10.8072
10.8804
10.9548
11.0331
11.12
10.0408
10.1224
10.2037
10.2847
10.3651
10.4448
10.5237
10.6015
10.6782
10.7538
10.8282
10.9019
10.9754
11.0505
11.1289
10.042
10.1259
10.2096
10.2929
10.3756
10.4576
10.5387
10.6186
10.6973
10.7744
10.8498
10.9234
10.9951
11.0654
11.1351
10.0432
10.1296
10.2157
10.3015
10.3866
10.471
10.5544
10.6367
10.7174
10.7962
10.8727
10.9461
11.0157
11.0807
11.1411
10.0445
10.1334
10.2221
10.3104
10.3981
10.4851
10.571
10.6557
10.7388
10.8196
10.8976
10.9714
11.0394
11.0991
11.1488
10.0458
10.1374
10.2288
10.3198
10.4102
10.4999
10.5885
10.6759
10.7616
10.8451
10.9253
11.0009
11.0688
11.1245
11.1612
10.0472
10.1416
10.2357
10.3295
10.4228
10.5153
10.6069
10.6972
10.786
10.8727
10.9563
11.0355
11.1068
11.1629
11.1867
10.0487
10.1459
10.2429
10.3396
10.4358
10.5314
10.626
10.7196
10.8118
10.9023
10.9905
11.0755
11.1554
11.2237
11.2517
10.0501
10.1503
10.2504
10.3501
10.4493
10.548
10.646
10.743
10.8389
10.9335
11.0268
11.1191
11.2121
11.3124
11.4494
10.0516
10.1549
10.258
10.3608
10.4633
10.5652
10.6665
10.7671
10.8668
10.9656
11.0638
11.1622
11.2637
11.3754
11.5153
10.0532
10.1596
10.2658
10.3718
10.4775
10.5828
10.6876
10.7917
10.8952
10.9981
11.1005
11.2032
11.308
11.419
11.5429
10.0548
10.1643
10.2737
10.383
10.492
10.6007
10.709
10.8168
10.9241
11.0309
11.137
11.2427
11.3481
11.4536
11.5595
10.0564
10.1691
10.2818
10.3944
10.5067
10.6189
10.7308
10.8423
10.9534
11.064
11.1738
11.2823
11.3881
11.4878
11.5758
10.058
10.174
10.29
10.4058
10.5216
10.6373
10.7527
10.868
10.9831
11.0977
11.2116
11.3239
11.4322
11.53
11.6019
10.0596
10.1789
10.2981
10.4174
10.5366
10.6557
10.7748
10.8939
11.0129
11.1318
11.2504
11.3681
11.4834
11.5904
11.6626
10.0613
10.1838
10.3063
10.4289
10.5515
10.6742
10.797
10.9198
11.0429
11.1661
11.2897
11.414
11.5405
11.6747
11.8428
10.0629
10.1887
10.3145
10.4404
10.5664
10.6926
10.819
10.9456
11.0726
11.2001
11.3285
11.4584
11.5921
11.7355
11.9039
10.0645
10.1935
10.3226
10.4518
10.5812
10.7108
10.8408
10.9711
11.102
11.2336
11.3661
11.5002
11.637
11.779
11.9308
10.0661
10.1983
10.3306
10.4631
10.5958
10.7288
10.8623
10.9962
11.1309
11.2663
11.4026
11.54
11.6781
11.8156
11.9493
10.0677
10.203
10.3385
10.4742
10.6102
10.7465
10.8834
11.0209
11.1591
11.2983
11.4384
11.5793
11.7196
11.8549
11.9727
10.0692
10.2077
10.3463
10.4851
10.6243
10.7639
10.904
11.0449
11.1867
11.3296
11.4737
11.619
11.7646
11.9061
12.0224
10.0707
10.2122
10.3539
10.4958
10.638
10.7808
10.9242
11.0684
11.2135
11.36
11.508
11.6584
11.8124
11.9749
12.1663
10.0722
10.2167
10.3613
10.5062
10.6514
10.7973
10.9437
11.0911
11.2395
11.3892
11.5408
11.6952
11.8544
12.0235
12.2148
10.0736
10.221
10.3685
10.5163
10.6645
10.8132
10.9627
11.113
11.2644
11.4171
11.5716
11.7285
11.8894
12.0568
12.2353
10.075
10.2252
10.3755
10.5261
10.6771
10.8287
10.981
11.1342
11.2884
11.4438
11.6006
11.7592
11.9197
12.0824
12.2474
10.0764
10.2292
10.3822
10.5356
10.6893
10.8437
10.9987
11.1546
11.3114
11.4694
11.6284
11.7884
11.9484
12.1064
12.2585
10.0777
10.2332
10.3888
10.5448
10.7011
10.8581
11.0158
11.1743
11.3337
11.4942
11.6556
11.8175
11.9784
12.1343
12.2752
10.079
10.2369
10.3951
10.5536
10.7125
10.8721
11.0323
11.1933
11.3553
11.5183
11.6824
11.8472
12.0119
12.1726
12.313
10.0802
10.2406
10.4012
10.5621
10.7235
10.8855
11.0482
11.2117
11.3761
11.5417
11.7085
11.877
12.048
12.225
12.4238
10.0814
10.2441
10.4071
10.5704
10.7341
10.8984
11.0634
11.2293
11.3961
11.5641
11.7336
11.905
12.0799
12.2622
12.4611
10.0825
10.2475
10.4127
10.5782
10.7442
10.9108
11.0781
11.2462
11.4153
11.5855
11.7571
11.9305
12.1067
12.2877
12.4769
10.0836
10.2507
10.4181
10.5858
10.7539
10.9227
11.0921
11.2624
11.4337
11.606
11.7794
11.9541
12.1301
12.3075
12.4863
10.0846
10.2538
10.4232
10.593
10.7632
10.9341
11.1056
11.278
11.4513
11.6255
11.8007
11.9766
12.1524
12.3263
12.4951
10.0856
10.2568
10.4282
10.5999
10.7721
10.9449
11.1184
11.2928
11.4681
11.6444
11.8216
11.9992
12.176
12.3487
12.5087
10.0865
10.2596
10.4328
10.6064
10.7805
10.9552
11.1307
11.307
11.4843
11.6626
11.842
12.0223
12.2025
12.3796
12.5399
10.0874
10.2622
10.4372
10.6126
10.7885
10.965
11.1423
11.3205
11.4997
11.6801
11.8618
12.0452
12.2311
12.4223
12.632
10.0882
10.2647
10.4414
10.6185
10.796
10.9742
11.1532
11.3332
11.5142
11.6965
11.8804
12.0665
12.256
12.4521
12.6627
10.089
10.267
10.4453
10.6239
10.8031
10.9829
11.1635
11.3451
11.5278
11.7118
11.8975
12.0853
12.2761
12.4719
12.6753
10.0897
10.2692
10.4489
10.629
10.8096
10.9909
11.1731
11.3562
11.5404
11.726
11.913
12.1019
12.2928
12.4862
12.6822
10.0904
10.2712
10.4523
10.6337
10.8157
10.9984
11.1819
11.3664
11.5521
11.739
11.9273
12.117
12.3077
12.4987
12.688
10.091
10.2731
10.4554
10.6381
10.8213
11.0053
11.1901
11.3759
11.5628
11.7511
11.9406
12.1312
12.3224
12.5122
12.6959
10.0916
10.2747
10.4582
10.642
10.8264
11.0115
11.1975
11.3845
11.5727
11.7622
11.953
12.1451
12.338
12.53
12.7132
10.0921
10.2762
10.4607
10.6455
10.8309
11.0171
11.2041
11.3923
11.5816
11.7723
11.9644
12.1583
12.3542
12.5537
12.7635
10.0925
10.2776
10.4629
10.6486
10.835
11.022
11.21
11.3991
11.5895
11.7813
11.9747
12.1701
12.368
12.5701
12.7803
10.0929
10.2787
10.4648
10.6513
10.8384
11.0263
11.2152
11.4051
11.5964
11.7891
11.9836
12.1799
12.3788
12.5808
12.7872
10.0932
10.2797
10.4664
10.6536
10.8413
11.0299
11.2195
11.4102
11.6022
11.7958
11.991
12.1881
12.3872
12.5884
12.791
10.0934
10.2804
10.4677
10.6554
10.8437
11.0328
11.2229
11.4142
11.6069
11.8011
11.9971
12.1948
12.3943
12.5948
12.7946
10.0936
10.281
10.4686
10.6567
10.8454
11.035
11.2256
11.4173
11.6105
11.8053
12.0019
12.2003
12.4004
12.6017
12.8011
10.0938
10.2814
10.4692
10.6576
10.8466
11.0364
11.2273
11.4194
11.613
11.8082
12.0053
12.2044
12.4058
12.6099
12.8188
10.0938
10.2815
10.4695
10.658
10.8471
11.0371
11.2282
11.4205
11.6143
11.8098
12.0072
12.2069
12.4092
12.6147
12.8244
10.0938
10.2815
10.4695
10.658
10.8471
11.0371
11.2281
11.4204
11.6143
11.8099
12.0076
12.2076
12.4104
12.6165
12.826
10.0937
10.2813
10.4691
10.6574
10.8464
11.0362
11.2271
11.4193
11.6131
11.8086
12.0062
12.2063
12.4093
12.6158
12.8259
10.0936
10.2809
10.4684
10.6564
10.8451
11.0346
11.2252
11.4171
11.6105
11.8057
12.003
12.2028
12.4057
12.6125
12.8241
10.0934
10.2802
10.4673
10.6549
10.8432
11.0322
11.2224
11.4138
11.6067
11.8014
11.9981
12.1972
12.3993
12.6058
12.8195
10.0931
10.2794
10.4659
10.653
10.8406
11.0291
11.2186
11.4094
11.6017
11.7956
11.9914
12.1894
12.3899
12.594
12.8069
10.0928
10.2784
10.4642
10.6505
10.8375
11.0252
11.214
11.404
11.5954
11.7884
11.9832
12.1798
12.3779
12.5761
12.7683
10.0924
10.2771
10.4622
10.6477
10.8337
11.0206
11.2085
11.3975
11.588
11.7799
11.9737
12.1691
12.3658
12.5624
12.7549
10.0919
10.2757
10.4598
10.6443
10.8294
11.0153
11.2021
11.3901
11.5794
11.7703
11.9629
12.1574
12.3537
12.5513
12.7485
10.0914
10.2741
10.4572
10.6406
10.8246
11.0093
11.1949
11.3816
11.5697
11.7593
11.9507
12.1444
12.3408
12.5404
12.7435
10.0908
10.2724
10.4542
10.6364
10.8192
11.0026
11.1869
11.3723
11.5589
11.747
11.937
12.1295
12.3255
12.527
12.7369
10.0901
10.2705
10.451
10.6319
10.8133
10.9953
11.1782
11.362
11.547
11.7333
11.9215
12.112
12.3063
12.5078
12.7243
10.0894
10.2684
10.4476
10.627
10.8069
10.9875
11.1687
11.3509
11.534
11.7184
11.9042
12.0918
12.2821
12.4779
12.693
10.0887
10.2662
10.4438
10.6218
10.8002
10.9791
11.1586
11.339
11.5202
11.7024
11.8857
12.0698
12.2539
12.4348
12.5982
10.0879
10.2639
10.4399
10.6163
10.793
10.9702
11.1479
11.3264
11.5057
11.6857
11.8665
12.0477
12.2279
12.4036
12.5663
10.0871
10.2614
10.4358
10.6105
10.7854
10.9608
11.1368
11.3133
11.4905
11.6684
11.8471
12.0262
12.2049
12.3815
12.5526
10.0863
10.2588
10.4315
10.6044
10.7776
10.9511
11.1251
11.2997
11.4748
11.6506
11.8273
12.0048
12.1834
12.3631
12.5438
10.0854
10.2562
10.4271
10.5981
10.7695
10.9411
11.1131
11.2855
11.4586
11.6322
11.8068
11.9827
12.161
12.3438
12.5346
10.0845
10.2534
10.4225
10.5917
10.7611
10.9307
11.1007
11.271
11.4418
11.6132
11.7853
11.9589
12.1355
12.3189
12.5189
10.0835
10.2507
10.4178
10.5851
10.7525
10.9202
11.088
11.2562
11.4246
11.5935
11.7628
11.9331
12.1051
12.2825
12.4816
10.0826
10.2478
10.4131
10.5784
10.7438
10.9094
11.0751
11.241
11.4071
11.5734
11.7397
11.9059
12.0709
12.231
12.3699
10.0816
10.2449
10.4082
10.5716
10.735
10.8985
11.0621
11.2258
11.3895
11.5532
11.7167
11.8794
12.0399
12.1942
12.3324
10.0807
10.242
10.4033
10.5647
10.7261
10.8875
11.049
11.2104
11.3718
11.5331
11.6941
11.8545
12.0133
12.1685
12.3164
10.0797
10.2391
10.3984
10.5578
10.7172
10.8765
11.0358
11.195
11.3541
11.5131
11.6719
11.8306
11.9891
12.1477
12.3065
10.0787
10.2361
10.3935
10.5509
10.7082
10.8655
11.0227
11.1797
11.3365
11.4932
11.6498
11.8067
11.9649
12.1268
12.2964
10.0777
10.2332
10.3886
10.544
10.6993
10.8545
11.0096
11.1645
11.319
11.4733
11.6274
11.7818
11.938
12.1005
12.2798
10.0768
10.2302
10.3837
10.5371
10.6905
10.8437
10.9967
11.1494
11.3017
11.4535
11.6047
11.7555
11.9068
12.0625
12.2402
10.0758
10.2273
10.3788
10.5303
10.6817
10.8329
10.9839
11.1346
11.2847
11.4341
11.5823
11.7289
11.8725
12.0091
12.1215
10.0748
10.2244
10.374
10.5235
10.673
10.8223
10.9714
11.1201
11.2682
11.4154
11.5611
11.7043
11.8429
11.9724
12.0825
10.0738
10.2215
10.3692
10.5168
10.6644
10.8118
10.959
11.1059
11.2523
11.3977
11.5415
11.6828
11.8197
11.9491
12.0671
10.0729
10.2186
10.3644
10.5101
10.6558
10.8014
10.9469
11.0922
11.237
11.381
11.5237
11.6643
11.8015
11.9337
12.0596
10.0719
10.2157
10.3596
10.5034
10.6473
10.7911
10.935
11.0787
11.2222
11.3652
11.5074
11.6482
11.7868
11.9225
12.055
10.0709
10.2128
10.3547
10.4967
10.6387
10.7808
10.923
11.0653
11.2076
11.3499
11.4919
11.6335
11.7741
11.9135
12.0517
10.07
10.2099
10.3499
10.4899
10.6301
10.7705
10.911
11.0519
11.1931
11.3348
11.4768
11.6193
11.7622
11.9054
12.0487
10.069
10.2069
10.3449
10.483
10.6213
10.7599
10.8988
11.0382
11.1783
11.3192
11.4613
11.6048
11.7501
11.8971
12.0458
10.0679
10.2039
10.3399
10.476
10.6124
10.7491
10.8862
11.0241
11.1628
11.3029
11.4448
11.5891
11.7366
11.8877
12.0423
10.0669
10.2008
10.3347
10.4688
10.6032
10.7379
10.8731
11.0092
11.1464
11.2853
11.4265
11.5712
11.7205
11.8758
12.0376
10.0659
10.1976
10.3295
10.4615
10.5937
10.7263
10.8595
10.9935
11.1288
11.266
11.4059
11.5499
11.7002
11.8593
12.0301
10.0648
10.1944
10.3241
10.4539
10.5839
10.7143
10.8452
10.9769
11.1099
11.2447
11.3823
11.5244
11.6736
11.8347
12.016
10.0637
10.1911
10.3186
10.4462
10.5739
10.7019
10.8304
10.9595
11.0896
11.2214
11.3556
11.4938
11.6387
11.7961
11.9825
11.8871
10.7396
9.77305
8.887
8.04572
7.2328
6.43921
5.65938
4.88959
4.12726
3.37045
2.6177
1.86786
1.11997
0.373202
12.0917
10.9724
9.97963
9.06411
8.19699
7.36193
6.54914
5.75237
4.96738
4.19116
3.4215
2.65667
1.89531
1.13629
0.378617
12.1769
11.1172
10.1325
9.20756
8.32594
7.47554
6.64791
5.83715
5.03904
4.2505
3.46917
2.69321
1.92113
1.15167
0.383725
12.2196
11.2098
10.2439
9.32085
8.43316
7.5733
6.73493
5.9131
5.10404
4.30481
3.51309
2.72705
1.94512
1.16599
0.388485
12.2446
11.2718
10.3256
9.40948
8.52102
7.6561
6.81041
5.98016
5.16218
4.35387
3.55307
2.758
1.96715
1.17917
0.392874
12.2609
11.3152
10.3864
9.47882
8.5925
7.7255
6.87514
6.03867
5.21359
4.39768
3.58905
2.78603
1.98717
1.19118
0.396877
12.2723
11.3467
10.4325
9.53334
8.65051
7.7833
6.93017
6.08923
5.25859
4.43643
3.6211
2.81114
2.00519
1.20202
0.400494
12.2807
11.3704
10.4679
9.57651
8.69761
7.83127
6.97669
6.13262
5.29767
4.4704
3.64942
2.83345
2.02126
1.21171
0.403732
12.287
11.3885
10.4956
9.61094
8.73596
7.87104
7.01586
6.16965
5.33139
4.49997
3.67425
2.85312
2.03548
1.22031
0.40661
12.2919
11.4026
10.5175
9.63861
8.76726
7.90399
7.04876
6.20111
5.36033
4.52556
3.69588
2.87034
2.04798
1.22789
0.409147
12.2958
11.4138
10.535
9.66099
8.7929
7.93132
7.07636
6.22778
5.38507
4.5476
3.71462
2.88532
2.0589
1.23452
0.411371
12.2988
11.4228
10.5491
9.6792
8.81398
7.95401
7.09949
6.25032
5.40615
4.5665
3.73077
2.8983
2.06838
1.2403
0.41331
12.3013
11.43
10.5606
9.6941
8.83135
7.97287
7.11887
6.26934
5.42406
4.58265
3.74465
2.90949
2.07658
1.2453
0.41499
12.3033
11.4359
10.57
9.70633
8.84571
7.98856
7.13511
6.28539
5.43925
4.59642
3.75652
2.9191
2.08364
1.24961
0.416441
12.305
11.4407
10.5776
9.71641
8.85761
8.00164
7.14872
6.2989
5.45211
4.60813
3.76666
2.92733
2.0897
1.25332
0.417689
12.3063
11.4447
10.584
9.72476
8.8675
8.01255
7.16013
6.31029
5.46299
4.61807
3.7753
2.93436
2.09489
1.2565
0.41876
12.3074
11.448
10.5892
9.73168
8.87573
8.02167
7.1697
6.31988
5.47218
4.6265
3.78264
2.94035
2.09932
1.25922
0.419675
12.3083
11.4507
10.5936
9.73743
8.88259
8.0293
7.17773
6.32795
5.47995
4.63364
3.78888
2.94545
2.10309
1.26153
0.420457
12.3091
11.4529
10.5972
9.74223
8.88833
8.0357
7.18448
6.33475
5.4865
4.63968
3.79417
2.94978
2.1063
1.26351
0.421123
12.3097
11.4548
10.6002
9.74624
8.89313
8.04106
7.19016
6.34048
5.49204
4.6448
3.79865
2.95345
2.10903
1.26519
0.42169
12.3103
11.4564
10.6027
9.7496
8.89716
8.04557
7.19493
6.34532
5.49673
4.64913
3.80245
2.95658
2.11136
1.26662
0.422172
12.3107
11.4577
10.6049
9.75242
8.90054
8.04936
7.19896
6.3494
5.50069
4.6528
3.80568
2.95923
2.11333
1.26783
0.422582
12.3111
11.4588
10.6066
9.7548
8.9034
8.05257
7.20237
6.35286
5.50405
4.65592
3.80842
2.96149
2.11501
1.26887
0.422932
12.3114
11.4597
10.6081
9.75681
8.90582
8.05528
7.20526
6.3558
5.5069
4.65857
3.81076
2.96341
2.11644
1.26975
0.42323
12.3117
11.4605
10.6094
9.75851
8.90788
8.0576
7.20773
6.3583
5.50934
4.66083
3.81276
2.96506
2.11766
1.2705
0.423485
12.3119
11.4612
10.6105
9.75998
8.90964
8.05957
7.20984
6.36045
5.51143
4.66278
3.81447
2.96647
2.11872
1.27115
0.423705
12.3121
11.4618
10.6115
9.76124
8.91116
8.06128
7.21166
6.3623
5.51323
4.66446
3.81595
2.96769
2.11963
1.27171
0.423895
12.3123
11.4623
10.6123
9.76234
8.91248
8.06278
7.21325
6.36392
5.51481
4.66592
3.81724
2.96876
2.12042
1.27221
0.42406
12.3124
11.4627
10.613
9.76331
8.91366
8.0641
7.21465
6.36535
5.5162
4.66722
3.81839
2.9697
2.12112
1.27264
0.424207
12.3126
11.4632
10.6137
9.7642
8.91472
8.06529
7.21592
6.36664
5.51746
4.66838
3.81941
2.97054
2.12175
1.27303
0.424337
12.3127
11.4635
10.6143
9.76501
8.9157
8.06639
7.21709
6.36782
5.5186
4.66944
3.82035
2.97131
2.12232
1.27338
0.424457
12.3128
11.4639
10.6149
9.76579
8.91663
8.06743
7.21819
6.36894
5.51968
4.67044
3.82122
2.97203
2.12286
1.27371
0.424567
12.313
11.4643
10.6155
9.76656
8.91754
8.06844
7.21926
6.37002
5.52072
4.6714
3.82206
2.97271
2.12337
1.27402
0.424673
12.3131
11.4646
10.6161
9.76734
8.91847
8.06947
7.22034
6.37109
5.52175
4.67234
3.82288
2.97338
2.12386
1.27432
0.424775
12.3132
11.465
10.6167
9.76817
8.91945
8.07054
7.22145
6.37219
5.5228
4.6733
3.82371
2.97405
2.12436
1.27463
0.424877
12.3134
11.4655
10.6174
9.76907
8.9205
8.07169
7.22263
6.37336
5.5239
4.67429
3.82456
2.97474
2.12486
1.27493
0.42498