/*--------------------------------*- C++ -*----------------------------------*\
| =========                 |                                                 |
| \\      /  F ield         | OpenFOAM: The Open Source CFD Toolbox           |
|  \\    /   O peration     | Version:  5.x                                   |
|   \\  /    A nd           | Web:      www.OpenFOAM.org                      |
|    \\/     M anipulation  |                                                 |
\*---------------------------------------------------------------------------*/
FoamFile
{
    version     2.0;
    format      ascii;
    class       volScalarField;
    location    "13.3";
    object      gradTx;
}
// * * * * * * * * * * * * * * * * * * * * * * * * * * * * * * * * * * * * * //

dimensions      [0 -1 0 1 0 0 0];

internalField   nonuniform List<scalar> 
6300
(
38.4924
38.3771
38.1465
37.8007
37.3398
36.7644
36.0755
35.2749
34.3655
33.352
32.2408
31.0408
29.7637
28.4239
27.0385
38.6061
38.4908
38.2601
37.9141
37.4528
36.8764
36.1856
35.3821
34.4683
33.4482
32.3281
31.1166
29.8251
28.4683
27.0637
38.8334
38.7181
38.4875
38.1412
37.6791
37.101
36.4071
35.5981
34.6757
33.6431
32.5056
31.271
29.9506
28.5592
27.1153
39.1742
39.0591
38.8287
38.4825
38.0198
37.4399
36.742
35.9259
34.9918
33.9415
32.7787
31.5099
30.1457
28.7013
27.1967
39.6284
39.5138
39.2842
38.9387
38.4762
37.8951
37.1937
36.3701
35.4227
34.351
33.1562
31.8428
30.4199
28.9025
27.3126
40.1956
40.0818
39.8537
39.5102
39.0494
38.4691
37.766
36.9365
35.9764
34.8821
33.651
32.284
30.7871
29.1748
27.4713
40.8748
40.7624
40.537
40.1972
39.7406
39.1641
38.4631
37.6317
36.6629
35.5483
34.2803
32.8535
31.2686
29.537
27.6854
41.6646
41.5543
41.333
40.9992
40.5501
39.982
39.2889
38.463
37.4933
36.3665
35.067
33.5797
31.8953
30.0179
27.975
42.5629
42.4555
42.2398
41.9146
41.477
40.923
40.2459
39.4362
38.4794
37.3559
36.0398
34.5015
32.7134
30.6632
28.3729
43.5669
43.4629
43.2545
42.9405
42.5186
41.9852
41.334
40.5546
39.6305
38.536
37.2333
35.6717
33.7924
31.5471
28.9358
44.6729
44.573
44.373
44.0723
43.6699
43.1634
42.5484
41.816
40.9504
39.9227
38.6842
37.158
35.2358
32.7958
29.768
45.877
45.7813
45.5902
45.3041
44.9234
44.4484
43.8781
43.209
42.4305
41.5183
40.4211
39.0387
37.1957
34.6308
31.0783
47.1748
47.0831
46.9005
46.6285
46.2693
45.8266
45.305
44.7093
44.0423
43.2973
42.4415
41.3785
39.8757
37.4518
33.3369
48.5622
48.4739
48.2984
48.0379
47.6968
47.2818
46.8038
46.279
45.7302
45.1854
44.6673
44.1565
43.4748
41.9622
37.7616
50.0359
49.9499
49.779
49.5261
49.196
48.7979
48.3473
47.8707
47.4123
47.0447
46.8838
47.1032
47.9031
49.1587
48.0805
25.7456
24.5641
23.3896
22.2341
21.1092
20.0254
18.9918
18.0166
17.1061
16.2656
15.4988
14.8083
14.1956
13.6615
13.2059
12.8279
12.5264
12.2994
12.1448
12.0596
12.0408
12.0842
12.1857
12.3399
12.5412
12.7831
13.0586
13.3603
13.6804
14.0114
14.3456
14.6762
14.9968
15.3017
15.5857
15.8441
16.0724
16.2661
16.4208
16.5317
16.5946
16.6058
16.5622
16.4623
16.3056
16.0929
15.8261
15.5076
15.1395
14.7236
14.2608
13.7507
13.192
12.5824
11.9189
11.1985
10.4183
9.5758
8.66881
7.69546
6.65382
5.54153
4.3554
3.09112
1.74301
0.304033
-1.23408
-2.88059
-4.64536
-6.53843
-8.56968
-10.7485
-13.0834
-15.5824
-18.2524
-21.0993
-24.1281
-27.3424
-30.7443
-34.3334
-38.1066
-42.0572
-46.174
-50.4407
-54.8357
-59.3319
-63.8967
-68.4934
-73.0817
-77.6198
25.752
24.5529
23.3611
22.1892
21.0493
19.952
18.9071
17.9225
17.0047
16.1588
15.3882
14.6955
14.0819
13.548
13.0934
12.7174
12.4184
12.1948
12.0441
11.9638
11.9504
12.0003
12.1091
12.2717
12.4822
12.7342
13.0204
13.3331
13.6643
14.006
14.3503
14.6901
15.0189
15.3311
15.6219
15.8868
16.1216
16.3219
16.483
16.6002
16.6686
16.6839
16.6428
16.5434
16.3855
16.1702
15.9001
15.5783
15.2077
14.7907
14.3283
13.8203
13.2649
12.6594
12.0003
11.2842
10.5077
9.66825
8.764
7.79346
6.75525
5.64758
4.46773
3.21164
1.87369
0.446683
-1.07807
-2.71034
-4.46057
-6.33938
-8.35709
-10.5234
-12.847
-15.336
-17.9972
-20.8369
-23.8604
-27.0718
-30.4739
-34.0675
-37.8504
-41.817
-45.957
-50.2548
-54.6888
-59.2316
-63.8494
-68.5038
-73.1524
-77.7508
25.7651
24.5301
23.3029
22.0975
20.9268
19.8025
18.7347
17.7314
16.7992
15.9426
15.1649
14.4681
13.8529
13.3196
12.8674
12.4952
12.2016
11.9845
11.8418
11.7708
11.7685
11.8312
11.9546
12.1338
12.363
12.6354
12.9434
13.2788
13.6327
13.9963
14.361
14.7192
15.0642
15.3908
15.6947
15.9722
16.2198
16.4333
16.608
16.7383
16.8183
16.8426
16.8067
16.7083
16.5472
16.3258
16.048
15.7186
15.3423
14.9225
14.461
13.9574
13.4094
12.813
12.1635
11.4562
10.6872
9.85368
8.95428
7.98856
6.95641
5.85731
4.68959
3.44982
2.13249
0.729959
-0.767296
-2.37024
-4.09062
-5.94026
-7.93044
-10.0714
-12.3723
-14.841
-17.4846
-20.3095
-23.3215
-26.5259
-29.9272
-33.528
-37.3287
-41.326
-45.5116
-49.8713
-54.3842
-59.0216
-63.7479
-68.5209
-73.2936
-78.0162
25.7863
24.4949
23.2124
21.9547
20.7366
19.571
18.4685
17.4374
16.4839
15.6122
14.8246
14.1224
13.5056
12.9737
12.5255
12.1594
11.8738
11.6667
11.5357
11.4786
11.4924
11.574
11.7193
11.9236
12.1811
12.4848
12.8266
13.1972
13.5866
13.9843
14.3805
14.7665
15.1355
15.4826
15.8049
16.1002
16.3663
16.6
16.7962
16.9481
17.0477
17.0872
17.06
16.9626
16.7953
16.5621
16.2696
15.9259
15.5387
15.1137
14.6537
14.1581
13.6231
13.0426
12.4095
11.7168
10.9591
10.1336
9.2397
8.27896
7.25365
6.16559
5.01498
3.79949
2.5138
1.14952
-0.304412
-1.86107
-3.53451
-5.3387
-7.28651
-9.38908
-11.6557
-14.094
-16.7106
-19.5121
-22.5049
-25.696
-29.0923
-32.6999
-36.5231
-40.5628
-44.8143
-49.2663
-53.8988
-58.6823
-63.5776
-68.5369
-73.5052
-78.4238
25.8171
24.446
23.0852
21.7541
20.47
19.2476
18.0985
17.0309
16.0503
15.1599
14.3608
13.653
13.0355
12.5067
12.0647
11.7074
11.4327
11.2385
11.1229
11.0836
11.1184
11.2245
11.3985
11.6362
11.9321
12.2789
12.6678
13.0882
13.5278
13.9739
14.4141
14.8378
15.2376
15.6097
15.9533
16.2695
16.5589
16.82
17.0475
17.2325
17.3632
17.4271
17.4136
17.317
17.1378
16.8829
16.5642
16.1953
15.789
15.3548
14.8972
14.4148
13.9017
13.3476
12.7408
12.0704
11.3284
10.5115
9.62102
8.662
7.64092
6.56365
5.43353
4.25003
3.00809
1.69807
0.306307
-1.18378
-2.79013
-4.53027
-6.41961
-8.47039
-10.6916
-13.0897
-15.6702
-18.4387
-21.4024
-24.5701
-27.9524
-31.5606
-35.4051
-39.4934
-43.8273
-48.4002
-53.1947
-58.1804
-63.3137
-68.5381
-73.7867
-78.9865
25.8607
24.3811
22.9143
21.4846
20.1135
18.818
17.6103
16.4984
15.4862
14.5753
13.7649
13.0531
12.4372
11.9143
11.4814
11.1358
10.875
10.6969
10.5996
10.5816
10.6412
10.7766
10.9856
11.2647
11.6091
12.0118
12.4632
12.9508
13.4592
13.9715
14.4709
14.943
15.3791
15.777
16.1405
16.4767
16.7918
17.0877
17.3594
17.5945
17.7742
17.8777
17.8863
17.7896
17.5884
17.2952
16.9304
16.5178
16.079
15.6292
15.1755
14.7155
14.2386
13.7279
13.1633
12.5266
11.8051
10.9948
10.1007
9.13404
8.10876
7.03752
5.92868
4.7845
3.60022
2.36417
1.0585
-0.339112
-1.85312
-3.50697
-5.32015
-7.30616
-9.47254
-11.8227
-14.3586
-17.0839
-20.0055
-23.1345
-26.4865
-30.0802
-33.9353
-38.0695
-42.4951
-47.214
-52.2138
-57.4647
-62.9172
-68.5028
-74.1368
-79.724
25.9217
24.2968
22.6887
21.1299
19.6474
18.2611
16.9836
15.8212
14.7757
13.8453
13.0264
12.3144
11.7044
11.1917
10.772
10.4416
10.1978
10.0384
9.96183
9.96731
10.0543
10.2225
10.4712
10.7987
11.2017
11.6742
12.2061
12.7828
13.3845
13.9873
14.5661
15.0995
15.575
15.9932
16.3665
16.7136
17.0516
17.3895
17.7235
18.0353
18.2944
18.464
18.51
18.412
18.171
17.8096
17.3648
16.8776
16.384
15.9086
15.4621
15.0399
14.6239
14.1851
13.6892
13.1044
12.4091
11.5985
10.6844
9.69011
8.64246
7.5652
6.47447
5.37645
4.2667
3.13032
1.94299
0.673065
-0.714762
-2.25425
-3.97174
-5.88209
-7.98872
-10.2878
-12.7741
-15.4462
-18.3093
-21.3773
-24.6722
-28.2228
-32.0625
-36.2252
-40.7395
-45.622
-50.8703
-56.4573
-62.3275
-68.3963
-74.5525
-80.6667
26.0074
24.1873
22.3911
20.6643
19.0419
17.5467
16.1902
14.9752
13.8987
12.954
12.1334
11.4284
10.8311
10.3347
9.93334
9.62246
9.39872
9.26005
9.20549
9.23519
9.35018
9.55211
9.8428
10.2235
10.6939
11.2504
11.884
12.5782
13.3076
14.037
14.7263
15.3386
15.8528
16.2734
16.6296
16.9628
17.3109
17.6964
18.1187
18.5511
18.9429
19.2276
19.3403
19.2396
18.9263
18.4436
17.8596
17.246
16.662
16.146
15.7131
15.355
15.0414
14.7238
14.3428
13.8406
13.1787
12.3507
11.3833
10.3226
9.21842
8.11199
7.03046
5.98506
4.97131
3.96964
2.94623
1.85491
0.641907
-0.745225
-2.34559
-4.17529
-6.22763
-8.48315
-10.922
-13.5329
-16.3178
-19.293
-22.4889
-25.9483
-29.724
-33.8737
-38.4526
-43.5021
-49.0379
-55.0407
-61.4503
-68.1621
-75.0267
-81.8607
26.1298
24.0425
21.9927
20.0473
18.2524
16.6319
15.1926
13.9293
12.831
11.8838
11.0733
10.3866
9.81209
9.3404
8.96401
8.67737
8.47675
8.3602
8.32745
8.37988
8.52044
8.75346
9.08435
9.51885
10.0618
10.715
11.4739
12.3228
13.2299
14.144
14.9969
15.7184
16.2646
16.6457
16.9254
17.1898
17.5156
17.9496
18.4987
19.1249
19.7447
20.2383
20.4771
20.3727
19.925
19.2226
18.3962
17.5711
16.8414
16.2632
15.856
15.6052
15.464
15.3534
15.1701
14.8066
14.1869
13.3033
12.216
11.0174
9.79722
8.62261
7.53416
6.54784
5.65828
4.84007
4.04709
3.21183
2.24922
1.07079
-0.389222
-2.14787
-4.17385
-6.41434
-8.82182
-11.3688
-14.0517
-16.8904
-19.9256
-23.2179
-26.8461
-30.9034
-35.4872
-40.6809
-46.5317
-53.0368
-60.1367
-67.7059
-75.5434
-83.3781
26.309
23.8427
21.4429
19.213
17.2109
15.4557
13.9405
12.6454
11.5455
10.616
9.83469
9.18269
8.64464
8.20846
7.86506
7.60803
7.43336
7.33932
7.32639
7.39732
7.5572
7.81354
8.1763
8.65756
9.27051
10.0272
10.9338
11.9829
13.1417
14.3385
15.456
16.3502
16.9134
17.1633
17.2425
17.3278
17.5637
18.0362
18.767
19.7072
20.7275
21.615
22.1073
21.9994
21.2895
20.1795
18.9304
17.7581
16.802
16.1336
15.7728
15.6974
15.8418
16.087
16.2566
16.1407
15.5747
14.5489
13.2083
11.7431
10.3099
9.00881
7.89048
6.97105
6.24227
5.67396
5.20866
4.75195
4.16717
3.2922
1.99712
0.264505
-1.81113
-4.10497
-6.52068
-9.00853
-11.5612
-14.2044
-16.9917
-20.0032
-23.3497
-27.1742
-31.6428
-36.9124
-43.0822
-50.1752
-58.1458
-66.8618
-76.0624
-85.3337
26.5806
23.5458
20.6478
18.0496
15.8131
13.9328
12.3708
11.0797
10.0139
9.13432
8.40941
7.81433
7.3301
6.94255
6.64142
6.41979
6.27356
6.20132
6.20427
6.28637
6.45473
6.72004
7.09728
7.60627
8.27189
9.12295
10.1879
11.4846
12.9983
14.6464
16.2362
17.4578
18.0126
17.9263
17.55
17.2482
17.2703
17.7504
18.7328
20.1733
21.901
23.5598
24.6009
24.4921
23.2292
21.3359
19.3534
17.6331
16.3477
15.5604
15.2779
15.4726
16.0737
16.9289
17.7537
18.1224
17.624
16.2471
14.3795
12.4222
10.6322
9.13141
7.96003
7.11941
6.59494
6.35925
6.35764
6.4763
6.50278
6.11842
5.01338
3.17076
0.865766
-1.62003
-4.11556
-6.55487
-8.93981
-11.3109
-13.7344
-16.3056
-19.1643
-22.5168
-26.6441
-31.8467
-38.3023
-46.0485
-55.0799
-65.3184
-76.4777
-87.9181
27.0124
23.0507
19.4201
16.3646
13.9019
11.9512
10.4108
9.18912
8.21364
7.42961
6.79681
6.28599
5.87603
5.55187
5.30304
5.12268
5.00695
4.9548
4.96789
5.05097
5.21237
5.46509
5.82823
6.32911
7.00591
7.91029
9.10817
10.6732
12.6606
15.038
17.546
19.5249
20.0342
19.1062
17.7493
16.7016
16.3168
16.7403
18.0385
20.2249
23.1728
26.3933
28.7493
28.6458
26.076
22.6199
19.3982
16.8809
15.1757
14.2599
14.0952
14.6622
15.9391
17.8138
19.907
21.3522
20.9377
18.6513
15.6795
12.8601
10.5374
8.77941
7.55303
6.81229
6.5315
6.70722
7.33317
8.33315
9.42978
9.98217
9.09154
6.74266
3.80292
0.878938
-1.79136
-4.17932
-6.33822
-8.34142
-10.2642
-12.1939
-14.2671
-16.7433
-20.0962
-24.976
-31.6627
-40.0701
-50.2746
-62.4475
-76.4862
-91.4645
27.7453
22.078
17.3632
13.8255
11.2526
9.37825
7.99108
6.94364
6.13736
5.50682
5.00827
4.61213
4.29815
4.05249
3.86584
3.73227
3.64859
3.6141
3.63055
3.70256
3.8383
4.0509
4.36059
4.79838
5.41191
6.27467
7.49934
9.25318
11.7609
15.2407
19.6168
23.7074
24.1248
20.9028
17.5029
15.1997
14.1985
14.4702
16.0645
19.1791
24.0511
30.4709
36.4381
36.35
30.1979
23.5655
18.428
14.9587
12.8662
11.8773
11.8581
12.8292
14.943
18.3833
22.9929
27.2593
26.946
22.0419
16.7594
12.5822
9.629
7.66156
6.44641
5.84258
5.81045
6.40663
7.76985
10.0505
13.1401
15.9235
15.2693
11.1652
6.71724
3.01253
0.126279
-2.13359
-3.96071
-5.48751
-6.78396
-7.87506
-8.78915
-9.70692
-11.3492
-15.5027
-22.5447
-31.5031
-42.6333
-56.8884
-75.1399
-96.5997
29.099
19.7327
13.6107
9.89631
7.59691
6.10338
5.08185
4.35061
3.80776
3.39371
3.07206
2.81974
2.6217
2.46798
2.35205
2.26985
2.21926
2.19988
2.21306
2.2622
2.35341
2.49674
2.70831
3.01438
3.4588
4.11764
5.12819
6.74716
9.46096
14.1523
22.098
33.1784
33.4551
22.9548
15.6765
11.8224
10.2467
10.2948
11.9008
15.6019
22.6997
35.1988
52.8453
52.785
35.0102
22.3575
15.0549
11.0532
8.96728
8.09775
8.19485
9.34992
12.0365
17.2683
26.5721
39.7602
39.5643
25.9765
16.2471
10.5415
7.30075
5.46016
4.45923
4.04944
4.18443
5.00129
6.88511
10.6028
17.291
26.8146
26.4144
16.0823
8.56113
3.96739
1.1419
-0.710998
-2.01558
-2.96518
-3.59924
-3.81092
-3.30569
-1.62693
1.0142
-1.86945
-10.6662
-19.808
-30.4913
-45.5731
-69.1719
-104.621
31.8233
12.7145
6.39079
3.92908
2.78042
2.14857
1.7544
1.48609
1.29252
1.14739
1.03589
0.94907
0.881301
0.828927
0.789587
0.761829
0.744905
0.738688
0.743686
0.761161
0.793393
0.844188
0.919838
1.03102
1.19681
1.45397
1.88072
2.66432
4.31299
8.37682
20.0642
58.2055
58.3028
20.3663
8.91837
5.16364
3.95637
3.87564
4.71986
7.13251
13.5698
32.5133
94.7483
94.7267
32.4453
13.4448
6.92775
4.38859
3.31639
2.92597
3.00781
3.66496
5.46437
10.2891
24.5572
71.5326
71.4658
24.354
9.9399
4.95099
2.95603
2.04944
1.62069
1.47164
1.57638
2.05934
3.35944
6.87698
17.3584
51.9952
51.8604
16.9514
6.18921
2.37584
0.75695
-0.0779735
-0.581596
-0.897155
-1.02262
-0.779049
0.487998
5.06734
21.3334
20.2788
1.70921
-5.89246
-12.0145
-21.992
-46.1379
-118.368
-82.4978
-87.6369
-92.5175
-97.0877
-101.307
-105.147
-108.591
-111.63
-114.265
-116.5
-118.343
-119.803
-120.889
-121.609
-121.967
-82.692
-87.8932
-92.8259
-97.4363
-101.684
-105.541
-108.992
-112.032
-114.662
-116.889
-118.723
-120.175
-121.253
-121.967
-122.322
-83.0873
-88.4159
-93.4543
-98.1454
-102.449
-106.338
-109.803
-112.841
-115.459
-117.669
-119.484
-120.916
-121.978
-122.681
-123.03
-83.6993
-89.2266
-94.4276
-99.2404
-103.624
-107.558
-111.037
-114.067
-116.663
-118.842
-120.623
-122.024
-123.06
-123.744
-124.084
-84.5537
-90.3614
-95.787
-100.762
-105.247
-109.23
-112.716
-115.725
-118.28
-120.409
-122.139
-123.494
-124.492
-125.149
-125.475
-85.6906
-91.8761
-97.5947
-102.771
-107.371
-111.397
-114.872
-117.832
-120.32
-122.373
-124.029
-125.317
-126.262
-126.883
-127.19
-87.1721
-93.8553
-99.9427
-105.352
-110.066
-114.111
-117.538
-120.411
-122.79
-124.732
-126.283
-127.48
-128.354
-128.926
-129.208
-89.094
-96.4279
-102.966
-108.628
-113.428
-117.439
-120.757
-123.48
-125.696
-127.478
-128.886
-129.964
-130.746
-131.255
-131.506
-91.6096
-99.7941
-106.863
-112.762
-117.576
-121.458
-124.568
-127.053
-129.031
-130.596
-131.816
-132.741
-133.408
-133.839
-134.052
-94.9732
-104.273
-111.929
-117.978
-122.655
-126.245
-129.002
-131.129
-132.778
-134.056
-135.037
-135.774
-136.3
-136.64
-136.807
-99.6347
-110.394
-118.598
-124.562
-128.819
-131.861
-134.062
-135.681
-136.893
-137.808
-138.499
-139.012
-139.377
-139.611
-139.726
-106.46
-119.066
-127.505
-132.851
-136.194
-138.314
-139.699
-140.639
-141.301
-141.781
-142.136
-142.396
-142.58
-142.698
-142.756
-117.325
-131.901
-139.502
-143.14
-144.79
-145.499
-145.779
-145.871
-145.887
-145.878
-145.864
-145.853
-145.846
-145.842
-145.841
-136.957
-151.709
-155.459
-155.412
-154.323
-153.11
-152.043
-151.175
-150.495
-149.975
-149.585
-149.302
-149.105
-148.98
-148.921
-179.598
-182.514
-175.209
-168.723
-163.977
-160.573
-158.103
-156.287
-154.94
-153.938
-153.197
-152.66
-152.287
-152.051
-151.937
51.4637
51.3787
51.2097
50.9589
50.6307
50.2338
49.7841
49.3112
48.8692
48.5577
48.5652
49.2704
51.5426
57.893
77.8823
52.8192
52.7346
52.5656
52.3136
51.9812
51.5742
51.1049
50.5979
50.1015
49.7102
49.6077
50.1507
52.0176
56.3602
63.912
54.232
54.1474
53.9778
53.7226
53.3818
52.9563
52.4504
51.8757
51.2594
50.6606
50.2004
50.1102
50.7717
52.5971
55.2077
55.7021
55.6177
55.4477
55.1896
54.8396
54.3926
53.842
53.1809
52.4038
51.5131
50.5346
49.5463
48.7161
48.2869
48.3383
57.2292
57.1459
56.9771
56.7186
56.3631
55.8991
55.3089
54.5652
53.6254
52.425
50.8739
48.8713
46.3805
43.6413
41.5268
58.8126
58.7317
58.5672
58.3133
57.9602
57.4915
56.8808
56.0841
55.0263
53.5787
51.5253
48.5337
44.216
38.5606
33.2691
60.4506
60.3739
60.2176
59.9752
59.6357
59.1807
58.5802
57.7826
56.6963
55.1515
52.8266
49.1157
42.979
33.226
21.3594
62.1402
62.0697
61.926
61.7028
61.3896
60.9693
60.4148
59.6801
58.6829
57.2644
55.0888
51.3806
44.2522
29.3582
1.23169
63.8769
63.8147
63.6878
63.491
63.2158
62.8493
62.3728
61.758
60.9603
59.9013
58.4136
56.0192
50.9167
34.6786
-38.4048
65.6551
65.6028
65.4963
65.3318
65.1034
64.8039
64.4251
63.9611
63.4172
62.8343
62.3662
62.5364
65.3129
79.4738
151.248
67.4679
67.4267
67.3431
67.2148
67.0385
66.8116
66.5347
66.2181
65.899
65.6858
65.8737
67.2419
71.8012
84.2578
110.753
69.3074
69.2782
69.2191
69.1289
69.0066
68.8522
68.6701
68.4748
68.3051
68.2569
68.5598
69.7291
72.8033
79.2899
88.6866
71.1654
71.1485
71.1146
71.0633
70.9947
70.91
70.8129
70.712
70.6245
70.5822
70.642
70.8914
71.4337
72.2985
73.1742
73.0332
73.0288
73.0201
73.0076
72.9918
72.9742
72.9563
72.938
72.9102
72.8345
72.5907
71.8479
69.8381
65.2975
58.2992
74.9021
74.91
74.9262
74.9518
74.988
75.0365
75.0981
75.1686
75.2267
75.2015
74.884
73.682
69.9979
60.001
38.5938
76.7635
76.7833
76.8237
76.8863
76.9732
77.0874
77.2317
77.4057
77.5987
77.7693
77.7892
77.2374
74.5397
62.6266
4.05233
78.6091
78.6403
78.7037
78.8015
78.9371
79.1153
79.3425
79.6276
79.9836
80.4396
81.0893
82.2806
85.479
97.6536
156.246
80.431
80.4727
80.5575
80.6881
80.869
81.1067
81.4112
81.7981
82.2965
82.9733
84.0109
85.9273
90.1826
100.443
121.781
82.2218
82.2731
82.3772
82.5374
82.7589
83.0494
83.4205
83.889
84.4827
85.254
86.3198
87.9472
90.7131
95.5378
102.167
83.9749
84.0345
84.1555
84.3415
84.5982
84.9338
85.3599
85.8908
86.5428
87.3279
88.2363
89.1739
89.8115
89.3763
87.1909
85.6844
85.7511
85.8864
86.0941
86.3801
86.753
87.2242
87.8063
88.5077
89.3136
90.1301
90.6062
89.6525
84.4277
70.7315
87.3453
87.4178
87.5646
87.7896
88.099
88.5015
89.0092
89.6367
90.3971
91.2896
92.2578
93.0286
92.457
85.3594
44.7957
88.9537
89.0306
89.186
89.424
89.7504
90.1743
90.7088
91.3724
92.1918
93.2104
94.52
96.3803
99.791
109.529
151.774
90.5064
90.5863
90.7477
90.9942
91.3314
91.7677
92.3164
92.9976
93.8453
94.9265
96.3973
98.6526
102.728
111.121
127.078
92.0013
92.083
92.2479
92.4988
92.8406
93.2806
93.8297
94.5048
95.3337
96.3694
97.7272
99.6576
102.665
107.456
113.501
93.4372
93.5196
93.6856
93.9375
94.2789
94.715
95.253
95.9026
96.6754
97.5862
98.6566
99.9117
101.361
102.917
104.159
94.8134
94.8957
95.0611
95.3113
95.6485
96.0758
96.5966
97.2124
97.9182
98.6894
99.4552
100.028
99.9803
98.5946
95.7164
96.13
96.2116
96.3752
96.6219
96.9527
97.3691
97.8717
98.4574
99.1123
99.7937
100.385
100.572
99.5261
95.3052
85.313
97.3875
97.4679
97.629
97.8711
98.1946
98.5999
99.0865
99.6517
100.285
100.958
101.594
101.968
101.274
96.0211
68.0084
98.5868
98.6658
98.8238
99.0608
99.3767
99.7713
100.244
100.796
101.427
102.144
102.983
104.103
106.185
112.539
141.136
99.7287
99.8062
99.9611
100.193
100.501
100.885
101.345
101.883
102.506
103.241
104.175
105.566
108.128
113.609
124.314
100.814
100.89
101.042
101.269
101.57
101.944
102.39
102.909
103.505
104.197
105.048
106.213
108.04
111.047
114.965
101.845
101.919
102.068
102.291
102.585
102.949
103.381
103.878
104.433
105.042
105.698
106.398
107.13
107.849
108.377
102.82
102.894
103.041
103.26
103.549
103.905
104.326
104.803
105.321
105.849
106.316
106.557
106.227
104.78
102.195
103.743
103.815
103.96
104.177
104.462
104.814
105.228
105.696
106.2
106.697
107.087
107.109
106.098
102.499
94.2574
104.612
104.684
104.828
105.043
105.326
105.677
106.09
106.562
107.08
107.617
108.111
108.376
107.762
103.44
80.6361
105.428
105.5
105.644
105.858
106.141
106.492
106.91
107.394
107.943
108.565
109.291
110.251
111.997
117.212
140.477
106.192
106.264
106.407
106.621
106.906
107.259
107.681
108.176
108.753
109.437
110.306
111.575
113.823
118.445
127.256
106.903
106.975
107.119
107.334
107.619
107.974
108.4
108.9
109.484
110.177
111.04
112.218
113.996
116.765
120.196
107.562
107.634
107.779
107.994
108.281
108.637
109.064
109.563
110.138
110.795
111.554
112.44
113.479
114.623
115.558
108.168
108.241
108.386
108.603
108.89
109.248
109.675
110.171
110.73
111.341
111.976
112.554
112.884
112.624
111.611
108.721
108.794
108.94
109.159
109.448
109.808
110.237
110.731
111.282
111.868
112.434
112.835
112.697
111.145
107
109.22
109.294
109.441
109.662
109.955
110.318
110.751
111.25
111.807
112.405
113.004
113.489
113.489
111.465
99.5521
109.665
109.74
109.889
110.112
110.408
110.776
111.216
111.725
112.301
112.94
113.649
114.476
115.683
118.648
131.04
110.056
110.132
110.283
110.508
110.809
111.183
111.63
112.151
112.747
113.424
114.21
115.196
116.654
119.28
124.007
110.392
110.469
110.621
110.85
111.155
111.535
111.99
112.523
113.133
113.828
114.628
115.586
116.81
118.451
120.298
110.672
110.75
110.904
111.136
111.445
111.831
112.295
112.837
113.458
114.157
114.935
115.786
116.675
117.477
117.912
110.896
110.974
111.131
111.365
111.679
112.071
112.542
113.094
113.724
114.428
115.189
115.958
116.596
116.753
115.869
111.063
111.142
111.3
111.537
111.854
112.252
112.731
113.293
113.937
114.656
115.433
116.217
116.849
116.75
113.254
111.173
111.252
111.411
111.651
111.971
112.373
112.86
113.434
114.094
114.841
115.671
116.58
117.606
119.101
123.392
111.224
111.304
111.464
111.705
112.027
112.434
112.927
113.51
114.188
114.965
115.85
116.858
118.034
119.508
121.411
111.218
111.298
111.458
111.699
112.022
112.431
112.928
113.519
114.21
115.012
115.94
117.015
118.253
119.614
120.792
111.153
111.233
111.392
111.632
111.955
112.363
112.861
113.454
114.153
114.969
115.926
117.057
118.385
119.844
121.032
111.031
111.11
111.268
111.506
111.826
112.231
112.725
113.315
114.01
114.824
115.788
116.957
118.422
120.259
122.138
110.852
110.929
111.085
111.319
111.634
112.033
112.52
113.099
113.78
114.573
115.506
116.65
118.198
120.641
124.59
110.616
110.692
110.844
111.073
111.381
111.772
112.247
112.812
113.469
114.221
115.074
116.058
117.351
119.974
129.825
110.325
110.399
110.546
110.769
111.069
111.448
111.91
112.457
113.089
113.797
114.549
115.247
115.577
114.286
105.169
109.981
110.052
110.194
110.409
110.698
111.064
111.511
112.041
112.654
113.339
114.057
114.69
114.925
114.028
110.993
109.585
109.653
109.789
109.994
110.271
110.622
111.051
111.564
112.166
112.856
113.622
114.407
115.056
115.254
114.749
109.139
109.203
109.332
109.527
109.789
110.122
110.53
111.023
111.613
112.317
113.17
114.216
115.499
116.964
118.193
108.646
108.707
108.827
109.009
109.255
109.566
109.949
110.413
110.977
111.673
112.58
113.858
115.811
118.835
122.531
108.109
108.165
108.277
108.445
108.671
108.958
109.309
109.732
110.244
110.88
111.73
113.027
115.378
120.236
129.474
107.531
107.582
107.684
107.838
108.043
108.302
108.615
108.987
109.423
109.936
110.568
111.461
113.201
118.593
142.872
106.915
106.961
107.054
107.192
107.376
107.605
107.879
108.195
108.545
108.907
109.221
109.303
108.485
103.831
79.9351
106.264
106.306
106.388
106.511
106.674
106.874
107.11
107.376
107.656
107.908
108.033
107.767
106.43
102.43
93.675
105.583
105.619
105.692
105.8
105.942
106.116
106.319
106.546
106.782
106.995
107.114
106.972
106.221
104.329
101.372
104.873
104.905
104.968
105.062
105.185
105.335
105.51
105.706
105.921
106.146
106.375
106.597
106.801
106.966
107.054
104.139
104.167
104.221
104.302
104.407
104.534
104.682
104.852
105.049
105.291
105.636
106.233
107.405
109.653
112.833
103.383
103.407
103.453
103.522
103.61
103.715
103.837
103.977
104.143
104.362
104.721
105.467
107.259
111.69
120.858
102.608
102.629
102.668
102.725
102.797
102.882
102.978
103.082
103.196
103.332
103.536
103.97
105.279
110.433
135.286
101.817
101.835
101.868
101.915
101.974
102.04
102.11
102.177
102.232
102.253
102.188
101.864
100.627
95.4954
70.6041
101.012
101.027
101.055
101.095
101.142
101.192
101.241
101.278
101.288
101.233
101.017
100.388
98.6755
94.2773
85.0773
100.194
100.207
100.232
100.266
100.305
100.344
100.377
100.396
100.387
100.32
100.13
99.6631
98.5871
96.3914
93.1971
99.3654
99.3775
99.4003
99.4307
99.4647
99.4968
99.5212
99.5321
99.5234
99.4904
99.4336
99.358
99.2741
99.1964
99.1337
98.5256
98.5378
98.5606
98.5906
98.6232
98.6524
98.6724
98.6789
98.6736
98.675
98.7477
99.056
99.9543
101.988
105.062
97.6751
97.6884
97.7133
97.746
97.7812
97.8119
97.8306
97.8317
97.8161
97.8075
97.8958
98.3417
99.8434
104.056
113.159
96.8131
96.8287
96.8581
96.8972
96.9397
96.9771
96.999
96.9937
96.9509
96.8704
96.7931
96.8914
97.8476
102.725
127.613
95.9379
95.9572
95.9937
96.0433
96.0989
96.1505
96.184
96.1797
96.1089
95.9287
95.5662
94.8428
93.1265
87.4942
62.0751
95.0471
95.0713
95.1179
95.1825
95.2583
95.3341
95.3932
95.4095
95.3401
95.1113
94.5876
93.481
91.1227
86.002
76.2292
94.1373
94.1677
94.227
94.3115
94.4149
94.5267
94.6299
94.6965
94.679
94.4964
94.0115
92.9858
91.0349
87.7382
83.6302
93.2042
93.2419
93.3162
93.4248
93.5631
93.7229
93.89
94.0398
94.1298
94.0892
93.8086
93.1304
91.8797
90.0353
88.2119
92.2428
92.2883
92.3792
92.515
92.6938
92.9115
93.1599
93.4224
93.6684
93.8462
93.8795
93.67
93.1345
92.3156
91.5607
91.2475
91.301
91.4088
91.5727
91.7947
92.0765
92.4179
92.8142
93.2516
93.7013
94.1169
94.4333
94.5837
94.5489
94.4187
90.2131
90.2737
90.3971
90.5876
90.8516
91.1976
91.6355
92.1754
92.8236
93.5776
94.4209
95.3093
96.1594
96.8459
97.2195
89.1345
89.2007
89.3365
89.5489
89.849
90.2524
90.7804
91.4593
92.3192
93.3896
94.6912
96.2092
97.8464
99.3575
100.313
88.0079
88.0772
88.2203
88.4468
88.772
89.2185
89.8184
90.6153
91.6658
93.0387
94.809
97.0236
99.6185
102.252
104.103
86.831
86.9003
87.0441
87.2738
87.6083
88.0757
88.7175
89.5931
90.7857
92.4096
94.616
97.5714
101.361
105.688
109.212
85.6041
85.6694
85.8058
86.0258
86.3498
86.8095
87.4523
88.3488
89.6034
91.3737
93.9005
97.5369
102.728
109.679
116.8
84.3299
84.3871
84.5074
84.7031
84.9946
85.4138
86.0091
86.8537
88.0603
89.8101
92.412
96.4201
102.87
113.55
129.366
83.0139
83.059
83.1545
83.3115
83.5483
83.8937
84.3908
85.105
86.1374
87.6526
89.9446
93.6047
100.073
113.851
152.948
-297.302
-220.119
-192.559
-179.324
-171.593
-166.552
-163.055
-160.54
-158.694
-157.328
-156.318
-155.585
-155.074
-154.751
-154.595
-251.22
-219.84
-198.381
-185.137
-176.647
-170.913
-166.873
-163.94
-161.773
-160.159
-158.961
-158.086
-157.475
-157.088
-156.9
-226.969
-212.669
-198.493
-187.644
-179.785
-174.095
-169.917
-166.805
-164.464
-162.699
-161.375
-160.402
-159.719
-159.284
-159.072
-212.688
-205.408
-196.293
-188.071
-181.414
-176.224
-172.218
-169.132
-166.754
-164.929
-163.543
-162.515
-161.787
-161.321
-161.094
-203.504
-199.416
-193.47
-187.408
-182.023
-177.526
-173.879
-170.964
-168.657
-166.851
-165.46
-164.415
-163.67
-163.191
-162.957
-197.198
-194.713
-190.723
-186.273
-182.012
-178.235
-175.027
-172.37
-170.21
-168.484
-167.132
-166.105
-165.366
-164.888
-164.654
-192.66
-191.052
-188.292
-185.003
-181.661
-178.546
-175.789
-173.43
-171.46
-169.853
-168.575
-167.592
-166.879
-166.414
-166.185
-189.278
-188.189
-186.225
-183.767
-181.149
-178.606
-176.272
-174.215
-172.456
-170.992
-169.809
-168.889
-168.215
-167.774
-167.555
-186.693
-185.929
-184.499
-182.639
-180.583
-178.516
-176.561
-174.791
-173.244
-171.933
-170.858
-170.012
-169.387
-168.976
-168.771
-184.679
-184.13
-183.068
-181.644
-180.023
-178.345
-176.717
-175.209
-173.865
-172.707
-171.744
-170.979
-170.409
-170.031
-169.843
-183.086
-182.686
-181.884
-180.783
-179.498
-178.137
-176.787
-175.511
-174.354
-173.342
-172.491
-171.807
-171.294
-170.952
-170.781
-181.812
-181.517
-180.905
-180.047
-179.024
-177.919
-176.802
-175.728
-174.739
-173.863
-173.117
-172.513
-172.057
-171.751
-171.598
-180.783
-180.566
-180.095
-179.421
-178.604
-177.706
-176.783
-175.883
-175.043
-174.29
-173.643
-173.114
-172.712
-172.442
-172.306
-179.947
-179.787
-179.424
-178.892
-178.237
-177.506
-176.746
-175.994
-175.283
-174.641
-174.083
-173.625
-173.274
-173.037
-172.917
-179.263
-179.147
-178.866
-178.445
-177.919
-177.325
-176.699
-176.073
-175.475
-174.929
-174.452
-174.057
-173.753
-173.547
-173.443
-178.7
-178.618
-178.401
-178.069
-177.647
-177.164
-176.649
-176.129
-175.628
-175.167
-174.761
-174.423
-174.161
-173.983
-173.893
-178.235
-178.18
-178.014
-177.752
-177.413
-177.021
-176.599
-176.168
-175.75
-175.363
-175.02
-174.732
-174.509
-174.356
-174.279
-177.85
-177.816
-177.69
-177.485
-177.214
-176.897
-176.552
-176.197
-175.849
-175.525
-175.237
-174.993
-174.804
-174.674
-174.608
-177.53
-177.512
-177.419
-177.26
-177.045
-176.789
-176.508
-176.217
-175.93
-175.66
-175.419
-175.214
-175.055
-174.945
-174.889
-177.262
-177.259
-177.192
-177.07
-176.9
-176.696
-176.469
-176.231
-175.995
-175.772
-175.572
-175.401
-175.268
-175.176
-175.129
-177.038
-177.046
-177.001
-176.909
-176.777
-176.616
-176.434
-176.241
-176.049
-175.866
-175.701
-175.56
-175.449
-175.372
-175.333
-176.849
-176.866
-176.839
-176.773
-176.673
-176.547
-176.403
-176.249
-176.093
-175.945
-175.81
-175.694
-175.603
-175.54
-175.507
-176.689
-176.714
-176.702
-176.657
-176.583
-176.488
-176.376
-176.254
-176.13
-176.011
-175.903
-175.809
-175.735
-175.683
-175.656
-176.554
-176.585
-176.586
-176.558
-176.507
-176.436
-176.352
-176.258
-176.161
-176.068
-175.982
-175.907
-175.848
-175.806
-175.785
-176.437
-176.474
-176.485
-176.473
-176.441
-176.392
-176.331
-176.261
-176.188
-176.116
-176.05
-175.992
-175.945
-175.912
-175.895
-176.336
-176.378
-176.398
-176.399
-176.383
-176.353
-176.312
-176.263
-176.21
-176.158
-176.109
-176.065
-176.03
-176.005
-175.992
-176.247
-176.293
-176.322
-176.334
-176.333
-176.319
-176.296
-176.265
-176.23
-176.195
-176.161
-176.13
-176.104
-176.086
-176.077
-176.168
-176.217
-176.253
-176.276
-176.287
-176.289
-176.281
-176.267
-176.248
-176.228
-176.207
-176.187
-176.171