/*--------------------------------*- C++ -*----------------------------------*\
| =========                 |                                                 |
| \\      /  F ield         | OpenFOAM: The Open Source CFD Toolbox           |
|  \\    /   O peration     | Version:  5.x                                   |
|   \\  /    A nd           | Web:      www.OpenFOAM.org                      |
|    \\/     M anipulation  |                                                 |
\*---------------------------------------------------------------------------*/
FoamFile
{
    version     2.0;
    format      ascii;
    class       volScalarField;
    location    "10.6";
    object      gradTx;
}
// * * * * * * * * * * * * * * * * * * * * * * * * * * * * * * * * * * * * * //

dimensions      [0 -1 0 1 0 0 0];

internalField   nonuniform List<scalar> 
6300
(
133.539
133.143
132.353
131.166
129.583
127.604
125.232
122.471
119.33
115.823
111.97
107.802
103.359
98.6879
93.8491
133.927
133.532
132.742
131.556
129.972
127.992
125.615
122.845
119.69
116.162
112.28
108.073
103.58
98.8512
93.946
134.704
134.31
133.521
132.336
130.753
128.769
126.384
123.599
120.418
116.849
112.91
108.625
104.033
99.1853
94.1445
135.868
135.476
134.69
133.508
131.927
129.941
127.548
124.743
121.527
117.901
113.878
109.479
104.738
99.7075
94.4561
137.418
137.029
136.249
135.073
133.498
131.515
129.117
126.293
123.038
119.346
115.218
110.669
105.727
100.445
94.8989
139.351
138.966
138.195
137.032
135.47
133.498
131.103
128.27
124.98
121.219
116.974
112.245
107.052
101.443
95.5022
141.661
141.284
140.527
139.384
137.846
135.898
133.522
130.696
127.389
123.57
119.208
114.281
108.788
102.767
96.3117
144.341
143.974
143.238
142.124
140.623
138.718
136.386
133.595
130.303
126.458
122.001
116.876
111.045
104.521
97.3996
147.381
147.028
146.318
145.245
143.798
141.96
139.703
136.989
133.764
129.952
125.457
120.17
113.989
106.868
98.8838
150.767
150.43
149.754
148.734
147.358
145.612
143.469
140.888
137.804
134.121
129.699
124.353
117.869
110.074
100.967
154.482
154.165
153.528
152.569
151.282
149.654
147.666
145.282
142.437
139.023
134.86
129.666
123.053
114.586
104.019
158.508
158.211
157.617
156.726
155.538
154.049
152.252
150.128
147.632
144.668
141.044
136.393
130.085
121.194
108.781
162.823
162.546
161.995
161.173
160.087
158.745
157.159
155.34
153.288
150.967
148.247
144.769
139.695
131.316
116.916
167.406
167.149
166.636
165.877
164.883
163.676
162.29
160.776
159.204
157.658
156.2
154.735
152.604
147.451
132.721
172.24
171.997
171.517
170.806
169.884
168.778
167.542
166.263
165.087
164.255
164.153
165.358
168.527
173.157
169.337
89.3257
85.1842
81.0604
76.9961
73.0311
69.2023
65.5418
62.0773
58.8316
55.8221
53.0619
50.5598
48.3208
46.3468
44.6371
43.1886
41.9963
41.0533
40.3513
39.8803
39.6283
39.5819
39.7254
40.0411
40.5091
41.1075
41.8126
42.5995
43.4424
44.316
45.1958
46.0594
46.8865
47.6597
48.3635
48.9847
49.5107
49.9297
50.2297
50.3991
50.4268
50.3035
50.0222
49.5798
48.9767
48.2174
47.3091
46.2607
45.0811
43.778
42.3563
40.818
39.162
37.3842
35.4792
33.4405
31.2623
28.9393
26.4674
23.8434
21.064
18.1247
15.0194
11.7389
8.27094
4.59962
0.706129
-3.43079
-7.83381
-12.5261
-17.53
-22.8667
-28.5554
-34.6128
-41.0535
-47.8893
-55.1295
-62.7803
-70.8437
-79.317
-88.191
-97.4485
-107.063
-116.997
-127.201
-137.613
-148.162
-158.765
-169.332
-179.769
89.3574
85.1549
80.9708
76.8492
72.8318
68.9564
65.2563
61.7595
58.4885
55.4604
52.6877
50.1784
47.9368
45.9641
44.2588
42.8176
41.6351
40.7043
40.0169
39.5628
39.3306
39.3066
39.4756
39.8199
40.3194
40.9519
41.693
42.5168
43.3963
44.305
45.2173
46.1098
46.9622
47.7573
48.4805
49.1194
49.6627
50.0987
50.4157
50.6009
50.6422
50.5286
50.2522
49.8089
49.1996
48.4299
47.5089
46.4476
45.2572
43.9468
42.5224
40.9859
39.3355
37.5659
35.67
33.6402
31.4694
29.1523
26.6853
24.0663
21.2931
18.363
15.2709
12.0084
8.56328
4.91926
1.05651
-3.04756
-7.41716
-12.0768
-17.0502
-22.3592
-28.0233
-34.0597
-40.4829
-47.3052
-54.5363
-62.1836
-70.2507
-78.737
-87.6353
-96.9308
-106.599
-116.603
-126.895
-137.412
-148.079
-158.81
-169.512
-180.083
89.4221
85.0946
80.7873
76.5487
72.4243
68.4548
64.675
61.1136
57.7926
54.7283
51.9317
49.4091
47.1632
45.1938
43.4982
42.072
40.9093
40.003
39.3445
38.9242
38.7309
38.7517
38.9716
39.3732
39.9363
40.638
41.4525
42.3517
43.3063
44.2868
45.265
46.2159
47.1184
47.9562
48.7166
49.3899
49.9667
50.4372
50.789
51.0078
51.0784
50.9862
50.7201
50.2747
49.6514
48.8581
47.9085
46.8185
45.604
44.2778
42.8479
41.3161
39.6788
37.9278
36.0522
34.0412
31.8857
29.5798
27.1211
24.5098
21.7473
18.8338
15.7671
12.5403
9.14157
5.55357
1.75427
-2.28196
-6.58263
-11.1754
-16.0865
-21.3394
-26.9542
-32.9483
-39.3362
-46.1303
-53.3418
-60.9798
-69.0516
-77.5604
-86.5041
-95.8729
-105.646
-115.792
-126.26
-136.989
-147.898
-158.893
-169.871
-180.719
89.5245
85.0011
80.501
76.0801
71.7903
67.6765
63.7762
60.1184
56.7243
53.6083
50.7786
48.2389
45.9892
44.0269
42.3474
40.9449
39.8126
38.9427
38.3272
37.9567
37.821
37.9082
38.2041
38.6921
39.3519
40.1598
41.088
42.105
43.1771
44.2698
45.3501
46.3895
47.3659
48.2643
49.0762
49.7969
50.4219
50.9442
51.3515
51.626
51.7467
51.6918
51.4442
50.9947
50.3456
49.5096
48.5081
47.3666
46.1095
44.7564
43.3182
41.7966
40.1844
38.4673
36.6278
34.6488
32.5172
30.2262
27.7755
25.1701
22.4177
19.5244
16.4929
13.3192
9.99194
6.49185
2.79301
-1.13556
-5.3273
-9.81538
-14.6301
-19.7974
-25.3381
-31.2687
-37.6028
-44.3528
-51.5308
-59.1493
-67.2203
-75.7544
-84.7576
-94.2286
-104.155
-114.509
-125.247
-136.301
-147.586
-158.996
-170.409
-181.694
89.6714
84.8699
80.0965
75.4192
70.899
66.5876
62.525
58.7405
55.253
52.0733
49.2054
46.6487
44.3992
42.4507
40.7959
39.4269
38.3358
37.5145
36.9551
36.6494
36.5885
36.7622
37.1583
37.7616
38.5526
39.5067
40.5936
41.7771
43.0164
44.2685
45.4919
46.6518
47.7234
48.6948
49.565
50.3393
51.0229
51.6146
52.1027
52.4637
52.6654
52.6729
52.4565
52.0002
51.3066
50.3971
49.3073
48.0789
46.7515
45.3554
43.9067
42.4059
40.8391
39.1814
37.4027
35.4747
33.377
31.101
28.6512
26.0413
23.2897
20.4133
17.4227
14.3187
11.0906
7.71599
4.16236
0.389783
-3.64511
-7.9846
-12.6656
-17.7172
-23.1596
-29.0068
-35.2693
-41.9573
-49.0836
-56.6646
-64.7198
-73.27
-82.3342
-91.9248
-102.043
-112.671
-123.771
-135.276
-147.089
-159.088
-171.124
-183.035
89.8739
84.6937
79.5497
74.528
69.7038
65.1368
60.8703
56.9318
53.3357
50.0866
47.1818
44.614
42.3736
40.4494
38.8307
37.5069
36.4685
35.7074
35.216
34.9878
35.0163
35.2942
35.8126
36.5591
37.5165
38.6605
39.9581
41.3669
42.8354
44.3064
45.7234
47.0389
48.2231
49.2689
50.1896
51.01
51.7538
52.432
53.0345
53.5284
53.8616
53.9739
53.8119
53.3451
52.5763
51.5421
50.3037
48.9316
47.4905
46.0281
44.5682
43.1084
41.623
40.0679
38.3911
36.5436
34.4918
32.2249
29.756
27.1153
24.3403
21.4657
18.515
15.4963
12.3996
9.19749
5.84672
2.29275
-1.52426
-5.66176
-10.1673
-15.0734
-20.3974
-26.146
-32.3216
-38.9289
-45.9797
-53.4949
-61.5039
-70.0428
-79.1496
-88.8583
-99.1912
-110.15
-121.708
-133.8
-146.321
-159.12
-172.012
-184.786
90.1493
84.4611
78.8226
73.3486
68.1345
63.2501
58.7401
54.6268
50.916
47.6015
44.6703
42.1059
39.8904
38.0066
36.439
35.1739
34.2005
33.51
33.0963
32.9551
33.0832
33.4783
34.1365
35.0512
36.21
37.5912
39.1608
40.8689
42.6487
44.4201
46.099
47.6128
48.9199
50.0209
50.9564
51.7886
52.577
53.3559
54.1205
54.822
55.3734
55.6674
55.6039
55.1227
54.2258
52.979
51.4906
49.8815
48.2581
46.6953
45.2273
43.846
42.5051
41.1281
39.6235
37.9051
35.9147
33.6384
31.1069
28.3814
25.5334
22.6265
19.7044
16.7852
13.8599
10.8925
7.82331
4.57428
1.05805
-2.80889
-7.09173
-11.8271
-17.0232
-22.6695
-28.751
-35.2605
-42.2055
-49.612
-57.5228
-65.9952
-75.0952
-84.8893
-95.4342
-106.763
-118.871
-131.704
-145.144
-159.012
-173.063
-187.011
90.5247
84.1527
77.8547
71.7915
66.0869
60.8215
56.0358
51.7398
47.9228
44.5618
41.6284
39.093
36.9274
35.1067
33.6097
32.4194
31.5232
30.9125
30.5827
30.5327
30.7644
31.2818
32.0896
33.1904
34.5814
36.249
38.1624
40.2656
42.4721
44.6652
46.7099
48.4825
49.9112
51.0089
51.8695
52.6282
53.4115
54.2981
55.2951
56.3292
57.2535
57.873
57.9951
57.4963
56.3768
54.7614
52.8491
50.8496
48.9366
47.2241
45.7593
44.5236
43.4374
42.3703
41.1619
39.6564
37.748
35.4181
32.7357
29.8226
26.8103
23.8081
20.8885
18.0824
15.3801
12.7334
10.0584
7.24026
4.14523
0.642892
-3.36432
-7.91719
-13.0001
-18.5653
-24.5632
-30.9634
-37.7654
-45.0008
-52.7307
-61.0414
-70.0383
-79.8361
-90.5446
-102.249
-114.987
-128.726
-143.348
-158.632
-174.255
-189.809
91.0437
83.7337
76.545
69.7143
63.4039
57.6992
52.6239
48.161
44.2708
40.9043
38.0115
35.5456
33.4661
31.739
30.3371
29.2399
28.4334
27.9092
27.6648
27.7032
28.0326
28.6658
29.6192
30.91
32.5527
34.5513
36.8888
39.5116
42.3131
45.1217
47.7105
49.8451
51.3771
52.3361
52.9271
53.4299
54.0949
55.079
56.4136
57.9923
59.57
60.7924
61.2776
60.7614
59.2394
56.9689
54.3309
51.691
49.3241
47.3941
45.9597
44.9842
44.34
43.8141
43.1266
41.986
40.1866
37.7038
34.6953
31.4056
28.0712
24.8699
21.9085
19.2293
16.8194
14.6146
12.4992
10.3045
7.81866
4.82155
1.14887
-3.24379
-8.2819
-13.8376
-19.7951
-26.0864
-32.6998
-39.6758
-47.1001
-55.0973
-63.8255
-73.4683
-84.2176
-96.2432
-109.655
-124.472
-140.591
-157.759
-175.54
-193.331
91.7792
83.1363
74.7164
66.8843
59.8455
53.6677
48.3276
43.755
39.8626
36.563
33.7778
31.4402
29.4958
27.9013
26.6241
25.6406
24.9356
24.5015
24.3382
24.4533
24.862
25.5876
26.6614
28.1216
30.0099
32.3641
35.2026
38.4987
42.1417
45.8928
49.3628
52.0735
53.6656
54.1908
54.1095
53.9955
54.3166
55.3524
57.1784
59.6541
62.3958
64.7705
65.9996
65.4724
63.1773
59.7032
55.8132
52.1371
49.0803
46.8484
45.4975
44.9656
45.0707
45.4887
45.7416
45.2628
43.6074
40.7449
37.0583
33.0516
29.1393
25.585
22.521
19.9878
17.9624
16.3663
15.0535
13.7874
12.2279
9.97275
6.69872
2.35909
-2.81816
-8.53062
-14.5458
-20.7447
-27.1106
-33.7037
-40.6429
-48.0984
-56.2932
-65.5045
-76.0491
-88.2371
-102.298
-118.337
-136.319
-155.996
-176.806
-197.819
92.8586
82.2134
72.0381
62.9084
55.0441
48.4266
42.9232
38.3671
34.5982
31.479
28.8978
26.7672
25.0199
23.6054
22.4869
21.6392
21.0466
20.7026
20.6097
20.7795
21.2339
22.0067
23.146
24.7153
26.795
29.478
32.8558
36.9844
41.8128
47.0664
52.1066
55.91
57.4882
56.9165
55.3364
53.9321
53.5065
54.4852
57.0052
60.9302
65.7471
70.3957
73.2479
72.7264
68.81
63.0339
56.9849
51.6893
47.6465
45.0315
43.8541
44.0276
45.3487
47.3989
49.4085
50.2319
48.7647
44.9708
39.8807
34.5602
29.6906
25.5928
22.368
20.0141
18.4865
17.7092
17.5399
17.6922
17.6384
16.5906
13.7827
9.16794
3.4163
-2.78751
-9.0313
-15.162
-21.1934
-27.2321
-33.4406
-40.0329
-47.2952
-55.6182
-65.5111
-77.5308
-92.0865
-109.401
-129.601
-152.596
-177.772
-203.677
94.5231
80.6093
67.8499
57.1074
48.4449
41.5796
36.1532
31.8442
28.3968
25.6186
23.3677
21.5409
20.0635
18.882
17.9589
17.2692
16.7984
16.5413
16.502
16.6949
17.1461
17.8973
19.0101
20.573
22.7101
25.5897
29.4266
34.4604
40.8699
48.545
56.629
62.9483
64.4042
61.0914
56.3078
52.4567
50.6721
51.3961
54.8066
60.9192
69.3383
78.6045
85.3511
84.8658
77.1177
66.7546
57.0693
49.4352
44.1548
41.143
40.2636
41.4352
44.5749
49.3658
54.7814
58.4974
57.2702
51.0613
43.0332
35.418
29.1294
24.3424
20.9602
18.8497
17.9293
18.1758
19.5624
21.8931
24.4795
25.742
23.4678
17.6134
10.3016
3.01317
-3.67941
-9.72151
-15.2647
-20.5149
-25.6842
-31.0011
-36.7679
-43.469
-51.9078
-63.1698
-77.8988
-96.3056
-118.852
-146.049
-177.683
-211.617
97.2702
77.3388
60.7542
48.3086
39.2555
32.658
27.7721
24.0786
21.2306
18.9976
17.2257
15.8103
14.68
13.7856
13.0939
12.5833
12.2417
12.0655
12.0593
12.2373
12.6256
13.2663
14.2251
15.6028
17.555
20.3219
24.2724
29.954
38.1028
49.4326
63.69
76.9868
78.1841
67.3815
55.934
48.0032
44.2231
44.4361
48.7145
57.5843
71.7067
90.4379
107.865
107.46
89.1877
69.4966
54.1978
43.7892
37.3944
34.1817
33.7181
36.0068
41.4217
50.4307
62.5995
73.8786
72.9471
59.7693
45.5893
34.364
26.4046
21.0679
17.7203
15.9706
15.691
17
20.2246
25.7245
33.226
39.9852
38.3074
28.1567
17.1529
7.95564
0.73578
-4.99927
-9.75729
-13.9135
-17.7142
-21.3205
-24.8937
-28.8159
-34.237
-43.8137
-58.4122
-77.2451
-101.403
-133.108
-174.272
-223.009
102.222
69.2461
47.6953
34.6213
26.5281
21.2704
17.6725
15.0944
13.1776
11.7119
10.5694
9.66843
8.956
8.39679
7.96748
7.65333
7.44628
7.34418
7.35073
7.47652
7.74105
8.17672
8.83602
9.80461
11.2259
13.349
16.6241
21.8933
30.7533
46.1019
72.1316
108.445
109.24
74.5971
50.4936
37.5707
32.0218
31.6202
36.0084
46.6832
67.4352
104.146
156.051
155.778
103.297
65.9107
44.2821
32.3617
26.0504
23.2602
23.2079
26.075
33.0912
46.9434
71.6961
106.84
106.256
69.9179
43.8886
28.6058
19.902
14.9281
12.1784
10.9741
11.1643
13.065
17.6093
26.6724
43.0401
66.3759
65.3462
39.9271
21.4022
10.0502
3.01279
-1.68378
-5.11623
-7.82333
-10.0234
-11.6869
-12.5157
-12.0034
-10.5808
-17.2247
-32.8255
-50.5133
-73.0833
-106.542
-159.948
-240.744
111.997
44.6973
22.4278
13.7601
9.71616
7.49164
6.10332
5.15751
4.4741
3.9605
3.56451
3.25463
3.01094
2.82049
2.67486
2.56878
2.49942
2.46606
2.47014
2.51557
2.60966
2.76471
3.00123
3.35407
3.88569
4.71659
6.10344
8.6611
14.0587
27.3885
65.7614
191.044
191.324
66.6318
28.9508
16.5181
12.4069
11.9055
14.2483
21.2689
40.1802
95.9691
279.367
279.27
95.6664
39.6303
20.3848
12.8555
9.63467
8.39529
8.49293
10.1673
14.9155
27.7574
65.8268
191.245
191.045
65.2194
26.7112
13.3724
8.02737
5.58494
4.41089
3.96883
4.17414
5.32247
8.4862
17.1006
42.8182
127.85
127.503
41.768
15.3214
5.93135
1.91879
-0.188568
-1.51949
-2.46302
-3.10491
-3.25459
-2.06871
3.49892
24.6916
22.2631
-4.23222
-16.749
-29.0807
-51.2445
-106.179
-271.243
-190.976
-202.772
-213.966
-224.443
-234.111
-242.909
-250.796
-257.758
-263.793
-268.912
-273.133
-276.477
-278.965
-280.613
-281.433
-191.431
-203.365
-214.676
-225.242
-234.973
-243.809
-251.713
-258.675
-264.698
-269.799
-274
-277.324
-279.794
-281.429
-282.243
-192.356
-204.575
-216.121
-226.868
-236.723
-245.63
-253.563
-260.52
-266.517
-271.577
-275.732
-279.013
-281.446
-283.056
-283.856
-193.787
-206.449
-218.359
-229.376
-239.411
-248.416
-256.379
-263.317
-269.26
-274.25
-278.329
-281.538
-283.913
-285.48
-286.258
-195.779
-209.067
-221.479
-232.859
-243.12
-252.233
-260.211
-267.097
-272.947
-277.823
-281.786
-284.888
-287.176
-288.681
-289.428
-198.422
-212.555
-225.622
-237.452
-247.969
-257.175
-265.126
-271.902
-277.596
-282.299
-286.091
-289.043
-291.209
-292.63
-293.334
-201.851
-217.099
-230.994
-243.347
-254.117
-263.364
-271.204
-277.778
-283.226
-287.673
-291.227
-293.972
-295.976
-297.286
-297.933
-206.279
-222.989
-237.897
-250.817
-261.78
-270.948
-278.537
-284.769
-289.845
-293.93
-297.158
-299.631
-301.425
-302.593
-303.169
-212.044
-230.671
-246.779
-260.235
-271.229
-280.101
-287.218
-292.908
-297.443
-301.032
-303.832
-305.957
-307.488
-308.481
-308.969
-219.71
-240.864
-258.305
-272.104
-282.788
-290.998
-297.313
-302.191
-305.976
-308.912
-311.17
-312.865
-314.079
-314.862
-315.246
-230.282
-254.762
-273.462
-287.078
-296.811
-303.779
-308.831
-312.556
-315.346
-317.458
-319.056
-320.243
-321.087
-321.629
-321.895
-245.709
-274.429
-293.693
-305.922
-313.588
-318.465
-321.664
-323.842
-325.383
-326.508
-327.34
-327.951
-328.384
-328.662
-328.798
-270.244
-303.539
-320.949
-329.317
-333.143
-334.817
-335.504
-335.754
-335.826
-335.836
-335.83
-335.825
-335.823
-335.824
-335.825
-314.667
-348.525
-357.233
-357.239
-354.84
-352.143
-349.765
-347.832
-346.32
-345.167
-344.307
-343.681
-343.247
-342.973
-342.841
-411.529
-418.647
-402.207
-387.55
-376.823
-369.136
-363.566
-359.474
-356.443
-354.194
-352.534
-351.331
-350.496
-349.969
-349.713
176.885
176.653
176.193
175.513
174.627
173.568
172.388
171.19
170.156
169.625
170.238
173.288
181.776
204.459
274.877
181.263
181.039
180.592
179.927
179.055
177.998
176.801
175.549
174.41
173.708
174.07
176.714
183.958
199.76
226.594
185.791
185.573
185.136
184.479
183.605
182.521
181.245
179.823
178.354
177.046
176.313
176.938
180.191
187.392
197.031
190.465
190.253
189.825
189.176
188.295
187.17
185.785
184.125
182.182
179.977
177.606
175.331
173.676
173.325
174.247
195.281
195.077
194.663
194.026
193.147
191.992
190.509
188.616
186.185
183.016
178.826
173.289
166.25
158.367
152.192
200.232
200.04
199.648
199.039
198.185
197.036
195.512
193.476
190.694
186.758
180.977
172.282
159.404
142.218
125.937
205.31
205.135
204.776
204.216
203.42
202.333
200.863
198.848
195.999
191.774
185.144
174.175
155.545
125.435
88.4644
210.502
210.351
210.039
209.549
208.85
207.89
206.586
204.794
202.252
198.452
192.32
181.382
159.652
113.411
25.4081
215.794
215.671
215.418
215.02
214.453
213.678
212.641
211.252
209.372
206.745
202.826
196.076
180.777
130.383
-98.6689
221.164
221.075
220.891
220.602
220.192
219.643
218.932
218.046
217.003
215.927
215.29
216.701
226.266
271.419
497.08
226.59
226.537
226.428
226.259
226.021
225.712
225.339
224.943
224.647
224.799
226.325
231.654
247.035
287.093
370.848
232.046
232.031
232.001
231.955
231.891
231.818
231.756
231.762
231.972
232.708
234.713
239.619
250.66
272.411
302.889
237.504
237.528
237.578
237.654
237.761
237.908
238.118
238.431
238.924
239.729
241.077
243.316
246.838
251.66
256.205
242.938
243.001
243.128
243.323
243.593
243.947
244.401
244.969
245.65
246.364
246.815
246.114
242.104
231.094
212.79
248.321
248.421
248.623
248.933
249.357
249.908
250.596
251.423
252.342
253.174
253.346
251.201
242.225
215.584
156.777
253.628
253.763
254.036
254.453
255.026
255.766
256.689
257.803
259.087
260.433
261.478
261.022
254.604
222.404
60.0411
258.833
259
259.339
259.858
260.568
261.487
262.64
264.057
265.78
267.892
270.644
274.974
284.881
319.606
483.072
263.913
264.111
264.51
265.12
265.955
267.038
268.4
270.091
272.194
274.898
278.707
285.043
297.914
327.394
387.343
268.849
269.073
269.525
270.216
271.162
272.386
273.925
275.829
278.18
281.127
285.005
290.564
299.404
314.013
333.373
273.621
273.868
274.366
275.126
276.165
277.507
279.188
281.249
283.741
286.702
290.127
293.796
296.879
297.321
292.976
278.215
278.48
279.015
279.832
280.947
282.385
284.178
286.363
288.964
291.947
295.07
297.424
296.179
283.943
249.692
282.615
282.895
283.46
284.321
285.495
287.005
288.887
291.178
293.912
297.084
300.537
303.542
303.103
285.845
182.752
286.813
287.104
287.691
288.583
289.798
291.36
293.303
295.676
298.546
302.017
306.306
312.04
321.696
347.345
455.675
290.801
291.099
291.699
292.612
293.851
295.439
297.412
299.821
302.752
306.371
311.063
317.804
329.173
351.418
392.64
294.572
294.874
295.482
296.403
297.65
299.242
301.208
303.594
306.47
309.97
314.386
320.344
329.088
342.3
358.37
298.126
298.429
299.037
299.957
301.199
302.775
304.705
307.017
309.742
312.924
316.629
320.939
325.889
331.185
335.401
301.46
301.762
302.366
303.279
304.504
306.051
307.929
310.144
312.687
315.504
318.442
321.079
322.438
320.81
315.499
304.576
304.874
305.472
306.372
307.576
309.088
310.909
313.034
315.428
317.991
320.453
322.096
321.053
312.982
292.049
307.476
307.77
308.359
309.243
310.423
311.899
313.67
315.727
318.041
320.536
323.025
324.967
324.537
314.076
254.204
310.162
310.452
311.03
311.898
313.054
314.496
316.223
318.232
320.517
323.077
325.966
329.473
334.978
349.473
411.486
312.638
312.923
313.491
314.343
315.474
316.884
318.57
320.536
322.79
325.378
328.469
332.579
339.166
351.86
375.415
314.907
315.187
315.746
316.581
317.69
319.069
320.715
322.629
324.819
327.319
330.256
333.953
339.104
346.693
355.847
316.973
317.249
317.798
318.619
319.708
321.058
322.665
324.522
326.62
328.946
331.504
334.305
337.338
340.428
342.783
318.838
319.11
319.652
320.46
321.532
322.858
324.432
326.239
328.25
330.402
332.574
334.484
335.522
334.661
331.502
320.505
320.774
321.309
322.108
323.166
324.476
326.028
327.805
329.768
331.834
333.817
335.258
335.014
330.48
318.173
321.977
322.243
322.773
323.566
324.615
325.915
327.459
329.231
331.204
333.312
335.425
337.189
337.476
331.685
296.445
323.254
323.518
324.045
324.833
325.878
327.175
328.721
330.51
332.532
334.778
337.266
340.136
344.147
353.331
390.335
324.338
324.601
325.126
325.911
326.954
328.252
329.805
331.616
333.693
336.064
338.83
342.279
347.215
355.646
370.13
325.23
325.492
326.015
326.799
327.841
329.14
330.7
332.527
334.637
337.066
339.91
343.376
347.846
353.745
360.133
325.93
326.192
326.714
327.496
328.537
329.837
331.4
333.232
335.348
337.769
340.548
343.764
347.475
351.493
354.722
326.44
326.701
327.222
328.003
329.042
330.341
331.902
333.731
335.833
338.212
340.873
343.798
346.878
349.778
351.704
326.759
327.019
327.539
328.318
329.355
330.652
332.21
334.031
336.115
338.448
341.005
343.711
346.396
348.728
350.173
326.888
327.147
327.665
328.442
329.477
330.771
332.324
334.139
336.21
338.517
341.022
343.629
346.148
348.282
349.796
326.827
327.085
327.602
328.376
329.408
330.698
332.248
334.06
336.129
338.439
340.957
343.595
346.158
348.254
349.097
326.577
326.834
327.349
328.12
329.148
330.434
331.981
333.792
335.869
338.207
340.798
343.602
346.482
349.085
350.657
326.139
326.395
326.907
327.674
328.697
329.978
331.52
333.329
335.414
337.787
340.482
343.543
346.989
350.62
353.458
325.515
325.769
326.277
327.04
328.057
329.33
330.864
332.666
334.748
337.135
339.9
343.204
347.356
352.696
358.379
324.704
324.956
325.46
326.217
327.226
328.49
330.012
331.798
333.857
336.209
338.934
342.267
346.886
354.522
367.395
323.709
323.958
324.458
325.208
326.208
327.461
328.968
330.732
332.75
335.013
337.536
340.424
344.311
352.699
385.501
322.531
322.778
323.271
324.013
325.003
326.244
327.737
329.48
331.459
333.628
335.873
337.875
338.599
333.911
303.072
321.172
321.416
321.903
322.635
323.613
324.841
326.322
328.055
330.025
332.178
334.37
336.202
336.636
333.271
322.834
319.636
319.875
320.354
321.074
322.039
323.253
324.722
326.455
328.452
330.692
333.107
335.488
337.301
337.533
335.493
317.924
318.158
318.627
319.333
320.28
321.476
322.931
324.663
326.698
329.072
331.858
335.158
339.054
343.361
346.879
316.041
316.269
316.725
317.414
318.338
319.508
320.938
322.652
324.696
327.157
330.243
334.403
340.512
349.725
360.853
313.991
314.211
314.653
315.319
316.215
317.35
318.737
320.404
322.392
324.798
327.873
332.282
339.803
354.747
382.698
311.779
311.991
312.415
313.055
313.916
315.005
316.335
317.922
319.786
321.963
324.566
327.989
333.93
350.726
424.096
309.412
309.613
310.017
310.627
311.447
312.484
313.746
315.239
316.951
318.824
320.679
321.936
320.508
307.407
236.038
306.896
307.086
307.466
308.042
308.816
309.795
310.988
312.395
313.993
315.687
317.199
317.736
315.183
304.541
279.103
304.24
304.416
304.772
305.308
306.032
306.95
308.072
309.409
310.957
312.667
314.387
315.672
315.466
311.941
304.638
301.452
301.615
301.941
302.435
303.102
303.952
304.999
306.269
307.796
309.632
311.868
314.634
318.043
321.955
325.235
298.543
298.69
298.985
299.432
300.036
300.806
301.763
302.942
304.409
306.308
308.973
313.137
320.263
332.397
348.243
295.523
295.654
295.915
296.31
296.843
297.522
298.365
299.405
300.711
302.444
305.027
309.573
318.996
340.25
382.388
292.405
292.518
292.743
293.082
293.538
294.115
294.823
295.676
296.705
297.979
299.711
302.612
309.504
333.59
445.926
289.201
289.295
289.483
289.764
290.14
290.609
291.17
291.817
292.519
293.187
293.573
292.869
288.062
265.634
154.107
285.923
285.998
286.148
286.372
286.666
287.029
287.451
287.911
288.345
288.583
288.183
285.967
278.849
259.544
218.459
282.586
282.642
282.754
282.92
283.136
283.398
283.698
284.016
284.298
284.412
284.046
282.46
278.092
268.57
254.402
279.201
279.239
279.314
279.424
279.565
279.733
279.925
280.137
280.357
280.567
280.749
280.874
280.905
280.815
280.625
275.783
275.803
275.842
275.897
275.964
276.042
276.132
276.244
276.412
276.733
277.484
279.345
283.793
293.122
306.834
272.343
272.346
272.35
272.352
272.348
272.335
272.316
272.305
272.351
272.593
273.44
276.01
283.284
302.376
342.683
268.893
268.88
268.851
268.802
268.728
268.624
268.487
268.32
268.143
268.024
268.191
269.401
274.558
296.887
406.64
265.446
265.417
265.358
265.262
265.121
264.928
264.671
264.334
263.887
263.25
262.21
260.041
253.901
230.676
120.247
262.011
261.969
261.882
261.743
261.542
261.268
260.903
260.418
259.752
258.748
257.005
253.431
245.101
225.017
183.956
258.599
258.545
258.434
258.259
258.006
257.663
257.211
256.622
255.843
254.751
253.066
250.114
244.457
233.92
219.256
255.217
255.154
255.024
254.819
254.525
254.127
253.608
252.952
252.141
251.158
250
248.67
247.194
245.681
244.477
251.872
251.803
251.66
251.433
251.107
250.666
250.094
249.383
248.55
247.681
247.046
247.318
249.95
257.222
268.964
248.568
248.496
248.346
248.107
247.762
247.29
246.67
245.892
244.975
244.035
243.456
244.319
249.477
265.65
301.707
245.307
245.236
245.087
244.847
244.497
244.008
243.35
242.49
241.408
240.13
238.858
238.331
241.348
260.261
359.59
242.09
242.023
241.884
241.657
241.319
240.837
240.164
239.237
237.967
236.216
233.736
229.874
222.175
199.021
96.957
238.912
238.855
238.735
238.537
238.235
237.791
237.148
236.217
234.853
232.801
229.568
224.074
213.728
192.573
153.13
235.767
235.725
235.634
235.481
235.241
234.876
234.326
233.492
232.21
230.198
226.965
221.638
212.782
198.822
182
232.645
232.622
232.569
232.478
232.327
232.083
231.695
231.072
230.067
228.437
225.809
221.647
215.375
207.053
199.278
229.534
229.532
229.526
229.509
229.469
229.385
229.22
228.911
228.35
227.364
225.714
223.113
219.386
214.899
211.243
226.418
226.44
226.483
226.549
226.635
226.737
226.841
226.92
226.919
226.746
226.274
225.356
223.92
222.163
220.757
223.281
223.326
223.419
223.568
223.784
224.08
224.473
224.978
225.601
226.331
227.137
227.951
228.67
229.177
229.38
220.108
220.173
220.31
220.534
220.869
221.349
222.022
222.948
224.201
225.857
227.989
230.607
233.563
236.396
238.231
216.884
216.964
217.134
217.416
217.847
218.479
219.39
220.687
222.513
225.047
228.497
233.021
238.534
244.304
248.441
213.599
213.686
213.874
214.189
214.678
215.409
216.484
218.053
220.326
223.595
228.253
234.741
243.321
253.338
261.61
210.248
210.333
210.519
210.836
211.334
212.093
213.231
214.925
217.44
221.173
226.732
235.003
247.104
263.576
280.61
206.831
206.905
207.068
207.35
207.803
208.507
209.585
211.222
213.702
217.478
223.321
232.598
247.846
273.416
311.523
203.359
203.411
203.528
203.739
204.091
204.657
205.547
206.928
209.055
212.342
217.519
226.04
241.413
274.544
368.983
-680.464
-504.508
-441.785
-411.716
-394.178
-382.758
-374.846
-369.162
-364.996
-361.915
-359.643
-357.993
-356.845
-356.119
-355.767
-575.393
-503.914
-455.077
-424.971
-405.697
-392.694
-383.542
-376.906
-372.008
-368.365
-365.662
-363.692
-362.315
-361.442
-361.018
-520.107
-487.584
-455.348
-430.694
-412.852
-399.946
-390.48
-383.434
-378.14
-374.15
-371.162
-368.967
-367.425
-366.443
-365.965
-487.556
-471.04
-450.341
-431.673
-416.568
-404.798
-395.724
-388.735
-383.356
-379.231
-376.101
-373.779
-372.136
-371.085
-370.572
-466.624
-457.39
-443.912
-430.167
-417.957
-407.767
-399.508
-392.91
-387.693
-383.611
-380.466
-378.108
-376.426
-375.344
-374.814
-452.255
-446.674
-437.655
-427.583
-417.934
-409.385
-402.126
-396.115
-391.231
-387.33
-384.275
-381.957
-380.288
-379.209
-378.678
-441.914
-438.333
-432.119
-424.692
-417.137
-410.096
-403.864
-398.529
-394.079
-390.449
-387.562
-385.343
-383.732
-382.683
-382.166
-434.209
-431.811
-427.412
-421.878
-415.974
-410.233
-404.965
-400.319
-396.347
-393.042
-390.373
-388.296
-386.775
-385.778
-385.284
-428.322
-426.665
-423.481
-419.311
-414.687
-410.03
-405.623
-401.631
-398.141
-395.185
-392.76
-390.852
-389.442
-388.513
-388.051
-423.736
-422.57
-420.224
-417.047
-413.412
-409.643
-405.981
-402.585
-399.555
-396.946
-394.777
-393.052
-391.766
-390.913
-390.489
-420.112
-419.283
-417.531
-415.089
-412.22
-409.172
-406.141
-403.273
-400.669
-398.392
-396.475
-394.935
-393.778
-393.007
-392.621
-417.215
-416.626
-415.306
-413.415
-411.143
-408.677
-406.176
-403.767
-401.545
-399.576
-397.9
-396.54
-395.511
-394.822
-394.476
-414.879
-414.465
-413.467
-411.996
-410.19
-408.194
-406.136
-404.12
-402.236
-400.547
-399.093
-397.904
-396.998
-396.389
-396.082
-412.983
-412.699
-411.944
-410.797
-409.36
-407.744
-406.052
-404.373
-402.783
-401.342
-400.091
-399.059
-398.269
-397.735
-397.465
-411.434
-411.251
-410.682
-409.787
-408.643
-407.336
-405.948
-404.552
-403.217
-401.995
-400.924
-400.036
-399.352
-398.887
-398.652
-410.165
-410.059
-409.636
-408.939
-408.029
-406.973
-405.837
-404.68
-403.562
-402.53
-401.62
-400.86
-400.27
-399.869
-399.666
-409.122
-409.076
-408.767
-408.229
-407.507
-406.655
-405.727
-404.771
-403.839
-402.971
-402.2
-401.552
-401.048
-400.703
-400.528
-408.264
-408.265
-408.046
-407.634
-407.064
-406.38
-405.623
-404.835
-404.06
-403.333
-402.683
-402.134
-401.704
-401.41
-401.26
-407.556
-407.595
-407.449
-407.139
-406.691
-406.143
-405.529
-404.881
-404.238
-403.631
-403.085
-402.621
-402.256
-402.005
-401.877
-406.974
-407.043
-406.955
-406.726
-406.379
-405.942
-405.444
-404.913
-404.381
-403.876
-403.418
-403.027
-402.718
-402.505
-402.396
-406.496
-406.589
-406.548
-406.385
-406.118
-405.772
-405.371
-404.936
-404.497
-404.076
-403.693
-403.363
-403.103
-402.922
-402.829
-406.105
-406.217
-406.214
-406.103
-405.902
-405.631
-405.307
-404.952
-404.589
-404.239
-403.918
-403.641
-403.421
-403.267
-403.189
-405.788
-405.916
-405.942
-405.874
-405.725
-405.513
-405.254
-404.963
-404.663
-404.371
-404.102
-403.868
-403.681
-403.551
-403.483
-405.535
-405.675
-405.724
-405.69
-405.583
-405.418
-405.21
-404.971
-404.721
-404.477
-404.249
-404.051
-403.891
-403.78
-403.722
-405.337
-405.486
-405.553
-405.545
-405.47
-405.343
-405.174
-404.976
-404.766
-404.559
-404.365
-404.195
-404.057
-403.961
-403.911
-405.187
-405.343
-405.424
-405.435
-405.384
-405.285
-405.146
-404.979
-404.8
-404.621
-404.453
-404.304
-404.184
-404.099
-404.055
-405.08
-405.241
-405.331
-405.356
-405.322
-405.242
-405.125
-404.98
-404.823
-404.665
-404.516
-404.383
-404.275
-404.198
-404.159
-405.014
-405.178
-405.274
-405.307
-405.283
-405.215
-405.111
-404.98
-404.836
-404.692
-404.555
-404.432
-404.332
-404.262
-404.225