/*--------------------------------*- C++ -*----------------------------------*\
| =========                 |                                                 |
| \\      /  F ield         | OpenFOAM: The Open Source CFD Toolbox           |
|  \\    /   O peration     | Version:  5.x                                   |
|   \\  /    A nd           | Web:      www.OpenFOAM.org                      |
|    \\/     M anipulation  |                                                 |
\*---------------------------------------------------------------------------*/
FoamFile
{
    version     2.0;
    format      ascii;
    class       volScalarField;
    location    "3.9";
    object      gradTy;
}
// * * * * * * * * * * * * * * * * * * * * * * * * * * * * * * * * * * * * * //

dimensions      [0 -1 0 1 0 0 0];

internalField   nonuniform List<scalar> 
6300
(
2522.12
5562.04
8588.96
11594.2
14568.9
17504.2
20391.2
23220.9
25984.1
28672.1
31276.1
33788
36200.1
38506
40700.2
6.41514
19.2711
32.2009
45.2421
58.4139
71.7079
85.0784
98.4319
111.617
124.417
136.549
147.67
157.395
165.334
171.131
10.6631
32.0361
53.5439
75.2578
97.2198
119.427
141.815
164.239
186.455
208.103
228.703
247.662
264.303
277.928
287.891
14.8639
44.6651
74.679
105.023
135.778
166.962
198.512
230.25
261.854
292.83
322.491
349.962
374.22
394.175
408.804
18.9911
57.08
95.4811
134.376
173.902
214.126
255.014
296.387
337.874
378.864
418.459
455.466
488.426
515.733
535.828
23.011
69.1809
115.787
163.094
211.323
260.621
311.025
362.401
414.382
466.28
517.003
565.001
608.27
644.487
671.296
26.8824
80.8436
135.388
190.885
247.667
306.003
366.052
427.8
490.961
554.854
618.254
679.243
735.145
782.622
818.09
30.5569
91.9209
154.033
217.386
282.451
349.663
419.371
491.771
566.791
643.904
721.894
798.551
870.416
932.741
979.963
33.9805
102.247
171.434
242.167
315.081
390.815
469.983
553.109
640.507
732.056
826.841
922.622
1015.2
1097.93
1162.04
37.0973
111.649
187.284
264.759
344.881
428.522
516.621
610.156
710.049
816.947
930.763
1049.87
1169.79
1281.71
1371.65
39.8555
119.965
201.29
284.697
371.152
461.757
557.806
660.824
772.564
894.89
1029.37
1176.25
1332.35
1487.43
1619.81
42.2138
127.064
213.206
301.58
393.261
489.534
592.005
702.747
824.465
960.652
1115.54
1293.38
1495.91
1715.78
1923.35
44.148
132.868
222.884
315.148
410.765
511.095
617.915
733.67
861.871
1007.68
1178.72
1385.77
1642.06
1956.37
2305.95
45.6574
137.372
230.307
325.354
423.545
526.151
634.869
752.124
881.638
1029.46
1205.86
1428.88
1730.15
2161.62
2780.5
46.7661
140.652
235.611
332.409
431.895
535.079
643.263
758.294
883.072
1022.61
1186.36
1393.67
1687.99
2179.38
3193.97
42605.6
44255.8
45823.8
47309.7
48714.8
50040.8
51290.4
52466.6
53573.2
54614.1
55593.5
56516
57386.1
58208.4
58987.4
59727.6
60433.5
61109.3
61759
62386.6
62995.7
63589.8
64172.1
64745.4
65312.4
65875.4
66436.1
66996.1
67556.6
68118.3
68681.6
69246.5
69812.8
70379.9
70947.3
71514.1
72079.4
72642.1
73201
73755
74302.8
74843
75374.1
75894.7
76403.3
76898.4
77378.6
77842.8
78289.6
78718.1
79127.1
79515.8
79883
80227.7
80548.9
80845.3
81115.6
81358.5
81572.4
81755.9
81907.2
82024.7
82106.6
82150.9
82155.5
82118.1
82036.1
81906.6
81726.6
81492.7
81201.1
80847.9
80428.7
79939.1
79374.4
78729.5
77999.5
77179
76262.9
75245.7
74122.2
72887.2
71535.9
70063.7
68466.7
66741.5
64885.8
62898.1
60778.1
58526.7
174.233
175.281
174.539
172.061
167.963
162.412
155.612
147.783
139.147
129.919
120.293
110.443
100.516
90.6363
80.9045
71.4044
62.2047
53.3641
44.9352
36.9677
29.5115
22.6181
16.3418
10.7377
5.85976
1.75576
-1.53847
-4.00575
-5.65369
-6.51878
-6.66653
-6.18666
-5.18316
-3.76109
-2.01291
-0.00833474
2.2097
4.62177
7.2225
10.0078
12.962
16.0496
19.2129
22.3775
25.4643
28.4041
31.151
33.6915
36.0464
38.2664
40.4223
42.593
44.8522
47.2588
49.8497
52.6398
55.6259
58.7957
62.1384
65.6548
69.3637
73.3048
77.5367
82.1314
87.1663
92.7154
98.841
105.587
112.975
121.003
129.649
138.874
148.631
158.866
169.518
180.524
191.807
203.27
214.79
226.208
237.322
247.887
257.616
266.188
273.264
278.51
281.619
282.345
280.52
276.082
293.211
294.984
293.663
289.346
282.248
272.674
260.989
247.584
232.85
217.158
200.84
184.187
167.445
150.816
134.463
118.519
103.092
88.274
74.1462
60.7873
48.2776
36.7024
26.1536
16.7279
8.522
1.62521
-3.8922
-7.99182
-10.68
-12.0174
-12.1209
-11.1556
-9.31607
-6.79877
-3.77397
-0.364173
3.36418
7.39361
11.7355
16.403
21.3837
26.6216
32.0117
37.4116
42.6661
47.6383
52.238
56.4391
60.2834
63.8706
67.3386
70.8388
74.5108
78.4623
82.7566
87.4111
92.4067
97.7062
103.276
109.106
115.224
121.699
128.637
136.172
144.445
153.594
163.734
174.943
187.258
200.673
215.143
230.596
246.945
264.096
281.955
300.421
319.379
338.683
358.138
377.49
396.407
414.474
431.2
446.027
458.355
467.584
473.162
474.633
471.691
464.216
416.594
419.137
417.095
410.63
400.093
385.971
368.837
349.293
327.929
305.293
281.865
258.058
234.21
210.597
187.433
164.891
143.106
122.193
102.253
83.3879
65.7022
49.3136
34.3536
20.9669
9.30508
-0.485464
-8.28109
-14.0037
-17.6448
-19.286
-19.1071
-17.3765
-14.4179
-10.5602
-6.08245
-1.17184
4.0919
9.72217
15.7864
22.3534
29.4414
36.9806
44.8026
52.6612
60.2803
67.4149
73.9048
79.7062
84.8962
89.6519
94.214
98.8424
103.772
109.177
115.15
121.696
128.755
136.232
144.043
152.147
160.574
169.429
178.884
189.151
200.466
213.05
227.089
242.707
259.96
278.826
299.223
321.029
344.102
368.306
393.516
419.609
446.451
473.872
501.631
529.394
556.707
582.986
607.513
629.454
647.897
661.908
670.61
673.268
669.377
658.734
546.493
549.873
546.872
537.757
523.078
503.584
480.131
453.598
424.818
394.541
363.412
331.962
300.616
269.707
239.488
210.151
181.845
154.69
128.796
104.272
81.2423
59.8512
40.2722
22.7068
7.37836
-5.48367
-15.6698
-23.0273
-27.5039
-29.1897
-28.3424
-25.3803
-20.8291
-15.2294
-9.02928
-2.50329
4.2763
11.4101
19.0973
27.5373
36.8325
46.9152
57.5235
68.238
78.5743
88.1017
96.5445
103.835
110.116
115.693
120.975
126.393
132.328
139.055
146.696
155.222
164.48
174.258
184.366
194.7
205.285
216.276
227.935
240.601
254.636
270.388
288.144
308.095
330.312
354.748
381.25
409.609
439.604
471.042
503.775
537.686
572.661
608.543
645.087
681.912
718.464
753.987
787.514
817.883
843.785
863.841
876.726
881.298
876.752
862.748
685.466
689.779
685.435
672.876
652.974
626.877
595.843
561.118
523.842
484.998
445.402
405.696
366.375
327.807
290.256
253.912
218.911
185.36
153.353
122.995
94.4116
67.7693
43.2818
21.2167
1.89168
-14.3431
-27.1392
-36.2066
-41.389
-42.748
-40.6301
-35.6793
-28.7575
-20.7705
-12.4529
-4.20762
3.94272
12.2931
21.3157
31.4813
43.0805
56.0834
70.0817
84.3491
98.0224
110.34
120.832
129.409
136.336
142.147
147.528
153.184
159.734
167.602
176.955
187.681
199.442
211.795
224.347
236.878
249.398
262.143
275.523
290.061
306.317
324.824
346.021
370.199
397.452
427.673
460.583
495.812
533.004
571.889
612.313
654.207
697.538
742.234
788.108
834.793
881.671
927.829
972.029
1012.71
1048.05
1076.06
1094.77
1102.42
1097.71
1080.06
836.752
842.124
835.798
818.54
791.768
757.253
716.848
672.293
625.103
576.524
527.531
478.859
431.036
384.427
339.273
295.726
253.879
213.794
175.527
139.152
104.779
72.5777
42.7969
15.7757
-8.04988
-28.1584
-43.982
-54.9841
-60.7834
-61.3163
-57.0009
-48.8202
-38.2236
-26.7917
-15.7766
-5.77962
3.31645
12.2034
21.8835
33.3561
47.302
63.8126
82.246
101.309
119.416
135.198
147.87
157.349
164.153
169.216
173.675
178.683
185.232
194.003
205.228
218.64
233.541
249.036
264.349
279.059
293.176
307.082
321.433
337.035
354.744
375.371
399.593
427.858
460.302
496.71
536.557
579.17
623.945
670.501
718.71
768.635
820.425
874.201
929.936
987.366
1045.88
1104.46
1161.57
1215.2
1262.83
1301.65
1328.72
1341.29
1337.26
1315.59
1004.7
1011.29
1001.88
977.88
941.689
896.09
843.812
787.25
728.358
668.64
609.198
550.799
493.948
438.953
385.979
335.097
286.315
239.617
194.987
152.435
112.028
73.9128
38.3509
5.74619
-23.33
-48.1293
-67.7526
-81.2383
-87.7455
-86.8507
-78.922
-65.4244
-48.877
-32.1974
-17.619
-6.03928
3.0061
10.9863
19.8846
31.6843
47.8449
68.7877
93.5177
119.659
144.172
164.546
179.521
189.154
194.491
197.165
199.044
201.973
207.547
216.881
230.363
247.466
266.798
286.549
305.228
322.107
337.265
351.391
365.55
380.983
398.976
420.75
447.349
479.504
517.451
560.799
608.55
659.414
712.323
766.734
822.633
880.372
940.45
1003.34
1069.32
1138.36
1210
1283.18
1356.13
1426.29
1490.29
1544.15
1583.51
1604.04
1602.19
1576
1195.52
1203.45
1188.93
1154.76
1105.13
1044.52
976.919
905.538
832.781
760.343
689.35
620.499
554.18
490.562
429.671
371.439
315.749
262.463
211.455
162.634
115.981
71.5769
29.6537
-9.35662
-44.7599
-75.5441
-100.351
-117.531
-125.356
-122.503
-108.851
-86.41
-59.7103
-34.5676
-15.1337
-2.63977
4.23909
8.45597
13.7161
23.7409
41.5095
68.3171
102.765
140.361
174.897
201.673
218.87
227.149
228.671
226.264
222.907
221.459
224.451
233.791
250.289
273.089
299.454
325.608
348.7
367.638
382.843
395.655
407.831
421.246
437.766
459.178
487.106
522.807
566.82
618.544
676.056
736.708
798.53
860.811
923.897
988.725
1056.42
1128
1204.27
1285.6
1371.87
1462.2
1554.69
1646.21
1732.33
1807.52
1865.36
1899
1902.15
1870.85
1418.73
1427.89
1404.26
1353.84
1284.35
1202.99
1115.43
1025.76
936.701
849.92
766.371
686.513
610.481
538.207
469.497
404.089
341.69
282
224.744
169.686
116.669
65.6448
16.7387
-29.6753
-72.8624
-111.586
-143.953
-167.313
-178.36
-173.724
-151.456
-113.546
-68.321
-28.7371
-2.67572
8.82448
9.28424
4.40208
0.664208
4.62351
22.1344
56.8203
107.453
165.443
216.768
252.567
271.033
274.845
268.482
256.702
243.992
234.521
232.182
240.363
261.107
293.547
332.383
369.043
398.121
418.509
431.83
440.8
448.29
457.002
469.471
488.184
515.628
554.098
605.044
667.91
738.994
812.269
884.027
953.68
1022.6
1092.9
1166.71
1245.87
1331.85
1425.67
1527.84
1638.04
1754.57
1873.84
1990.03
2095.77
2181.99
2237.78
2251.63
2214.82
1690.35
1699.49
1658.12
1580.32
1480.63
1370.32
1256.95
1145.1
1037.31
934.821
838.06
747.002
661.359
580.707
504.558
432.4
363.721
298.031
234.864
173.801
114.487
56.6657
0.239409
-54.6353
-107.386
-156.772
-200.515
-234.817
-253.937
-250.326
-216.576
-151.207
-68.8007
-3.42789
30.7555
36.1916
22.0265
-1.29405
-23.4652
-34.0014
-21.9664
22.3659
101.549
200.127
280.998
328.42
344.299
337.19
316.091
288.48
260.414
237.313
224.766
228.847
255.084
304.794
368.441
423.395
460.051
479.55
487.08
488.071
486.985
487.341
492.179
504.61
528.268
567.413
626.095
705.431
798.763
890
972.536
1047.58
1119.29
1192
1269.28
1353.91
1448.09
1553.68
1672.23
1804.69
1950.48
2105.85
2262.72
2412.1
2542.37
2636.87
2674.02
2632.82
2041.09
2043.75
1964.38
1838.27
1692.15
1542.01
1396.22
1258.54
1130.26
1011.44
901.513
799.67
705.029
616.707
533.858
455.687
381.442
310.419
241.948
175.393
110.153
45.6783
-18.4924
-82.6506
-146.75
-210.08
-270.663
-324.174
-362.238
-370.32
-327.219
-213.396
-44.7472
66.797
105.585
91.7866
47.9548
-8.6428
-64.3456
-105.125
-112.572
-62.2707
67.7176
260.308
393.391
449.692
450.662
419.677
373.073
320.91
269.683
224.903
193.407
185.421
215.258
295.966
417.012
504.091
546.678
557.82
551.734
538.324
523.595
511.216
503.943
504.858
518.597
552.583
617.387
722.783
861.531
980.241
1071.81
1146.26
1214.53
1284.49
1361.23
1448.14
1547.86
1662.99
1796.56
1952.1
2132.54
2335.67
2546.11
2755.89
2954.17
3118.5
3209.14
3172.5
2542.04
2506.09
2337.88
2124.98
1909.38
1707.42
1523.76
1358.37
1209.56
1075.21
953.28
841.932
739.567
644.794
556.396
473.292
394.501
319.112
246.255
175.073
104.701
34.2402
-37.2536
-110.761
-187.228
-267.352
-350.998
-435.777
-513.715
-564.017
-539.705
-354.54
61.527
241.779
256.125
190.617
92.2541
-17.2903
-126.725
-224.257
-286.343
-261.667
-56.2738
406.159
616.33
650.619
603.015
524.635
438.04
351.972
269.649
193.346
128.173
87.5157
102.156
229.032
514.474
648.827
678.559
660.871
626.909
590.448
556.795
527.709
503.887
486.611
479.74
493.345
550.197
692.074
953.113
1109.53
1195.68
1253.78
1307.28
1367.18
1438.49
1523.87
1625.39
1745.69
1889.16
2063.6
2281.83
2554.89
2830.36
3116.14
3414.77
3706.13
3927.44
3943.94
3403.73
3158.82
2775.63
2415.52
2106.93
1846.39
1624.94
1434.31
1268
1121.07
989.783
871.237
763.154
663.686
571.3
484.679
402.655
324.156
248.146
173.588
99.38
24.2943
-53.109
-134.599
-222.431
-319.538
-429.685
-557.213
-704.966
-865.139
-983.799
-828.167
507.381
655.664
521.657
336.761
152.659
-26.0874
-206.235
-394.415
-585.037
-721.282
-550.392
915.264
1092.54
969.463
799.681
641.42
502.242
377.643
260.95
145.766
27.6405
-90.0124
-172.558
-66.235
829.498
944.211
878.717
787.348
705.676
638.519
583.415
536.616
494.401
453.376
411.391
371.824
360.562
489.76
1195.33
1339.99
1359.92
1367.91
1390.8
1433.38
1495.46
1576.32
1675.84
1795
1937.09
2112
2352.1
2770.58
3099.67
3457.83
3885.74
4394.55
4940.58
5273.24
5433.86
4010.53
3180.05
2631.81
2235.18
1929.03
1681.68
1475.17
1298.47
1144.37
1007.9
885.443
774.302
672.354
577.877
489.422
405.717
325.595
247.934
171.586
95.3121
17.6777
-63.0854
-149.309
-244.277
-352.946
-483.34
-649.519
-878.321
-1226.02
-1822.85
-3000.86
2662.88
1476.02
860.45
481.749
205.34
-32.8723
-274.181
-561.055
-962.026
-1623.16
-2908.96
3279.62
2001.2
1355.54
979.73
730.704
545.433
391.913
250.063
102.412
-73.5812
-318.101
-719.246
-1498.26
2269.17
1499.06
1116.11
899.835
763.518
669.208
598.051
538.9
483.177
421.504
339.539
209.522
-31.3586
-542.558
2245.25
1749.99
1541.33
1460.53
1445.92
1471.47
1525.34
1601.84
1697.94
1811.25
1937.7
2066.45
2165.42
3114.9
3327.05
3698.95
4240.12
5029.2
6260.83
8411.07
55908
52870.2
49659.6
46286
42761.2
39097.8
35309.5
31410.2
27413.7
23334
19184.7
14979.1
10730.1
6450.27
2152.12
268.383
256.548
241.746
224.569
205.656
185.623
165.012
144.257
123.674
103.466
83.736
64.5013
45.7143
27.2791
9.06748
451.105
430.865
405.541
376.205
344
310.013
275.18
240.236
205.707
171.914
139.011
107.006
75.8003
45.2173
15.0276
639.749
610.25
573.333
530.695
484.115
435.24
385.45
335.797
286.999
239.473
193.388
148.711
105.264
62.7621
20.8534
837.152
797.029
746.821
689.105
626.505
561.363
495.568
430.49
367.009
305.587
246.353
189.185
133.781
79.714
26.4773
1046.72
993.861
927.786
852.374
771.411
688.119
604.95
523.568
444.946
369.502
297.246
227.894
160.961
95.8349
31.8198
1272.74
1203.88
1118.06
1021.17
918.624
814.733
712.525
613.866
519.683
430.214
345.225
264.176
186.333
110.843
36.7872
1520.86
1430.84
1319.4
1195.6
1067.16
939.645
816.54
699.676
589.69
486.427
389.25
297.245
209.348
124.416
41.2728
1798.81
1679.17
1533.05
1374.65
1214.75
1060.12
914.299
778.6
652.962
536.539
428.09
326.197
229.391
136.197
45.1602
2117.74
1953.92
1758.9
1555.16
1357.02
1171.74
1001.9
847.443
707.002
578.663
460.359
350.054
245.815
145.819
48.3298
2494.52
2259.83
1993.41
1730.02
1486.4
1267.88
1074.08
902.24
748.919
610.736
484.614
367.834
257.99
152.929
50.6688
2955.05
2597.42
2224.85
1885.07
1590.63
1339.29
1124.28
938.489
775.675
630.727
499.514
378.665
265.376
157.235
52.0843
3535.89
2949.84
2423.43
1994.71
1651.72
1374.3
1145.24
951.735
784.543
636.966
504.032
381.926
267.608
158.545
52.5169
4257.52
3242.56
2524.21
2018.58
1647.18
1360.91
1130.62
938.639
773.772
628.542
497.705
377.388
264.58
156.814
51.9548
4885.93
3238.57
2412.22
1908.17
1557.47
1291.49
1077.65
898.408
743.341
605.706
480.844
365.33
256.504
152.175
50.4419
47.4823
142.747
238.912
336.588
436.396
538.992
645.098
755.595
871.729
995.604
1131.34
1287.81
1485.39
1772.9
2271.24
47.9021
143.955
240.745
338.732
438.318
539.802
643.308
748.665
855.209
961.442
1064.33
1157.35
1223.49
1205.19
866.504
48.1484
144.649
241.742
339.759
438.912
539.196
640.219
740.895
838.888
929.584
1004.13
1045.52
1020.22
859.933
430.025
48.2528
144.929
242.094
339.991
438.711
538.066
637.358
734.975
827.62
908.923
966.943
979.982
910.673
701.896
292.247
48.238
144.867
241.933
339.645
438.061
536.966
635.648
732.492
824.212
904.413
960.971
971.614
897.953
683.339
275.883
48.1163
144.5
241.32
338.803
437.062
536.01
635.202
733.554
828.786
916.301
986.868
1021.77
983.1
798.686
359.728
47.8891
143.829
240.243
337.415
435.577
534.874
635.329
736.771
838.701
939.937
1037.52
1122.99
1169.44
1090.78
638.358
47.5492
142.826
238.635
335.334
433.293
532.924
634.76
739.639
849.082
966.085
1096.58
1251.27
1442.66
1642.42
1489.4
47.0855
141.451
236.406
332.373
429.84
529.429
632.067
739.327
854.198
982.842
1138.82
1354.05
1710.02
2439.03
4302.76
46.4864
139.664
233.47
328.366
424.903
523.807
626.152
733.717
849.737
980.596
1139.89
1359.08
1718.3
2447.59
4306.7
45.7443
137.441
229.774
323.213
418.314
515.784
616.601
722.224
834.957
958.583
1099.35
1266.84
1469.56
1671.51
1503.5
44.8572
134.774
225.306
316.903
410.074
505.426
603.699
705.78
812.601
924.648
1040.23
1150.1
1221.32
1152.33
671.808
43.8294
131.676
220.096
309.494
400.312
493.031
588.142
686.031
786.602
888.24
985.07
1060.19
1070.43
918.909
439.471
42.6701
128.18
214.203
301.094
389.225
478.966
570.646
664.407
759.85
855.155
944.963
1015.33
1031.85
913.192
484.561
41.3924
124.325
207.703
291.83
377.012
463.547
551.695
641.604
733.181
825.874
918.342
1007.83
1087.14
1122.72
904.983
40.0114
120.159
200.681
281.828
363.853
447.001
531.512
617.631
705.725
796.734
893.772
1007.4
1172.78
1508.13
2431.11
38.5432
115.73
193.22
271.213
349.908
429.502
510.203
592.278
676.233
763.393
857.671
970.996
1140.38
1485.44
2423.11
37.0044
111.09
185.407
260.106
335.332
411.228
487.933
565.61
644.506
725.095
808.329
895.652
985.949
1051.2
880.099
35.4113
106.288
177.326
248.628
320.287
392.384
464.979
538.087
611.593
684.95
756.133
818.23
848.903
781.06
440.613
33.7802
101.373
169.06
236.898
304.931
373.187
441.662
510.279
578.775
646.302
710.235
762.616
780.257
700.222
376.661
32.1261
96.39
160.686
225.028
289.416
353.833
418.237
482.549
546.62
610.141
672.349
731.116
779.429
788.488
611.149
30.4636
91.3835
152.279
213.123
273.877
334.483
394.87
454.977
514.84
574.881
636.842
706.864
805.85
1006.18
1571.29
28.8056
86.3928
143.904
201.278
258.437
315.28
371.691
427.567
482.928
538.278
595.73
662.486
761.877
970.552
1556.32
27.164
81.4534
135.623
189.58
243.211
296.371
348.879
400.51
451.017
500.207
548.148
595.436
642.003
673.035
559.772
25.5487
76.5959
127.488
178.106
228.308
277.912
326.671
374.228
420.013
462.995
501.012
528.878
532.909
475.712
262.024
23.9681
71.8451
119.541
166.918
213.818
260.035
305.292
349.17
390.95
429.225
460.918
478.864
466.327
387.057
179.801
22.4282
67.2196
111.812
156.061
199.798
242.821
284.867
325.564
364.316
400.021
430.363
450.012
446.081
387.274
203.372
20.9331
62.7311
104.322
145.556
186.271
226.281
265.374
303.305
339.793
374.535
407.228
437.529
463.938
474.359
381.693
19.485
58.3858
97.0765
135.41
173.231
210.376
246.685
282.043
316.478
350.466
385.748
427.744
492.89
633.026
1025.79
18.0849
54.1857
90.0782
125.619
160.658
195.047
228.655
261.417
293.471
325.492
359.602
401.877
469.759
616.251
1019.45
16.7323
50.1295
83.3233
116.173
148.534
180.258
211.207
241.28
270.482
299.063
327.782
358.223
392.033
421.199
361.135
15.4262
46.214
76.8059
107.066
136.851
166.006
194.365
221.746
247.922
272.534
294.761
312.226
317.526
288.108
162.68
14.1649
42.4338
70.518
98.2876
125.602
152.303
178.201
203.045
226.444
247.658
265.044
274.672
267.124
221.688
103.066
12.9457
38.7814
64.4475
89.8239
114.778
139.156
162.766
185.344
206.481
225.436
240.713
249.043
243.031
206.089
104.223
11.7651
35.2461
58.5774
81.6523
104.352
126.54
148.044
168.643
188.031
205.765
221.203
233.372
240.414
235.576
179.393
10.6186
31.8143
52.8845
73.7397
94.2815
114.396
133.949
152.782
170.726
187.688
203.962
221.26
246.045
300.718
464.703
9.50051
28.4692
47.3399
66.0438
84.5057
102.641
120.353
137.535
154.1
170.085
186.007
203.947
230.918
289.95
460.683
8.40476
25.1917
41.9105
58.5146
74.9551
91.1784
107.123
122.716
137.875
152.525
166.65
180.361
193.527
201.611
166.436
7.32454
21.961
36.5599
51.098
65.5541
79.9076
94.1346
108.196
122.002
135.328
147.579
157.15
159.664
143.313
78.9241
6.25297
18.7558
31.2507
43.7374
56.2229
68.7229
81.2601
93.8504
106.459
118.875
130.367
138.839
138.899
118.375
56.3138
5.1834
15.5556
25.9463
36.3764
46.8801
57.5108
68.3466
79.4902
91.0495
103.06
115.25
126.369
132.427
122.281
68.8183
4.10992
12.3419
20.6137
28.9632
37.4477
46.1545
55.2175
64.8393
75.3239
87.1204
100.873
117.411
137.206
156.266
139.776
3.02782
9.10008
15.2261
21.4551
27.8592
34.549
41.6982
49.5871
58.685
69.8195
84.5601
106.19
142.492
214.935
393.412
1.93396
5.82032
9.76591
13.8239
18.0707
22.6226
27.663
33.4929
40.6293
50.0118
63.4606
84.7757
122.677
199.966
387.514
0.827049
2.49874
4.2266
6.06001
8.06841
10.3547
13.0772
16.4889
21.0113
27.3776
36.8956
51.8407
75.5068
108.425
120.185
-0.292329
-0.86262
-1.38725
-1.82704
-2.12892
-2.21849
-1.98973
-1.28925
0.10989
2.55182
6.55895
12.8465
21.9088
31.5735
27.945
-1.42197
-4.25653
-7.0614
-9.81174
-12.476
-15.0154
-17.3872
-19.5556
-21.5188
-23.364
-25.3643
-28.0769
-32.11
-36.048
-28.0035
-2.55844
-7.67201
-12.775
-17.8583
-22.9124
-27.9317
-32.9292
-37.9681
-43.2329
-49.1754
-56.796
-68.086
-86.1965
-111.991
-117.259
-3.69755
-11.0959
-18.5039
-25.9277
-33.3758
-40.8667
-48.4461
-56.2276
-64.4804
-73.8253
-85.683
-103.361
-134.948
-202.19
-373.032
-4.8348
-14.5144
-24.2238
-33.9827
-43.8129
-53.7439
-63.8269
-74.1644
-84.9744
-96.7347
-110.532
-128.981
-158.94
-220.443
-380.238
-5.96557
-17.9135
-29.9115
-41.9914
-54.1839
-66.5201
-79.036
-91.7783
-104.814
-118.235
-132.154
-146.613
-161.028
-170.436
-141.214
-7.08514
-21.2795
-35.5449
-49.9254
-64.4593
-79.1767
-94.0935
-109.195
-124.392
-139.397
-153.406
-164.282
-166.596
-147.259
-78.025
-8.1886
-24.5978
-41.1014
-57.7567
-74.6122
-91.7009
-109.029
-126.553
-144.11
-161.259
-176.842
-187.903
-187.205
-158.735
-75.1266
-9.2705
-27.8525
-46.5556
-65.4535
-84.6087
-104.065
-123.838
-143.895
-164.121
-184.216
-203.427
-219.699
-227.11
-208.506
-118.512
-10.3247
-31.0254
-51.8782
-72.9768
-94.4025
-116.217
-138.458
-161.131
-184.232
-207.8
-232.066
-257.659
-285.092
-307.864
-264.009
-11.3439
-34.0951
-57.0341
-80.2785
-103.933
-128.083
-152.786
-178.081
-204.031
-230.911
-259.797
-294.355
-346.326
-453.507
-745.741
-12.3202
-37.0372
-61.9825
-87.3017
-113.128
-139.574
-166.716
-194.589
-223.199
-252.645
-283.606
-318.975
-369.239
-470.665
-752.355
-13.2442
-39.8238
-66.6764
-93.9797
-121.902
-150.592
-180.151
-210.6
-241.801
-273.345
-304.372
-333.271
-356.645
-362.664
-285.718
-14.1059
-42.4243
-71.0628
-100.236
-130.154
-161.017
-192.983
-226.105
-260.184
-294.423
-326.636
-351.427
-356.123
-312.297
-162.493
-14.8949
-44.8061
-75.0843
-105.982
-137.761
-170.691
-205.027
-240.963
-278.475
-316.931
-354.078
-383.56
-389.322
-335.546
-160.931
-15.6008
-46.9371
-78.6824
-111.126
-144.582
-179.402
-215.979
-254.747
-296.134
-340.372
-386.869
-432.193
-463.892
-442.734
-261.633
-16.2147
-48.7886
-81.8029
-115.576
-150.469
-186.909
-225.429
-266.736
-311.837
-362.271
-420.505
-490.322
-575.203
-661.022
-599.968
-16.7299
-50.3388
-84.4039
-119.261
-155.297
-192.989
-232.963
-276.114
-323.866
-378.786
-446.129
-538.029
-685.903
-981.352
-1729.23
-17.1431
-51.5771
-86.4636
-122.138
-158.991
-197.505
-238.315
-282.322
-330.946
-386.708
-454.739
-546.907
-694.173
-987.561
-1731.63
-17.4556
-52.5064
-87.9852
-124.209
-161.548
-200.447
-241.47
-285.354
-333.101
-386.147
-446.629
-517.568
-601.023
-680.868
-607.859
-17.673
-53.1439
-88.9986
-125.521
-163.038
-201.936
-242.666
-285.734
-331.612
-380.463
-431.301
-479.587
-510.431
-480.376
-277.678
-17.8054
-53.5209
-89.558
-126.156
-163.589
-202.176
-242.267
-284.194
-328.095
-373.441
-417.795
-453.767
-462.181
-399.819
-192.422
-17.8672
-53.6807
-89.7384
-126.225
-163.359
-201.396
-240.623
-281.318
-323.615
-367.153
-410.159
-447.138
-463.135
-420.029
-230.415
-17.8762
-53.6773
-89.6313
-125.861
-162.523
-199.815
-237.991
-277.366
-318.317
-361.285
-406.761
-455.144
-505.197
-542.043
-456.787
-17.8534
-53.5742
-89.3435
-125.214
-161.27
-197.646
-234.559
-272.358
-311.664
-353.726
-401.404
-462.06
-556.511
-748.938
-1258.46
-17.8228
-53.444
-88.9969
-124.454
-159.815
-195.134
-230.545
-266.342
-303.145
-342.322
-387.096
-445.586
-539.88
-735.759
-1253.21
-17.8114
-53.3678
-88.7285
-123.776
-158.414
-192.585
-226.296
-259.667
-293.023
-327.09
-363.33
-404.325
-452.799
-499.399
-439.257
-17.8483
-53.4339
-88.6889
-123.399
-157.359
-190.385
-222.32
-253.042
-282.455
-310.407
-336.328
-357.946
-367.105
-337.261
-193.698
-17.9641
-53.7362
-89.039
-123.558
-156.975
-188.972
-219.221
-247.366
-272.95
-295.192
-312.379
-320.29
-308.575
-254.166
-117.508
-18.1905
-54.3704
-89.9444
-124.498
-157.6
-188.801
-217.618
-243.51
-265.812
-283.543
-294.938
-296.334
-279.768
-228.255
-109.655
-18.5583
-55.4316
-91.569
-126.46
-159.567
-190.313
-218.078
-242.188
-261.897
-276.35
-284.502
-284.931
-275.311
-249.011
-171.786
-19.0969
-57.0093
-94.0689
-129.677
-163.192
-193.92
-221.109
-243.961
-261.678
-273.591
-279.491
-280.59
-282.53
-305.24
-418.978
-19.8324
-59.1846
-97.586
-134.361
-168.773
-200.01
-227.181
-249.333
-265.533
-275.062
-277.876
-275.748
-275.434
-298.413
-415.981
-20.7865
-62.0246
-102.241
-140.698
-176.576
-208.947
-236.764
-258.869
-274.061
-281.249
-279.753
-269.721
-252.264
-226.057
-161.291
-21.9744
-65.5782
-108.125
-148.838
-186.83
-221.069
-250.34
-273.235
-288.18
-293.512
-287.611
-268.918
-235.252
-180.577
-85.7343
-23.403
-69.8691
-115.289
-158.875
-199.705
-236.658
-268.364
-293.147
-309.003
-313.612
-304.398
-278.561
-232.889
-163.051
-63.428
-25.0686
-74.8894
-123.731
-170.835
-215.282
-255.907
-291.215
-319.28
-337.66
-343.341
-332.763
-302.015
-247.346
-166.245
-60.0515
-26.9544
-80.592
-133.383
-184.647
-233.521
-278.86
-319.108
-352.154
-375.155
-384.381
-375.158
-342.111
-280.183
-186.886
-66.3435
-29.0291
-86.8842
-144.097
-200.122
-254.223
-305.354
-352.011
-392.012
-422.228
-438.25
-434.105
-402.283
-334.817
-226.459
-81.0734
-31.2448
-93.6232
-155.638
-216.937
-276.99
-334.96
-389.538
-438.669
-479.163
-506.132
-512.273
-487.216
-417.854
-291.748
-107.445
-33.5376
-100.615
-167.675
-234.619
-301.203
-366.923
-430.846
-491.319
-545.486
-588.478
-612.101
-602.913
-540.292
-397.449
-155.056
-35.8287
-107.618
-179.79
-252.551
-326.016
-400.133
-474.546
-548.341
-619.559
-684.266
-734.701
-755.705
-718.426
-572.272
-249.693
-38.0276
-114.354
-191.495
-269.991
-350.372
-433.132
-518.669
-607.139
-698.139
-789.949
-877.72
-948.95
-972.144
-869.586
-467.108
-40.0375
-120.523
-202.255
-286.117
-373.069
-464.195
-560.741
-664.162
-776.133
-898.413
-1032.2
-1175.52
-1313.16
-1375.12
-1053.78
-41.7617
-125.825
-211.535
-300.091
-392.86
-491.48
-598.019
-715.225
-846.942
-998.863
-1180.01
-1405.98
-1706.67
-2146.78
-2880.82
3448.9
2571.45
2041.61
1677.65
1403.4
1183.57
999.696
841.007
700.65
573.935
457.458
348.61
245.291
145.724
48.3365
1260.23
1642.42
1564.4
1395.46
1220.19
1057.25
909.181
774.57
651.256
537.124
430.299
329.139
232.2
138.179
45.8712
556.472
1032.93
1150.32
1117.62
1028.39
920.595
809.298
700.273
595.471
495.228
399.196
306.731
217.079
129.441
43.0128
294.706
672.764
840.429
879.031
849.454
786.349
707.82
623.029
536.507
450.4
365.607
282.365
200.554
119.862
39.874
179.709
458.696
620.15
687.769
693.784
662.798
610.678
546.973
477.243
404.65
330.934
256.999
183.248
109.791
36.5681
120.565
326.236
465.023
539.273
563.796
553.91
521.567
475.09
419.959
359.671
296.408
231.501
165.736
99.5562
33.2011
86.0421
240.217
354.703
425.297
457.693
460.607
442.262
409.207
366.247
316.75
263.018
206.594
148.507
89.4414
29.8662
63.9542
181.756
274.856
337.841
372.053
382.056
373.162
350.195
317.067
276.765
231.491
182.839
131.956
79.6787
26.6401
48.8833
140.445
215.917
270.359
303.216
316.621
313.829
298.232
272.862
240.227
202.306
160.629
116.371
70.443
23.5811
38.1203
110.305
171.579
217.859
247.883
262.426
263.381
253.048
233.698
207.354
175.725
140.21
101.943
61.8547
20.7302
30.173
87.7398
137.649
176.645
203.296
217.661
220.766
214.123
199.386
178.148
151.84
121.698
88.7778
53.9847
18.1123
24.1553
70.4907
111.294
143.999
167.237
180.712
184.916
180.812
169.584
152.46
130.614
105.113
76.9119
46.8632
15.7387
19.5088
57.0817
90.5609
117.925
137.953
150.199
154.832
152.446
143.873
130.049
111.922
90.4
66.3277
40.4878
13.6099
15.8653
46.5144
74.0728
96.9417
114.071
124.968
129.62
128.373
121.806
110.624
95.587
77.4563
56.9697
34.8323
11.7184
12.9724
38.0924
60.8396
79.943
94.5137
104.07
108.502
107.993
102.94
93.8736
81.3981
66.1471
48.757
29.8542
10.051
10.652
31.3173
50.1356
66.0904
78.4367
86.7303
90.8125
90.7659
86.8588
79.4888
69.135
56.3219
41.5939
25.5008
8.59088
8.77507
25.8243
41.4192
54.7422
65.1725
72.3132
75.9883
76.218
73.1809
67.1744
58.5784
47.8253
35.3778
21.7141
7.31933
7.24581
21.3406
34.2795
45.4019
54.1915
60.3011
63.5554
63.9372
61.5634
56.6568
49.5186
40.5044
30.0055
18.4347
6.21699
5.99201
17.6591
28.4007
37.6806
45.0705
50.2706
53.1159
53.5687
51.7036
47.6879
41.7605
34.2137
25.3769
15.6042
5.26467
4.95819
14.6199
23.5364
31.2711
37.4691
41.8744
44.3367
44.8087
43.3363
40.0454
35.126
28.818
21.3978
13.1671
4.44405
4.10114
12.0979
19.4923
25.9282
31.112
34.8266
36.9387
37.3979
36.231
33.533
29.4551
24.1941
17.981
11.0715
3.73795
3.38674
9.99397
16.1133
21.4542
25.7743
28.891
30.6879
31.1155
30.1883
27.978
24.6052
20.2309
15.0474
9.27017
3.13065
2.7877
8.22866
13.2746
17.6888
21.2719
23.8714
25.3871
25.7733
25.036
23.2296
20.4502
16.8292
12.5257
7.72023
2.60783
2.28197
6.73751
10.8742
14.5
17.452
19.6037
20.8703
21.2106
20.6256
19.1564
16.8793
13.901
10.3524
6.38327
2.15665
1.85148
5.46764
8.82829
11.7789
14.1874
15.9502
16.9964
17.2898
16.8287
15.6436
13.795
11.3685
8.4708
5.22496
1.76563
1.48122
4.37507
7.0669
9.43404
11.3709
12.7939
13.6448
13.8927
13.534
12.5914
11.1117
9.16292
6.83077
4.21479
1.42452
1.15853
3.42268
5.53078
7.3877
8.91094
10.0345
10.7117
10.9165
10.6445
9.91171
8.75377
7.22334
5.38766
3.32554
1.12417
0.872567
2.57855
4.16894
5.57285
6.72825
7.58483
8.10616
8.2711
8.0745
7.52701
6.65428
5.49552
4.10163
2.53287
0.856415
0.613761
1.81459
2.93644
3.93036
4.75283
5.36769
5.74784
5.87648
5.74793
5.3679
4.75316
3.93079
2.93687
1.81492
0.613884
0.373464
1.10538
1.79265